<event>
 8    1  0.1114333E+005  0.1043930E+01  0.7957747E-01            NaN
         13   -1    0    0    0    0  0.00000000000E+00  0.00000000000E+00  0.74505805969E-08  0.10566000000E+00  0.10566000000E+00 0.  1.
     999900   -1    0    0    0    0 -0.00000000000E+00 -0.00000000000E+00 -0.74505805969E-08  0.93827000000E+00  0.93827000000E+00 0. -1.
     999902    2    1    2    0    0 -0.17797832975E-01  0.56047219612E-02  0.14735558488E-01  0.10201536998E+01  0.10198765900E+01 0.  0.
     999903    2    3    3    0    0 -0.49472663167E-01  0.25837521371E-02 -0.11798736610E+00  0.12963261873E+00  0.20721416549E-01 0.  0.
         14    1    1    2    0    0  0.17797832975E-01 -0.56047219612E-02 -0.14735558488E-01  0.23776300192E-01  0.00000000000E+00 0.  1.
     999901    1    3    3    0    0  0.31674830192E-01  0.30209698241E-02  0.13272292459E+00  0.89052108107E+00  0.88000000000E+00 0.  1.
        -11    1    4    4    0    0 -0.84727011499E-02 -0.51129197754E-02 -0.39756572029E-01  0.40972853866E-01  0.51100000000E-03 0. -1.
         11    1    4    4    0    0 -0.40999962017E-01  0.76966719125E-02 -0.78230794073E-01  0.88659764867E-01  0.51100000000E-03 0.  1.
</event>
<event>
 8    1  0.1114333E+005  0.1043930E+01  0.7957747E-01            NaN
         13   -1    0    0    0    0  0.00000000000E+00  0.00000000000E+00  0.74505805969E-08  0.10566000000E+00  0.10566000000E+00 0.  1.
     999900   -1    0    0    0    0 -0.00000000000E+00 -0.00000000000E+00 -0.74505805969E-08  0.93827000000E+00  0.93827000000E+00 0. -1.
     999902    2    1    2    0    0 -0.10601184453E-01 -0.17715954720E-01 -0.18777093350E-01  0.10160226641E+01  0.10156393231E+01 0.  0.
     999903    2    3    3    0    0  0.95579526750E-01  0.73956784624E-01 -0.24846846185E-01  0.12489131772E+00  0.19375849667E-01 0.  0.
         14    1    1    2    0    0  0.10601184453E-01  0.17715954720E-01  0.18777093350E-01  0.27907335920E-01  0.00000000000E+00 0.  1.
     999901    1    3    3    0    0 -0.10618071120E+00 -0.91672739344E-01  0.60697528356E-02  0.89113134636E+00  0.88000000000E+00 0.  1.
        -11    1    4    4    0    0  0.37141843983E-01  0.18824974478E-01 -0.36627975553E-02  0.41803988392E-01  0.51100000000E-03 0. -1.
         11    1    4    4    0    0  0.58437682766E-01  0.55131810146E-01 -0.21184048630E-01  0.83087329325E-01  0.51100000000E-03 0.  1.
</event>
<event>
 8    1  0.1114333E+005  0.1043930E+01  0.7957747E-01            NaN
         13   -1    0    0    0    0  0.00000000000E+00  0.00000000000E+00  0.74505805969E-08  0.10566000000E+00  0.10566000000E+00 0.  1.
     999900   -1    0    0    0    0 -0.00000000000E+00 -0.00000000000E+00 -0.74505805969E-08  0.93827000000E+00  0.93827000000E+00 0. -1.
     999902    2    1    2    0    0 -0.42211046225E-02  0.73388447408E-02 -0.22343440493E-01  0.10200363670E+01  0.10197564828E+01 0.  0.
     999903    2    3    3    0    0 -0.29304247925E-01 -0.11839290466E-01  0.12211161718E+00  0.12769997937E+00  0.19928119206E-01 0.  0.
         14    1    1    2    0    0  0.42211046225E-02 -0.73388447408E-02  0.22343440493E-01  0.23893633031E-01  0.00000000000E+00 0.  1.
     999901    1    3    3    0    0  0.25083143302E-01  0.19178135207E-01 -0.14445505767E+00  0.89233638760E+00  0.88000000000E+00 0. -1.
        -11    1    4    4    0    0  0.49257017721E-03 -0.66989341962E-02  0.30158075804E-01  0.30901278322E-01  0.51100000000E-03 0.  1.
         11    1    4    4    0    0 -0.29796818102E-01 -0.51403562700E-02  0.91953541377E-01  0.96798701046E-01  0.51100000000E-03 0. -1.
</event>
<event>
 8    1  0.1114333E+005  0.1043930E+01  0.7957747E-01            NaN
         13   -1    0    0    0    0  0.00000000000E+00  0.00000000000E+00  0.74505805969E-08  0.10566000000E+00  0.10566000000E+00 0.  1.
     999900   -1    0    0    0    0 -0.00000000000E+00 -0.00000000000E+00 -0.74505805969E-08  0.93827000000E+00  0.93827000000E+00 0.  1.
     999902    2    1    2    0    0 -0.58356224326E-03  0.16688722182E-01  0.26884581902E-02  0.10270160472E+01  0.10268767596E+01 0.  0.
     999903    2    3    3    0    0 -0.17369185871E-01 -0.95727706141E-01 -0.91003514914E-01  0.13477314507E+00  0.20412705965E-01 0.  0.
         14    1    1    2    0    0  0.58356224326E-03 -0.16688722182E-01 -0.26884581902E-02  0.16913952832E-01  0.00000000000E+00 0. -1.
     999901    1    3    3    0    0  0.16785623628E-01  0.11241642832E+00  0.93691973105E-01  0.89224290210E+00  0.88000000000E+00 0. -1.
        -11    1    4    4    0    0 -0.42921902720E-02 -0.21777196929E-01 -0.10117002160E-01  0.24398443744E-01  0.51100000000E-03 0.  1.
         11    1    4    4    0    0 -0.13076995599E-01 -0.73950509212E-01 -0.80886512754E-01  0.11037470133E+00  0.51100000000E-03 0. -1.
</event>
<event>
 8    1  0.1114333E+005  0.1043930E+01  0.7957747E-01            NaN
         13   -1    0    0    0    0  0.00000000000E+00  0.00000000000E+00  0.74505805969E-08  0.10566000000E+00  0.10566000000E+00 0. -1.
     999900   -1    0    0    0    0 -0.00000000000E+00 -0.00000000000E+00 -0.74505805969E-08  0.93827000000E+00  0.93827000000E+00 0.  1.
     999902    2    1    2    0    0 -0.10071446646E-02 -0.51264742423E-03  0.23865403085E-01  0.10200378546E+01  0.10197580057E+01 0.  0.
     999903    2    3    3    0    0  0.81263174930E-01  0.40565587746E-01  0.91650066012E-01  0.13265372840E+00  0.30789714994E-01 0.  0.
         14    1    1    2    0    0  0.10071446646E-02  0.51264742423E-03 -0.23865403085E-01  0.23892145408E-01  0.00000000000E+00 0.  1.
     999901    1    3    3    0    0 -0.82270319595E-01 -0.41078235170E-01 -0.67784662926E-01  0.88738412619E+00  0.88000000000E+00 0. -1.
        -11    1    4    4    0    0 -0.14809181014E-02  0.46308000728E-02  0.93045331261E-02  0.10510608233E-01  0.51100000000E-03 0. -1.
         11    1    4    4    0    0  0.82744093031E-01  0.35934787673E-01  0.82345532886E-01  0.12214312017E+00  0.51100000000E-03 0.  1.
</event>
<event>
 8    1  0.1114333E+005  0.1043930E+01  0.7957747E-01            NaN
         13   -1    0    0    0    0  0.00000000000E+00  0.00000000000E+00  0.74505805969E-08  0.10566000000E+00  0.10566000000E+00 0. -1.
     999900   -1    0    0    0    0 -0.00000000000E+00 -0.00000000000E+00 -0.74505805969E-08  0.93827000000E+00  0.93827000000E+00 0.  1.
     999902    2    1    2    0    0 -0.22675205572E-01 -0.54252401741E-02  0.84920306048E-02  0.10191164399E+01  0.10188143135E+01 0.  0.
     999903    2    3    3    0    0  0.85398371516E-01 -0.52852593390E-01  0.77892537143E-01  0.12852917179E+00  0.19136932167E-01 0.  0.
         14    1    1    2    0    0  0.22675205572E-01  0.54252401741E-02 -0.84920306048E-02  0.24813560052E-01  0.00000000000E+00 0.  1.
     999901    1    3    3    0    0 -0.10807357709E+00  0.47427353216E-01 -0.69400506538E-01  0.89058726816E+00  0.88000000000E+00 0.  1.
        -11    1    4    4    0    0  0.44498797053E-01 -0.33109011870E-01  0.32358438008E-01  0.64215879948E-01  0.51100000000E-03 0.  1.
         11    1    4    4    0    0  0.40899574463E-01 -0.19743581520E-01  0.45534099135E-01  0.64313291842E-01  0.51100000000E-03 0. -1.
</event>
<event>
 8    1  0.1114333E+005  0.1043930E+01  0.7957747E-01            NaN
         13   -1    0    0    0    0  0.00000000000E+00  0.00000000000E+00  0.74505805969E-08  0.10566000000E+00  0.10566000000E+00 0. -1.
     999900   -1    0    0    0    0 -0.00000000000E+00 -0.00000000000E+00 -0.74505805969E-08  0.93827000000E+00  0.93827000000E+00 0.  1.
     999902    2    1    2    0    0 -0.61434978045E-02  0.11694087340E-01 -0.20650256463E-01  0.10194161807E+01  0.10191213972E+01 0.  0.
     999903    2    3    3    0    0 -0.11643015048E+00  0.24673950753E-01 -0.52975374903E-01  0.13184841660E+00  0.20318238753E-01 0.  0.
         14    1    1    2    0    0  0.61434978045E-02 -0.11694087340E-01  0.20650256463E-01  0.24513819286E-01  0.00000000000E+00 0. -1.
     999901    1    3    3    0    0  0.11028665268E+00 -0.12979863413E-01  0.32325118439E-01  0.88756776411E+00  0.88000000000E+00 0. -1.
        -11    1    4    4    0    0 -0.51124764400E-01  0.16088213238E-02 -0.17751092111E-01  0.54145103501E-01  0.51100000000E-03 0.  1.
         11    1    4    4    0    0 -0.65305386084E-01  0.23065129429E-01 -0.35224282791E-01  0.77703313098E-01  0.51100000000E-03 0. -1.
</event>
<event>
 8    1  0.1114333E+005  0.1043930E+01  0.7957747E-01            NaN
         13   -1    0    0    0    0  0.00000000000E+00  0.00000000000E+00  0.74505805969E-08  0.10566000000E+00  0.10566000000E+00 0.  1.
     999900   -1    0    0    0    0 -0.00000000000E+00 -0.00000000000E+00 -0.74505805969E-08  0.93827000000E+00  0.93827000000E+00 0.  1.
     999902    2    1    2    0    0 -0.16325404212E-01 -0.10706510622E-01  0.13760068715E-01  0.10200451160E+01  0.10197654392E+01 0.  0.
     999903    2    3    3    0    0  0.31620090316E-01 -0.17034242092E-01  0.12495201766E+00  0.13173072338E+00  0.21212761487E-01 0.  0.
         14    1    1    2    0    0  0.16325404212E-01  0.10706510622E-01 -0.13760068715E-01  0.23884883994E-01  0.00000000000E+00 0. -1.
     999901    1    3    3    0    0 -0.47945494528E-01  0.63277314699E-02 -0.11119194895E+00  0.88831439262E+00  0.88000000000E+00 0.  1.
        -11    1    4    4    0    0  0.42034140425E-02  0.19374163705E-02  0.43049785608E-01  0.43300894145E-01  0.51100000000E-03 0. -1.
         11    1    4    4    0    0  0.27416676274E-01 -0.18971658463E-01  0.81902232053E-01  0.88429829238E-01  0.51100000000E-03 0.  1.
</event>
<event>
 8    1  0.1114333E+005  0.1043930E+01  0.7957747E-01            NaN
         13   -1    0    0    0    0  0.00000000000E+00  0.00000000000E+00  0.74505805969E-08  0.10566000000E+00  0.10566000000E+00 0.  1.
     999900   -1    0    0    0    0 -0.00000000000E+00 -0.00000000000E+00 -0.74505805969E-08  0.93827000000E+00  0.93827000000E+00 0. -1.
     999902    2    1    2    0    0 -0.11090950141E-01  0.20222109842E-01  0.53125504387E-02  0.10202621718E+01  0.10199876142E+01 0.  0.
     999903    2    3    3    0    0 -0.14214583462E-01  0.12136349234E+00  0.49837242622E-01  0.13334516067E+00  0.19131896579E-01 0.  0.
         14    1    1    2    0    0  0.11090950141E-01 -0.20222109842E-01 -0.53125504387E-02  0.23667828241E-01  0.00000000000E+00 0. -1.
     999901    1    3    3    0    0  0.31236333214E-02 -0.10114138250E+00 -0.44524692183E-01  0.88691701109E+00  0.88000000000E+00 0. -1.
        -11    1    4    4    0    0 -0.18357741757E-01  0.93943655946E-01  0.35239917598E-01  0.10200259844E+00  0.51100000000E-03 0. -1.
         11    1    4    4    0    0  0.41431582952E-02  0.27419836395E-01  0.14597325024E-01  0.31342562235E-01  0.51100000000E-03 0.  1.
</event>
<event>
 8    1  0.1114333E+005  0.1043930E+01  0.7957747E-01            NaN
         13   -1    0    0    0    0  0.00000000000E+00  0.00000000000E+00  0.74505805969E-08  0.10566000000E+00  0.10566000000E+00 0.  1.
     999900   -1    0    0    0    0 -0.00000000000E+00 -0.00000000000E+00 -0.74505805969E-08  0.93827000000E+00  0.93827000000E+00 0.  1.
     999902    2    1    2    0    0 -0.20586221756E-02  0.11307729487E-01  0.20505981059E-01  0.10204225984E+01  0.10201517933E+01 0.  0.
     999903    2    3    3    0    0  0.42153651375E-01  0.11582048204E+00  0.46315821755E-01  0.13276061967E+00  0.16997423570E-01 0.  0.
         14    1    1    2    0    0  0.20586221756E-02 -0.11307729487E-01 -0.20505981059E-01  0.23507401613E-01  0.00000000000E+00 0. -1.
     999901    1    3    3    0    0 -0.44212273551E-01 -0.10451275255E+00 -0.25809840697E-01  0.88766197871E+00  0.88000000000E+00 0. -1.
        -11    1    4    4    0    0  0.23359930700E-02  0.26272545371E-01  0.85314594446E-02  0.27726348933E-01  0.51100000000E-03 0. -1.
         11    1    4    4    0    0  0.39817658305E-01  0.89547936664E-01  0.37784362311E-01  0.10503427074E+00  0.51100000000E-03 0.  1.
</event>
<event>
 7    1  0.1114333E+005  0.1043930E+01  0.7957747E-01            NaN
         13   -1    0    0    0    0  0.00000000000E+00  0.00000000000E+00  0.74505805969E-08  0.10566000000E+00  0.10566000000E+00 0.  1.
     999900   -1    0    0    0    0 -0.00000000000E+00 -0.00000000000E+00 -0.74505805969E-08  0.93827000000E+00  0.93827000000E+00 0. -1.
     999902    2    1    2    0    0  0.70606533882E-02 -0.21910071991E-01  0.76610510568E-02  0.10196690069E+01  0.10193803451E+01 0.  0.
         14    1    1    2    0    0 -0.70606533882E-02  0.21910071991E-01 -0.76610510568E-02  0.24260993059E-01  0.00000000000E+00 0. -1.
     999901    1    3    3    0    0  0.91208936260E-01  0.57919014336E-01  0.56291605622E-01  0.88839317148E+00  0.88000000000E+00 0.  1.
        -11    1    3    3    0    0 -0.17048038731E-01 -0.20285019155E-01  0.46904680344E-02  0.26914294307E-01  0.51100000000E-03 0.  1.
         11    1    3    3    0    0 -0.67100244141E-01 -0.59544067172E-01 -0.53321022600E-01  0.10436154115E+00  0.51100000000E-03 0. -1.
</event>
<event>
 8    1  0.1114333E+005  0.1043930E+01  0.7957747E-01            NaN
         13   -1    0    0    0    0  0.00000000000E+00  0.00000000000E+00  0.74505805969E-08  0.10566000000E+00  0.10566000000E+00 0.  1.
     999900   -1    0    0    0    0 -0.00000000000E+00 -0.00000000000E+00 -0.74505805969E-08  0.93827000000E+00  0.93827000000E+00 0.  1.
     999902    2    1    2    0    0  0.19968009633E-01  0.15219463062E-02  0.20465313722E-02  0.10237997735E+01  0.10236018514E+01 0.  0.
     999903    2    3    3    0    0 -0.33437674187E-01 -0.41340655859E-01  0.12046494481E+00  0.13323125260E+00  0.20288811199E-01 0.  0.
         14    1    1    2    0    0 -0.19968009633E-01 -0.15219463062E-02 -0.20465313722E-02  0.20130226525E-01  0.00000000000E+00 0. -1.
     999901    1    3    3    0    0  0.53405683820E-01  0.42862602166E-01 -0.11841841344E+00  0.89056852087E+00  0.88000000000E+00 0.  1.
        -11    1    4    4    0    0 -0.29606093487E-01 -0.25799420845E-01  0.98559471569E-01  0.10609600108E+00  0.51100000000E-03 0.  1.
         11    1    4    4    0    0 -0.38315806999E-02 -0.15541235014E-01  0.21905473242E-01  0.27135251526E-01  0.51100000000E-03 0. -1.
</event>
<event>
 8    1  0.1114333E+005  0.1043930E+01  0.7957747E-01            NaN
         13   -1    0    0    0    0  0.00000000000E+00  0.00000000000E+00  0.74505805969E-08  0.10566000000E+00  0.10566000000E+00 0. -1.
     999900   -1    0    0    0    0 -0.00000000000E+00 -0.00000000000E+00 -0.74505805969E-08  0.93827000000E+00  0.93827000000E+00 0. -1.
     999902    2    1    2    0    0 -0.22176035945E-01  0.57938690938E-03 -0.13430212013E-02  0.10217057798E+01  0.10214640397E+01 0.  0.
     999903    2    3    3    0    0  0.91992625879E-01  0.29770755661E-01  0.84275621309E-01  0.12973202942E+00  0.19469925545E-01 0.  0.
         14    1    1    2    0    0  0.22176035945E-01 -0.57938690938E-03  0.13430212013E-02  0.22224220242E-01  0.00000000000E+00 0.  1.
     999901    1    3    3    0    0 -0.11416866182E+00 -0.29191368752E-01 -0.85618642510E-01  0.89197375034E+00  0.88000000000E+00 0. -1.
        -11    1    4    4    0    0  0.43106239892E-01  0.38707979706E-02  0.35628245963E-01  0.56060360558E-01  0.51100000000E-03 0. -1.
         11    1    4    4    0    0  0.48886385987E-01  0.25899957690E-01  0.48647375347E-01  0.73671668858E-01  0.51100000000E-03 0.  1.
</event>
<event>
 8    1  0.1114333E+005  0.1043930E+01  0.7957747E-01            NaN
         13   -1    0    0    0    0  0.00000000000E+00  0.00000000000E+00  0.74505805969E-08  0.10566000000E+00  0.10566000000E+00 0. -1.
     999900   -1    0    0    0    0 -0.00000000000E+00 -0.00000000000E+00 -0.74505805969E-08  0.93827000000E+00  0.93827000000E+00 0. -1.
     999902    2    1    2    0    0  0.10178558081E-01  0.18297215150E-01  0.10782176985E-01  0.10203790665E+01  0.10201072458E+01 0.  0.
     999903    2    3    3    0    0 -0.92667787299E-01 -0.55199237905E-01 -0.66102932519E-01  0.12802800364E+00  0.19679871974E-01 0.  0.
         14    1    1    2    0    0 -0.10178558081E-01 -0.18297215150E-01 -0.10782176985E-01  0.23550933471E-01  0.00000000000E+00 0.  1.
     999901    1    3    3    0    0  0.10284634538E+00  0.73496453055E-01  0.76885109503E-01  0.89235106289E+00  0.88000000000E+00 0.  1.
        -11    1    4    4    0    0 -0.72627495627E-01 -0.46060276157E-01 -0.43181611598E-01  0.96235205938E-01  0.51100000000E-03 0.  1.
         11    1    4    4    0    0 -0.20040291672E-01 -0.91389617481E-02 -0.22921320921E-01  0.31792797705E-01  0.51100000000E-03 0. -1.
</event>
<event>
 8    1  0.1114333E+005  0.1043930E+01  0.7957747E-01            NaN
         13   -1    0    0    0    0  0.00000000000E+00  0.00000000000E+00  0.74505805969E-08  0.10566000000E+00  0.10566000000E+00 0. -1.
     999900   -1    0    0    0    0 -0.00000000000E+00 -0.00000000000E+00 -0.74505805969E-08  0.93827000000E+00  0.93827000000E+00 0. -1.
     999902    2    1    2    0    0 -0.14814161607E-01 -0.84016766037E-02  0.16342734226E-01  0.10203263453E+01  0.10200532919E+01 0.  0.
     999903    2    3    3    0    0 -0.11829627516E+00  0.31879844333E-01 -0.43030789397E-01  0.13136269920E+00  0.19853884067E-01 0.  0.
         14    1    1    2    0    0  0.14814161607E-01  0.84016766037E-02 -0.16342734226E-01  0.23603654714E-01  0.00000000000E+00 0. -1.
     999901    1    3    3    0    0  0.10348211356E+00 -0.40281520936E-01  0.59373523623E-01  0.88896364609E+00  0.88000000000E+00 0.  1.
        -11    1    4    4    0    0 -0.92228562833E-01  0.16718625302E-01 -0.35884629188E-01  0.10036726542E+00  0.51100000000E-03 0.  1.
         11    1    4    4    0    0 -0.26067712331E-01  0.15161219031E-01 -0.71461602088E-02  0.30995433783E-01  0.51100000000E-03 0. -1.
</event>
<event>
 8    1  0.1114333E+005  0.1043930E+01  0.7957747E-01            NaN
         13   -1    0    0    0    0  0.00000000000E+00  0.00000000000E+00  0.74505805969E-08  0.10566000000E+00  0.10566000000E+00 0. -1.
     999900   -1    0    0    0    0 -0.00000000000E+00 -0.00000000000E+00 -0.74505805969E-08  0.93827000000E+00  0.93827000000E+00 0.  1.
     999902    2    1    2    0    0 -0.16889920596E-01 -0.10214641784E-01  0.15271421414E-01  0.10189735452E+01  0.10186678856E+01 0.  0.
     999903    2    3    3    0    0 -0.42690284171E-01  0.95261586736E-01  0.73456593658E-01  0.13039242463E+00  0.26628612057E-01 0.  0.
         14    1    1    2    0    0  0.16889920596E-01  0.10214641784E-01 -0.15271421414E-01  0.24956454807E-01  0.00000000000E+00 0.  1.
     999901    1    3    3    0    0  0.25800363575E-01 -0.10547622852E+00 -0.58185172244E-01  0.88858112056E+00  0.88000000000E+00 0. -1.
        -11    1    4    4    0    0 -0.31848538014E-01  0.65469345636E-01  0.64941051483E-01  0.97561087941E-01  0.51100000000E-03 0. -1.
         11    1    4    4    0    0 -0.10841746158E-01  0.29792241100E-01  0.85155421753E-02  0.32831336693E-01  0.51100000000E-03 0.  1.
</event>
<event>
 8    1  0.1114333E+005  0.1043930E+01  0.7957747E-01            NaN
         13   -1    0    0    0    0  0.00000000000E+00  0.00000000000E+00  0.74505805969E-08  0.10566000000E+00  0.10566000000E+00 0. -1.
     999900   -1    0    0    0    0 -0.00000000000E+00 -0.00000000000E+00 -0.74505805969E-08  0.93827000000E+00  0.93827000000E+00 0.  1.
     999902    2    1    2    0    0  0.14314750209E-01 -0.20147328251E-01 -0.96869173051E-03  0.10191961108E+01  0.10188959452E+01 0.  0.
     999903    2    3    3    0    0 -0.55161581756E-01  0.58412936225E-01 -0.97426127432E-01  0.12773511183E+00  0.19223352146E-01 0.  0.
         14    1    1    2    0    0 -0.14314750209E-01  0.20147328251E-01  0.96869173051E-03  0.24733889157E-01  0.00000000000E+00 0. -1.
     999901    1    3    3    0    0  0.69476331965E-01 -0.78560264476E-01  0.96457435701E-01  0.89146099901E+00  0.88000000000E+00 0. -1.
        -11    1    4    4    0    0 -0.43314430711E-01  0.43162960810E-01 -0.85199246863E-01  0.10487303696E+00  0.51100000000E-03 0. -1.
         11    1    4    4    0    0 -0.11847151045E-01  0.15249975415E-01 -0.12226880568E-01  0.22862074872E-01  0.51100000000E-03 0.  1.
</event>
<event>
 8    1  0.1114333E+005  0.1043930E+01  0.7957747E-01            NaN
         13   -1    0    0    0    0  0.00000000000E+00  0.00000000000E+00  0.74505805969E-08  0.10566000000E+00  0.10566000000E+00 0.  1.
     999900   -1    0    0    0    0 -0.00000000000E+00 -0.00000000000E+00 -0.74505805969E-08  0.93827000000E+00  0.93827000000E+00 0.  1.
     999902    2    1    2    0    0  0.10748996162E-01 -0.85612269427E-02 -0.19500512857E-01  0.10200740673E+01  0.10197950761E+01 0.  0.
     999903    2    3    3    0    0  0.89954367611E-01  0.82540014849E-01 -0.44647036521E-01  0.13147670356E+00  0.19700847829E-01 0.  0.
         14    1    1    2    0    0 -0.10748996162E-01  0.85612269427E-02  0.19500512857E-01  0.23855932741E-01  0.00000000000E+00 0.  1.
     999901    1    3    3    0    0 -0.79205371448E-01 -0.91101241791E-01  0.25146523664E-01  0.88859736370E+00  0.88000000000E+00 0. -1.
        -11    1    4    4    0    0  0.35471767806E-01  0.36907339269E-01 -0.90352961414E-02  0.51983609923E-01  0.51100000000E-03 0. -1.
         11    1    4    4    0    0  0.54482599805E-01  0.45632675579E-01 -0.35611740380E-01  0.79493093636E-01  0.51100000000E-03 0.  1.
</event>
<event>
 8    1  0.1114333E+005  0.1043930E+01  0.7957747E-01            NaN
         13   -1    0    0    0    0  0.00000000000E+00  0.00000000000E+00  0.74505805969E-08  0.10566000000E+00  0.10566000000E+00 0. -1.
     999900   -1    0    0    0    0 -0.00000000000E+00 -0.00000000000E+00 -0.74505805969E-08  0.93827000000E+00  0.93827000000E+00 0. -1.
     999902    2    1    2    0    0 -0.33799054923E-02 -0.22054891600E-01  0.81648595411E-02  0.10201706453E+01  0.10198939350E+01 0.  0.
     999903    2    3    3    0    0 -0.15579777298E-01  0.34205283238E-01  0.12360214267E+00  0.13076645682E+00  0.20239705910E-01 0.  0.
         14    1    1    2    0    0  0.33799054923E-02  0.22054891600E-01 -0.81648595411E-02  0.23759354704E-01  0.00000000000E+00 0.  1.
     999901    1    3    3    0    0  0.12199871805E-01 -0.56260174839E-01 -0.11543728312E+00  0.88940418848E+00  0.88000000000E+00 0. -1.
        -11    1    4    4    0    0 -0.71188947580E-02  0.34515662839E-02  0.48893785613E-01  0.49532366842E-01  0.51100000000E-03 0.  1.
         11    1    4    4    0    0 -0.84608825396E-02  0.30753716954E-01  0.74708357053E-01  0.81234089977E-01  0.51100000000E-03 0. -1.
</event>
<event>
 8    1  0.1114333E+005  0.1043930E+01  0.7957747E-01            NaN
         13   -1    0    0    0    0  0.00000000000E+00  0.00000000000E+00  0.74505805969E-08  0.10566000000E+00  0.10566000000E+00 0. -1.
     999900   -1    0    0    0    0 -0.00000000000E+00 -0.00000000000E+00 -0.74505805969E-08  0.93827000000E+00  0.93827000000E+00 0.  1.
     999902    2    1    2    0    0  0.71353441800E-02  0.22611955050E-01 -0.59155601376E-02  0.10194921707E+01  0.10191992340E+01 0.  0.
     999903    2    3    3    0    0 -0.73857951954E-01 -0.61363954189E-01 -0.82919311329E-01  0.12845825159E+00  0.20134007819E-01 0.  0.
         14    1    1    2    0    0 -0.71353441800E-02 -0.22611955050E-01  0.59155601376E-02  0.24437829271E-01  0.00000000000E+00 0. -1.
     999901    1    3    3    0    0  0.80993296134E-01  0.83975909239E-01  0.77003751192E-01  0.89103391913E+00  0.88000000000E+00 0. -1.
        -11    1    4    4    0    0 -0.49950133526E-01 -0.38478600970E-01 -0.66022046736E-01  0.91295072968E-01  0.51100000000E-03 0. -1.
         11    1    4    4    0    0 -0.23907818428E-01 -0.22885353219E-01 -0.16897264593E-01  0.37163178627E-01  0.51100000000E-03 0.  1.
</event>
<event>
 8    1  0.1114333E+005  0.1043930E+01  0.7957747E-01            NaN
         13   -1    0    0    0    0  0.00000000000E+00  0.00000000000E+00  0.74505805969E-08  0.10566000000E+00  0.10566000000E+00 0.  1.
     999900   -1    0    0    0    0 -0.00000000000E+00 -0.00000000000E+00 -0.74505805969E-08  0.93827000000E+00  0.93827000000E+00 0. -1.
     999902    2    1    2    0    0 -0.98170434385E-02  0.19615533033E-01  0.11449060605E-01  0.10191868299E+01  0.10188864361E+01 0.  0.
     999903    2    3    3    0    0  0.53877160288E-01 -0.10731752045E+00 -0.29727051700E-01  0.12685033290E+00  0.28062622045E-01 0.  0.
         14    1    1    2    0    0  0.98170434385E-02 -0.19615533033E-01 -0.11449060605E-01  0.24743170104E-01  0.00000000000E+00 0. -1.
     999901    1    3    3    0    0 -0.63694203727E-01  0.12693305349E+00  0.41176112305E-01  0.89233649700E+00  0.88000000000E+00 0.  1.
        -11    1    4    4    0    0  0.89789818580E-03 -0.27108748420E-01 -0.48856018495E-02  0.27564845156E-01  0.51100000000E-03 0. -1.
         11    1    4    4    0    0  0.52979262103E-01 -0.80208772032E-01 -0.24841449851E-01  0.99285487739E-01  0.51100000000E-03 0.  1.
</event>
<event>
 8    1  0.1114333E+005  0.1043930E+01  0.7957747E-01            NaN
         13   -1    0    0    0    0  0.00000000000E+00  0.00000000000E+00  0.74505805969E-08  0.10566000000E+00  0.10566000000E+00 0.  1.
     999900   -1    0    0    0    0 -0.00000000000E+00 -0.00000000000E+00 -0.74505805969E-08  0.93827000000E+00  0.93827000000E+00 0. -1.
     999902    2    1    2    0    0 -0.13331587886E-01 -0.92155936796E-02 -0.17324388795E-01  0.10202067445E+01  0.10199308843E+01 0.  0.
     999903    2    3    3    0    0 -0.56496693721E-01 -0.74791917123E-01 -0.92902636618E-01  0.13348494369E+00  0.20040534761E-01 0.  0.
         14    1    1    2    0    0  0.13331587886E-01  0.92155936796E-02  0.17324388795E-01  0.23723255458E-01  0.00000000000E+00 0.  1.
     999901    1    3    3    0    0  0.43165105835E-01  0.65576323443E-01  0.75578247824E-01  0.88672180085E+00  0.88000000000E+00 0.  1.
        -11    1    4    4    0    0 -0.45693870449E-01 -0.70848306456E-01 -0.80594900347E-01  0.11663280588E+00  0.51100000000E-03 0. -1.
         11    1    4    4    0    0 -0.10802823272E-01 -0.39436106667E-02 -0.12307736271E-01  0.16852137813E-01  0.51100000000E-03 0.  1.
</event>
<event>
 8    1  0.1114333E+005  0.1043930E+01  0.7957747E-01            NaN
         13   -1    0    0    0    0  0.00000000000E+00  0.00000000000E+00  0.74505805969E-08  0.10566000000E+00  0.10566000000E+00 0.  1.
     999900   -1    0    0    0    0 -0.00000000000E+00 -0.00000000000E+00 -0.74505805969E-08  0.93827000000E+00  0.93827000000E+00 0. -1.
     999902    2    1    2    0    0  0.19442250897E-01 -0.75639096651E-02 -0.10517744562E-01  0.10205668495E+01  0.10202993960E+01 0.  0.
     999903    2    3    3    0    0 -0.77203912355E-01  0.97475632470E-01  0.25063871638E-01  0.12835620305E+00  0.19625855153E-01 0.  0.
         14    1    1    2    0    0 -0.19442250897E-01  0.75639096651E-02  0.10517744562E-01  0.23363150473E-01  0.00000000000E+00 0.  1.
     999901    1    3    3    0    0  0.96646163251E-01 -0.10503954214E+00 -0.35581616199E-01  0.89221064648E+00  0.88000000000E+00 0.  1.
        -11    1    4    4    0    0 -0.36183657340E-01  0.41987110644E-01  0.15421934175E-02  0.55451005404E-01  0.51100000000E-03 0.  1.
         11    1    4    4    0    0 -0.41020255014E-01  0.55488521826E-01  0.23521678220E-01  0.72905197642E-01  0.51100000000E-03 0. -1.
</event>
<event>
 8    1  0.1114333E+005  0.1043930E+01  0.7957747E-01            NaN
         13   -1    0    0    0    0  0.00000000000E+00  0.00000000000E+00  0.74505805969E-08  0.10566000000E+00  0.10566000000E+00 0. -1.
     999900   -1    0    0    0    0 -0.00000000000E+00 -0.00000000000E+00 -0.74505805969E-08  0.93827000000E+00  0.93827000000E+00 0.  1.
     999902    2    1    2    0    0  0.17344642879E-01 -0.12576730753E-01 -0.91732769932E-02  0.10206242109E+01  0.10203580843E+01 0.  0.
     999903    2    3    3    0    0  0.12235437653E+00  0.43258634720E-01 -0.19966713302E-01  0.13255826155E+00  0.18196706619E-01 0.  0.
         14    1    1    2    0    0 -0.17344642879E-01  0.12576730753E-01  0.91732769932E-02  0.23305789063E-01  0.00000000000E+00 0. -1.
     999901    1    3    3    0    0 -0.10500973365E+00 -0.55835365473E-01  0.10793436309E-01  0.88806594939E+00  0.88000000000E+00 0. -1.
        -11    1    4    4    0    0  0.97192578504E-01  0.41420364289E-01 -0.18687801722E-01  0.10729184008E+00  0.51100000000E-03 0. -1.
         11    1    4    4    0    0  0.25161798021E-01  0.18382704317E-02 -0.12789115798E-02  0.25266421466E-01  0.51100000000E-03 0.  1.
</event>
<event>
 8    1  0.1114333E+005  0.1043930E+01  0.7957747E-01            NaN
         13   -1    0    0    0    0  0.00000000000E+00  0.00000000000E+00  0.74505805969E-08  0.10566000000E+00  0.10566000000E+00 0. -1.
     999900   -1    0    0    0    0 -0.00000000000E+00 -0.00000000000E+00 -0.74505805969E-08  0.93827000000E+00  0.93827000000E+00 0.  1.
     999902    2    1    2    0    0 -0.90923437727E-02  0.24439247072E-01  0.21817783387E-01  0.10099305414E+01  0.10093580808E+01 0.  0.
     999903    2    3    3    0    0  0.11449738230E+00  0.33533211566E-01  0.56540699099E-02  0.12110075668E+00  0.19982440585E-01 0.  0.
         14    1    1    2    0    0  0.90923437727E-02 -0.24439247072E-01 -0.21817783387E-01  0.33999458594E-01  0.00000000000E+00 0.  1.
     999901    1    3    3    0    0 -0.12358972607E+00 -0.90939644932E-02  0.16163713477E-01  0.88882978472E+00  0.88000000000E+00 0. -1.
        -11    1    4    4    0    0  0.30259103607E-01  0.11365018348E-01 -0.70065717095E-02  0.33077638387E-01  0.51100000000E-03 0. -1.
         11    1    4    4    0    0  0.84238278689E-01  0.22168193217E-01  0.12660641619E-01  0.88023118294E-01  0.51100000000E-03 0.  1.
</event>
<event>
 8    1  0.1114333E+005  0.1043930E+01  0.7957747E-01            NaN
         13   -1    0    0    0    0  0.00000000000E+00  0.00000000000E+00  0.74505805969E-08  0.10566000000E+00  0.10566000000E+00 0.  1.
     999900   -1    0    0    0    0 -0.00000000000E+00 -0.00000000000E+00 -0.74505805969E-08  0.93827000000E+00  0.93827000000E+00 0. -1.
     999902    2    1    2    0    0 -0.11719100654E-01 -0.11458495193E-01 -0.17231315838E-01  0.10201486485E+01  0.10198714196E+01 0.  0.
     999903    2    3    3    0    0 -0.12133456791E+00  0.29725354770E-01  0.33566485844E-01  0.13093996840E+00  0.20319750636E-01 0.  0.
         14    1    1    2    0    0  0.11719100654E-01  0.11458495193E-01  0.17231315838E-01  0.23781351470E-01  0.00000000000E+00 0.  1.
     999901    1    3    3    0    0  0.10961546726E+00 -0.41183849963E-01 -0.50797801682E-01  0.88920868013E+00  0.88000000000E+00 0.  1.
        -11    1    4    4    0    0 -0.46973676889E-01  0.19441782990E-01  0.70651932780E-02  0.51329205364E-01  0.51100000000E-03 0. -1.
         11    1    4    4    0    0 -0.74360891025E-01  0.10283571779E-01  0.26501292566E-01  0.79610763037E-01  0.51100000000E-03 0.  1.
</event>
<event>
 8    1  0.1114333E+005  0.1043930E+01  0.7957747E-01            NaN
         13   -1    0    0    0    0  0.00000000000E+00  0.00000000000E+00  0.74505805969E-08  0.10566000000E+00  0.10566000000E+00 0. -1.
     999900   -1    0    0    0    0 -0.00000000000E+00 -0.00000000000E+00 -0.74505805969E-08  0.93827000000E+00  0.93827000000E+00 0.  1.
     999902    2    1    2    0    0  0.56587382994E-02 -0.29601081906E-01  0.13663308200E-01  0.10108402529E+01  0.10102985131E+01 0.  0.
     999903    2    3    3    0    0 -0.41698220189E-01  0.88358353039E-01  0.66884148660E-01  0.12011607136E+00  0.20209926703E-01 0.  0.
         14    1    1    2    0    0 -0.56587382994E-02  0.29601081906E-01 -0.13663308200E-01  0.33089747054E-01  0.00000000000E+00 0.  1.
     999901    1    3    3    0    0  0.47356958489E-01 -0.11795943494E+00 -0.53220840460E-01  0.89072418159E+00  0.88000000000E+00 0.  1.
        -11    1    4    4    0    0 -0.26874929993E-01  0.55277624552E-01  0.29996321855E-01  0.68395307471E-01  0.51100000000E-03 0. -1.
         11    1    4    4    0    0 -0.14823290197E-01  0.33080728487E-01  0.36887826804E-01  0.51720763885E-01  0.51100000000E-03 0.  1.
</event>
<event>
 8    1  0.1114333E+005  0.1043930E+01  0.7957747E-01            NaN
         13   -1    0    0    0    0  0.00000000000E+00  0.00000000000E+00  0.74505805969E-08  0.10566000000E+00  0.10566000000E+00 0.  1.
     999900   -1    0    0    0    0 -0.00000000000E+00 -0.00000000000E+00 -0.74505805969E-08  0.93827000000E+00  0.93827000000E+00 0.  1.
     999902    2    1    2    0    0  0.66473986759E-02  0.96309110025E-02 -0.22663137210E-01  0.10184239195E+01  0.10181044738E+01 0.  0.
     999903    2    3    3    0    0  0.45928819048E-01  0.11550226938E+00 -0.36570057981E-01  0.13109918919E+00  0.19984934736E-01 0.  0.
         14    1    1    2    0    0 -0.66473986759E-02 -0.96309110025E-02  0.22663137210E-01  0.25506080532E-01  0.00000000000E+00 0.  1.
     999901    1    3    3    0    0 -0.39281420372E-01 -0.10587135837E+00  0.13906920771E-01  0.88732473027E+00  0.88000000000E+00 0.  1.
        -11    1    4    4    0    0  0.67178407748E-02  0.40987885781E-01 -0.90431140592E-02  0.42510883293E-01  0.51100000000E-03 0. -1.
         11    1    4    4    0    0  0.39210978273E-01  0.74514383596E-01 -0.27526943922E-01  0.88588305901E-01  0.51100000000E-03 0.  1.
</event>
<event>
 7    1  0.1434731E+005  0.1043930E+01  0.7957747E-01            NaN
         13   -1    0    0    0    0  0.00000000000E+00  0.00000000000E+00  0.74505805969E-08  0.10566000000E+00  0.10566000000E+00 0.  1.
     999900   -1    0    0    0    0 -0.00000000000E+00 -0.00000000000E+00 -0.74505805969E-08  0.93827000000E+00  0.93827000000E+00 0.  1.
     999903    2    1    2    0    0 -0.21637789828E-01  0.86677615320E-01  0.36248250529E-02  0.95953017491E-01  0.34822970331E-01 0.  0.
         14    1    1    2    0    0 -0.47041009587E-01  0.28886295197E-02  0.36880175698E-01  0.59844365841E-01  0.00000000000E+00 0.  1.
     999901    1    1    2    0    0  0.68678799415E-01 -0.89566244840E-01 -0.40505000751E-01  0.88813261667E+00  0.88000000000E+00 0.  1.
        -11    1    3    3    0    0  0.76086569207E-02  0.22110172792E-01  0.85398282194E-02  0.24898618195E-01  0.51100000000E-03 0.  1.
         11    1    3    3    0    0 -0.29246446748E-01  0.64567442529E-01 -0.49150031665E-02  0.71054399295E-01  0.51100000000E-03 0. -1.
</event>
<event>
 8    1  0.1114333E+005  0.1043930E+01  0.7957747E-01            NaN
         13   -1    0    0    0    0  0.00000000000E+00  0.00000000000E+00  0.74505805969E-08  0.10566000000E+00  0.10566000000E+00 0. -1.
     999900   -1    0    0    0    0 -0.00000000000E+00 -0.00000000000E+00 -0.74505805969E-08  0.93827000000E+00  0.93827000000E+00 0. -1.
     999902    2    1    2    0    0  0.62936090860E-02  0.13045709267E-01 -0.18831642546E-01  0.10201722474E+01  0.10198955749E+01 0.  0.
     999903    2    3    3    0    0  0.77729998209E-01 -0.10047016198E+00 -0.17529217560E-01  0.13000894387E+00  0.21420689747E-01 0.  0.
         14    1    1    2    0    0 -0.62936090860E-02 -0.13045709267E-01  0.18831642546E-01  0.23757752557E-01  0.00000000000E+00 0. -1.
     999901    1    3    3    0    0 -0.71436389123E-01  0.11351587124E+00 -0.13024249854E-02  0.89016330357E+00  0.88000000000E+00 0. -1.
        -11    1    4    4    0    0  0.54705225341E-01 -0.53822368274E-01 -0.86039872579E-02  0.77225635148E-01  0.51100000000E-03 0. -1.
         11    1    4    4    0    0  0.23024772868E-01 -0.46647793702E-01 -0.89252303025E-02  0.52783308724E-01  0.51100000000E-03 0.  1.
</event>
<event>
 8    1  0.1114333E+005  0.1043930E+01  0.7957747E-01            NaN
         13   -1    0    0    0    0  0.00000000000E+00  0.00000000000E+00  0.74505805969E-08  0.10566000000E+00  0.10566000000E+00 0.  1.
     999900   -1    0    0    0    0 -0.00000000000E+00 -0.00000000000E+00 -0.74505805969E-08  0.93827000000E+00  0.93827000000E+00 0.  1.
     999902    2    1    2    0    0  0.15120583928E-01 -0.37586919758E-02  0.19596484858E-01  0.10188943845E+01  0.10185867586E+01 0.  0.
     999903    2    3    3    0    0  0.33238009328E-01 -0.12218490949E+00  0.25666184604E-01  0.13075596549E+00  0.20110994700E-01 0.  0.
         14    1    1    2    0    0 -0.15120583928E-01  0.37586919758E-02 -0.19596484858E-01  0.25035615481E-01  0.00000000000E+00 0. -1.
     999901    1    3    3    0    0 -0.18117425399E-01  0.11842621752E+00 -0.60696997462E-02  0.88813841903E+00  0.88000000000E+00 0. -1.
        -11    1    4    4    0    0  0.12719419806E-01 -0.21671751458E-01  0.96655206985E-02  0.26928272555E-01  0.51100000000E-03 0. -1.
         11    1    4    4    0    0  0.20518589522E-01 -0.10051315803E+00  0.16000663906E-01  0.10382769294E+00  0.51100000000E-03 0.  1.
</event>
<event>
 8    1  0.1114333E+005  0.1043930E+01  0.7957747E-01            NaN
         13   -1    0    0    0    0  0.00000000000E+00  0.00000000000E+00  0.74505805969E-08  0.10566000000E+00  0.10566000000E+00 0. -1.
     999900   -1    0    0    0    0 -0.00000000000E+00 -0.00000000000E+00 -0.74505805969E-08  0.93827000000E+00  0.93827000000E+00 0.  1.
     999902    2    1    2    0    0 -0.68497703590E-02 -0.21903930158E-01 -0.50190526439E-02  0.10204376097E+01  0.10201671544E+01 0.  0.
     999903    2    3    3    0    0 -0.84486799508E-01 -0.59452940452E-01  0.79948226431E-01  0.13214887573E+00  0.19973357943E-01 0.  0.
         14    1    1    2    0    0  0.68497703590E-02  0.21903930158E-01  0.50190526439E-02  0.23492390253E-01  0.00000000000E+00 0. -1.
     999901    1    3    3    0    0  0.77637029149E-01  0.37549010294E-01 -0.84967279075E-01  0.88828873402E+00  0.88000000000E+00 0.  1.
        -11    1    4    4    0    0 -0.58012035971E-01 -0.29120278179E-01  0.47468093991E-01  0.80416838951E-01  0.51100000000E-03 0. -1.
         11    1    4    4    0    0 -0.26474763537E-01 -0.30332662273E-01  0.32480132440E-01  0.51732036779E-01  0.51100000000E-03 0.  1.
</event>
<event>
 8    1  0.1114333E+005  0.1043930E+01  0.7957747E-01            NaN
         13   -1    0    0    0    0  0.00000000000E+00  0.00000000000E+00  0.74505805969E-08  0.10566000000E+00  0.10566000000E+00 0.  1.
     999900   -1    0    0    0    0 -0.00000000000E+00 -0.00000000000E+00 -0.74505805969E-08  0.93827000000E+00  0.93827000000E+00 0.  1.
     999902    2    1    2    0    0  0.58862985319E-02 -0.24057166702E-01 -0.47186859888E-03  0.10191586771E+01  0.10188575909E+01 0.  0.
     999903    2    3    3    0    0  0.87732967434E-01  0.67415109717E-01  0.62093813213E-01  0.12843957482E+00  0.19980293966E-01 0.  0.
         14    1    1    2    0    0 -0.58862985319E-02  0.24057166702E-01  0.47186859888E-03  0.24771322938E-01  0.00000000000E+00 0.  1.
     999901    1    3    3    0    0 -0.81846668902E-01 -0.91472276419E-01 -0.62565681812E-01  0.89071910225E+00  0.88000000000E+00 0.  1.
        -11    1    4    4    0    0  0.61403101181E-01  0.56685161010E-01  0.41342769232E-01  0.93236441385E-01  0.51100000000E-03 0.  1.
         11    1    4    4    0    0  0.26329866253E-01  0.10729948708E-01  0.20751043981E-01  0.35203133432E-01  0.51100000000E-03 0. -1.
</event>
<event>
 8    1  0.1114333E+005  0.1043930E+01  0.7957747E-01            NaN
         13   -1    0    0    0    0  0.00000000000E+00  0.00000000000E+00  0.74505805969E-08  0.10566000000E+00  0.10566000000E+00 0. -1.
     999900   -1    0    0    0    0 -0.00000000000E+00 -0.00000000000E+00 -0.74505805969E-08  0.93827000000E+00  0.93827000000E+00 0.  1.
     999902    2    1    2    0    0 -0.24364154852E-02 -0.16237929406E-01 -0.17777449427E-01  0.10197299136E+01  0.10194427167E+01 0.  0.
     999903    2    3    3    0    0 -0.91879572718E-02 -0.10913109804E+00  0.68309954683E-01  0.13063724960E+00  0.20145122397E-01 0.  0.
         14    1    1    2    0    0  0.24364154852E-02  0.16237929406E-01  0.17777449427E-01  0.24200086363E-01  0.00000000000E+00 0. -1.
     999901    1    3    3    0    0  0.67515417867E-02  0.92893168634E-01 -0.86087404110E-01  0.88909266404E+00  0.88000000000E+00 0.  1.
        -11    1    4    4    0    0 -0.77298638614E-02 -0.60914278963E-01  0.49447457927E-01  0.78839155204E-01  0.51100000000E-03 0.  1.
         11    1    4    4    0    0 -0.14580934104E-02 -0.48216819077E-01  0.18862496756E-01  0.51798094397E-01  0.51100000000E-03 0. -1.
</event>
<event>
 8    1  0.1114333E+005  0.1043930E+01  0.7957747E-01            NaN
         13   -1    0    0    0    0  0.00000000000E+00  0.00000000000E+00  0.74505805969E-08  0.10566000000E+00  0.10566000000E+00 0. -1.
     999900   -1    0    0    0    0 -0.00000000000E+00 -0.00000000000E+00 -0.74505805969E-08  0.93827000000E+00  0.93827000000E+00 0.  1.
     999902    2    1    2    0    0  0.10131788591E-02  0.23347582597E-01 -0.10524823578E-02  0.10205367560E+01  0.10202686051E+01 0.  0.
     999903    2    3    3    0    0  0.61560574451E-01 -0.97500383146E-01  0.53288156165E-01  0.12855966947E+00  0.19797272225E-01 0.  0.
         14    1    1    2    0    0 -0.10131788591E-02 -0.23347582597E-01  0.10524823578E-02  0.23393243974E-01  0.00000000000E+00 0. -1.
     999901    1    3    3    0    0 -0.60547395592E-01  0.12084796574E+00 -0.54340638523E-01  0.89197708655E+00  0.88000000000E+00 0.  1.
        -11    1    4    4    0    0  0.39195457583E-01 -0.59081985217E-01  0.22149208545E-01  0.74281985922E-01  0.51100000000E-03 0. -1.
         11    1    4    4    0    0  0.22365116867E-01 -0.38418397929E-01  0.31138947620E-01  0.54277683552E-01  0.51100000000E-03 0.  1.
</event>
<event>
 8    1  0.1114333E+005  0.1043930E+01  0.7957747E-01            NaN
         13   -1    0    0    0    0  0.00000000000E+00  0.00000000000E+00  0.74505805969E-08  0.10566000000E+00  0.10566000000E+00 0. -1.
     999900   -1    0    0    0    0 -0.00000000000E+00 -0.00000000000E+00 -0.74505805969E-08  0.93827000000E+00  0.93827000000E+00 0.  1.
     999902    2    1    2    0    0 -0.91428173636E-02  0.31642452510E-02  0.21491876350E-01  0.10203608611E+01  0.10200886151E+01 0.  0.
     999903    2    3    3    0    0 -0.11942944211E+00 -0.47905648462E-01  0.21818857638E-01  0.13200767656E+00  0.19789424596E-01 0.  0.
         14    1    1    2    0    0  0.91428173636E-02 -0.31642452510E-02 -0.21491876350E-01  0.23569138856E-01  0.00000000000E+00 0.  1.
     999901    1    3    3    0    0  0.11028662474E+00  0.51069893713E-01 -0.32698128840E-03  0.88835318458E+00  0.88000000000E+00 0. -1.
        -11    1    4    4    0    0 -0.33601648446E-01 -0.42322200049E-02  0.66742311407E-02  0.34522296371E-01  0.51100000000E-03 0.  1.
         11    1    4    4    0    0 -0.85827793662E-01 -0.43673428457E-01  0.15144626498E-01  0.97485380191E-01  0.51100000000E-03 0. -1.
</event>
<event>
 8    1  0.1114333E+005  0.1043930E+01  0.7957747E-01            NaN
         13   -1    0    0    0    0  0.00000000000E+00  0.00000000000E+00  0.74505805969E-08  0.10566000000E+00  0.10566000000E+00 0.  1.
     999900   -1    0    0    0    0 -0.00000000000E+00 -0.00000000000E+00 -0.74505805969E-08  0.93827000000E+00  0.93827000000E+00 0. -1.
     999902    2    1    2    0    0 -0.85760758166E-02 -0.50158852023E-02  0.21289774033E-01  0.10204361144E+01  0.10201656243E+01 0.  0.
     999903    2    3    3    0    0 -0.76872536076E-01 -0.10520505336E+00  0.15089351670E-01  0.13210018634E+00  0.15661438055E-01 0.  0.
         14    1    1    2    0    0  0.85760758166E-02  0.50158852023E-02 -0.21289774033E-01  0.23493885570E-01  0.00000000000E+00 0. -1.
     999901    1    3    3    0    0  0.68296460259E-01  0.10018916816E+00  0.62004223639E-02  0.88833592809E+00  0.88000000000E+00 0. -1.
        -11    1    4    4    0    0 -0.12766857905E-01 -0.28539498203E-01  0.24056980804E-02  0.31361507022E-01  0.51100000000E-03 0.  1.
         11    1    4    4    0    0 -0.64105678170E-01 -0.76665555157E-01  0.12683653589E-01  0.10073867932E+00  0.51100000000E-03 0. -1.
</event>
<event>
 8    1  0.1114333E+005  0.1043930E+01  0.7957747E-01            NaN
         13   -1    0    0    0    0  0.00000000000E+00  0.00000000000E+00  0.74505805969E-08  0.10566000000E+00  0.10566000000E+00 0.  1.
     999900   -1    0    0    0    0 -0.00000000000E+00 -0.00000000000E+00 -0.74505805969E-08  0.93827000000E+00  0.93827000000E+00 0. -1.
     999902    2    1    2    0    0 -0.10225636538E-01 -0.19533753248E-01 -0.93942898335E-02  0.10199636936E+01  0.10196820840E+01 0.  0.
     999903    2    3    3    0    0 -0.98376705718E-02  0.97064275760E-01  0.80008309203E-01  0.12778205542E+00  0.20215606692E-01 0.  0.
         14    1    1    2    0    0  0.10225636538E-01  0.19533753248E-01  0.93942898335E-02  0.23966306350E-01  0.00000000000E+00 0.  1.
     999901    1    3    3    0    0 -0.38796596656E-03 -0.11659802901E+00 -0.89402599036E-01  0.89218163823E+00  0.88000000000E+00 0. -1.
        -11    1    4    4    0    0  0.48798297416E-02  0.48867536538E-01  0.42680682939E-01  0.65067278126E-01  0.51100000000E-03 0.  1.
         11    1    4    4    0    0 -0.14717500313E-01  0.48196739222E-01  0.37327626264E-01  0.62714777291E-01  0.51100000000E-03 0. -1.
</event>
<event>
 7    1  0.1114333E+005  0.1043930E+01  0.7957747E-01            NaN
         13   -1    0    0    0    0  0.00000000000E+00  0.00000000000E+00  0.74505805969E-08  0.10566000000E+00  0.10566000000E+00 0. -1.
     999900   -1    0    0    0    0 -0.00000000000E+00 -0.00000000000E+00 -0.74505805969E-08  0.93827000000E+00  0.93827000000E+00 0.  1.
     999903    2    1    2    0    0 -0.10104656889E+00 -0.10766387347E-01  0.35630974297E-01  0.10939036189E+00  0.19244759382E-01 0.  0.
         14    1    1    2    0    0  0.42617312346E-01 -0.18357858671E-01  0.19648243652E-01  0.50391465202E-01  0.00000000000E+00 0.  1.
     999901    1    1    2    0    0  0.58429256542E-01  0.29124246018E-01 -0.55279217949E-01  0.88414817291E+00  0.88000000000E+00 0.  1.
        -11    1    3    3    0    0 -0.90682822179E-01 -0.11839975095E-01  0.25721426998E-01  0.95002169325E-01  0.51100000000E-03 0.  1.
         11    1    3    3    0    0 -0.10363746709E-01  0.10735877483E-02  0.99095472997E-02  0.14388192561E-01  0.51100000000E-03 0. -1.
</event>
<event>
 8    1  0.1114333E+005  0.1043930E+01  0.7957747E-01            NaN
         13   -1    0    0    0    0  0.00000000000E+00  0.00000000000E+00  0.74505805969E-08  0.10566000000E+00  0.10566000000E+00 0. -1.
     999900   -1    0    0    0    0 -0.00000000000E+00 -0.00000000000E+00 -0.74505805969E-08  0.93827000000E+00  0.93827000000E+00 0. -1.
     999902    2    1    2    0    0 -0.23244168447E-02 -0.63242871569E-03 -0.23284998446E-01  0.10205207276E+01  0.10202522049E+01 0.  0.
     999903    2    3    3    0    0 -0.13993082780E-01  0.10211294705E+00 -0.80838279101E-01  0.13259891232E+00  0.20610285298E-01 0.  0.
         14    1    1    2    0    0  0.23244168447E-02  0.63242871569E-03  0.23284998446E-01  0.23409272359E-01  0.00000000000E+00 0. -1.
     999901    1    3    3    0    0  0.11668665935E-01 -0.10274537577E+00  0.57553280656E-01  0.88792181532E+00  0.88000000000E+00 0.  1.
        -11    1    4    4    0    0 -0.76556476846E-02  0.21180743307E-01 -0.27109019991E-01  0.35247594448E-01  0.51100000000E-03 0.  1.
         11    1    4    4    0    0 -0.63374350952E-02  0.80932203743E-01 -0.53729259111E-01  0.97351317874E-01  0.51100000000E-03 0. -1.
</event>
<event>
 8    1  0.1114333E+005  0.1043930E+01  0.7957747E-01            NaN
         13   -1    0    0    0    0  0.00000000000E+00  0.00000000000E+00  0.74505805969E-08  0.10566000000E+00  0.10566000000E+00 0. -1.
     999900   -1    0    0    0    0 -0.00000000000E+00 -0.00000000000E+00 -0.74505805969E-08  0.93827000000E+00  0.93827000000E+00 0. -1.
     999902    2    1    2    0    0  0.12135221799E-01 -0.92831724790E-02 -0.17230051933E-01  0.10209014180E+01  0.10206416559E+01 0.  0.
     999903    2    3    3    0    0  0.28906930155E-01  0.11322439439E+00 -0.56413995063E-01  0.13139325303E+00  0.20646404214E-01 0.  0.
         14    1    1    2    0    0 -0.12135221799E-01  0.92831724790E-02  0.17230051933E-01  0.23028582001E-01  0.00000000000E+00 0. -1.
     999901    1    3    3    0    0 -0.16771708355E-01 -0.12250756687E+00  0.39183943130E-01  0.88950816497E+00  0.88000000000E+00 0.  1.
        -11    1    4    4    0    0  0.59200568948E-02  0.10266137735E-01 -0.12176624175E-01  0.16999175125E-01  0.51100000000E-03 0.  1.
         11    1    4    4    0    0  0.22986873260E-01  0.10295825666E+00 -0.44237370888E-01  0.11439407791E+00  0.51100000000E-03 0. -1.
</event>
<event>
 8    1  0.1114333E+005  0.1043930E+01  0.7957747E-01            NaN
         13   -1    0    0    0    0  0.00000000000E+00  0.00000000000E+00  0.74505805969E-08  0.10566000000E+00  0.10566000000E+00 0. -1.
     999900   -1    0    0    0    0 -0.00000000000E+00 -0.00000000000E+00 -0.74505805969E-08  0.93827000000E+00  0.93827000000E+00 0. -1.
     999902    2    1    2    0    0 -0.23217532734E-01 -0.19181019317E-02  0.16073764059E-01  0.10156263106E+01  0.10152318474E+01 0.  0.
     999903    2    3    3    0    0 -0.21962223066E-02 -0.76712436797E-01  0.10070717124E+00  0.12815862015E+00  0.19826150111E-01 0.  0.
         14    1    1    2    0    0  0.23217532734E-01  0.19181019317E-02 -0.16073764059E-01  0.28303689376E-01  0.00000000000E+00 0.  1.
     999901    1    3    3    0    0 -0.21021310427E-01  0.74794334865E-01 -0.84633407182E-01  0.88746769047E+00  0.88000000000E+00 0. -1.
        -11    1    4    4    0    0  0.51909148383E-02 -0.57281429704E-01  0.64633617185E-01  0.86520941842E-01  0.51100000000E-03 0.  1.
         11    1    4    4    0    0 -0.73871371449E-02 -0.19431007093E-01  0.36073554056E-01  0.41637678310E-01  0.51100000000E-03 0. -1.
</event>
<event>
 8    1  0.1114333E+005  0.1043930E+01  0.7957747E-01            NaN
         13   -1    0    0    0    0  0.00000000000E+00  0.00000000000E+00  0.74505805969E-08  0.10566000000E+00  0.10566000000E+00 0. -1.
     999900   -1    0    0    0    0 -0.00000000000E+00 -0.00000000000E+00 -0.74505805969E-08  0.93827000000E+00  0.93827000000E+00 0. -1.
     999902    2    1    2    0    0 -0.21766289685E-02  0.22082298398E-01  0.93790498949E-02  0.10198399150E+01  0.10195553541E+01 0.  0.
     999903    2    3    3    0    0 -0.67030160624E-01  0.73263063191E-01 -0.83242439171E-01  0.13113063103E+00  0.20135040462E-01 0.  0.
         14    1    1    2    0    0  0.21766289685E-02 -0.22082298398E-01 -0.93790498949E-02  0.24090084955E-01  0.00000000000E+00 0.  1.
     999901    1    3    3    0    0  0.64853531656E-01 -0.51180764793E-01  0.92621489066E-01  0.88870928401E+00  0.88000000000E+00 0.  1.
        -11    1    4    4    0    0 -0.35592637840E-01  0.28670608454E-01 -0.28634527500E-01  0.53935488722E-01  0.51100000000E-03 0.  1.
         11    1    4    4    0    0 -0.31437522784E-01  0.44592454737E-01 -0.54607911671E-01  0.77195142311E-01  0.51100000000E-03 0. -1.
</event>
<event>
 8    1  0.1114333E+005  0.1043930E+01  0.7957747E-01            NaN
         13   -1    0    0    0    0  0.00000000000E+00  0.00000000000E+00  0.74505805969E-08  0.10566000000E+00  0.10566000000E+00 0. -1.
     999900   -1    0    0    0    0 -0.00000000000E+00 -0.00000000000E+00 -0.74505805969E-08  0.93827000000E+00  0.93827000000E+00 0. -1.
     999902    2    1    2    0    0 -0.10787066518E-01 -0.21025209211E-01 -0.49582850621E-02  0.10197845073E+01  0.10194986202E+01 0.  0.
     999903    2    3    3    0    0 -0.11156114634E+00  0.75915787895E-02 -0.66503563411E-01  0.13143651412E+00  0.18689886472E-01 0.  0.
         14    1    1    2    0    0  0.10787066518E-01  0.21025209211E-01  0.49582850621E-02  0.24145492688E-01  0.00000000000E+00 0. -1.
     999901    1    3    3    0    0  0.10077407982E+00 -0.28616788000E-01  0.61545278349E-01  0.88834799319E+00  0.88000000000E+00 0.  1.
        -11    1    4    4    0    0 -0.91139249214E-01  0.13427914129E-01 -0.54119198202E-01  0.10684484246E+00  0.51100000000E-03 0.  1.
         11    1    4    4    0    0 -0.20421897127E-01 -0.58363353393E-02 -0.12384365209E-01  0.24591671661E-01  0.51100000000E-03 0. -1.
</event>
<event>
 8    1  0.1114333E+005  0.1043930E+01  0.7957747E-01            NaN
         13   -1    0    0    0    0  0.00000000000E+00  0.00000000000E+00  0.74505805969E-08  0.10566000000E+00  0.10566000000E+00 0.  1.
     999900   -1    0    0    0    0 -0.00000000000E+00 -0.00000000000E+00 -0.74505805969E-08  0.93827000000E+00  0.93827000000E+00 0. -1.
     999902    2    1    2    0    0  0.10084680787E-01  0.21436075843E-01 -0.54549709258E-02  0.10196202727E+01  0.10193304359E+01 0.  0.
     999903    2    3    3    0    0  0.54981428821E-01  0.81264350836E-01  0.85770891581E-01  0.13174792913E+00  0.19339564491E-01 0.  0.
         14    1    1    2    0    0 -0.10084680787E-01 -0.21436075843E-01  0.54549709258E-02  0.24309727310E-01  0.00000000000E+00 0. -1.
     999901    1    3    3    0    0 -0.44896748035E-01 -0.59828274994E-01 -0.91225862507E-01  0.88787234356E+00  0.88000000000E+00 0. -1.
        -11    1    4    4    0    0  0.21341314248E-01  0.27518318179E-01  0.42666279905E-01  0.55076148115E-01  0.51100000000E-03 0. -1.
         11    1    4    4    0    0  0.33640114573E-01  0.53746032658E-01  0.43104611676E-01  0.76671781013E-01  0.51100000000E-03 0.  1.
</event>
<event>
 8    1  0.1114333E+005  0.1043930E+01  0.7957747E-01            NaN
         13   -1    0    0    0    0  0.00000000000E+00  0.00000000000E+00  0.74505805969E-08  0.10566000000E+00  0.10566000000E+00 0. -1.
     999900   -1    0    0    0    0 -0.00000000000E+00 -0.00000000000E+00 -0.74505805969E-08  0.93827000000E+00  0.93827000000E+00 0. -1.
     999902    2    1    2    0    0 -0.57712379655E-02 -0.83050564208E-02  0.21504094295E-01  0.10201664308E+01  0.10198896211E+01 0.  0.
     999903    2    3    3    0    0  0.29156677998E-01 -0.11578966588E+00 -0.48200387734E-01  0.13020484994E+00  0.19304584278E-01 0.  0.
         14    1    1    2    0    0  0.57712379655E-02  0.83050564208E-02 -0.21504094295E-01  0.23763569202E-01  0.00000000000E+00 0.  1.
     999901    1    3    3    0    0 -0.34927915964E-01  0.10748460946E+00  0.69704482029E-01  0.88996158086E+00  0.88000000000E+00 0.  1.
        -11    1    4    4    0    0  0.84002605964E-02 -0.70985901286E-01 -0.26021488241E-01  0.76071949697E-01  0.51100000000E-03 0. -1.
         11    1    4    4    0    0  0.20756417402E-01 -0.44803764594E-01 -0.22178899494E-01  0.54132900245E-01  0.51100000000E-03 0.  1.
</event>
<event>
 8    1  0.1114333E+005  0.1043930E+01  0.7957747E-01            NaN
         13   -1    0    0    0    0  0.00000000000E+00  0.00000000000E+00  0.74505805969E-08  0.10566000000E+00  0.10566000000E+00 0.  1.
     999900   -1    0    0    0    0 -0.00000000000E+00 -0.00000000000E+00 -0.74505805969E-08  0.93827000000E+00  0.93827000000E+00 0. -1.
     999902    2    1    2    0    0 -0.19406767480E-01 -0.90899469331E-02 -0.11072868462E-01  0.10198082634E+01  0.10195229453E+01 0.  0.
     999903    2    3    3    0    0 -0.12520681941E-01  0.52448109462E-01  0.11466905750E+00  0.12871602213E+00  0.22610836858E-01 0.  0.
         14    1    1    2    0    0  0.19406767480E-01  0.90899469331E-02  0.11072868462E-01  0.24121736572E-01  0.00000000000E+00 0.  1.
     999901    1    3    3    0    0 -0.68860855386E-02 -0.61538056396E-01 -0.12574192596E+00  0.89109224130E+00  0.88000000000E+00 0. -1.
        -11    1    4    4    0    0 -0.12621900567E-01  0.11787781330E-01  0.42528363976E-01  0.45904106854E-01  0.51100000000E-03 0. -1.
         11    1    4    4    0    0  0.10121862525E-03  0.40660328133E-01  0.72140693520E-01  0.82811915276E-01  0.51100000000E-03 0.  1.
</event>
<event>
 8    1  0.1114333E+005  0.1043930E+01  0.7957747E-01            NaN
         13   -1    0    0    0    0  0.00000000000E+00  0.00000000000E+00  0.74505805969E-08  0.10566000000E+00  0.10566000000E+00 0. -1.
     999900   -1    0    0    0    0 -0.00000000000E+00 -0.00000000000E+00 -0.74505805969E-08  0.93827000000E+00  0.93827000000E+00 0. -1.
     999902    2    1    2    0    0 -0.21947009327E-01  0.28795552164E-02 -0.10039486447E-01  0.10196245614E+01  0.10193348282E+01 0.  0.
     999903    2    3    3    0    0  0.95908775284E-01  0.82375151479E-01  0.21595592780E-03  0.12815683351E+00  0.20975428050E-01 0.  0.
         14    1    1    2    0    0  0.21947009327E-01 -0.28795552164E-02  0.10039486447E-01  0.24305438584E-01  0.00000000000E+00 0. -1.
     999901    1    3    3    0    0 -0.11785578461E+00 -0.79495596263E-01 -0.10255442375E-01  0.89146772790E+00  0.88000000000E+00 0. -1.
        -11    1    4    4    0    0  0.16454842405E-01  0.19188330903E-01 -0.74304337109E-02  0.26351970468E-01  0.51100000000E-03 0.  1.
         11    1    4    4    0    0  0.79453932878E-01  0.63186820577E-01  0.76463896387E-02  0.10180486305E+00  0.51100000000E-03 0. -1.
</event>
<event>
 8    1  0.1114333E+005  0.1043930E+01  0.7957747E-01            NaN
         13   -1    0    0    0    0  0.00000000000E+00  0.00000000000E+00  0.74505805969E-08  0.10566000000E+00  0.10566000000E+00 0.  1.
     999900   -1    0    0    0    0 -0.00000000000E+00 -0.00000000000E+00 -0.74505805969E-08  0.93827000000E+00  0.93827000000E+00 0. -1.
     999902    2    1    2    0    0 -0.15126335619E-01  0.16561470744E-01  0.73866657200E-02  0.10203153610E+01  0.10200420505E+01 0.  0.
     999903    2    3    3    0    0 -0.49631218163E-01 -0.10714192887E+00 -0.48082177844E-01  0.12926546873E+00  0.21331076872E-01 0.  0.
         14    1    1    2    0    0  0.15126335619E-01 -0.16561470744E-01 -0.73866657200E-02  0.23614638954E-01  0.00000000000E+00 0. -1.
     999901    1    3    3    0    0  0.34504882543E-01  0.12370339961E+00  0.55468843564E-01  0.89104989232E+00  0.88000000000E+00 0.  1.
        -11    1    4    4    0    0 -0.30297518057E-01 -0.74709735875E-01 -0.22662749906E-01  0.83745719826E-01  0.51100000000E-03 0.  1.
         11    1    4    4    0    0 -0.19333700105E-01 -0.32432192996E-01 -0.25419427938E-01  0.45519748901E-01  0.51100000000E-03 0. -1.
</event>
<event>
 8    1  0.1114333E+005  0.1043930E+01  0.7957747E-01            NaN
         13   -1    0    0    0    0  0.00000000000E+00  0.00000000000E+00  0.74505805969E-08  0.10566000000E+00  0.10566000000E+00 0. -1.
     999900   -1    0    0    0    0 -0.00000000000E+00 -0.00000000000E+00 -0.74505805969E-08  0.93827000000E+00  0.93827000000E+00 0.  1.
     999902    2    1    2    0    0 -0.69343476660E-02  0.21385369818E-01  0.86908565894E-02  0.10198270913E+01  0.10195422237E+01 0.  0.
     999903    2    3    3    0    0 -0.19227575902E-01 -0.11614246018E+00 -0.44219009621E-01  0.12749056205E+00  0.20970261521E-01 0.  0.
         14    1    1    2    0    0  0.69343476660E-02 -0.21385369818E-01 -0.86908565894E-02  0.24102908706E-01  0.00000000000E+00 0.  1.
     999901    1    3    3    0    0  0.12293228236E-01  0.13752783000E+00  0.52909866210E-01  0.89233652925E+00  0.88000000000E+00 0. -1.
        -11    1    4    4    0    0 -0.14264987922E-01 -0.29563644845E-01 -0.10989223458E-01  0.34619692808E-01  0.51100000000E-03 0. -1.
         11    1    4    4    0    0 -0.49625879799E-02 -0.86578815333E-01 -0.33229786163E-01  0.92870869240E-01  0.51100000000E-03 0.  1.
</event>
<event>
 8    1  0.1114333E+005  0.1043930E+01  0.7957747E-01            NaN
         13   -1    0    0    0    0  0.00000000000E+00  0.00000000000E+00  0.74505805969E-08  0.10566000000E+00  0.10566000000E+00 0.  1.
     999900   -1    0    0    0    0 -0.00000000000E+00 -0.00000000000E+00 -0.74505805969E-08  0.93827000000E+00  0.93827000000E+00 0.  1.
     999902    2    1    2    0    0  0.18857240861E-01 -0.13474665260E-01  0.10638855810E-01  0.10184280905E+01  0.10181087506E+01 0.  0.
     999903    2    3    3    0    0 -0.51610666444E-01  0.54499869870E-01  0.10205096745E+00  0.12829190002E+00  0.20261168475E-01 0.  0.
         14    1    1    2    0    0 -0.18857240861E-01  0.13474665260E-01 -0.10638855810E-01  0.25501909531E-01  0.00000000000E+00 0.  1.
     999901    1    3    3    0    0  0.70467907305E-01 -0.67974535130E-01 -0.91412111638E-01  0.89013619045E+00  0.88000000000E+00 0.  1.
        -11    1    4    4    0    0 -0.28452340500E-01  0.29299242862E-01  0.38604280314E-01  0.56200826433E-01  0.51100000000E-03 0. -1.
         11    1    4    4    0    0 -0.23158325944E-01  0.25200627007E-01  0.63446687135E-01  0.72091073590E-01  0.51100000000E-03 0.  1.
</event>
<event>
 8    1  0.1114333E+005  0.1043930E+01  0.7957747E-01            NaN
         13   -1    0    0    0    0  0.00000000000E+00  0.00000000000E+00  0.74505805969E-08  0.10566000000E+00  0.10566000000E+00 0.  1.
     999900   -1    0    0    0    0 -0.00000000000E+00 -0.00000000000E+00 -0.74505805969E-08  0.93827000000E+00  0.93827000000E+00 0.  1.
     999902    2    1    2    0    0 -0.20599419742E-01 -0.10828969717E-01  0.36410142500E-02  0.10203745407E+01  0.10201026143E+01 0.  0.
     999903    2    3    3    0    0  0.41177409269E-01  0.87530497065E-01 -0.82311428875E-01  0.12859049520E+00  0.20079272412E-01 0.  0.
         14    1    1    2    0    0  0.20599419742E-01  0.10828969717E-01 -0.36410142500E-02  0.23555459316E-01  0.00000000000E+00 0. -1.
     999901    1    3    3    0    0 -0.61776829012E-01 -0.98359466782E-01  0.85952443125E-01  0.89178404549E+00  0.88000000000E+00 0. -1.
        -11    1    4    4    0    0  0.60226920701E-02  0.27811032040E-01 -0.15873077797E-01  0.32587452227E-01  0.51100000000E-03 0. -1.
         11    1    4    4    0    0  0.35154717199E-01  0.59719465025E-01 -0.66438351078E-01  0.96003042968E-01  0.51100000000E-03 0.  1.
</event>
<event>
 8    1  0.1114333E+005  0.1043930E+01  0.7957747E-01            NaN
         13   -1    0    0    0    0  0.00000000000E+00  0.00000000000E+00  0.74505805969E-08  0.10566000000E+00  0.10566000000E+00 0.  1.
     999900   -1    0    0    0    0 -0.00000000000E+00 -0.00000000000E+00 -0.74505805969E-08  0.93827000000E+00  0.93827000000E+00 0.  1.
     999902    2    1    2    0    0 -0.17691438321E-01 -0.12750662419E-01 -0.86962158968E-02  0.10204525522E+01  0.10201824449E+01 0.  0.
     999903    2    3    3    0    0 -0.62244338132E-02 -0.78420818058E-01  0.10281191581E+00  0.13091439963E+00  0.19486449562E-01 0.  0.
         14    1    1    2    0    0  0.17691438321E-01  0.12750662419E-01  0.86962158968E-02  0.23477447752E-01  0.00000000000E+00 0.  1.
     999901    1    3    3    0    0 -0.11467004508E-01  0.65670155638E-01 -0.11150813170E+00  0.88953815262E+00  0.88000000000E+00 0.  1.
        -11    1    4    4    0    0 -0.17377100833E-02 -0.56380638191E-01  0.85911609454E-01  0.10277578391E+00  0.51100000000E-03 0.  1.
         11    1    4    4    0    0 -0.44867237300E-02 -0.22040179867E-01  0.16900306353E-01  0.28138615712E-01  0.51100000000E-03 0. -1.
</event>
<event>
 8    1  0.1114333E+005  0.1043930E+01  0.7957747E-01            NaN
         13   -1    0    0    0    0  0.00000000000E+00  0.00000000000E+00  0.74505805969E-08  0.10566000000E+00  0.10566000000E+00 0. -1.
     999900   -1    0    0    0    0 -0.00000000000E+00 -0.00000000000E+00 -0.74505805969E-08  0.93827000000E+00  0.93827000000E+00 0. -1.
     999902    2    1    2    0    0  0.20306381288E-01  0.12467874683E-01  0.31545997093E-03  0.10200994202E+01  0.10198210287E+01 0.  0.
     999903    2    3    3    0    0 -0.43506824812E-01 -0.23270580660E-02  0.12015738388E+00  0.12956413056E+00  0.21232240163E-01 0.  0.
         14    1    1    2    0    0 -0.20306381288E-01 -0.12467874683E-01 -0.31545997093E-03  0.23830579832E-01  0.00000000000E+00 0. -1.
     999901    1    3    3    0    0  0.63813206100E-01  0.14794932749E-01 -0.11984192391E+00  0.89053528961E+00  0.88000000000E+00 0. -1.
        -11    1    4    4    0    0 -0.17865868670E-01 -0.22064426620E-02  0.23761195388E-01  0.29814647068E-01  0.51100000000E-03 0. -1.
         11    1    4    4    0    0 -0.25640956142E-01 -0.12061540401E-03  0.96396188494E-01  0.99749483493E-01  0.51100000000E-03 0.  1.
</event>
<event>
 8    1  0.1114333E+005  0.1043930E+01  0.7957747E-01            NaN
         13   -1    0    0    0    0  0.00000000000E+00  0.00000000000E+00  0.74505805969E-08  0.10566000000E+00  0.10566000000E+00 0. -1.
     999900   -1    0    0    0    0 -0.00000000000E+00 -0.00000000000E+00 -0.74505805969E-08  0.93827000000E+00  0.93827000000E+00 0. -1.
     999902    2    1    2    0    0  0.22602969706E-01 -0.58975844637E-02 -0.19322494174E-02  0.10204905177E+01  0.10202212934E+01 0.  0.
     999903    2    3    3    0    0 -0.10065637990E+00 -0.77992811823E-01 -0.28592550409E-02  0.12897975030E+00  0.20322773858E-01 0.  0.
         14    1    1    2    0    0 -0.22602969706E-01  0.58975844637E-02  0.19322494174E-02  0.23439482286E-01  0.00000000000E+00 0.  1.
     999901    1    3    3    0    0  0.12325934961E+00  0.72095227359E-01  0.92700562344E-03  0.89151076741E+00  0.88000000000E+00 0. -1.
        -11    1    4    4    0    0 -0.96201575157E-01 -0.72651647823E-01  0.18440862595E-02  0.12056810013E+00  0.51100000000E-03 0. -1.
         11    1    4    4    0    0 -0.44548047447E-02 -0.53411640003E-02 -0.47033413004E-02  0.84116501698E-02  0.51100000000E-03 0.  1.
</event>
<event>
 8    1  0.1114333E+005  0.1043930E+01  0.7957747E-01            NaN
         13   -1    0    0    0    0  0.00000000000E+00  0.00000000000E+00  0.74505805969E-08  0.10566000000E+00  0.10566000000E+00 0.  1.
     999900   -1    0    0    0    0 -0.00000000000E+00 -0.00000000000E+00 -0.74505805969E-08  0.93827000000E+00  0.93827000000E+00 0.  1.
     999902    2    1    2    0    0  0.81127692191E-02 -0.77371625754E-02 -0.19711263431E-01  0.10212536993E+01  0.10210019117E+01 0.  0.
     999903    2    3    3    0    0  0.81095812730E-01 -0.17548734617E-01  0.98437085456E-01  0.13030935536E+00  0.20153892238E-01 0.  0.
         14    1    1    2    0    0 -0.81127692191E-02  0.77371625754E-02  0.19711263431E-01  0.22676300738E-01  0.00000000000E+00 0.  1.
     999901    1    3    3    0    0 -0.72983043511E-01  0.98115720413E-02 -0.11814834889E+00  0.89094434390E+00  0.88000000000E+00 0.  1.
        -11    1    4    4    0    0  0.24065805787E-01 -0.13179128067E-01  0.40254553763E-01  0.48719017277E-01  0.51100000000E-03 0. -1.
         11    1    4    4    0    0  0.57030006944E-01 -0.43696065496E-02  0.58182531693E-01  0.81590338083E-01  0.51100000000E-03 0.  1.
</event>
<event>
 8    1  0.1114333E+005  0.1043930E+01  0.7957747E-01            NaN
         13   -1    0    0    0    0  0.00000000000E+00  0.00000000000E+00  0.74505805969E-08  0.10566000000E+00  0.10566000000E+00 0.  1.
     999900   -1    0    0    0    0 -0.00000000000E+00 -0.00000000000E+00 -0.74505805969E-08  0.93827000000E+00  0.93827000000E+00 0.  1.
     999902    2    1    2    0    0  0.37608843638E-02  0.15949608495E-01  0.14975771136E-01  0.10217307211E+01  0.10214895293E+01 0.  0.
     999903    2    3    3    0    0 -0.12248190860E+00 -0.40083491049E-01 -0.49382022674E-02  0.13073492013E+00  0.21417967017E-01 0.  0.
         14    1    1    2    0    0 -0.37608843638E-02 -0.15949608495E-01 -0.14975771136E-01  0.22199278895E-01  0.00000000000E+00 0.  1.
     999901    1    3    3    0    0  0.12624279296E+00  0.56033099544E-01  0.19913973403E-01  0.89099580098E+00  0.88000000000E+00 0. -1.
        -11    1    4    4    0    0 -0.57007109194E-01 -0.22217441450E-01  0.77952864805E-02  0.61680246559E-01  0.51100000000E-03 0. -1.
         11    1    4    4    0    0 -0.65474799404E-01 -0.17866049599E-01 -0.12733488748E-01  0.69054673570E-01  0.51100000000E-03 0.  1.
</event>
<event>
 8    1  0.1114333E+005  0.1043930E+01  0.7957747E-01            NaN
         13   -1    0    0    0    0  0.00000000000E+00  0.00000000000E+00  0.74505805969E-08  0.10566000000E+00  0.10566000000E+00 0. -1.
     999900   -1    0    0    0    0 -0.00000000000E+00 -0.00000000000E+00 -0.74505805969E-08  0.93827000000E+00  0.93827000000E+00 0.  1.
     999902    2    1    2    0    0 -0.10966621236E-01  0.97012407531E-02  0.18927752787E-01  0.10200000882E+01  0.10197193434E+01 0.  0.
     999903    2    3    3    0    0 -0.81099378304E-01  0.40276471596E-01 -0.91385296927E-01  0.12981897331E+00  0.17389364907E-01 0.  0.
         14    1    1    2    0    0  0.10966621236E-01 -0.97012407531E-02 -0.18927752787E-01  0.23929911806E-01  0.00000000000E+00 0.  1.
     999901    1    3    3    0    0  0.70132757068E-01 -0.30575230842E-01  0.11031304971E+00  0.89018111488E+00  0.88000000000E+00 0. -1.
        -11    1    4    4    0    0 -0.31989624086E-01  0.21087849911E-01 -0.28510969924E-01  0.47761595346E-01  0.51100000000E-03 0.  1.
         11    1    4    4    0    0 -0.49109754219E-01  0.19188621685E-01 -0.62874327003E-01  0.82057377966E-01  0.51100000000E-03 0. -1.
</event>
<event>
 8    1  0.1114333E+005  0.1043930E+01  0.7957747E-01            NaN
         13   -1    0    0    0    0  0.00000000000E+00  0.00000000000E+00  0.74505805969E-08  0.10566000000E+00  0.10566000000E+00 0. -1.
     999900   -1    0    0    0    0 -0.00000000000E+00 -0.00000000000E+00 -0.74505805969E-08  0.93827000000E+00  0.93827000000E+00 0. -1.
     999902    2    1    2    0    0  0.29454007827E-01  0.13316894203E-02 -0.16118425025E-01  0.10103276846E+01  0.10097687432E+01 0.  0.
     999903    2    3    3    0    0  0.87619772655E-01  0.80157641505E-01  0.28208257815E-01  0.12378290756E+00  0.20591997061E-01 0.  0.
         14    1    1    2    0    0 -0.29454007827E-01 -0.13316894203E-02  0.16118425025E-01  0.33602315382E-01  0.00000000000E+00 0.  1.
     999901    1    3    3    0    0 -0.58165764828E-01 -0.78825952084E-01 -0.44326682840E-01  0.88654477706E+00  0.88000000000E+00 0.  1.
        -11    1    4    4    0    0  0.35190726820E-01  0.22541094845E-01  0.16824653219E-01  0.45053504724E-01  0.51100000000E-03 0.  1.
         11    1    4    4    0    0  0.52429045834E-01  0.57616546659E-01  0.11383604596E-01  0.78729402834E-01  0.51100000000E-03 0. -1.
</event>
<event>
 8    1  0.1114333E+005  0.1043930E+01  0.7957747E-01            NaN
         13   -1    0    0    0    0  0.00000000000E+00  0.00000000000E+00  0.74505805969E-08  0.10566000000E+00  0.10566000000E+00 0.  1.
     999900   -1    0    0    0    0 -0.00000000000E+00 -0.00000000000E+00 -0.74505805969E-08  0.93827000000E+00  0.93827000000E+00 0. -1.
     999902    2    1    2    0    0  0.19810902744E-01  0.16356937673E-02 -0.12187370856E-01  0.10206130669E+01  0.10203466827E+01 0.  0.
     999903    2    3    3    0    0 -0.69851935066E-03  0.86294654055E-01 -0.98287269284E-01  0.13213067062E+00  0.18731566099E-01 0.  0.
         14    1    1    2    0    0 -0.19810902744E-01 -0.16356937673E-02  0.12187370856E-01  0.23316933118E-01  0.00000000000E+00 0. -1.
     999901    1    3    3    0    0  0.20509422095E-01 -0.84658960287E-01  0.86099898428E-01  0.88848239626E+00  0.88000000000E+00 0.  1.
        -11    1    4    4    0    0  0.43222853736E-02  0.65128738319E-01 -0.82739462317E-01  0.10538744921E+00  0.51100000000E-03 0. -1.
         11    1    4    4    0    0 -0.50208047243E-02  0.21165915736E-01 -0.15547806967E-01  0.26743221413E-01  0.51100000000E-03 0.  1.
</event>
<event>
 8    1  0.1114333E+005  0.1043930E+01  0.7957747E-01            NaN
         13   -1    0    0    0    0  0.00000000000E+00  0.00000000000E+00  0.74505805969E-08  0.10566000000E+00  0.10566000000E+00 0.  1.
     999900   -1    0    0    0    0 -0.00000000000E+00 -0.00000000000E+00 -0.74505805969E-08  0.93827000000E+00  0.93827000000E+00 0. -1.
     999902    2    1    2    0    0 -0.14212095326E-01  0.11701949868E-01 -0.15890518014E-01  0.10196107104E+01  0.10193206428E+01 0.  0.
     999903    2    3    3    0    0  0.87594911664E-01  0.47331119546E-01  0.77911105022E-01  0.12807672400E+00  0.20503744015E-01 0.  0.
         14    1    1    2    0    0  0.14212095326E-01 -0.11701949868E-01  0.15890518014E-01  0.24319289607E-01  0.00000000000E+00 0.  1.
     999901    1    3    3    0    0 -0.10180700699E+00 -0.35629169678E-01 -0.93801623036E-01  0.89153398639E+00  0.88000000000E+00 0. -1.
        -11    1    4    4    0    0  0.78659466226E-01  0.38452848303E-01  0.74637625423E-01  0.11505202918E+00  0.51100000000E-03 0. -1.
         11    1    4    4    0    0  0.89354454380E-02  0.88782712433E-02  0.32734795997E-02  0.13024694819E-01  0.51100000000E-03 0.  1.
</event>
<event>
 8    1  0.1114333E+005  0.1043930E+01  0.7957747E-01            NaN
         13   -1    0    0    0    0  0.00000000000E+00  0.00000000000E+00  0.74505805969E-08  0.10566000000E+00  0.10566000000E+00 0. -1.
     999900   -1    0    0    0    0 -0.00000000000E+00 -0.00000000000E+00 -0.74505805969E-08  0.93827000000E+00  0.93827000000E+00 0.  1.
     999902    2    1    2    0    0 -0.59342770318E-02  0.88916204986E-02 -0.21306638295E-01  0.10200920178E+01  0.10198134513E+01 0.  0.
     999903    2    3    3    0    0 -0.81038406209E-01 -0.98799605687E-01 -0.15880189064E-01  0.13033504158E+00  0.20160786044E-01 0.  0.
         14    1    1    2    0    0  0.59342770318E-02 -0.88916204986E-02  0.21306638295E-01  0.23837982180E-01  0.00000000000E+00 0. -1.
     999901    1    3    3    0    0  0.75104129178E-01  0.10769122619E+00 -0.54264492312E-02  0.88975697624E+00  0.88000000000E+00 0. -1.
        -11    1    4    4    0    0 -0.44089479781E-01 -0.61597668484E-01 -0.17982741275E-01  0.77857530752E-01  0.51100000000E-03 0.  1.
         11    1    4    4    0    0 -0.36948926428E-01 -0.37201937203E-01  0.21025522105E-02  0.52477510828E-01  0.51100000000E-03 0. -1.
</event>
<event>
 8    1  0.1114333E+005  0.1043930E+01  0.7957747E-01            NaN
         13   -1    0    0    0    0  0.00000000000E+00  0.00000000000E+00  0.74505805969E-08  0.10566000000E+00  0.10566000000E+00 0.  1.
     999900   -1    0    0    0    0 -0.00000000000E+00 -0.00000000000E+00 -0.74505805969E-08  0.93827000000E+00  0.93827000000E+00 0.  1.
     999902    2    1    2    0    0 -0.17217244802E-01  0.14693507593E-01 -0.53349885874E-02  0.10206750051E+01  0.10204100506E+01 0.  0.
     999903    2    3    3    0    0  0.49860413962E-01  0.40936297089E-01  0.11114781720E+00  0.13008175320E+00  0.20139114902E-01 0.  0.
         14    1    1    2    0    0  0.17217244802E-01 -0.14693507593E-01  0.53349885874E-02  0.23254994887E-01  0.00000000000E+00 0.  1.
     999901    1    3    3    0    0 -0.67077658764E-01 -0.26242789496E-01 -0.11648280578E+00  0.89059325191E+00  0.88000000000E+00 0.  1.
        -11    1    4    4    0    0  0.46149092541E-01  0.32103272294E-01  0.82209223432E-01  0.99594057918E-01  0.51100000000E-03 0. -1.
         11    1    4    4    0    0  0.37113214211E-02  0.88330247950E-02  0.28938593764E-01  0.30487695284E-01  0.51100000000E-03 0.  1.
</event>
<event>
 8    1  0.1217164E+005  0.1043930E+01  0.7957747E-01            NaN
         13   -1    0    0    0    0  0.00000000000E+00  0.00000000000E+00  0.74505805969E-08  0.10566000000E+00  0.10566000000E+00 0.  1.
     999900   -1    0    0    0    0 -0.00000000000E+00 -0.00000000000E+00 -0.74505805969E-08  0.93827000000E+00  0.93827000000E+00 0. -1.
     999902    2    1    2    0    0  0.13492877234E-01 -0.18337035790E-02 -0.19690759817E-01  0.10199895274E+01  0.10197085318E+01 0.  0.
     999903    2    3    3    0    0  0.24226946602E-01  0.10589079253E+00 -0.72261854036E-01  0.13179838400E+00  0.18687792649E-01 0.  0.
         14    1    1    2    0    0 -0.13492877234E-01  0.18337035790E-02  0.19690759817E-01  0.23940472573E-01  0.00000000000E+00 0.  1.
     999901    1    3    3    0    0 -0.10734069368E-01 -0.10772449610E+00  0.52571094220E-01  0.88819114342E+00  0.88000000000E+00 0. -1.
        -11    1    4    4    0    0  0.22295160331E-01  0.56519138286E-01 -0.41839698740E-01  0.73772004706E-01  0.51100000000E-03 0.  1.
         11    1    4    4    0    0  0.19317862708E-02  0.49371654240E-01 -0.30422155297E-01  0.58026379298E-01  0.51100000000E-03 0. -1.
</event>
<event>
 8    1  0.1114333E+005  0.1043930E+01  0.7957747E-01            NaN
         13   -1    0    0    0    0  0.00000000000E+00  0.00000000000E+00  0.74505805969E-08  0.10566000000E+00  0.10566000000E+00 0.  1.
     999900   -1    0    0    0    0 -0.00000000000E+00 -0.00000000000E+00 -0.74505805969E-08  0.93827000000E+00  0.93827000000E+00 0.  1.
     999902    2    1    2    0    0  0.10054701592E-01 -0.16362601694E-01 -0.13519673448E-01  0.10204435501E+01  0.10201732331E+01 0.  0.
     999903    2    3    3    0    0  0.95181809422E-01  0.10901821147E-02 -0.90176816608E-01  0.13284705296E+00  0.21347503033E-01 0.  0.
         14    1    1    2    0    0 -0.10054701592E-01  0.16362601694E-01  0.13519673448E-01  0.23486449890E-01  0.00000000000E+00 0. -1.
     999901    1    3    3    0    0 -0.85127107830E-01 -0.17452783808E-01  0.76657143160E-01  0.88759649715E+00  0.88000000000E+00 0. -1.
        -11    1    4    4    0    0  0.46811268737E-01 -0.60923168484E-02 -0.32947309594E-01  0.57569067526E-01  0.51100000000E-03 0. -1.
         11    1    4    4    0    0  0.48370540685E-01  0.71824989631E-02 -0.57229507013E-01  0.75277985437E-01  0.51100000000E-03 0.  1.
</event>
<event>
 8    1  0.1114333E+005  0.1043930E+01  0.7957747E-01            NaN
         13   -1    0    0    0    0  0.00000000000E+00  0.00000000000E+00  0.74505805969E-08  0.10566000000E+00  0.10566000000E+00 0.  1.
     999900   -1    0    0    0    0 -0.00000000000E+00 -0.00000000000E+00 -0.74505805969E-08  0.93827000000E+00  0.93827000000E+00 0.  1.
     999902    2    1    2    0    0  0.50465805135E-02  0.19431825009E-01 -0.13124721027E-01  0.10199441271E+01  0.10196620520E+01 0.  0.
     999903    2    3    3    0    0  0.10486349182E-01 -0.11252900020E+00  0.55140549496E-01  0.12747373673E+00  0.20888608187E-01 0.  0.
         14    1    1    2    0    0 -0.50465805135E-02 -0.19431825009E-01  0.13124721027E-01  0.23985872928E-01  0.00000000000E+00 0.  1.
     999901    1    3    3    0    0 -0.54397686686E-02  0.13196082521E+00 -0.68265270523E-01  0.89247039034E+00  0.88000000000E+00 0.  1.
        -11    1    4    4    0    0  0.14811855047E-01 -0.89757010908E-01  0.49683787836E-01  0.10365544825E+00  0.51100000000E-03 0.  1.
         11    1    4    4    0    0 -0.43255058653E-02 -0.22771989295E-01  0.54567616597E-02  0.23818288482E-01  0.51100000000E-03 0. -1.
</event>
<event>
 8    1  0.1114333E+005  0.1043930E+01  0.7957747E-01            NaN
         13   -1    0    0    0    0  0.00000000000E+00  0.00000000000E+00  0.74505805969E-08  0.10566000000E+00  0.10566000000E+00 0. -1.
     999900   -1    0    0    0    0 -0.00000000000E+00 -0.00000000000E+00 -0.74505805969E-08  0.93827000000E+00  0.93827000000E+00 0. -1.
     999902    2    1    2    0    0  0.25068991729E-01  0.89254627393E-02  0.18654711567E-03  0.10173188551E+01  0.10169707469E+01 0.  0.
     999903    2    3    3    0    0  0.37482218146E-01 -0.12048873573E+00 -0.18344973571E-02  0.12776491771E+00  0.19951358436E-01 0.  0.
         14    1    1    2    0    0 -0.25068991729E-01 -0.89254627393E-02 -0.18654711567E-03  0.26611144869E-01  0.00000000000E+00 0. -1.
     999901    1    3    3    0    0 -0.12413226417E-01  0.12941419847E+00  0.20210444728E-02  0.88955393742E+00  0.88000000000E+00 0. -1.
        -11    1    4    4    0    0  0.32937158420E-02 -0.32430632079E-01  0.53125326509E-02  0.33031478703E-01  0.51100000000E-03 0. -1.
         11    1    4    4    0    0  0.34188502304E-01 -0.88058103648E-01 -0.71470300080E-02  0.94733439010E-01  0.51100000000E-03 0.  1.
</event>
<event>
 8    1  0.1114333E+005  0.1043930E+01  0.7957747E-01            NaN
         13   -1    0    0    0    0  0.00000000000E+00  0.00000000000E+00  0.74505805969E-08  0.10566000000E+00  0.10566000000E+00 0. -1.
     999900   -1    0    0    0    0 -0.00000000000E+00 -0.00000000000E+00 -0.74505805969E-08  0.93827000000E+00  0.93827000000E+00 0.  1.
     999902    2    1    2    0    0  0.15701740832E-01 -0.15144576236E-01  0.71298830864E-02  0.10209792247E+01  0.10207212348E+01 0.  0.
     999903    2    3    3    0    0 -0.96494212151E-01  0.80858289827E-01 -0.14817555015E-01  0.12840644211E+00  0.20480684240E-01 0.  0.
         14    1    1    2    0    0 -0.15701740832E-01  0.15144576236E-01 -0.71298830864E-02  0.22950775311E-01  0.00000000000E+00 0.  1.
     999901    1    3    3    0    0  0.11219595298E+00 -0.96002866063E-01  0.21947438102E-01  0.89257278258E+00  0.88000000000E+00 0. -1.
        -11    1    4    4    0    0 -0.25673278664E-01  0.30778049758E-01 -0.11076001182E-01  0.41585388148E-01  0.51100000000E-03 0. -1.
         11    1    4    4    0    0 -0.70820933487E-01  0.50080240069E-01 -0.37415538328E-02  0.86821053964E-01  0.51100000000E-03 0.  1.
</event>
<event>
 8    1  0.1114333E+005  0.1043930E+01  0.7957747E-01            NaN
         13   -1    0    0    0    0  0.00000000000E+00  0.00000000000E+00  0.74505805969E-08  0.10566000000E+00  0.10566000000E+00 0.  1.
     999900   -1    0    0    0    0 -0.00000000000E+00 -0.00000000000E+00 -0.74505805969E-08  0.93827000000E+00  0.93827000000E+00 0.  1.
     999902    2    1    2    0    0 -0.47003588412E-03 -0.64647564622E-02  0.25449240951E-01  0.10176682812E+01  0.10173293728E+01 0.  0.
     999903    2    3    3    0    0 -0.80046652736E-01 -0.54975716658E-01  0.85088849840E-01  0.13073951621E+00  0.20564841221E-01 0.  0.
         14    1    1    2    0    0  0.47003588412E-03  0.64647564622E-02 -0.25449240951E-01  0.26261718809E-01  0.00000000000E+00 0. -1.
     999901    1    3    3    0    0  0.79576616852E-01  0.48510960196E-01 -0.59639608889E-01  0.88692876498E+00  0.88000000000E+00 0. -1.
        -11    1    4    4    0    0 -0.38740008311E-01 -0.20021171243E-01  0.26720726658E-01  0.51145810151E-01  0.51100000000E-03 0. -1.
         11    1    4    4    0    0 -0.41306644425E-01 -0.34954545416E-01  0.58368123181E-01  0.79593706055E-01  0.51100000000E-03 0.  1.
</event>
<event>
 8    1  0.1114333E+005  0.1043930E+01  0.7957747E-01            NaN
         13   -1    0    0    0    0  0.00000000000E+00  0.00000000000E+00  0.74505805969E-08  0.10566000000E+00  0.10566000000E+00 0. -1.
     999900   -1    0    0    0    0 -0.00000000000E+00 -0.00000000000E+00 -0.74505805969E-08  0.93827000000E+00  0.93827000000E+00 0. -1.
     999902    2    1    2    0    0  0.14783870069E-01  0.17248782945E-01  0.87566548054E-02  0.10195832891E+01  0.10192925591E+01 0.  0.
     999903    2    3    3    0    0 -0.12456146447E+00 -0.17081912716E-01 -0.11684826521E-01  0.12772367400E+00  0.19221122633E-01 0.  0.
         14    1    1    2    0    0 -0.14783870069E-01 -0.17248782945E-01 -0.87566548054E-02  0.24346710880E-01  0.00000000000E+00 0. -1.
     999901    1    3    3    0    0  0.13934533454E+00  0.34330695661E-01  0.20441481327E-01  0.89185961512E+00  0.88000000000E+00 0. -1.
        -11    1    4    4    0    0 -0.99267068324E-01 -0.72820888591E-02 -0.44040655664E-02  0.99632507678E-01  0.51100000000E-03 0. -1.
         11    1    4    4    0    0 -0.25294396150E-01 -0.97998238569E-02 -0.72807609550E-02  0.28091166321E-01  0.51100000000E-03 0.  1.
</event>
<event>
 8    1  0.1114333E+005  0.1043930E+01  0.7957747E-01            NaN
         13   -1    0    0    0    0  0.00000000000E+00  0.00000000000E+00  0.74505805969E-08  0.10566000000E+00  0.10566000000E+00 0.  1.
     999900   -1    0    0    0    0 -0.00000000000E+00 -0.00000000000E+00 -0.74505805969E-08  0.93827000000E+00  0.93827000000E+00 0. -1.
     999902    2    1    2    0    0  0.58719077528E-02 -0.52130192906E-02  0.22386622540E-01  0.10202062621E+01  0.10199303905E+01 0.  0.
     999903    2    3    3    0    0  0.47176018061E-02  0.84221074124E-01 -0.93748981068E-01  0.12808112071E+00  0.22370894888E-01 0.  0.
         14    1    1    2    0    0 -0.58719077528E-02  0.52130192906E-02 -0.22386622540E-01  0.23723737891E-01  0.00000000000E+00 0. -1.
     999901    1    3    3    0    0  0.11543059467E-02 -0.89434093414E-01  0.11613560361E+00  0.89212514140E+00  0.88000000000E+00 0. -1.
        -11    1    4    4    0    0  0.10926225941E-01  0.29240494354E-01 -0.41904635045E-01  0.52255607189E-01  0.51100000000E-03 0. -1.
         11    1    4    4    0    0 -0.62086241352E-02  0.54980579770E-01 -0.51844346023E-01  0.75825513523E-01  0.51100000000E-03 0.  1.
</event>
<event>
 8    1  0.1114333E+005  0.1043930E+01  0.7957747E-01            NaN
         13   -1    0    0    0    0  0.00000000000E+00  0.00000000000E+00  0.74505805969E-08  0.10566000000E+00  0.10566000000E+00 0.  1.
     999900   -1    0    0    0    0 -0.00000000000E+00 -0.00000000000E+00 -0.74505805969E-08  0.93827000000E+00  0.93827000000E+00 0.  1.
     999902    2    1    2    0    0 -0.83871820890E-02 -0.14244914206E-01 -0.27992652040E-01  0.10114207556E+01  0.10108981620E+01 0.  0.
     999903    2    3    3    0    0  0.92976261357E-01 -0.69939264115E-01 -0.37603211053E-01  0.12380103345E+00  0.19406405155E-01 0.  0.
         14    1    1    2    0    0  0.83871820890E-02  0.14244914206E-01  0.27992652040E-01  0.32509244414E-01  0.00000000000E+00 0.  1.
     999901    1    3    3    0    0 -0.10136344345E+00  0.55694349909E-01  0.96105590132E-02  0.88761972214E+00  0.88000000000E+00 0.  1.
        -11    1    4    4    0    0  0.23915393184E-01 -0.29246901529E-01 -0.12769740514E-01  0.39883012349E-01  0.51100000000E-03 0.  1.
         11    1    4    4    0    0  0.69060868173E-01 -0.40692362586E-01 -0.24833470539E-01  0.83918021102E-01  0.51100000000E-03 0. -1.
</event>
<event>
 8    1  0.1114333E+005  0.1043930E+01  0.7957747E-01            NaN
         13   -1    0    0    0    0  0.00000000000E+00  0.00000000000E+00  0.74505805969E-08  0.10566000000E+00  0.10566000000E+00 0.  1.
     999900   -1    0    0    0    0 -0.00000000000E+00 -0.00000000000E+00 -0.74505805969E-08  0.93827000000E+00  0.93827000000E+00 0. -1.
     999902    2    1    2    0    0 -0.39990175471E-02  0.13678056713E-01 -0.19259919627E-01  0.10199711628E+01  0.10196897308E+01 0.  0.
     999903    2    3    3    0    0 -0.85144495889E-01 -0.49103732700E-01  0.80093205722E-01  0.12845717789E+00  0.20629183310E-01 0.  0.
         14    1    1    2    0    0  0.39990175471E-02 -0.13678056713E-01  0.19259919627E-01  0.23958837218E-01  0.00000000000E+00 0. -1.
     999901    1    3    3    0    0  0.81145478342E-01  0.62781789413E-01 -0.99353125349E-01  0.89151398489E+00  0.88000000000E+00 0. -1.
        -11    1    4    4    0    0 -0.36267411058E-01 -0.20821830302E-01  0.21294302955E-01  0.46931675671E-01  0.51100000000E-03 0. -1.
         11    1    4    4    0    0 -0.48877084831E-01 -0.28281902398E-01  0.58798902767E-01  0.81525502222E-01  0.51100000000E-03 0.  1.
</event>
<event>
 8    1  0.1114333E+005  0.1043930E+01  0.7957747E-01            NaN
         13   -1    0    0    0    0  0.00000000000E+00  0.00000000000E+00  0.74505805969E-08  0.10566000000E+00  0.10566000000E+00 0. -1.
     999900   -1    0    0    0    0 -0.00000000000E+00 -0.00000000000E+00 -0.74505805969E-08  0.93827000000E+00  0.93827000000E+00 0. -1.
     999902    2    1    2    0    0  0.13842937783E-01 -0.11111218051E-01  0.18853231563E-01  0.10180353976E+01  0.10177060186E+01 0.  0.
     999903    2    3    3    0    0  0.85134526554E-01  0.23303078180E-01  0.94695540794E-01  0.13123277566E+00  0.21537755140E-01 0.  0.
         14    1    1    2    0    0 -0.13842937783E-01  0.11111218051E-01 -0.18853231563E-01  0.25894602400E-01  0.00000000000E+00 0.  1.
     999901    1    3    3    0    0 -0.71291588770E-01 -0.34414296231E-01 -0.75842309231E-01  0.88680262194E+00  0.88000000000E+00 0. -1.
        -11    1    4    4    0    0  0.49824208031E-01  0.30818596012E-02  0.47401137019E-01  0.68840965102E-01  0.51100000000E-03 0.  1.
         11    1    4    4    0    0  0.35310318522E-01  0.20221218579E-01  0.47294403775E-01  0.62391810556E-01  0.51100000000E-03 0. -1.
</event>
<event>
 8    1  0.1114333E+005  0.1043930E+01  0.7957747E-01            NaN
         13   -1    0    0    0    0  0.00000000000E+00  0.00000000000E+00  0.74505805969E-08  0.10566000000E+00  0.10566000000E+00 0. -1.
     999900   -1    0    0    0    0 -0.00000000000E+00 -0.00000000000E+00 -0.74505805969E-08  0.93827000000E+00  0.93827000000E+00 0. -1.
     999902    2    1    2    0    0 -0.15067653169E-01  0.16297699027E-01  0.92562137512E-02  0.10198815768E+01  0.10195980110E+01 0.  0.
     999903    2    3    3    0    0 -0.55245193182E-01  0.25864225673E-02 -0.11595639435E+00  0.13000493869E+00  0.19916770313E-01 0.  0.
         14    1    1    2    0    0  0.15067653169E-01 -0.16297699027E-01 -0.92562137512E-02  0.24048423204E-01  0.00000000000E+00 0. -1.
     999901    1    3    3    0    0  0.40177540014E-01  0.13711276460E-01  0.12521260811E+00  0.88987663811E+00  0.88000000000E+00 0.  1.
        -11    1    4    4    0    0 -0.18903639252E-01 -0.57314157120E-02 -0.56179647278E-01  0.59553426369E-01  0.51100000000E-03 0.  1.
         11    1    4    4    0    0 -0.36341553931E-01  0.83178382793E-02 -0.59776747077E-01  0.70451512317E-01  0.51100000000E-03 0. -1.
</event>
<event>
 8    1  0.1114333E+005  0.1043930E+01  0.7957747E-01            NaN
         13   -1    0    0    0    0  0.00000000000E+00  0.00000000000E+00  0.74505805969E-08  0.10566000000E+00  0.10566000000E+00 0.  1.
     999900   -1    0    0    0    0 -0.00000000000E+00 -0.00000000000E+00 -0.74505805969E-08  0.93827000000E+00  0.93827000000E+00 0. -1.
     999902    2    1    2    0    0 -0.26556820589E-02  0.56415293550E-02  0.20410722342E-01  0.10225880908E+01  0.10223653586E+01 0.  0.
     999903    2    3    3    0    0  0.11183660374E-01  0.67705434235E-01  0.11485360714E+00  0.13525336583E+00  0.19824777740E-01 0.  0.
         14    1    1    2    0    0  0.26556820589E-02 -0.56415293550E-02 -0.20410722342E-01  0.21341909174E-01  0.00000000000E+00 0. -1.
     999901    1    3    3    0    0 -0.13839342433E-01 -0.62063904880E-01 -0.94442884796E-01  0.88733472499E+00  0.88000000000E+00 0. -1.
        -11    1    4    4    0    0 -0.21374168394E-02  0.32581538754E-01  0.65883437651E-01  0.73532398955E-01  0.51100000000E-03 0.  1.
         11    1    4    4    0    0  0.13321077213E-01  0.35123895481E-01  0.48970169487E-01  0.61720966879E-01  0.51100000000E-03 0. -1.
</event>
<event>
 8    1  0.1114333E+005  0.1043930E+01  0.7957747E-01            NaN
         13   -1    0    0    0    0  0.00000000000E+00  0.00000000000E+00  0.74505805969E-08  0.10566000000E+00  0.10566000000E+00 0.  1.
     999900   -1    0    0    0    0 -0.00000000000E+00 -0.00000000000E+00 -0.74505805969E-08  0.93827000000E+00  0.93827000000E+00 0.  1.
     999902    2    1    2    0    0 -0.11229678921E-03  0.53187058573E-02  0.26327477946E-01  0.10170704144E+01  0.10167156882E+01 0.  0.
     999903    2    3    3    0    0 -0.87074304154E-01 -0.86835490231E-01  0.29307026086E-01  0.12799017941E+00  0.20006185023E-01 0.  0.
         14    1    1    2    0    0  0.11229678921E-03 -0.53187058573E-02 -0.26327477946E-01  0.26859585581E-01  0.00000000000E+00 0. -1.
     999901    1    3    3    0    0  0.86962007365E-01  0.92154196088E-01 -0.29795481393E-02  0.88908023501E+00  0.88000000000E+00 0. -1.
        -11    1    4    4    0    0 -0.24735585979E-01 -0.30990004500E-01  0.17945100652E-01  0.43526053704E-01  0.51100000000E-03 0.  1.
         11    1    4    4    0    0 -0.62338718176E-01 -0.55845485731E-01  0.11361925433E-01  0.84464125703E-01  0.51100000000E-03 0. -1.
</event>
<event>
 8    1  0.1114333E+005  0.1043930E+01  0.7957747E-01            NaN
         13   -1    0    0    0    0  0.00000000000E+00  0.00000000000E+00  0.74505805969E-08  0.10566000000E+00  0.10566000000E+00 0. -1.
     999900   -1    0    0    0    0 -0.00000000000E+00 -0.00000000000E+00 -0.74505805969E-08  0.93827000000E+00  0.93827000000E+00 0. -1.
     999902    2    1    2    0    0 -0.65448020481E-02  0.58909212512E-02  0.22511900621E-01  0.10197572249E+01  0.10194706836E+01 0.  0.
     999903    2    3    3    0    0 -0.11441723559E+00 -0.33558109042E-01 -0.45004236248E-01  0.12972850813E+00  0.24220942592E-01 0.  0.
         14    1    1    2    0    0  0.65448020481E-02 -0.58909212512E-02 -0.22511900621E-01  0.24172775111E-01  0.00000000000E+00 0.  1.
     999901    1    3    3    0    0  0.10787243354E+00  0.39449030293E-01  0.67516136868E-01  0.89002871675E+00  0.88000000000E+00 0.  1.
        -11    1    4    4    0    0 -0.71835519332E-02 -0.43544467616E-02 -0.10289268296E-01  0.13292659178E-01  0.51100000000E-03 0.  1.
         11    1    4    4    0    0 -0.10723368366E+00 -0.29203662280E-01 -0.34714967952E-01  0.11643584896E+00  0.51100000000E-03 0. -1.
</event>
<event>
 8    1  0.1114333E+005  0.1043930E+01  0.7957747E-01            NaN
         13   -1    0    0    0    0  0.00000000000E+00  0.00000000000E+00  0.74505805969E-08  0.10566000000E+00  0.10566000000E+00 0.  1.
     999900   -1    0    0    0    0 -0.00000000000E+00 -0.00000000000E+00 -0.74505805969E-08  0.93827000000E+00  0.93827000000E+00 0. -1.
     999902    2    1    2    0    0 -0.95187656748E-02 -0.18814977032E-01  0.10775535640E-01  0.10202504217E+01  0.10199755882E+01 0.  0.
     999903    2    3    3    0    0 -0.87637183548E-01  0.29328376469E-01 -0.88970923757E-01  0.12987430686E+00  0.20275125181E-01 0.  0.
         14    1    1    2    0    0  0.95187656748E-02  0.18814977032E-01 -0.10775535640E-01  0.23679578312E-01  0.00000000000E+00 0. -1.
     999901    1    3    3    0    0  0.78118417874E-01 -0.48143353501E-01  0.99746459398E-01  0.89037611483E+00  0.88000000000E+00 0.  1.
        -11    1    4    4    0    0 -0.74968517718E-02  0.14148745669E-02 -0.16851343708E-01  0.18504960478E-01  0.51100000000E-03 0.  1.
         11    1    4    4    0    0 -0.80140331777E-01  0.27913501902E-01 -0.72119580050E-01  0.11136934638E+00  0.51100000000E-03 0. -1.
</event>
<event>
 8    1  0.1114333E+005  0.1043930E+01  0.7957747E-01            NaN
         13   -1    0    0    0    0  0.00000000000E+00  0.00000000000E+00  0.74505805969E-08  0.10566000000E+00  0.10566000000E+00 0.  1.
     999900   -1    0    0    0    0 -0.00000000000E+00 -0.00000000000E+00 -0.74505805969E-08  0.93827000000E+00  0.93827000000E+00 0. -1.
     999902    2    1    2    0    0  0.20187175485E-01 -0.12119891497E-01 -0.86432055355E-03  0.10203681479E+01  0.10200960721E+01 0.  0.
     999903    2    3    3    0    0 -0.65523949443E-01 -0.29347890704E-01 -0.10650658419E+00  0.12974842616E+00  0.18338892460E-01 0.  0.
         14    1    1    2    0    0 -0.20187175485E-01  0.12119891497E-01  0.86432055355E-03  0.23561852092E-01  0.00000000000E+00 0. -1.
     999901    1    3    3    0    0  0.85711124928E-01  0.17227999206E-01  0.10564226364E+00  0.89061972174E+00  0.88000000000E+00 0. -1.
        -11    1    4    4    0    0 -0.13656162176E-01  0.10243937888E-02 -0.15572330273E-01  0.20743643343E-01  0.51100000000E-03 0. -1.
         11    1    4    4    0    0 -0.51867787267E-01 -0.30372284492E-01 -0.90934253918E-01  0.10900478282E+00  0.51100000000E-03 0.  1.
</event>
<event>
 8    1  0.1114333E+005  0.1043930E+01  0.7957747E-01            NaN
         13   -1    0    0    0    0  0.00000000000E+00  0.00000000000E+00  0.74505805969E-08  0.10566000000E+00  0.10566000000E+00 0.  1.
     999900   -1    0    0    0    0 -0.00000000000E+00 -0.00000000000E+00 -0.74505805969E-08  0.93827000000E+00  0.93827000000E+00 0.  1.
     999902    2    1    2    0    0  0.67961120973E-02  0.14750952489E-01  0.15929760873E-01  0.10211806040E+01  0.10209271722E+01 0.  0.
     999903    2    3    3    0    0 -0.61842058320E-01  0.83417322290E-01 -0.77536915587E-01  0.13092092926E+00  0.18585655865E-01 0.  0.
         14    1    1    2    0    0 -0.67961120973E-02 -0.14750952489E-01 -0.15929760873E-01  0.22749396046E-01  0.00000000000E+00 0. -1.
     999901    1    3    3    0    0  0.68638170418E-01 -0.68666369801E-01  0.93466676460E-01  0.89025967470E+00  0.88000000000E+00 0. -1.
        -11    1    4    4    0    0 -0.17344895412E-01  0.11209487433E-01 -0.16035032266E-01  0.26151125906E-01  0.51100000000E-03 0. -1.
         11    1    4    4    0    0 -0.44497162908E-01  0.72207834857E-01 -0.61501883321E-01  0.10476980335E+00  0.51100000000E-03 0.  1.
</event>
<event>
 8    1  0.1114333E+005  0.1043930E+01  0.7957747E-01            NaN
         13   -1    0    0    0    0  0.00000000000E+00  0.00000000000E+00  0.74505805969E-08  0.10566000000E+00  0.10566000000E+00 0. -1.
     999900   -1    0    0    0    0 -0.00000000000E+00 -0.00000000000E+00 -0.74505805969E-08  0.93827000000E+00  0.93827000000E+00 0.  1.
     999902    2    1    2    0    0  0.16358404667E-02  0.12203328382E-01 -0.19223869053E-01  0.10211011950E+01  0.10208459708E+01 0.  0.
     999903    2    3    3    0    0  0.78784816998E-01 -0.47155017159E-01  0.88580236809E-01  0.12919475201E+00  0.20351475623E-01 0.  0.
         14    1    1    2    0    0 -0.16358404667E-02 -0.12203328382E-01  0.19223869053E-01  0.22828805028E-01  0.00000000000E+00 0. -1.
     999901    1    3    3    0    0 -0.77148976531E-01  0.59358345541E-01 -0.10780410586E+00  0.89190644297E+00  0.88000000000E+00 0.  1.
        -11    1    4    4    0    0  0.51317455480E-01 -0.41487919225E-01  0.61609562523E-01  0.90281382321E-01  0.51100000000E-03 0. -1.
         11    1    4    4    0    0  0.27467361518E-01 -0.56670979332E-02  0.26970674286E-01  0.38913369684E-01  0.51100000000E-03 0.  1.
</event>
<event>
 8    1  0.1114333E+005  0.1043930E+01  0.7957747E-01            NaN
         13   -1    0    0    0    0  0.00000000000E+00  0.00000000000E+00  0.74505805969E-08  0.10566000000E+00  0.10566000000E+00 0.  1.
     999900   -1    0    0    0    0 -0.00000000000E+00 -0.00000000000E+00 -0.74505805969E-08  0.93827000000E+00  0.93827000000E+00 0.  1.
     999902    2    1    2    0    0  0.57665110752E-02 -0.70474109932E-03 -0.22779748273E-01  0.10204211455E+01  0.10201503065E+01 0.  0.
     999903    2    3    3    0    0  0.97731786197E-01  0.64106296637E-01  0.53348551537E-01  0.12999787507E+00  0.19805561566E-01 0.  0.
         14    1    1    2    0    0 -0.57665110752E-02  0.70474109932E-03  0.22779748273E-01  0.23508854532E-01  0.00000000000E+00 0.  1.
     999901    1    3    3    0    0 -0.91965275122E-01 -0.64811037736E-01 -0.76128299810E-01  0.89042327040E+00  0.88000000000E+00 0.  1.
        -11    1    4    4    0    0  0.24928422850E-01  0.16817718809E-01  0.23594159134E-01  0.38225742608E-01  0.51100000000E-03 0. -1.
         11    1    4    4    0    0  0.72803363348E-01  0.47288577828E-01  0.29754392403E-01  0.91772132459E-01  0.51100000000E-03 0.  1.
</event>
<event>
 8    1  0.1114333E+005  0.1043930E+01  0.7957747E-01            NaN
         13   -1    0    0    0    0  0.00000000000E+00  0.00000000000E+00  0.74505805969E-08  0.10566000000E+00  0.10566000000E+00 0. -1.
     999900   -1    0    0    0    0 -0.00000000000E+00 -0.00000000000E+00 -0.74505805969E-08  0.93827000000E+00  0.93827000000E+00 0.  1.
     999902    2    1    2    0    0  0.11466794226E-01  0.17218634681E-01 -0.94884179570E-02  0.10211704125E+01  0.10209167510E+01 0.  0.
     999903    2    3    3    0    0 -0.43358663979E-01 -0.11553934520E+00  0.30979561317E-01  0.12860771469E+00  0.18732245653E-01 0.  0.
         14    1    1    2    0    0 -0.11466794226E-01 -0.17218634681E-01  0.94884179570E-02  0.22759587549E-01  0.00000000000E+00 0. -1.
     999901    1    3    3    0    0  0.54825458205E-01  0.13275797988E+00 -0.40467979274E-01  0.89256269776E+00  0.88000000000E+00 0. -1.
        -11    1    4    4    0    0 -0.32444398865E-01 -0.97529074150E-01  0.19504226778E-01  0.10461947861E+00  0.51100000000E-03 0. -1.
         11    1    4    4    0    0 -0.10914265114E-01 -0.18010271049E-01  0.11475334538E-01  0.23988236075E-01  0.51100000000E-03 0.  1.
</event>
<event>
 8    1  0.1114333E+005  0.1043930E+01  0.7957747E-01            NaN
         13   -1    0    0    0    0  0.00000000000E+00  0.00000000000E+00  0.74505805969E-08  0.10566000000E+00  0.10566000000E+00 0. -1.
     999900   -1    0    0    0    0 -0.00000000000E+00 -0.00000000000E+00 -0.74505805969E-08  0.93827000000E+00  0.93827000000E+00 0.  1.
     999902    2    1    2    0    0  0.23419659826E-01  0.23821954971E-03  0.77337768902E-02  0.10192652778E+01  0.10189668091E+01 0.  0.
     999903    2    3    3    0    0 -0.58405816201E-01 -0.10695132459E+00 -0.34413124722E-01  0.12799575169E+00  0.18676833262E-01 0.  0.
         14    1    1    2    0    0 -0.23419659826E-01 -0.23821954971E-03 -0.77337768902E-02  0.24664722174E-01  0.00000000000E+00 0.  1.
     999901    1    3    3    0    0  0.81825476028E-01  0.10718954414E+00  0.42146901612E-01  0.89126952613E+00  0.88000000000E+00 0. -1.
        -11    1    4    4    0    0 -0.43557414710E-01 -0.73644269117E-01 -0.32325950888E-01  0.91465594470E-01  0.51100000000E-03 0. -1.
         11    1    4    4    0    0 -0.14848401491E-01 -0.33307055471E-01 -0.20871738340E-02  0.36530157221E-01  0.51100000000E-03 0.  1.
</event>
<event>
 8    1  0.1114333E+005  0.1043930E+01  0.7957747E-01            NaN
         13   -1    0    0    0    0  0.00000000000E+00  0.00000000000E+00  0.74505805969E-08  0.10566000000E+00  0.10566000000E+00 0. -1.
     999900   -1    0    0    0    0 -0.00000000000E+00 -0.00000000000E+00 -0.74505805969E-08  0.93827000000E+00  0.93827000000E+00 0. -1.
     999902    2    1    2    0    0  0.46161026103E-02  0.22974056468E-01 -0.49262381144E-02  0.10199845725E+01  0.10197034592E+01 0.  0.
     999903    2    3    3    0    0 -0.74273069647E-01 -0.57939576533E-01  0.84705932282E-01  0.12824220870E+00  0.19937044057E-01 0.  0.
         14    1    1    2    0    0 -0.46161026103E-02 -0.22974056468E-01  0.49262381144E-02  0.23945427452E-01  0.00000000000E+00 0.  1.
     999901    1    3    3    0    0  0.78889172258E-01  0.80913633001E-01 -0.89632170397E-01  0.89174236384E+00  0.88000000000E+00 0.  1.
        -11    1    4    4    0    0 -0.24016636884E-01 -0.15145986248E-01  0.14530314774E-01  0.31899700862E-01  0.51100000000E-03 0.  1.
         11    1    4    4    0    0 -0.50256432763E-01 -0.42793590284E-01  0.70175617508E-01  0.96342507842E-01  0.51100000000E-03 0. -1.
</event>
<event>
 8    1  0.1114333E+005  0.1043930E+01  0.7957747E-01            NaN
         13   -1    0    0    0    0  0.00000000000E+00  0.00000000000E+00  0.74505805969E-08  0.10566000000E+00  0.10566000000E+00 0. -1.
     999900   -1    0    0    0    0 -0.00000000000E+00 -0.00000000000E+00 -0.74505805969E-08  0.93827000000E+00  0.93827000000E+00 0. -1.
     999902    2    1    2    0    0 -0.27081629960E-01 -0.73145599610E-02  0.85373710553E-02  0.10146075824E+01  0.10141837812E+01 0.  0.
     999903    2    3    3    0    0 -0.37306821712E-01 -0.26994601904E-01 -0.11512394906E+00  0.12568464948E+00  0.20557236914E-01 0.  0.
         14    1    1    2    0    0  0.27081629960E-01  0.73145599610E-02 -0.85373710553E-02  0.29322417588E-01  0.00000000000E+00 0.  1.
     999901    1    3    3    0    0  0.10225191752E-01  0.19680041943E-01  0.12366132012E+00  0.88892293293E+00  0.88000000000E+00 0.  1.
        -11    1    4    4    0    0 -0.16545115699E-01 -0.64058136792E-02 -0.23136005882E-01  0.29160095877E-01  0.51100000000E-03 0.  1.
         11    1    4    4    0    0 -0.20761706013E-01 -0.20588788225E-01 -0.91987943179E-01  0.96524553604E-01  0.51100000000E-03 0. -1.
</event>
<event>
 8    1  0.1114333E+005  0.1043930E+01  0.7957747E-01            NaN
         13   -1    0    0    0    0  0.00000000000E+00  0.00000000000E+00  0.74505805969E-08  0.10566000000E+00  0.10566000000E+00 0.  1.
     999900   -1    0    0    0    0 -0.00000000000E+00 -0.00000000000E+00 -0.74505805969E-08  0.93827000000E+00  0.93827000000E+00 0. -1.
     999902    2    1    2    0    0 -0.11861751679E-01 -0.17047353466E-01 -0.10552578370E-01  0.10206347146E+01  0.10203688305E+01 0.  0.
     999903    2    3    3    0    0  0.10270954421E+00 -0.76855005877E-01  0.15692129361E-01  0.13080758427E+00  0.20209868325E-01 0.  0.
         14    1    1    2    0    0  0.11861751679E-01  0.17047353466E-01  0.10552578370E-01  0.23295285432E-01  0.00000000000E+00 0.  1.
     999901    1    3    3    0    0 -0.11457129589E+00  0.59807652410E-01 -0.26244707731E-01  0.88982713030E+00  0.88000000000E+00 0. -1.
        -11    1    4    4    0    0  0.72641833810E-01 -0.42333886570E-01  0.98511473299E-02  0.84654002836E-01  0.51100000000E-03 0. -1.
         11    1    4    4    0    0  0.30067710404E-01 -0.34521119306E-01  0.58409820315E-02  0.46153581434E-01  0.51100000000E-03 0.  1.
</event>
<event>
 8    1  0.1114333E+005  0.1043930E+01  0.7957747E-01            NaN
         13   -1    0    0    0    0  0.00000000000E+00  0.00000000000E+00  0.74505805969E-08  0.10566000000E+00  0.10566000000E+00 0. -1.
     999900   -1    0    0    0    0 -0.00000000000E+00 -0.00000000000E+00 -0.74505805969E-08  0.93827000000E+00  0.93827000000E+00 0.  1.
     999902    2    1    2    0    0 -0.23667748254E-01  0.14098637828E-02  0.30597083345E-02  0.10200236862E+01  0.10197435014E+01 0.  0.
     999903    2    3    3    0    0  0.88363878570E-01  0.60825221808E-01 -0.67318466064E-01  0.12815241883E+00  0.19580192385E-01 0.  0.
         14    1    1    2    0    0  0.23667748254E-01 -0.14098637828E-02 -0.30597083345E-02  0.23906313776E-01  0.00000000000E+00 0.  1.
     999901    1    3    3    0    0 -0.11203162682E+00 -0.59415358025E-01  0.70378174398E-01  0.89187126740E+00  0.88000000000E+00 0. -1.
        -11    1    4    4    0    0  0.83604197981E-01  0.59082807124E-01 -0.58345519884E-01  0.11783420908E+00  0.51100000000E-03 0. -1.
         11    1    4    4    0    0  0.47596805889E-02  0.17424146843E-02 -0.89729461800E-02  0.10318209747E-01  0.51100000000E-03 0.  1.
</event>
<event>
 8    1  0.1114333E+005  0.1043930E+01  0.7957747E-01            NaN
         13   -1    0    0    0    0  0.00000000000E+00  0.00000000000E+00  0.74505805969E-08  0.10566000000E+00  0.10566000000E+00 0. -1.
     999900   -1    0    0    0    0 -0.00000000000E+00 -0.00000000000E+00 -0.74505805969E-08  0.93827000000E+00  0.93827000000E+00 0.  1.
     999902    2    1    2    0    0  0.27927151327E-01 -0.21237070971E-01  0.19726759353E-02  0.10087898461E+01  0.10081776248E+01 0.  0.
     999903    2    3    3    0    0 -0.88481726165E-02 -0.97567557062E-01 -0.69404475352E-01  0.12184370047E+00  0.20765061873E-01 0.  0.
         14    1    1    2    0    0 -0.27927151327E-01  0.21237070971E-01 -0.19726759353E-02  0.35140153884E-01  0.00000000000E+00 0.  1.
     999901    1    3    3    0    0  0.36775323943E-01  0.76330486090E-01  0.71377151287E-01  0.88694614565E+00  0.88000000000E+00 0. -1.
        -11    1    4    4    0    0  0.70370398923E-03 -0.66584370753E-02 -0.12438558597E-01  0.14135375642E-01  0.51100000000E-03 0.  1.
         11    1    4    4    0    0 -0.95518766057E-02 -0.90909119987E-01 -0.56965916755E-01  0.10770832482E+00  0.51100000000E-03 0. -1.
</event>
<event>
 8    1  0.1114333E+005  0.1043930E+01  0.7957747E-01            NaN
         13   -1    0    0    0    0  0.00000000000E+00  0.00000000000E+00  0.74505805969E-08  0.10566000000E+00  0.10566000000E+00 0.  1.
     999900   -1    0    0    0    0 -0.00000000000E+00 -0.00000000000E+00 -0.74505805969E-08  0.93827000000E+00  0.93827000000E+00 0. -1.
     999902    2    1    2    0    0  0.10897082247E-01 -0.21290374257E-01 -0.26721631631E-02  0.10198641135E+01  0.10195801308E+01 0.  0.
     999903    2    3    3    0    0 -0.55934652829E-01 -0.10317462867E+00  0.55950498070E-01  0.13160281841E+00  0.20375332863E-01 0.  0.
         14    1    1    2    0    0 -0.10897082247E-01  0.21290374257E-01  0.26721631631E-02  0.24065886509E-01  0.00000000000E+00 0. -1.
     999901    1    3    3    0    0  0.66831735076E-01  0.81884254416E-01 -0.58622661233E-01  0.88826129508E+00  0.88000000000E+00 0. -1.
        -11    1    4    4    0    0 -0.45178410067E-01 -0.64474001584E-01  0.33256747435E-01  0.85464951807E-01  0.51100000000E-03 0. -1.
         11    1    4    4    0    0 -0.10756242762E-01 -0.38700627090E-01  0.22693750634E-01  0.46137866599E-01  0.51100000000E-03 0.  1.
</event>
<event>
 8    1  0.1114333E+005  0.1043930E+01  0.7957747E-01            NaN
         13   -1    0    0    0    0  0.00000000000E+00  0.00000000000E+00  0.74505805969E-08  0.10566000000E+00  0.10566000000E+00 0. -1.
     999900   -1    0    0    0    0 -0.00000000000E+00 -0.00000000000E+00 -0.74505805969E-08  0.93827000000E+00  0.93827000000E+00 0. -1.
     999902    2    1    2    0    0 -0.14450740257E-02  0.23884842614E-01 -0.59415160175E-03  0.10199941072E+01  0.10197132204E+01 0.  0.
     999903    2    3    3    0    0  0.70853833772E-01 -0.23606008181E-01 -0.10417680158E+00  0.12970658158E+00  0.19836379143E-01 0.  0.
         14    1    1    2    0    0  0.14450740257E-02 -0.23884842614E-01  0.59415160175E-03  0.23935892751E-01  0.00000000000E+00 0.  1.
     999901    1    3    3    0    0 -0.72298907798E-01  0.47490850796E-01  0.10358264997E+00  0.89028752566E+00  0.88000000000E+00 0.  1.
        -11    1    4    4    0    0  0.27855911546E-01 -0.10606012908E-01 -0.58402823521E-01  0.65571260733E-01  0.51100000000E-03 0.  1.
         11    1    4    4    0    0  0.42997922226E-01 -0.12999995273E-01 -0.45773978054E-01  0.64135320852E-01  0.51100000000E-03 0. -1.
</event>
<event>
 8    1  0.1114333E+005  0.1043930E+01  0.7957747E-01            NaN
         13   -1    0    0    0    0  0.00000000000E+00  0.00000000000E+00  0.74505805969E-08  0.10566000000E+00  0.10566000000E+00 0.  1.
     999900   -1    0    0    0    0 -0.00000000000E+00 -0.00000000000E+00 -0.74505805969E-08  0.93827000000E+00  0.93827000000E+00 0. -1.
     999902    2    1    2    0    0 -0.12666609166E-01  0.29363745364E-03  0.21100404030E-01  0.10193178839E+01  0.10190207025E+01 0.  0.
     999903    2    3    3    0    0 -0.94047718106E-01  0.80576636573E-01  0.40149981368E-01  0.13171936469E+00  0.20010057153E-01 0.  0.
         14    1    1    2    0    0  0.12666609166E-01 -0.29363745364E-03 -0.21100404030E-01  0.24612116142E-01  0.00000000000E+00 0.  1.
     999901    1    3    3    0    0  0.81381108940E-01 -0.80282999119E-01 -0.19049577338E-01  0.88759851917E+00  0.88000000000E+00 0.  1.
        -11    1    4    4    0    0 -0.12386884212E-01  0.56049373246E-02  0.98444596119E-02  0.16793591902E-01  0.51100000000E-03 0.  1.
         11    1    4    4    0    0 -0.81660833893E-01  0.74971699248E-01  0.30305521756E-01  0.11492577278E+00  0.51100000000E-03 0. -1.
</event>
<event>
 8    1  0.1114333E+005  0.1043930E+01  0.7957747E-01            NaN
         13   -1    0    0    0    0  0.00000000000E+00  0.00000000000E+00  0.74505805969E-08  0.10566000000E+00  0.10566000000E+00 0. -1.
     999900   -1    0    0    0    0 -0.00000000000E+00 -0.00000000000E+00 -0.74505805969E-08  0.93827000000E+00  0.93827000000E+00 0. -1.
     999902    2    1    2    0    0 -0.35455322989E-02 -0.11078214361E-01 -0.21824440203E-01  0.10191993748E+01  0.10188992893E+01 0.  0.
     999903    2    3    3    0    0  0.11140022974E+00 -0.60554898716E-01  0.17482436190E-01  0.12947722658E+00  0.19539950898E-01 0.  0.
         14    1    1    2    0    0  0.35455322989E-02  0.11078214361E-01  0.21824440203E-01  0.24730625202E-01  0.00000000000E+00 0.  1.
     999901    1    3    3    0    0 -0.11494576204E+00  0.49476684355E-01 -0.39306876393E-01  0.88972214822E+00  0.88000000000E+00 0.  1.
        -11    1    4    4    0    0  0.10534844795E+00 -0.61145879385E-01  0.18754357391E-01  0.12324407123E+00  0.51100000000E-03 0.  1.
         11    1    4    4    0    0  0.60517817886E-02  0.59098066867E-03 -0.12719212004E-02  0.62331553412E-02  0.51100000000E-03 0. -1.
</event>
<event>
 8    1  0.1114333E+005  0.1043930E+01  0.7957747E-01            NaN
         13   -1    0    0    0    0  0.00000000000E+00  0.00000000000E+00  0.74505805969E-08  0.10566000000E+00  0.10566000000E+00 0.  1.
     999900   -1    0    0    0    0 -0.00000000000E+00 -0.00000000000E+00 -0.74505805969E-08  0.93827000000E+00  0.93827000000E+00 0.  1.
     999902    2    1    2    0    0 -0.20283781770E-01 -0.10255841571E-02 -0.11291942392E-01  0.10206922809E+01  0.10204277244E+01 0.  0.
     999903    2    3    3    0    0  0.23073389926E-01 -0.12677496910E+00 -0.70960367840E-02  0.13068646195E+00  0.20599113730E-01 0.  0.
         14    1    1    2    0    0  0.20283781770E-01  0.10255841571E-02  0.11291942392E-01  0.23237719096E-01  0.00000000000E+00 0.  1.
     999901    1    3    3    0    0 -0.43357171697E-01  0.12574938494E+00 -0.41959056082E-02  0.89000581896E+00  0.88000000000E+00 0.  1.
        -11    1    4    4    0    0  0.11773473564E-01 -0.51237089470E-01 -0.12745479675E-01  0.54097711507E-01  0.51100000000E-03 0. -1.
         11    1    4    4    0    0  0.11299916362E-01 -0.75537879627E-01  0.56494428906E-02  0.76588750442E-01  0.51100000000E-03 0.  1.
</event>
<event>
 8    1  0.1114333E+005  0.1043930E+01  0.7957747E-01            NaN
         13   -1    0    0    0    0  0.00000000000E+00  0.00000000000E+00  0.74505805969E-08  0.10566000000E+00  0.10566000000E+00 0. -1.
     999900   -1    0    0    0    0 -0.00000000000E+00 -0.00000000000E+00 -0.74505805969E-08  0.93827000000E+00  0.93827000000E+00 0. -1.
     999902    2    1    2    0    0  0.96506442248E-03  0.15867135161E-02 -0.17152868710E-01  0.10266768868E+01  0.10265319089E+01 0.  0.
     999903    2    3    3    0    0 -0.25445296542E-01  0.68298816314E-01  0.11183797908E+00  0.13438396932E+00  0.15463706534E-01 0.  0.
         14    1    1    2    0    0 -0.96506442248E-03 -0.15867135161E-02  0.17152868710E-01  0.17253113171E-01  0.00000000000E+00 0. -1.
     999901    1    3    3    0    0  0.26410360965E-01 -0.66712102798E-01 -0.12899084779E+00  0.89229291751E+00  0.88000000000E+00 0. -1.
        -11    1    4    4    0    0 -0.60985206325E-02  0.29864401934E-01  0.57388608649E-01  0.64982982237E-01  0.51100000000E-03 0.  1.
         11    1    4    4    0    0 -0.19346775910E-01  0.38434414381E-01  0.54449370427E-01  0.69400987081E-01  0.51100000000E-03 0. -1.
</event>
<event>
 8    1  0.1114333E+005  0.1043930E+01  0.7957747E-01            NaN
         13   -1    0    0    0    0  0.00000000000E+00  0.00000000000E+00  0.74505805969E-08  0.10566000000E+00  0.10566000000E+00 0. -1.
     999900   -1    0    0    0    0 -0.00000000000E+00 -0.00000000000E+00 -0.74505805969E-08  0.93827000000E+00  0.93827000000E+00 0.  1.
     999902    2    1    2    0    0 -0.14626409054E-01  0.21008895970E-01 -0.31400301535E-02  0.10181392005E+01  0.10178124907E+01 0.  0.
     999903    2    3    3    0    0 -0.35974440399E-01  0.65979183507E-02 -0.12252063687E+00  0.12970510387E+00  0.21781061103E-01 0.  0.
         14    1    1    2    0    0  0.14626409054E-01 -0.21008895970E-01  0.31400301535E-02  0.25790799543E-01  0.00000000000E+00 0.  1.
     999901    1    3    3    0    0  0.21348031345E-01  0.14410977620E-01  0.11938060672E+00  0.88843409659E+00  0.88000000000E+00 0. -1.
        -11    1    4    4    0    0 -0.23137770428E-01 -0.59128166621E-02 -0.81679409699E-01  0.85100557642E-01  0.51100000000E-03 0.  1.
         11    1    4    4    0    0 -0.12836669971E-01  0.12510735013E-01 -0.40841227170E-01  0.44604546228E-01  0.51100000000E-03 0. -1.
</event>
<event>
 7    1  0.1476203E+005  0.1043930E+01  0.7957747E-01            NaN
         13   -1    0    0    0    0  0.00000000000E+00  0.00000000000E+00  0.74505805969E-08  0.10566000000E+00  0.10566000000E+00 0.  1.
     999900   -1    0    0    0    0 -0.00000000000E+00 -0.00000000000E+00 -0.74505805969E-08  0.93827000000E+00  0.93827000000E+00 0.  1.
     999903    2    1    2    0    0 -0.23486335072E-01 -0.26815724471E-01  0.77377384682E-01  0.87365598923E-01  0.19359679774E-01 0.  0.
         14    1    1    2    0    0 -0.29321001393E-01 -0.79304807223E-02  0.56548580982E-01  0.64189996559E-01  0.00000000000E+00 0.  1.
     999901    1    1    2    0    0  0.52807336465E-01  0.34746205194E-01 -0.13392596566E+00  0.89237440452E+00  0.88000000000E+00 0.  1.
        -11    1    3    3    0    0 -0.61149211693E-02 -0.16345873121E-01  0.52130052949E-01  0.54976207312E-01  0.51100000000E-03 0.  1.
         11    1    3    3    0    0 -0.17371413903E-01 -0.10469851351E-01  0.25247331733E-01  0.32389391611E-01  0.51100000000E-03 0. -1.
</event>
<event>
 8    1  0.1114333E+005  0.1043930E+01  0.7957747E-01            NaN
         13   -1    0    0    0    0  0.00000000000E+00  0.00000000000E+00  0.74505805969E-08  0.10566000000E+00  0.10566000000E+00 0.  1.
     999900   -1    0    0    0    0 -0.00000000000E+00 -0.00000000000E+00 -0.74505805969E-08  0.93827000000E+00  0.93827000000E+00 0.  1.
     999902    2    1    2    0    0  0.74182694115E-02 -0.21320091738E-01 -0.65966490160E-02  0.10204120747E+01  0.10201410242E+01 0.  0.
     999903    2    3    3    0    0  0.56388635549E-01  0.64003628238E-01 -0.96520825539E-01  0.13037578808E+00  0.20135384491E-01 0.  0.
         14    1    1    2    0    0 -0.74182694115E-02  0.21320091738E-01  0.65966490160E-02  0.23517925312E-01  0.00000000000E+00 0. -1.
     999901    1    3    3    0    0 -0.48970366137E-01 -0.85323719976E-01  0.89924176523E-01  0.89003628660E+00  0.88000000000E+00 0. -1.
        -11    1    4    4    0    0  0.10790092264E-01  0.25310143279E-02 -0.11577150437E-01  0.16035075860E-01  0.51100000000E-03 0. -1.
         11    1    4    4    0    0  0.45598543285E-01  0.61472613911E-01 -0.84943675103E-01  0.11434071222E+00  0.51100000000E-03 0.  1.
</event>
<event>
 8    1  0.1114333E+005  0.1043930E+01  0.7957747E-01            NaN
         13   -1    0    0    0    0  0.00000000000E+00  0.00000000000E+00  0.74505805969E-08  0.10566000000E+00  0.10566000000E+00 0.  1.
     999900   -1    0    0    0    0 -0.00000000000E+00 -0.00000000000E+00 -0.74505805969E-08  0.93827000000E+00  0.93827000000E+00 0.  1.
     999902    2    1    2    0    0 -0.24721911978E-02  0.22750671435E-01  0.15289562838E-02  0.10209943839E+01  0.10207367385E+01 0.  0.
     999903    2    3    3    0    0  0.15273525203E-02  0.12813977084E+00 -0.30617526684E-01  0.13411431588E+00  0.25041627493E-01 0.  0.
         14    1    1    2    0    0  0.24721911978E-02 -0.22750671435E-01 -0.15289562838E-02  0.22935616132E-01  0.00000000000E+00 0.  1.
     999901    1    3    3    0    0 -0.39995437181E-02 -0.10538909941E+00  0.32146482968E-01  0.88688006799E+00  0.88000000000E+00 0. -1.
        -11    1    4    4    0    0  0.22054385390E-04  0.91795896249E-01 -0.10106950820E-01  0.92352036417E-01  0.51100000000E-03 0. -1.
         11    1    4    4    0    0  0.15052981349E-02  0.36343874591E-01 -0.20510575865E-01  0.41762279465E-01  0.51100000000E-03 0.  1.
</event>
<event>
 8    1  0.1114333E+005  0.1043930E+01  0.7957747E-01            NaN
         13   -1    0    0    0    0  0.00000000000E+00  0.00000000000E+00  0.74505805969E-08  0.10566000000E+00  0.10566000000E+00 0.  1.
     999900   -1    0    0    0    0 -0.00000000000E+00 -0.00000000000E+00 -0.74505805969E-08  0.93827000000E+00  0.93827000000E+00 0. -1.
     999902    2    1    2    0    0  0.20293473186E-01  0.11523426846E-01 -0.68398797445E-02  0.10196113163E+01  0.10193212634E+01 0.  0.
     999903    2    3    3    0    0 -0.95060681548E-01  0.65362915906E-01 -0.54309670861E-01  0.12918520898E+00  0.20746901396E-01 0.  0.
         14    1    1    2    0    0 -0.20293473186E-01 -0.11523426846E-01  0.68398797445E-02  0.24318683664E-01  0.00000000000E+00 0.  1.
     999901    1    3    3    0    0  0.11535415473E+00 -0.53839489061E-01  0.47469791116E-01  0.89042610736E+00  0.88000000000E+00 0.  1.
        -11    1    4    4    0    0 -0.13278183208E-01  0.18202814150E-01 -0.14008191473E-01  0.26535695613E-01  0.51100000000E-03 0. -1.
         11    1    4    4    0    0 -0.81782498339E-01  0.47160101756E-01 -0.40301479387E-01  0.10264951337E+00  0.51100000000E-03 0.  1.
</event>
<event>
 8    1  0.1114333E+005  0.1043930E+01  0.7957747E-01            NaN
         13   -1    0    0    0    0  0.00000000000E+00  0.00000000000E+00  0.74505805969E-08  0.10566000000E+00  0.10566000000E+00 0.  1.
     999900   -1    0    0    0    0 -0.00000000000E+00 -0.00000000000E+00 -0.74505805969E-08  0.93827000000E+00  0.93827000000E+00 0. -1.
     999902    2    1    2    0    0 -0.16247155002E-01 -0.15648601546E-01  0.80698650065E-02  0.10199722977E+01  0.10196908927E+01 0.  0.
     999903    2    3    3    0    0 -0.28543728771E-01 -0.68522127984E-01  0.10798966999E+00  0.13265567841E+00  0.20633315633E-01 0.  0.
         14    1    1    2    0    0  0.16247155002E-01  0.15648601546E-01 -0.80698650065E-02  0.23957702252E-01  0.00000000000E+00 0. -1.
     999901    1    3    3    0    0  0.12296573769E-01  0.52873526438E-01 -0.99919804985E-01  0.88731661934E+00  0.88000000000E+00 0. -1.
        -11    1    4    4    0    0 -0.77239130862E-02 -0.29336144653E-01  0.60363388183E-01  0.67559366267E-01  0.51100000000E-03 0. -1.
         11    1    4    4    0    0 -0.20819815684E-01 -0.39185983331E-01  0.47626281808E-01  0.65096312143E-01  0.51100000000E-03 0.  1.
</event>
<event>
 8    1  0.1114333E+005  0.1043930E+01  0.7957747E-01            NaN
         13   -1    0    0    0    0  0.00000000000E+00  0.00000000000E+00  0.74505805969E-08  0.10566000000E+00  0.10566000000E+00 0.  1.
     999900   -1    0    0    0    0 -0.00000000000E+00 -0.00000000000E+00 -0.74505805969E-08  0.93827000000E+00  0.93827000000E+00 0. -1.
     999902    2    1    2    0    0 -0.97486928216E-02  0.16036638584E-01 -0.14994252078E-01  0.10199083767E+01  0.10196254501E+01 0.  0.
     999903    2    3    3    0    0 -0.92888884877E-01 -0.71739896431E-01  0.50192652560E-01  0.12925336823E+00  0.20302048061E-01 0.  0.
         14    1    1    2    0    0  0.97486928216E-02 -0.16036638584E-01  0.14994252078E-01  0.24021623263E-01  0.00000000000E+00 0.  1.
     999901    1    3    3    0    0  0.83140192055E-01  0.87776535015E-01 -0.65186904638E-01  0.89065500850E+00  0.88000000000E+00 0.  1.
        -11    1    4    4    0    0 -0.47707349475E-01 -0.25037949714E-01  0.26899706005E-01  0.60222466106E-01  0.51100000000E-03 0. -1.
         11    1    4    4    0    0 -0.45181535402E-01 -0.46701946717E-01  0.23292946555E-01  0.69030902128E-01  0.51100000000E-03 0.  1.
</event>
<event>
 8    1  0.1114333E+005  0.1043930E+01  0.7957747E-01            NaN
         13   -1    0    0    0    0  0.00000000000E+00  0.00000000000E+00  0.74505805969E-08  0.10566000000E+00  0.10566000000E+00 0. -1.
     999900   -1    0    0    0    0 -0.00000000000E+00 -0.00000000000E+00 -0.74505805969E-08  0.93827000000E+00  0.93827000000E+00 0. -1.
     999902    2    1    2    0    0 -0.52363660730E-02  0.22517958881E-01 -0.49734806057E-02  0.10202823043E+01  0.10200082191E+01 0.  0.
     999903    2    3    3    0    0  0.10475810310E+00 -0.67878932465E-01 -0.23477081516E-01  0.12864742138E+00  0.20424887606E-01 0.  0.
         14    1    1    2    0    0  0.52363660730E-02 -0.22517958881E-01  0.49734806057E-02  0.23647695684E-01  0.00000000000E+00 0. -1.
     999901    1    3    3    0    0 -0.10999446918E+00  0.90396891346E-01  0.18503600911E-01  0.89163488293E+00  0.88000000000E+00 0.  1.
        -11    1    4    4    0    0  0.52272614807E-01 -0.37060971728E-01 -0.22039648202E-01  0.67763921802E-01  0.51100000000E-03 0. -1.
         11    1    4    4    0    0  0.52485488297E-01 -0.30817960738E-01 -0.14374333142E-02  0.60883499582E-01  0.51100000000E-03 0.  1.
</event>
<event>
 8    1  0.1114333E+005  0.1043930E+01  0.7957747E-01            NaN
         13   -1    0    0    0    0  0.00000000000E+00  0.00000000000E+00  0.74505805969E-08  0.10566000000E+00  0.10566000000E+00 0.  1.
     999900   -1    0    0    0    0 -0.00000000000E+00 -0.00000000000E+00 -0.74505805969E-08  0.93827000000E+00  0.93827000000E+00 0. -1.
     999902    2    1    2    0    0 -0.67945943216E-03 -0.42435888346E-02  0.23285929724E-01  0.10202508059E+01  0.10199759814E+01 0.  0.
     999903    2    3    3    0    0 -0.59566543115E-01  0.11389871601E+00 -0.20089695094E-02  0.13004570325E+00  0.19666174177E-01 0.  0.
         14    1    1    2    0    0  0.67945943216E-03  0.42435888346E-02 -0.23285929724E-01  0.23679194125E-01  0.00000000000E+00 0. -1.
     999901    1    3    3    0    0  0.58887083683E-01 -0.11814230485E+00  0.25294899233E-01  0.89020510263E+00  0.88000000000E+00 0.  1.
        -11    1    4    4    0    0 -0.73549097210E-02  0.30524649272E-01  0.29887183648E-02  0.31544293758E-01  0.51100000000E-03 0.  1.
         11    1    4    4    0    0 -0.52211633394E-01  0.83374066738E-01 -0.49976878742E-02  0.98501409489E-01  0.51100000000E-03 0. -1.
</event>
<event>
 8    1  0.1114333E+005  0.1043930E+01  0.7957747E-01            NaN
         13   -1    0    0    0    0  0.00000000000E+00  0.00000000000E+00  0.74505805969E-08  0.10566000000E+00  0.10566000000E+00 0. -1.
     999900   -1    0    0    0    0 -0.00000000000E+00 -0.00000000000E+00 -0.74505805969E-08  0.93827000000E+00  0.93827000000E+00 0. -1.
     999902    2    1    2    0    0 -0.10726235321E-02  0.23393293568E-01 -0.22204382383E-03  0.10205110758E+01  0.10202423290E+01 0.  0.
     999903    2    3    3    0    0 -0.94508097465E-01 -0.18230121751E-01 -0.84631183625E-01  0.13057422450E+00  0.24961430990E-01 0.  0.
         14    1    1    2    0    0  0.10726235321E-02 -0.23393293568E-01  0.22204382383E-03  0.23418924157E-01  0.00000000000E+00 0. -1.
     999901    1    3    3    0    0  0.93435473933E-01  0.41623415319E-01  0.84409139801E-01  0.88993685134E+00  0.88000000000E+00 0. -1.
        -11    1    4    4    0    0 -0.42582145469E-01  0.94173182715E-03 -0.48112085659E-01  0.64258539347E-01  0.51100000000E-03 0. -1.
         11    1    4    4    0    0 -0.51925951996E-01 -0.19171853578E-01 -0.36519097966E-01  0.66315685155E-01  0.51100000000E-03 0.  1.
</event>
<event>
 8    1  0.1114333E+005  0.1043930E+01  0.7957747E-01            NaN
         13   -1    0    0    0    0  0.00000000000E+00  0.00000000000E+00  0.74505805969E-08  0.10566000000E+00  0.10566000000E+00 0.  1.
     999900   -1    0    0    0    0 -0.00000000000E+00 -0.00000000000E+00 -0.74505805969E-08  0.93827000000E+00  0.93827000000E+00 0.  1.
     999902    2    1    2    0    0  0.14255568472E-01 -0.18699036460E-01 -0.10828557939E-02  0.10203917806E+01  0.10201202567E+01 0.  0.
     999903    2    3    3    0    0 -0.68318122842E-01 -0.96720670472E-01  0.52872942942E-01  0.13145026501E+00  0.21479526809E-01 0.  0.
         14    1    1    2    0    0 -0.14255568472E-01  0.18699036460E-01  0.10828557939E-02  0.23538219424E-01  0.00000000000E+00 0. -1.
     999901    1    3    3    0    0  0.82573691314E-01  0.78021634012E-01 -0.53955798736E-01  0.88894151556E+00  0.88000000000E+00 0. -1.
        -11    1    4    4    0    0 -0.29551483971E-01 -0.47994589058E-01  0.36199323043E-01  0.66988229515E-01  0.51100000000E-03 0.  1.
         11    1    4    4    0    0 -0.38766638871E-01 -0.48726081414E-01  0.16673619899E-01  0.64462035500E-01  0.51100000000E-03 0. -1.
</event>
<event>
 8    1  0.1114333E+005  0.1043930E+01  0.7957747E-01            NaN
         13   -1    0    0    0    0  0.00000000000E+00  0.00000000000E+00  0.74505805969E-08  0.10566000000E+00  0.10566000000E+00 0. -1.
     999900   -1    0    0    0    0 -0.00000000000E+00 -0.00000000000E+00 -0.74505805969E-08  0.93827000000E+00  0.93827000000E+00 0. -1.
     999902    2    1    2    0    0 -0.40682881522E-02  0.11371382939E-01 -0.21902892481E-01  0.10189180825E+01  0.10186110459E+01 0.  0.
     999903    2    3    3    0    0  0.75900444132E-01 -0.15302920532E-01 -0.10391094764E+00  0.13109386694E+00  0.19825743690E-01 0.  0.
         14    1    1    2    0    0  0.40682881522E-02 -0.11371382939E-01  0.21902892481E-01  0.25011917509E-01  0.00000000000E+00 0. -1.
     999901    1    3    3    0    0 -0.79968732285E-01  0.26674303471E-01  0.82008055161E-01  0.88782421555E+00  0.88000000000E+00 0. -1.
        -11    1    4    4    0    0  0.16363375516E-01  0.10929497649E-02 -0.34399398623E-01  0.38112128569E-01  0.51100000000E-03 0. -1.
         11    1    4    4    0    0  0.59537068617E-01 -0.16395870297E-01 -0.69511549020E-01  0.92981738370E-01  0.51100000000E-03 0.  1.
</event>
<event>
 8    1  0.1114333E+005  0.1043930E+01  0.7957747E-01            NaN
         13   -1    0    0    0    0  0.00000000000E+00  0.00000000000E+00  0.74505805969E-08  0.10566000000E+00  0.10566000000E+00 0.  1.
     999900   -1    0    0    0    0 -0.00000000000E+00 -0.00000000000E+00 -0.74505805969E-08  0.93827000000E+00  0.93827000000E+00 0.  1.
     999902    2    1    2    0    0  0.14636785262E-01 -0.13933382349E-01  0.11348142075E-01  0.10207533964E+01  0.10204902456E+01 0.  0.
     999903    2    3    3    0    0 -0.29276223220E-01 -0.12652935558E+00  0.16800922596E-01  0.13247644728E+00  0.20024060892E-01 0.  0.
         14    1    1    2    0    0 -0.14636785262E-01  0.13933382349E-01 -0.11348142075E-01  0.23176603613E-01  0.00000000000E+00 0. -1.
     999901    1    3    3    0    0  0.43913008482E-01  0.11259597323E+00 -0.54527805216E-02  0.88827694911E+00  0.88000000000E+00 0.  1.
        -11    1    4    4    0    0 -0.16700156723E-01 -0.10143085414E+00  0.82625295496E-02  0.10312925832E+00  0.51100000000E-03 0. -1.
         11    1    4    4    0    0 -0.12576066498E-01 -0.25098501441E-01  0.85383930466E-02  0.29347188961E-01  0.51100000000E-03 0.  1.
</event>
<event>
 8    1  0.1114333E+005  0.1043930E+01  0.7957747E-01            NaN
         13   -1    0    0    0    0  0.00000000000E+00  0.00000000000E+00  0.74505805969E-08  0.10566000000E+00  0.10566000000E+00 0. -1.
     999900   -1    0    0    0    0 -0.00000000000E+00 -0.00000000000E+00 -0.74505805969E-08  0.93827000000E+00  0.93827000000E+00 0.  1.
     999902    2    1    2    0    0 -0.13555181108E-01  0.11432424842E-01  0.15509063765E-01  0.10203721068E+01  0.10201001235E+01 0.  0.
     999903    2    3    3    0    0  0.40812756182E-01  0.91905345705E-01 -0.79999384342E-01  0.12989267007E+00  0.18971837202E-01 0.  0.
         14    1    1    2    0    0  0.13555181108E-01 -0.11432424842E-01 -0.15509063765E-01  0.23557893189E-01  0.00000000000E+00 0.  1.
     999901    1    3    3    0    0 -0.54367937290E-01 -0.80472920863E-01  0.95508448107E-01  0.89047943674E+00  0.88000000000E+00 0. -1.
        -11    1    4    4    0    0  0.30893950086E-01  0.65768588395E-01 -0.46550998531E-01  0.86297160768E-01  0.51100000000E-03 0. -1.
         11    1    4    4    0    0  0.99188060958E-02  0.26136757310E-01 -0.33448385811E-01  0.43595509303E-01  0.51100000000E-03 0.  1.
</event>
<event>
 8    1  0.1114333E+005  0.1043930E+01  0.7957747E-01            NaN
         13   -1    0    0    0    0  0.00000000000E+00  0.00000000000E+00  0.74505805969E-08  0.10566000000E+00  0.10566000000E+00 0. -1.
     999900   -1    0    0    0    0 -0.00000000000E+00 -0.00000000000E+00 -0.74505805969E-08  0.93827000000E+00  0.93827000000E+00 0. -1.
     999902    2    1    2    0    0 -0.20968377727E-02 -0.70225960170E-02 -0.22725817593E-01  0.10200516339E+01  0.10197721115E+01 0.  0.
     999903    2    3    3    0    0  0.20150662194E-02  0.10783620505E+00 -0.72061186491E-01  0.13120776088E+00  0.19747260734E-01 0.  0.
         14    1    1    2    0    0  0.20968377727E-02  0.70225960170E-02  0.22725817593E-01  0.23878366124E-01  0.00000000000E+00 0. -1.
     999901    1    3    3    0    0 -0.41119039921E-02 -0.11485880106E+00  0.49335368898E-01  0.88884387299E+00  0.88000000000E+00 0.  1.
        -11    1    4    4    0    0 -0.18801540753E-02  0.41696643721E-01 -0.39146436354E-01  0.57226302319E-01  0.51100000000E-03 0.  1.
         11    1    4    4    0    0  0.38952202947E-02  0.66139561325E-01 -0.32914750137E-01  0.73981458562E-01  0.51100000000E-03 0. -1.
</event>
<event>
 8    1  0.1114333E+005  0.1043930E+01  0.7957747E-01            NaN
         13   -1    0    0    0    0  0.00000000000E+00  0.00000000000E+00  0.74505805969E-08  0.10566000000E+00  0.10566000000E+00 0. -1.
     999900   -1    0    0    0    0 -0.00000000000E+00 -0.00000000000E+00 -0.74505805969E-08  0.93827000000E+00  0.93827000000E+00 0.  1.
     999902    2    1    2    0    0  0.22221600399E-01 -0.13556411902E-01  0.95734840461E-02  0.10161950505E+01  0.10158164958E+01 0.  0.
     999903    2    3    3    0    0 -0.33529661317E-01  0.11577539315E+00  0.25547395036E-01  0.12485331758E+00  0.20186670592E-01 0.  0.
         14    1    1    2    0    0 -0.22221600399E-01  0.13556411902E-01 -0.95734840461E-02  0.27734949518E-01  0.00000000000E+00 0.  1.
     999901    1    3    3    0    0  0.55751261717E-01 -0.12933180506E+00 -0.15973910990E-01  0.89134173290E+00  0.88000000000E+00 0.  1.
        -11    1    4    4    0    0 -0.13577293216E-02  0.20872038453E-01 -0.17411939935E-02  0.20994720661E-01  0.51100000000E-03 0.  1.
         11    1    4    4    0    0 -0.32171931995E-01  0.94903354700E-01  0.27288589030E-01  0.10385859692E+00  0.51100000000E-03 0. -1.
</event>
<event>
 8    1  0.1114333E+005  0.1043930E+01  0.7957747E-01            NaN
         13   -1    0    0    0    0  0.00000000000E+00  0.00000000000E+00  0.74505805969E-08  0.10566000000E+00  0.10566000000E+00 0.  1.
     999900   -1    0    0    0    0 -0.00000000000E+00 -0.00000000000E+00 -0.74505805969E-08  0.93827000000E+00  0.93827000000E+00 0. -1.
     999902    2    1    2    0    0 -0.15922472428E-01 -0.15737533066E-01  0.54543996178E-02  0.10208877442E+01  0.10206276700E+01 0.  0.
     999903    2    3    3    0    0  0.52470547633E-01  0.64183926300E-01  0.97772676704E-01  0.12982786458E+00  0.20568017583E-01 0.  0.
         14    1    1    2    0    0  0.15922472428E-01  0.15737533066E-01 -0.54543996178E-02  0.23042255758E-01  0.00000000000E+00 0. -1.
     999901    1    3    3    0    0 -0.68393020061E-01 -0.79921459366E-01 -0.92318277086E-01  0.89105987966E+00  0.88000000000E+00 0. -1.
        -11    1    4    4    0    0  0.47225901331E-01  0.43983944187E-01  0.74204952385E-01  0.98343831439E-01  0.51100000000E-03 0. -1.
         11    1    4    4    0    0  0.52446463019E-02  0.20199982113E-01  0.23567724319E-01  0.31484033140E-01  0.51100000000E-03 0.  1.
</event>
<event>
 8    1  0.1114333E+005  0.1043930E+01  0.7957747E-01            NaN
         13   -1    0    0    0    0  0.00000000000E+00  0.00000000000E+00  0.74505805969E-08  0.10566000000E+00  0.10566000000E+00 0.  1.
     999900   -1    0    0    0    0 -0.00000000000E+00 -0.00000000000E+00 -0.74505805969E-08  0.93827000000E+00  0.93827000000E+00 0.  1.
     999902    2    1    2    0    0  0.12696091993E-01  0.19451557496E-01 -0.50966245524E-02  0.10201491375E+01  0.10198719200E+01 0.  0.
     999903    2    3    3    0    0 -0.56154087034E-01  0.11335217569E+00  0.31346066890E-01  0.13173158755E+00  0.19199948521E-01 0.  0.
         14    1    1    2    0    0 -0.12696091993E-01 -0.19451557496E-01  0.50966245524E-02  0.23780862532E-01  0.00000000000E+00 0.  1.
     999901    1    3    3    0    0  0.68850179027E-01 -0.93900618197E-01 -0.36442691443E-01  0.88841754992E+00  0.88000000000E+00 0.  1.
        -11    1    4    4    0    0 -0.12177198187E-01  0.10566668712E-01  0.32271320257E-02  0.16450353962E-01  0.51100000000E-03 0. -1.
         11    1    4    4    0    0 -0.43976888846E-01  0.10278550698E+00  0.28118934865E-01  0.11528123358E+00  0.51100000000E-03 0.  1.
</event>
<event>
 8    1  0.1114333E+005  0.1043930E+01  0.7957747E-01            NaN
         13   -1    0    0    0    0  0.00000000000E+00  0.00000000000E+00  0.74505805969E-08  0.10566000000E+00  0.10566000000E+00 0. -1.
     999900   -1    0    0    0    0 -0.00000000000E+00 -0.00000000000E+00 -0.74505805969E-08  0.93827000000E+00  0.93827000000E+00 0. -1.
     999902    2    1    2    0    0 -0.23662620547E-01 -0.28548695502E-02  0.49335263754E-02  0.10195905346E+01  0.10192999798E+01 0.  0.
     999903    2    3    3    0    0 -0.84473393595E-02  0.97233682564E-01  0.84252935347E-01  0.13024201371E+00  0.18403218571E-01 0.  0.
         14    1    1    2    0    0  0.23662620547E-01  0.28548695502E-02 -0.49335263754E-02  0.24339465355E-01  0.00000000000E+00 0.  1.
     999901    1    3    3    0    0 -0.15215281187E-01 -0.10008855211E+00 -0.79319408972E-01  0.88934852093E+00  0.88000000000E+00 0. -1.
        -11    1    4    4    0    0  0.38044202125E-02  0.37658771264E-01  0.39639232643E-01  0.54810460241E-01  0.51100000000E-03 0.  1.
         11    1    4    4    0    0 -0.12251759572E-01  0.59574911301E-01  0.44613702704E-01  0.75431553471E-01  0.51100000000E-03 0. -1.
</event>
<event>
 8    1  0.1114333E+005  0.1043930E+01  0.7957747E-01            NaN
         13   -1    0    0    0    0  0.00000000000E+00  0.00000000000E+00  0.74505805969E-08  0.10566000000E+00  0.10566000000E+00 0. -1.
     999900   -1    0    0    0    0 -0.00000000000E+00 -0.00000000000E+00 -0.74505805969E-08  0.93827000000E+00  0.93827000000E+00 0.  1.
     999902    2    1    2    0    0  0.85022817490E-03  0.22988116256E-01 -0.55178798048E-02  0.10202736399E+01  0.10199993514E+01 0.  0.
     999903    2    3    3    0    0 -0.17926800058E-01  0.10889352153E+00 -0.72244126601E-01  0.13337753127E+00  0.19778342377E-01 0.  0.
         14    1    1    2    0    0 -0.85022817490E-03 -0.22988116256E-01  0.55178798048E-02  0.23656360127E-01  0.00000000000E+00 0. -1.
     999901    1    3    3    0    0  0.18777028233E-01 -0.85905405276E-01  0.66726246796E-01  0.88689610860E+00  0.88000000000E+00 0.  1.
        -11    1    4    4    0    0 -0.91221949827E-02  0.58116249176E-01 -0.50146954668E-01  0.77302594026E-01  0.51100000000E-03 0.  1.
         11    1    4    4    0    0 -0.88046050751E-02  0.50777272356E-01 -0.22097171932E-01  0.56074937243E-01  0.51100000000E-03 0. -1.
</event>
<event>
 8    1  0.1114333E+005  0.1043930E+01  0.7957747E-01            NaN
         13   -1    0    0    0    0  0.00000000000E+00  0.00000000000E+00  0.74505805969E-08  0.10566000000E+00  0.10566000000E+00 0. -1.
     999900   -1    0    0    0    0 -0.00000000000E+00 -0.00000000000E+00 -0.74505805969E-08  0.93827000000E+00  0.93827000000E+00 0.  1.
     999902    2    1    2    0    0 -0.50509716389E-03 -0.12823445396E-01 -0.20284399765E-01  0.10199268179E+01  0.10196443307E+01 0.  0.
     999903    2    3    3    0    0  0.45361983438E-01  0.11427456570E+00  0.30131802017E-01  0.12818723325E+00  0.20190477171E-01 0.  0.
         14    1    1    2    0    0  0.50509716389E-03  0.12823445396E-01  0.20284399765E-01  0.24003182056E-01  0.00000000000E+00 0. -1.
     999901    1    3    3    0    0 -0.45867080602E-01 -0.12709801110E+00 -0.50416201782E-01  0.89173958469E+00  0.88000000000E+00 0. -1.
        -11    1    4    4    0    0  0.24872669616E-01  0.78440368303E-01  0.12244119726E-01  0.83196878921E-01  0.51100000000E-03 0. -1.
         11    1    4    4    0    0  0.20489313822E-01  0.35834197397E-01  0.17887682291E-01  0.44990354330E-01  0.51100000000E-03 0.  1.
</event>
<event>
 8    1  0.1114333E+005  0.1043930E+01  0.7957747E-01            NaN
         13   -1    0    0    0    0  0.00000000000E+00  0.00000000000E+00  0.74505805969E-08  0.10566000000E+00  0.10566000000E+00 0.  1.
     999900   -1    0    0    0    0 -0.00000000000E+00 -0.00000000000E+00 -0.74505805969E-08  0.93827000000E+00  0.93827000000E+00 0.  1.
     999902    2    1    2    0    0 -0.16184627058E-01 -0.78180886248E-02  0.15295338502E-01  0.10203288974E+01  0.10200559038E+01 0.  0.
     999903    2    3    3    0    0  0.55480761464E-01  0.11014702894E+00  0.33616106533E-01  0.12938145374E+00  0.19975862357E-01 0.  0.
         14    1    1    2    0    0  0.16184627058E-01  0.78180886248E-02 -0.15295338502E-01  0.23601102572E-01  0.00000000000E+00 0. -1.
     999901    1    3    3    0    0 -0.71665388522E-01 -0.11796511756E+00 -0.18320768032E-01  0.89094744369E+00  0.88000000000E+00 0.  1.
        -11    1    4    4    0    0  0.14197670595E-01  0.48117737974E-01  0.17582544040E-01  0.53162933835E-01  0.51100000000E-03 0. -1.
         11    1    4    4    0    0  0.41283090870E-01  0.62029290963E-01  0.16033562493E-01  0.76218519904E-01  0.51100000000E-03 0.  1.
</event>
<event>
 8    1  0.1114333E+005  0.1043930E+01  0.7957747E-01            NaN
         13   -1    0    0    0    0  0.00000000000E+00  0.00000000000E+00  0.74505805969E-08  0.10566000000E+00  0.10566000000E+00 0. -1.
     999900   -1    0    0    0    0 -0.00000000000E+00 -0.00000000000E+00 -0.74505805969E-08  0.93827000000E+00  0.93827000000E+00 0. -1.
     999902    2    1    2    0    0  0.61991924843E-02  0.11415453371E-01 -0.18489476943E-01  0.10213334666E+01  0.10210834671E+01 0.  0.
     999903    2    3    3    0    0  0.43329018599E-01  0.91271477790E-01  0.81489254056E-01  0.13130461581E+00  0.19812044213E-01 0.  0.
         14    1    1    2    0    0 -0.61991924843E-02 -0.11415453371E-01  0.18489476943E-01  0.22596533379E-01  0.00000000000E+00 0. -1.
     999901    1    3    3    0    0 -0.37129826115E-01 -0.79856024418E-01 -0.99978730998E-01  0.89002885081E+00  0.88000000000E+00 0. -1.
        -11    1    4    4    0    0 -0.18398069418E-02  0.66018843126E-02  0.71165274132E-02  0.98932224014E-02  0.51100000000E-03 0.  1.
         11    1    4    4    0    0  0.45168825541E-01  0.84669593477E-01  0.74372726642E-01  0.12141139341E+00  0.51100000000E-03 0. -1.
</event>
<event>
 8    1  0.1114333E+005  0.1043930E+01  0.7957747E-01            NaN
         13   -1    0    0    0    0  0.00000000000E+00  0.00000000000E+00  0.74505805969E-08  0.10566000000E+00  0.10566000000E+00 0.  1.
     999900   -1    0    0    0    0 -0.00000000000E+00 -0.00000000000E+00 -0.74505805969E-08  0.93827000000E+00  0.93827000000E+00 0.  1.
     999902    2    1    2    0    0 -0.16484925675E-01 -0.69827175370E-02  0.11260265917E-01  0.10227804206E+01  0.10225617263E+01 0.  0.
     999903    2    3    3    0    0 -0.11728432192E+00 -0.43062221672E-01  0.49024830858E-01  0.13548767793E+00  0.18534015371E-01 0.  0.
         14    1    1    2    0    0  0.16484925675E-01  0.69827175370E-02 -0.11260265917E-01  0.21149579363E-01  0.00000000000E+00 0. -1.
     999901    1    3    3    0    0  0.10079939625E+00  0.36079504135E-01 -0.37764564941E-01  0.88729274271E+00  0.88000000000E+00 0.  1.
        -11    1    4    4    0    0 -0.58617885568E-01 -0.29312739956E-01  0.19467153719E-01  0.68370493834E-01  0.51100000000E-03 0. -1.
         11    1    4    4    0    0 -0.58666436352E-01 -0.13749481716E-01  0.29557677139E-01  0.67117184093E-01  0.51100000000E-03 0.  1.
</event>
<event>
 8    1  0.1114333E+005  0.1043930E+01  0.7957747E-01            NaN
         13   -1    0    0    0    0  0.00000000000E+00  0.00000000000E+00  0.74505805969E-08  0.10566000000E+00  0.10566000000E+00 0.  1.
     999900   -1    0    0    0    0 -0.00000000000E+00 -0.00000000000E+00 -0.74505805969E-08  0.93827000000E+00  0.93827000000E+00 0.  1.
     999902    2    1    2    0    0  0.18881824295E-01  0.55793289919E-02  0.13581514019E-01  0.10200111847E+01  0.10197307033E+01 0.  0.
     999903    2    3    3    0    0 -0.55087596684E-01  0.78482376285E-01 -0.83277103093E-01  0.12862579039E+00  0.20381152013E-01 0.  0.
         14    1    1    2    0    0 -0.18881824295E-01 -0.55793289919E-02 -0.13581514019E-01  0.23918815267E-01  0.00000000000E+00 0. -1.
     999901    1    3    3    0    0  0.73969420979E-01 -0.72903047293E-01  0.96858617112E-01  0.89138539435E+00  0.88000000000E+00 0. -1.
        -11    1    4    4    0    0 -0.50436689430E-01  0.59697797084E-01 -0.61206273770E-01  0.99268100048E-01  0.51100000000E-03 0. -1.
         11    1    4    4    0    0 -0.46509072538E-02  0.18784579201E-01 -0.22070829322E-01  0.29357690338E-01  0.51100000000E-03 0.  1.
</event>
<event>
 8    1  0.1114333E+005  0.1043930E+01  0.7957747E-01            NaN
         13   -1    0    0    0    0  0.00000000000E+00  0.00000000000E+00  0.74505805969E-08  0.10566000000E+00  0.10566000000E+00 0. -1.
     999900   -1    0    0    0    0 -0.00000000000E+00 -0.00000000000E+00 -0.74505805969E-08  0.93827000000E+00  0.93827000000E+00 0.  1.
     999902    2    1    2    0    0 -0.97363083888E-02  0.12911459932E-01 -0.18727413191E-01  0.10191869706E+01  0.10188865803E+01 0.  0.
     999903    2    3    3    0    0 -0.66340153859E-02  0.12664828343E+00 -0.29281875683E-01  0.13179918282E+00  0.20731581967E-01 0.  0.
         14    1    1    2    0    0  0.97363083888E-02 -0.12911459932E-01  0.18727413191E-01  0.24743029391E-01  0.00000000000E+00 0. -1.
     999901    1    3    3    0    0 -0.31022930029E-02 -0.11373682350E+00  0.10554462492E-01  0.88738778779E+00  0.88000000000E+00 0. -1.
        -11    1    4    4    0    0 -0.46614946130E-02  0.10028629899E-01  0.14903302741E-02  0.11170727595E-01  0.51100000000E-03 0. -1.
         11    1    4    4    0    0 -0.19725207730E-02  0.11661965354E+00 -0.30772205957E-01  0.12062845522E+00  0.51100000000E-03 0.  1.
</event>
<event>
 8    1  0.1114333E+005  0.1043930E+01  0.7957747E-01            NaN
         13   -1    0    0    0    0  0.00000000000E+00  0.00000000000E+00  0.74505805969E-08  0.10566000000E+00  0.10566000000E+00 0. -1.
     999900   -1    0    0    0    0 -0.00000000000E+00 -0.00000000000E+00 -0.74505805969E-08  0.93827000000E+00  0.93827000000E+00 0.  1.
     999902    2    1    2    0    0 -0.19998256794E-01 -0.18482495833E-02 -0.12468171698E-01  0.10202910151E+01  0.10200171341E+01 0.  0.
     999903    2    3    3    0    0  0.85062314216E-01 -0.95138530782E-01 -0.26376645048E-02  0.12909101566E+00  0.19250862579E-01 0.  0.
         14    1    1    2    0    0  0.19998256794E-01  0.18482495833E-02  0.12468171698E-01  0.23638984894E-01  0.00000000000E+00 0. -1.
     999901    1    3    3    0    0 -0.10506057101E+00  0.93290281199E-01 -0.98305071932E-02  0.89119999945E+00  0.88000000000E+00 0.  1.
        -11    1    4    4    0    0  0.55394852458E-01 -0.52246061601E-01 -0.84385305571E-02  0.76614036251E-01  0.51100000000E-03 0.  1.
         11    1    4    4    0    0  0.29667461759E-01 -0.42892469181E-01  0.58008660523E-02  0.52476979406E-01  0.51100000000E-03 0. -1.
</event>
<event>
 8    1  0.1114333E+005  0.1043930E+01  0.7957747E-01            NaN
         13   -1    0    0    0    0  0.00000000000E+00  0.00000000000E+00  0.74505805969E-08  0.10566000000E+00  0.10566000000E+00 0.  1.
     999900   -1    0    0    0    0 -0.00000000000E+00 -0.00000000000E+00 -0.74505805969E-08  0.93827000000E+00  0.93827000000E+00 0.  1.
     999902    2    1    2    0    0 -0.23932019380E-01  0.92879263307E-02  0.19063633560E-02  0.10181881790E+01  0.10178627248E+01 0.  0.
     999903    2    3    3    0    0 -0.12415726897E+00 -0.28049736125E-02  0.38891826265E-01  0.13164474332E+00  0.19871310437E-01 0.  0.
         14    1    1    2    0    0  0.23932019380E-01 -0.92879263307E-02 -0.19063633560E-02  0.25741821000E-01  0.00000000000E+00 0.  1.
     999901    1    3    3    0    0  0.10022524959E+00  0.12092899943E-01 -0.36985462909E-01  0.88654343568E+00  0.88000000000E+00 0.  1.
        -11    1    4    4    0    0 -0.61562123447E-01 -0.11247246438E-01  0.18138001054E-01  0.65158604949E-01  0.51100000000E-03 0.  1.
         11    1    4    4    0    0 -0.62595145522E-01  0.84422728258E-02  0.20753825211E-01  0.66486138369E-01  0.51100000000E-03 0. -1.
</event>
<event>
 8    1  0.1114333E+005  0.1043930E+01  0.7957747E-01            NaN
         13   -1    0    0    0    0  0.00000000000E+00  0.00000000000E+00  0.74505805969E-08  0.10566000000E+00  0.10566000000E+00 0. -1.
     999900   -1    0    0    0    0 -0.00000000000E+00 -0.00000000000E+00 -0.74505805969E-08  0.93827000000E+00  0.93827000000E+00 0.  1.
     999902    2    1    2    0    0 -0.16868318895E-01  0.11816224251E-01 -0.10672444330E-01  0.10207337847E+01  0.10204701832E+01 0.  0.
     999903    2    3    3    0    0  0.23647752575E-01 -0.98931058538E-02 -0.12794471363E+00  0.13176492570E+00  0.18304539198E-01 0.  0.
         14    1    1    2    0    0  0.16868318895E-01 -0.11816224251E-01  0.10672444330E-01  0.23196215335E-01  0.00000000000E+00 0. -1.
     999901    1    3    3    0    0 -0.40516071469E-01  0.21709330105E-01  0.11727226930E+00  0.88896885896E+00  0.88000000000E+00 0. -1.
        -11    1    4    4    0    0  0.16913237775E-01 -0.48386631408E-02 -0.43876078623E-01  0.47274112043E-01  0.51100000000E-03 0.  1.
         11    1    4    4    0    0  0.67345147994E-02 -0.50544427130E-02 -0.84068635002E-01  0.84490813659E-01  0.51100000000E-03 0. -1.
</event>
<event>
 8    1  0.1114333E+005  0.1043930E+01  0.7957747E-01            NaN
         13   -1    0    0    0    0  0.00000000000E+00  0.00000000000E+00  0.74505805969E-08  0.10566000000E+00  0.10566000000E+00 0. -1.
     999900   -1    0    0    0    0 -0.00000000000E+00 -0.00000000000E+00 -0.74505805969E-08  0.93827000000E+00  0.93827000000E+00 0. -1.
     999902    2    1    2    0    0 -0.55850170630E-03  0.18675108965E-01  0.19240492665E-01  0.10171108245E+01  0.10167571790E+01 0.  0.
     999903    2    3    3    0    0 -0.92601518508E-01  0.34526680409E-01 -0.76596686267E-01  0.12699400396E+00  0.22210173448E-01 0.  0.
         14    1    1    2    0    0  0.55850170630E-03 -0.18675108965E-01 -0.19240492665E-01  0.26819175547E-01  0.00000000000E+00 0.  1.
     999901    1    3    3    0    0  0.92043016801E-01 -0.15851571444E-01  0.95837178933E-01  0.89011682049E+00  0.88000000000E+00 0.  1.
        -11    1    4    4    0    0 -0.22628658573E-01  0.56764176099E-03 -0.10654385939E-01  0.25023098664E-01  0.51100000000E-03 0. -1.
         11    1    4    4    0    0 -0.69972859934E-01  0.33959038648E-01 -0.65942300328E-01  0.10197090530E+00  0.51100000000E-03 0.  1.
</event>
<event>
 8    1  0.1114333E+005  0.1043930E+01  0.7957747E-01            NaN
         13   -1    0    0    0    0  0.00000000000E+00  0.00000000000E+00  0.74505805969E-08  0.10566000000E+00  0.10566000000E+00 0. -1.
     999900   -1    0    0    0    0 -0.00000000000E+00 -0.00000000000E+00 -0.74505805969E-08  0.93827000000E+00  0.93827000000E+00 0. -1.
     999902    2    1    2    0    0  0.70632730329E-02  0.11781334368E-01 -0.14753766971E-01  0.10237715451E+01  0.10235730620E+01 0.  0.
     999903    2    3    3    0    0  0.75544310507E-01 -0.52336589943E-01  0.92758138639E-01  0.13227865639E+00  0.21154412215E-01 0.  0.
         14    1    1    2    0    0 -0.70632730329E-02 -0.11781334368E-01  0.14753766971E-01  0.20158454933E-01  0.00000000000E+00 0. -1.
     999901    1    3    3    0    0 -0.68481037475E-01  0.64117924311E-01 -0.10751190561E+00  0.89149288868E+00  0.88000000000E+00 0. -1.
        -11    1    4    4    0    0  0.14784836328E-01 -0.65757325246E-02  0.28169766035E-01  0.32490436792E-01  0.51100000000E-03 0.  1.
         11    1    4    4    0    0  0.60759474179E-01 -0.45760857418E-01  0.64588372603E-01  0.99788219599E-01  0.51100000000E-03 0. -1.
</event>
<event>
 8    1  0.1114333E+005  0.1043930E+01  0.7957747E-01            NaN
         13   -1    0    0    0    0  0.00000000000E+00  0.00000000000E+00  0.74505805969E-08  0.10566000000E+00  0.10566000000E+00 0. -1.
     999900   -1    0    0    0    0 -0.00000000000E+00 -0.00000000000E+00 -0.74505805969E-08  0.93827000000E+00  0.93827000000E+00 0.  1.
     999902    2    1    2    0    0  0.13076161690E-01 -0.12708618592E-01 -0.15124087798E-01  0.10202396428E+01  0.10199645561E+01 0.  0.
     999903    2    3    3    0    0 -0.49484832294E-01 -0.54170982939E-01 -0.10804595393E+00  0.13217011918E+00  0.20292072962E-01 0.  0.
         14    1    1    2    0    0 -0.13076161690E-01  0.12708618592E-01  0.15124087798E-01  0.23690357169E-01  0.00000000000E+00 0.  1.
     999901    1    3    3    0    0  0.62560993984E-01  0.41462364347E-01  0.92921866131E-01  0.88806952365E+00  0.88000000000E+00 0. -1.
        -11    1    4    4    0    0 -0.50640927328E-01 -0.54193624382E-01 -0.10274895712E+00  0.12672435344E+00  0.51100000000E-03 0.  1.
         11    1    4    4    0    0  0.11560950338E-02  0.22641443560E-04 -0.52969968073E-02  0.54457657440E-02  0.51100000000E-03 0. -1.
</event>
<event>
 8    1  0.1114333E+005  0.1043930E+01  0.7957747E-01            NaN
         13   -1    0    0    0    0  0.00000000000E+00  0.00000000000E+00  0.74505805969E-08  0.10566000000E+00  0.10566000000E+00 0. -1.
     999900   -1    0    0    0    0 -0.00000000000E+00 -0.00000000000E+00 -0.74505805969E-08  0.93827000000E+00  0.93827000000E+00 0.  1.
     999902    2    1    2    0    0  0.60321945513E-02  0.98648773108E-02 -0.21668698680E-01  0.10193691434E+01  0.10190732137E+01 0.  0.
     999903    2    3    3    0    0 -0.10968970643E+00  0.36496065009E-01  0.52174602329E-01  0.12832839705E+00  0.19549780113E-01 0.  0.
         14    1    1    2    0    0 -0.60321945513E-02 -0.98648773108E-02  0.21668698680E-01  0.24560856620E-01  0.00000000000E+00 0. -1.
     999901    1    3    3    0    0  0.11572190098E+00 -0.26631187698E-01 -0.73843301009E-01  0.89104074633E+00  0.88000000000E+00 0.  1.
        -11    1    4    4    0    0 -0.47693366194E-01  0.65874790354E-02  0.17299757146E-01  0.51162435217E-01  0.51100000000E-03 0.  1.
         11    1    4    4    0    0 -0.61996340234E-01  0.29908585973E-01  0.34874845184E-01  0.77165961829E-01  0.51100000000E-03 0. -1.
</event>
<event>
 8    1  0.1114333E+005  0.1043930E+01  0.7957747E-01            NaN
         13   -1    0    0    0    0  0.00000000000E+00  0.00000000000E+00  0.74505805969E-08  0.10566000000E+00  0.10566000000E+00 0.  1.
     999900   -1    0    0    0    0 -0.00000000000E+00 -0.00000000000E+00 -0.74505805969E-08  0.93827000000E+00  0.93827000000E+00 0.  1.
     999902    2    1    2    0    0  0.16581026746E-01  0.13081465078E-01  0.11697472420E-01  0.10197869671E+01  0.10195011389E+01 0.  0.
     999903    2    3    3    0    0 -0.27511459987E-01 -0.80104837446E-01 -0.93347098072E-01  0.12756379090E+00  0.19625866021E-01 0.  0.
         14    1    1    2    0    0 -0.16581026746E-01 -0.13081465078E-01 -0.11697472420E-01  0.24143032899E-01  0.00000000000E+00 0. -1.
     999901    1    3    3    0    0  0.44092486733E-01  0.93186302524E-01  0.10504457049E+00  0.89222317620E+00  0.88000000000E+00 0.  1.
        -11    1    4    4    0    0 -0.22469667967E-01 -0.78439057390E-01 -0.87106220480E-01  0.11935378700E+00  0.51100000000E-03 0. -1.
         11    1    4    4    0    0 -0.50417920203E-02 -0.16657800554E-02 -0.62408775913E-02  0.82100039025E-02  0.51100000000E-03 0.  1.
</event>
<event>
 8    1  0.1114333E+005  0.1043930E+01  0.7957747E-01            NaN
         13   -1    0    0    0    0  0.00000000000E+00  0.00000000000E+00  0.74505805969E-08  0.10566000000E+00  0.10566000000E+00 0. -1.
     999900   -1    0    0    0    0 -0.00000000000E+00 -0.00000000000E+00 -0.74505805969E-08  0.93827000000E+00  0.93827000000E+00 0.  1.
     999902    2    1    2    0    0  0.19343884233E-01  0.83723233267E-02 -0.18522841086E-02  0.10227707795E+01  0.10225518837E+01 0.  0.
     999903    2    3    3    0    0  0.12207122873E+00  0.48744559358E-01  0.25818011049E-01  0.13544419365E+00  0.20028553349E-01 0.  0.
         14    1    1    2    0    0 -0.19343884233E-01 -0.83723233267E-02  0.18522841086E-02  0.21159220485E-01  0.00000000000E+00 0. -1.
     999901    1    3    3    0    0 -0.10272734449E+00 -0.40372236031E-01 -0.27670295158E-01  0.88732658587E+00  0.88000000000E+00 0.  1.
        -11    1    4    4    0    0  0.22559924772E-01  0.15012223854E-01 -0.56188424220E-03  0.27108926679E-01  0.51100000000E-03 0. -1.
         11    1    4    4    0    0  0.99511303954E-01  0.33732335504E-01  0.26379895291E-01  0.10833526697E+00  0.51100000000E-03 0.  1.
</event>
<event>
 8    1  0.1114333E+005  0.1043930E+01  0.7957747E-01            NaN
         13   -1    0    0    0    0  0.00000000000E+00  0.00000000000E+00  0.74505805969E-08  0.10566000000E+00  0.10566000000E+00 0.  1.
     999900   -1    0    0    0    0 -0.00000000000E+00 -0.00000000000E+00 -0.74505805969E-08  0.93827000000E+00  0.93827000000E+00 0. -1.
     999902    2    1    2    0    0  0.10962687615E-02 -0.49162168723E-02 -0.23307970763E-01  0.10200839837E+01  0.10198052271E+01 0.  0.
     999903    2    3    3    0    0 -0.21411212497E-01 -0.96804271175E-01 -0.85966655728E-01  0.13279817175E+00  0.20385818242E-01 0.  0.
         14    1    1    2    0    0 -0.10962687615E-02  0.49162168723E-02  0.23307970763E-01  0.23846016326E-01  0.00000000000E+00 0.  1.
     999901    1    3    3    0    0  0.22507481259E-01  0.91888054302E-01  0.62658684964E-01  0.88728581192E+00  0.88000000000E+00 0.  1.
        -11    1    4    4    0    0 -0.12484330578E-02 -0.49279586779E-01 -0.36953882396E-01  0.61610768567E-01  0.51100000000E-03 0.  1.
         11    1    4    4    0    0 -0.20162779439E-01 -0.47524684395E-01 -0.49012773332E-01  0.71187403185E-01  0.51100000000E-03 0. -1.
</event>
<event>
 8    1  0.1114333E+005  0.1043930E+01  0.7957747E-01            NaN
         13   -1    0    0    0    0  0.00000000000E+00  0.00000000000E+00  0.74505805969E-08  0.10566000000E+00  0.10566000000E+00 0.  1.
     999900   -1    0    0    0    0 -0.00000000000E+00 -0.00000000000E+00 -0.74505805969E-08  0.93827000000E+00  0.93827000000E+00 0.  1.
     999902    2    1    2    0    0  0.33157769171E-02  0.94538083196E-02  0.20808410151E-01  0.10208354378E+01  0.10205741680E+01 0.  0.
     999903    2    3    3    0    0 -0.36264948459E-01  0.86985069410E-01 -0.87408633559E-01  0.12994337995E+00  0.19064731435E-01 0.  0.
         14    1    1    2    0    0 -0.33157769171E-02 -0.94538083196E-02 -0.20808410151E-01  0.23094562159E-01  0.00000000000E+00 0. -1.
     999901    1    3    3    0    0  0.39580725376E-01 -0.77531261090E-01  0.10821704371E+00  0.89089205789E+00  0.88000000000E+00 0. -1.
        -11    1    4    4    0    0 -0.19353378508E-01  0.34220700315E-01 -0.47476230318E-01  0.61643030068E-01  0.51100000000E-03 0. -1.
         11    1    4    4    0    0 -0.16911569951E-01  0.52764369094E-01 -0.39932403241E-01  0.68300349880E-01  0.51100000000E-03 0.  1.
</event>
<event>
 8    1  0.1114333E+005  0.1043930E+01  0.7957747E-01            NaN
         13   -1    0    0    0    0  0.00000000000E+00  0.00000000000E+00  0.74505805969E-08  0.10566000000E+00  0.10566000000E+00 0.  1.
     999900   -1    0    0    0    0 -0.00000000000E+00 -0.00000000000E+00 -0.74505805969E-08  0.93827000000E+00  0.93827000000E+00 0. -1.
     999902    2    1    2    0    0  0.14817967667E-01  0.11615717527E-03 -0.17067278592E-01  0.10213273971E+01  0.10210772617E+01 0.  0.
     999903    2    3    3    0    0  0.87141940240E-01  0.68440228152E-01 -0.72655228661E-01  0.13397799814E+00  0.19837821335E-01 0.  0.
         14    1    1    2    0    0 -0.14817967667E-01 -0.11615717527E-03  0.17067278592E-01  0.22602602876E-01  0.00000000000E+00 0.  1.
     999901    1    3    3    0    0 -0.72323972574E-01 -0.68324070977E-01  0.55587950070E-01  0.88734939898E+00  0.88000000000E+00 0. -1.
        -11    1    4    4    0    0  0.22320605046E-01  0.73816645396E-02 -0.15257526474E-01  0.28031261408E-01  0.51100000000E-03 0. -1.
         11    1    4    4    0    0  0.64821335195E-01  0.61058563613E-01 -0.57397702187E-01  0.10594673673E+00  0.51100000000E-03 0.  1.
</event>
<event>
 8    1  0.1114333E+005  0.1043930E+01  0.7957747E-01            NaN
         13   -1    0    0    0    0  0.00000000000E+00  0.00000000000E+00  0.74505805969E-08  0.10566000000E+00  0.10566000000E+00 0. -1.
     999900   -1    0    0    0    0 -0.00000000000E+00 -0.00000000000E+00 -0.74505805969E-08  0.93827000000E+00  0.93827000000E+00 0. -1.
     999902    2    1    2    0    0 -0.92488751917E-02  0.18401550293E-01  0.10067600290E-01  0.10210058791E+01  0.10207484949E+01 0.  0.
     999903    2    3    3    0    0  0.40136842025E-01  0.62861338293E-01 -0.10576160252E+00  0.13093171021E+00  0.19876675614E-01 0.  0.
         14    1    1    2    0    0  0.92488751917E-02 -0.18401550293E-01 -0.10067600290E-01  0.22924120945E-01  0.00000000000E+00 0.  1.
     999901    1    3    3    0    0 -0.49385717217E-01 -0.44459788000E-01  0.11582920280E+00  0.89007416884E+00  0.88000000000E+00 0.  1.
        -11    1    4    4    0    0  0.34387530286E-01  0.41568699963E-01 -0.84752205547E-01  0.10046719127E+00  0.51100000000E-03 0. -1.
         11    1    4    4    0    0  0.57493117392E-02  0.21292638330E-01 -0.21009396969E-01  0.30464518944E-01  0.51100000000E-03 0.  1.
</event>
<event>
 8    1  0.1114333E+005  0.1043930E+01  0.7957747E-01            NaN
         13   -1    0    0    0    0  0.00000000000E+00  0.00000000000E+00  0.74505805969E-08  0.10566000000E+00  0.10566000000E+00 0.  1.
     999900   -1    0    0    0    0 -0.00000000000E+00 -0.00000000000E+00 -0.74505805969E-08  0.93827000000E+00  0.93827000000E+00 0.  1.
     999902    2    1    2    0    0  0.79057470580E-02 -0.12391515213E-01 -0.18753984068E-01  0.10201022346E+01  0.10198239096E+01 0.  0.
     999903    2    3    3    0    0  0.20570778580E-01 -0.12787191690E+00 -0.18993308263E-01  0.13246707110E+00  0.20307513475E-01 0.  0.
         14    1    1    2    0    0 -0.79057470580E-02  0.12391515213E-01  0.18753984068E-01  0.23827765406E-01  0.00000000000E+00 0.  1.
     999901    1    3    3    0    0 -0.12665031522E-01  0.11548040169E+00  0.23932419464E-03  0.88763516350E+00  0.88000000000E+00 0.  1.
        -11    1    4    4    0    0  0.13131892558E-01 -0.57281965979E-01 -0.18044983497E-01  0.61478067463E-01  0.51100000000E-03 0. -1.
         11    1    4    4    0    0  0.74388860218E-02 -0.70589950922E-01 -0.94832476591E-03  0.70989003636E-01  0.51100000000E-03 0.  1.
</event>
<event>
 8    1  0.1114333E+005  0.1043930E+01  0.7957747E-01            NaN
         13   -1    0    0    0    0  0.00000000000E+00  0.00000000000E+00  0.74505805969E-08  0.10566000000E+00  0.10566000000E+00 0.  1.
     999900   -1    0    0    0    0 -0.00000000000E+00 -0.00000000000E+00 -0.74505805969E-08  0.93827000000E+00  0.93827000000E+00 0. -1.
     999902    2    1    2    0    0 -0.66579654115E-03 -0.15480820515E-01 -0.17264163537E-01  0.10207319304E+01  0.10204682863E+01 0.  0.
     999903    2    3    3    0    0 -0.93507782390E-01 -0.49656978071E-01  0.73767205839E-01  0.13052164388E+00  0.19615759605E-01 0.  0.
         14    1    1    2    0    0  0.66579654115E-03  0.15480820515E-01  0.17264163537E-01  0.23198069564E-01  0.00000000000E+00 0. -1.
     999901    1    3    3    0    0  0.92841985849E-01  0.34176157556E-01 -0.91031369377E-01  0.89021028656E+00  0.88000000000E+00 0. -1.
        -11    1    4    4    0    0 -0.56328354215E-01 -0.19112289839E-01  0.38400644600E-01  0.70802780582E-01  0.51100000000E-03 0.  1.
         11    1    4    4    0    0 -0.37179428175E-01 -0.30544688231E-01  0.35366561239E-01  0.59718863297E-01  0.51100000000E-03 0. -1.
</event>
<event>
 8    1  0.1114333E+005  0.1043930E+01  0.7957747E-01            NaN
         13   -1    0    0    0    0  0.00000000000E+00  0.00000000000E+00  0.74505805969E-08  0.10566000000E+00  0.10566000000E+00 0.  1.
     999900   -1    0    0    0    0 -0.00000000000E+00 -0.00000000000E+00 -0.74505805969E-08  0.93827000000E+00  0.93827000000E+00 0.  1.
     999902    2    1    2    0    0 -0.11936802233E-01 -0.93360888715E-02  0.17852192160E-01  0.10205131136E+01  0.10202444141E+01 0.  0.
     999903    2    3    3    0    0 -0.11450238478E+00 -0.18637318801E-01  0.62650159881E-01  0.13337554282E+00  0.20145647589E-01 0.  0.
         14    1    1    2    0    0  0.11936802233E-01  0.93360888715E-02 -0.17852192160E-01  0.23416886384E-01  0.00000000000E+00 0. -1.
     999901    1    3    3    0    0  0.10256558255E+00  0.93012299298E-02 -0.44797967721E-01  0.88713757079E+00  0.88000000000E+00 0.  1.
        -11    1    4    4    0    0 -0.34086051766E-01 -0.46427339009E-02  0.85585129738E-02  0.35453112253E-01  0.51100000000E-03 0.  1.
         11    1    4    4    0    0 -0.80416333018E-01 -0.13994584900E-01  0.54091646908E-01  0.97922430570E-01  0.51100000000E-03 0. -1.
</event>
<event>
 8    1  0.1114333E+005  0.1043930E+01  0.7957747E-01            NaN
         13   -1    0    0    0    0  0.00000000000E+00  0.00000000000E+00  0.74505805969E-08  0.10566000000E+00  0.10566000000E+00 0. -1.
     999900   -1    0    0    0    0 -0.00000000000E+00 -0.00000000000E+00 -0.74505805969E-08  0.93827000000E+00  0.93827000000E+00 0. -1.
     999902    2    1    2    0    0 -0.64279866411E-02 -0.87607202574E-02 -0.21679708927E-01  0.10196796596E+01  0.10193912542E+01 0.  0.
     999903    2    3    3    0    0  0.75752892605E-01  0.88136676159E-01 -0.54253761891E-01  0.12995842723E+00  0.20955851391E-01 0.  0.
         14    1    1    2    0    0  0.64279866411E-02  0.87607202574E-02  0.21679708927E-01  0.24250340428E-01  0.00000000000E+00 0. -1.
     999901    1    3    3    0    0 -0.82180879246E-01 -0.96897396417E-01  0.32574052964E-01  0.88972123234E+00  0.88000000000E+00 0.  1.
        -11    1    4    4    0    0  0.56720285211E-01  0.50925438631E-01 -0.32988421568E-01  0.83060749652E-01  0.51100000000E-03 0.  1.
         11    1    4    4    0    0  0.19032607394E-01  0.37211237528E-01 -0.21265340323E-01  0.46897677583E-01  0.51100000000E-03 0. -1.
</event>
<event>
 8    1  0.1114333E+005  0.1043930E+01  0.7957747E-01            NaN
         13   -1    0    0    0    0  0.00000000000E+00  0.00000000000E+00  0.74505805969E-08  0.10566000000E+00  0.10566000000E+00 0. -1.
     999900   -1    0    0    0    0 -0.00000000000E+00 -0.00000000000E+00 -0.74505805969E-08  0.93827000000E+00  0.93827000000E+00 0. -1.
     999902    2    1    2    0    0 -0.14598790290E-01 -0.12920518573E-01 -0.11960402516E-01  0.10210582771E+01  0.10208020815E+01 0.  0.
     999903    2    3    3    0    0  0.11116286272E+00  0.35335063699E-02  0.61987847960E-01  0.12889513508E+00  0.20044820735E-01 0.  0.
         14    1    1    2    0    0  0.14598790290E-01  0.12920518573E-01  0.11960402516E-01  0.22871722858E-01  0.00000000000E+00 0.  1.
     999901    1    3    3    0    0 -0.12576165301E+00 -0.16454024943E-01 -0.73948250476E-01  0.89216314206E+00  0.88000000000E+00 0. -1.
        -11    1    4    4    0    0  0.49400338860E-01  0.47982577495E-02  0.16974300000E-01  0.52457647092E-01  0.51100000000E-03 0. -1.
         11    1    4    4    0    0  0.61762523856E-01 -0.12647513796E-02  0.45013547960E-01  0.76437487989E-01  0.51100000000E-03 0.  1.
</event>
<event>
 8    1  0.1114333E+005  0.1043930E+01  0.7957747E-01            NaN
         13   -1    0    0    0    0  0.00000000000E+00  0.00000000000E+00  0.74505805969E-08  0.10566000000E+00  0.10566000000E+00 0. -1.
     999900   -1    0    0    0    0 -0.00000000000E+00 -0.00000000000E+00 -0.74505805969E-08  0.93827000000E+00  0.93827000000E+00 0.  1.
     999902    2    1    2    0    0 -0.29973643107E-02  0.21731573614E-01  0.96497193109E-02  0.10199641375E+01  0.10196825384E+01 0.  0.
     999903    2    3    3    0    0  0.17178426433E-01  0.85766235894E-01 -0.95637696701E-01  0.13114866703E+00  0.20061362839E-01 0.  0.
         14    1    1    2    0    0  0.29973643107E-02 -0.21731573614E-01 -0.96497193109E-02  0.23965862541E-01  0.00000000000E+00 0.  1.
     999901    1    3    3    0    0 -0.20175790744E-01 -0.64034662281E-01  0.10528741601E+00  0.88881547043E+00  0.88000000000E+00 0. -1.
        -11    1    4    4    0    0 -0.43559273656E-02  0.21460097946E-01 -0.24523019196E-01  0.32880837863E-01  0.51100000000E-03 0.  1.
         11    1    4    4    0    0  0.21534353799E-01  0.64306137948E-01 -0.71114677505E-01  0.98267829166E-01  0.51100000000E-03 0. -1.
</event>
<event>
 8    1  0.1224666E+005  0.1043930E+01  0.7957747E-01            NaN
         13   -1    0    0    0    0  0.00000000000E+00  0.00000000000E+00  0.74505805969E-08  0.10566000000E+00  0.10566000000E+00 0.  1.
     999900   -1    0    0    0    0 -0.00000000000E+00 -0.00000000000E+00 -0.74505805969E-08  0.93827000000E+00  0.93827000000E+00 0.  1.
     999902    2    1    2    0    0 -0.91500146448E-02 -0.86380127944E-02 -0.27478430140E-01  0.10137074562E+01  0.10132568305E+01 0.  0.
     999903    2    3    3    0    0  0.50640198936E-01  0.26837400661E-01  0.10501426937E+00  0.12107780730E+00  0.18632306039E-01 0.  0.
         14    1    1    2    0    0  0.91500146448E-02  0.86380127944E-02  0.27478430140E-01  0.30222543837E-01  0.00000000000E+00 0.  1.
     999901    1    3    3    0    0 -0.59790213581E-01 -0.35475413455E-01 -0.13249269951E+00  0.89262964886E+00  0.88000000000E+00 0.  1.
        -11    1    4    4    0    0  0.19991114303E-01  0.58997637822E-02  0.54796907054E-01  0.58629463646E-01  0.51100000000E-03 0. -1.
         11    1    4    4    0    0  0.30649084633E-01  0.20937636879E-01  0.50217362313E-01  0.62448343658E-01  0.51100000000E-03 0.  1.
</event>
<event>
 8    1  0.1114333E+005  0.1043930E+01  0.7957747E-01            NaN
         13   -1    0    0    0    0  0.00000000000E+00  0.00000000000E+00  0.74505805969E-08  0.10566000000E+00  0.10566000000E+00 0.  1.
     999900   -1    0    0    0    0 -0.00000000000E+00 -0.00000000000E+00 -0.74505805969E-08  0.93827000000E+00  0.93827000000E+00 0. -1.
     999902    2    1    2    0    0 -0.19873182536E-01  0.21543859765E-02  0.12285710925E-01  0.10204667637E+01  0.10201969871E+01 0.  0.
     999903    2    3    3    0    0  0.56872773440E-01  0.79954378047E-01 -0.81650575320E-01  0.12874550325E+00  0.16774183439E-01 0.  0.
         14    1    1    2    0    0  0.19873182536E-01 -0.21543859765E-02 -0.12285710925E-01  0.23463236264E-01  0.00000000000E+00 0.  1.
     999901    1    3    3    0    0 -0.76745955976E-01 -0.77799992071E-01  0.93936286245E-01  0.89172126048E+00  0.88000000000E+00 0.  1.
        -11    1    4    4    0    0  0.37212757056E-01  0.44147088695E-01 -0.38949815701E-01  0.69649867136E-01  0.51100000000E-03 0. -1.
         11    1    4    4    0    0  0.19660016384E-01  0.35807289352E-01 -0.42700759619E-01  0.59095636116E-01  0.51100000000E-03 0.  1.
</event>
<event>
 8    1  0.1114333E+005  0.1043930E+01  0.7957747E-01            NaN
         13   -1    0    0    0    0  0.00000000000E+00  0.00000000000E+00  0.74505805969E-08  0.10566000000E+00  0.10566000000E+00 0.  1.
     999900   -1    0    0    0    0 -0.00000000000E+00 -0.00000000000E+00 -0.74505805969E-08  0.93827000000E+00  0.93827000000E+00 0. -1.
     999902    2    1    2    0    0 -0.18478315229E-01  0.13969953471E-01 -0.26979506287E-03  0.10207636338E+01  0.10205007181E+01 0.  0.
     999903    2    3    3    0    0  0.12030585816E+00  0.34516902330E-01  0.25594671769E-01  0.12927488202E+00  0.19798783918E-01 0.  0.
         14    1    1    2    0    0  0.18478315229E-01 -0.13969953471E-01  0.26979506287E-03  0.23166366203E-01  0.00000000000E+00 0. -1.
     999901    1    3    3    0    0 -0.13878417339E+00 -0.20546948859E-01 -0.25864466832E-01  0.89148875177E+00  0.88000000000E+00 0. -1.
        -11    1    4    4    0    0  0.71027239600E-01  0.26867022158E-01  0.22952891629E-01  0.79333485994E-01  0.51100000000E-03 0. -1.
         11    1    4    4    0    0  0.49278618563E-01  0.76498801715E-02  0.26417801396E-02  0.49941396030E-01  0.51100000000E-03 0.  1.
</event>
<event>
 8    1  0.1114333E+005  0.1043930E+01  0.7957747E-01            NaN
         13   -1    0    0    0    0  0.00000000000E+00  0.00000000000E+00  0.74505805969E-08  0.10566000000E+00  0.10566000000E+00 0. -1.
     999900   -1    0    0    0    0 -0.00000000000E+00 -0.00000000000E+00 -0.74505805969E-08  0.93827000000E+00  0.93827000000E+00 0.  1.
     999902    2    1    2    0    0  0.18507961272E-01  0.13192841031E-01 -0.25513550269E-02  0.10210585091E+01  0.10208023187E+01 0.  0.
     999903    2    3    3    0    0  0.10925209854E+00  0.63887984360E-02  0.73041624540E-01  0.13314235762E+00  0.20370829534E-01 0.  0.
         14    1    1    2    0    0 -0.18507961272E-01 -0.13192841031E-01  0.25513550269E-02  0.22871490930E-01  0.00000000000E+00 0. -1.
     999901    1    3    3    0    0 -0.90744137270E-01  0.68040425954E-02 -0.75592979567E-01  0.88791615145E+00  0.88000000000E+00 0.  1.
        -11    1    4    4    0    0  0.51136647773E-01  0.17681172727E-02  0.22166210864E-01  0.55764549753E-01  0.51100000000E-03 0.  1.
         11    1    4    4    0    0  0.58115450769E-01  0.46206811633E-02  0.50875413677E-01  0.77377807867E-01  0.51100000000E-03 0. -1.
</event>
<event>
 7    1  0.1114333E+005  0.1043930E+01  0.7957747E-01            NaN
         13   -1    0    0    0    0  0.00000000000E+00  0.00000000000E+00  0.74505805969E-08  0.10566000000E+00  0.10566000000E+00 0.  1.
     999900   -1    0    0    0    0 -0.00000000000E+00 -0.00000000000E+00 -0.74505805969E-08  0.93827000000E+00  0.93827000000E+00 0.  1.
     999903    2    1    2    0    0 -0.37025603167E-01 -0.43658086372E-02 -0.71281704556E-01  0.82769103148E-01  0.19485570472E-01 0.  0.
         14    1    1    2    0    0  0.40063579466E-01 -0.64367769332E-01  0.68873560391E-02  0.76129730078E-01  0.00000000000E+00 0.  1.
     999901    1    1    2    0    0 -0.30379762990E-02  0.68733577970E-01  0.64394348517E-01  0.88503116677E+00  0.88000000000E+00 0. -1.
        -11    1    3    3    0    0 -0.12552522975E-01  0.30493918677E-02 -0.99356030964E-02  0.16304660490E-01  0.51100000000E-03 0. -1.
         11    1    3    3    0    0 -0.24473080193E-01 -0.74152005049E-02 -0.61346101460E-01  0.66464442659E-01  0.51100000000E-03 0.  1.
</event>
<event>
 8    1  0.1245092E+005  0.1043930E+01  0.7957747E-01            NaN
         13   -1    0    0    0    0  0.00000000000E+00  0.00000000000E+00  0.74505805969E-08  0.10566000000E+00  0.10566000000E+00 0.  1.
     999900   -1    0    0    0    0 -0.00000000000E+00 -0.00000000000E+00 -0.74505805969E-08  0.93827000000E+00  0.93827000000E+00 0. -1.
     999902    2    1    2    0    0 -0.20155181904E-02  0.21824871512E-01 -0.76532756644E-02  0.10207144888E+01  0.10204504436E+01 0.  0.
     999903    2    3    3    0    0 -0.64764933540E-01 -0.10968458754E+00 -0.29260816834E-02  0.12871977287E+00  0.18303349828E-01 0.  0.
         14    1    1    2    0    0  0.20155181904E-02 -0.21824871512E-01  0.76532756644E-02  0.23215511162E-01  0.00000000000E+00 0.  1.
     999901    1    3    3    0    0  0.62749415350E-01  0.13150945905E+00 -0.47271939810E-02  0.89199471596E+00  0.88000000000E+00 0.  1.
        -11    1    4    4    0    0 -0.34976379645E-01 -0.54193730364E-01  0.72919187154E-02  0.64913332555E-01  0.51100000000E-03 0.  1.
         11    1    4    4    0    0 -0.29788553895E-01 -0.55490857173E-01 -0.10218000399E-01  0.63806440318E-01  0.51100000000E-03 0. -1.
</event>
<event>
 8    1  0.1114333E+005  0.1043930E+01  0.7957747E-01            NaN
         13   -1    0    0    0    0  0.00000000000E+00  0.00000000000E+00  0.74505805969E-08  0.10566000000E+00  0.10566000000E+00 0. -1.
     999900   -1    0    0    0    0 -0.00000000000E+00 -0.00000000000E+00 -0.74505805969E-08  0.93827000000E+00  0.93827000000E+00 0. -1.
     999902    2    1    2    0    0  0.92486277747E-04  0.73787597266E-02  0.22192107994E-01  0.10205431596E+01  0.10202751571E+01 0.  0.
     999903    2    3    3    0    0 -0.46382566124E-01  0.98790575012E-01  0.73663735349E-01  0.13309435602E+00  0.19412407056E-01 0.  0.
         14    1    1    2    0    0 -0.92486277747E-04 -0.73787597266E-02 -0.22192107994E-01  0.23386840446E-01  0.00000000000E+00 0.  1.
     999901    1    3    3    0    0  0.46475052402E-01 -0.91411815285E-01 -0.51471627354E-01  0.88744880353E+00  0.88000000000E+00 0.  1.
        -11    1    4    4    0    0 -0.26632996298E-01  0.34515198059E-01  0.29760440091E-01  0.52787880278E-01  0.51100000000E-03 0.  1.
         11    1    4    4    0    0 -0.19749569826E-01  0.64275376953E-01  0.43903295258E-01  0.80306475743E-01  0.51100000000E-03 0. -1.
</event>
<event>
 8    1  0.1114333E+005  0.1043930E+01  0.7957747E-01            NaN
         13   -1    0    0    0    0  0.00000000000E+00  0.00000000000E+00  0.74505805969E-08  0.10566000000E+00  0.10566000000E+00 0.  1.
     999900   -1    0    0    0    0 -0.00000000000E+00 -0.00000000000E+00 -0.74505805969E-08  0.93827000000E+00  0.93827000000E+00 0.  1.
     999902    2    1    2    0    0  0.17839546572E-01  0.12400022486E-01  0.78575729753E-02  0.10208269389E+01  0.10205654745E+01 0.  0.
     999903    2    3    3    0    0 -0.20757481208E-01 -0.56566489042E-01 -0.11285838218E+00  0.12907672045E+00  0.17121466739E-01 0.  0.
         14    1    1    2    0    0 -0.17839546572E-01 -0.12400022486E-01 -0.78575729753E-02  0.23103061109E-01  0.00000000000E+00 0. -1.
     999901    1    3    3    0    0  0.38597027780E-01  0.68966511528E-01  0.12071595516E+00  0.89175021844E+00  0.88000000000E+00 0. -1.
        -11    1    4    4    0    0 -0.92461456825E-02 -0.25133334854E-01 -0.68135667519E-01  0.73211379171E-01  0.51100000000E-03 0. -1.
         11    1    4    4    0    0 -0.11511335526E-01 -0.31433154188E-01 -0.44722714665E-01  0.55865341275E-01  0.51100000000E-03 0.  1.
</event>
<event>
 8    1  0.1114333E+005  0.1043930E+01  0.7957747E-01            NaN
         13   -1    0    0    0    0  0.00000000000E+00  0.00000000000E+00  0.74505805969E-08  0.10566000000E+00  0.10566000000E+00 0. -1.
     999900   -1    0    0    0    0 -0.00000000000E+00 -0.00000000000E+00 -0.74505805969E-08  0.93827000000E+00  0.93827000000E+00 0.  1.
     999902    2    1    2    0    0  0.49345835219E-02 -0.11609395006E-01  0.96664393925E-02  0.10280376050E+01  0.10279147577E+01 0.  0.
     999903    2    3    3    0    0 -0.10858303458E+00  0.76775358309E-01  0.19811759228E-01  0.13629714855E+00  0.22353430536E-01 0.  0.
         14    1    1    2    0    0 -0.49345835219E-02  0.11609395006E-01 -0.96664393925E-02  0.15892394957E-01  0.00000000000E+00 0.  1.
     999901    1    3    3    0    0  0.11351761810E+00 -0.88384753316E-01 -0.10145319835E-01  0.89174045650E+00  0.88000000000E+00 0.  1.
        -11    1    4    4    0    0 -0.80469871790E-01  0.59035286499E-01  0.24379566514E-01  0.10273845289E+00  0.51100000000E-03 0.  1.
         11    1    4    4    0    0 -0.28113162787E-01  0.17740071811E-01 -0.45678072866E-02  0.33558695656E-01  0.51100000000E-03 0. -1.
</event>
<event>
 8    1  0.1114333E+005  0.1043930E+01  0.7957747E-01            NaN
         13   -1    0    0    0    0  0.00000000000E+00  0.00000000000E+00  0.74505805969E-08  0.10566000000E+00  0.10566000000E+00 0. -1.
     999900   -1    0    0    0    0 -0.00000000000E+00 -0.00000000000E+00 -0.74505805969E-08  0.93827000000E+00  0.93827000000E+00 0. -1.
     999902    2    1    2    0    0  0.17394425761E-01 -0.69926020405E-02 -0.13402747744E-01  0.10208844760E+01  0.10206243271E+01 0.  0.
     999903    2    3    3    0    0 -0.90125861571E-01 -0.54933506658E-01  0.71571955351E-01  0.12898782125E+00  0.19363681502E-01 0.  0.
         14    1    1    2    0    0 -0.17394425761E-01  0.69926020405E-02  0.13402747744E-01  0.23045524033E-01  0.00000000000E+00 0. -1.
     999901    1    3    3    0    0  0.10752028733E+00  0.47940904617E-01 -0.84974703096E-01  0.89189665471E+00  0.88000000000E+00 0. -1.
        -11    1    4    4    0    0 -0.60997383092E-01 -0.44745006264E-01  0.43488779290E-01  0.87260136229E-01  0.51100000000E-03 0. -1.
         11    1    4    4    0    0 -0.29128478479E-01 -0.10188500393E-01  0.28083176062E-01  0.41727685024E-01  0.51100000000E-03 0.  1.
</event>
<event>
 8    1  0.1114333E+005  0.1043930E+01  0.7957747E-01            NaN
         13   -1    0    0    0    0  0.00000000000E+00  0.00000000000E+00  0.74505805969E-08  0.10566000000E+00  0.10566000000E+00 0.  1.
     999900   -1    0    0    0    0 -0.00000000000E+00 -0.00000000000E+00 -0.74505805969E-08  0.93827000000E+00  0.93827000000E+00 0.  1.
     999902    2    1    2    0    0 -0.13992845790E-01 -0.17249538968E-01  0.71657529579E-02  0.10205913123E+01  0.10203244251E+01 0.  0.
     999903    2    3    3    0    0 -0.70971896639E-02 -0.10787284816E+00  0.75350524629E-01  0.13328680013E+00  0.20018692646E-01 0.  0.
         14    1    1    2    0    0  0.13992845790E-01  0.17249538968E-01 -0.71657529579E-02  0.23338687696E-01  0.00000000000E+00 0. -1.
     999901    1    3    3    0    0 -0.68956561257E-02  0.90623309191E-01 -0.68184771671E-01  0.88730451218E+00  0.88000000000E+00 0. -1.
        -11    1    4    4    0    0 -0.30076920171E-02 -0.56628799769E-01  0.51535127087E-01  0.76628960710E-01  0.51100000000E-03 0. -1.
         11    1    4    4    0    0 -0.40894976468E-02 -0.51244048390E-01  0.23815397541E-01  0.56657839417E-01  0.51100000000E-03 0.  1.
</event>
<event>
 8    1  0.1114333E+005  0.1043930E+01  0.7957747E-01            NaN
         13   -1    0    0    0    0  0.00000000000E+00  0.00000000000E+00  0.74505805969E-08  0.10566000000E+00  0.10566000000E+00 0.  1.
     999900   -1    0    0    0    0 -0.00000000000E+00 -0.00000000000E+00 -0.74505805969E-08  0.93827000000E+00  0.93827000000E+00 0.  1.
     999902    2    1    2    0    0 -0.17311367305E-02 -0.24708027382E-02  0.23286905302E-01  0.10204484826E+01  0.10201782805E+01 0.  0.
     999903    2    3    3    0    0 -0.11037919144E+00  0.16815444217E-01 -0.62432161388E-01  0.12942428680E+00  0.19660777521E-01 0.  0.
         14    1    1    2    0    0  0.17311367305E-02  0.24708027382E-02 -0.23286905302E-01  0.23481517393E-01  0.00000000000E+00 0. -1.
     999901    1    3    3    0    0  0.10864805471E+00 -0.19286246955E-01  0.85719066689E-01  0.89102419580E+00  0.88000000000E+00 0. -1.
        -11    1    4    4    0    0 -0.98361652594E-01  0.21100937557E-01 -0.55259953141E-01  0.11477886482E+00  0.51100000000E-03 0. -1.
         11    1    4    4    0    0 -0.12017538843E-01 -0.42854933404E-02 -0.71722082473E-02  0.14645421986E-01  0.51100000000E-03 0.  1.
</event>
<event>
 8    1  0.1114333E+005  0.1043930E+01  0.7957747E-01            NaN
         13   -1    0    0    0    0  0.00000000000E+00  0.00000000000E+00  0.74505805969E-08  0.10566000000E+00  0.10566000000E+00 0. -1.
     999900   -1    0    0    0    0 -0.00000000000E+00 -0.00000000000E+00 -0.74505805969E-08  0.93827000000E+00  0.93827000000E+00 0.  1.
     999902    2    1    2    0    0  0.13105774181E-02  0.15465671993E-01 -0.17732561406E-01  0.10203641697E+01  0.10200920010E+01 0.  0.
     999903    2    3    3    0    0 -0.43675657727E-01  0.15680229703E-01 -0.12299719795E+00  0.13294969434E+00  0.19846355794E-01 0.  0.
         14    1    1    2    0    0 -0.13105774181E-02 -0.15465671993E-01  0.17732561406E-01  0.23565830293E-01  0.00000000000E+00 0. -1.
     999901    1    3    3    0    0  0.44986235145E-01 -0.21455770980E-03  0.10526463655E+00  0.88741447537E+00  0.88000000000E+00 0. -1.
        -11    1    4    4    0    0 -0.11250035269E-01  0.86633685405E-02 -0.18595990821E-01  0.23402761453E-01  0.51100000000E-03 0. -1.
         11    1    4    4    0    0 -0.32425622459E-01  0.70168611623E-02 -0.10440120713E+00  0.10954693288E+00  0.51100000000E-03 0.  1.
</event>
<event>
 8    1  0.1114333E+005  0.1043930E+01  0.7957747E-01            NaN
         13   -1    0    0    0    0  0.00000000000E+00  0.00000000000E+00  0.74505805969E-08  0.10566000000E+00  0.10566000000E+00 0. -1.
     999900   -1    0    0    0    0 -0.00000000000E+00 -0.00000000000E+00 -0.74505805969E-08  0.93827000000E+00  0.93827000000E+00 0. -1.
     999902    2    1    2    0    0 -0.59374348392E-02  0.15292923678E-01  0.19559320373E-01  0.10184017086E+01  0.10180816993E+01 0.  0.
     999903    2    3    3    0    0  0.13942344192E-01 -0.11417716506E+00 -0.48107614740E-01  0.12613688045E+00  0.19114288621E-01 0.  0.
         14    1    1    2    0    0  0.59374348392E-02 -0.15292923678E-01 -0.19559320373E-01  0.25528291376E-01  0.00000000000E+00 0.  1.
     999901    1    3    3    0    0 -0.19879779031E-01  0.12947008874E+00  0.67666935113E-01  0.89226482818E+00  0.88000000000E+00 0.  1.
        -11    1    4    4    0    0  0.76001573021E-02 -0.68942543008E-01 -0.38943455539E-01  0.79546781693E-01  0.51100000000E-03 0.  1.
         11    1    4    4    0    0  0.63421868900E-02 -0.45234622056E-01 -0.91641592008E-02  0.46590098755E-01  0.51100000000E-03 0. -1.
</event>
<event>
 8    1  0.1114333E+005  0.1043930E+01  0.7957747E-01            NaN
         13   -1    0    0    0    0  0.00000000000E+00  0.00000000000E+00  0.74505805969E-08  0.10566000000E+00  0.10566000000E+00 0.  1.
     999900   -1    0    0    0    0 -0.00000000000E+00 -0.00000000000E+00 -0.74505805969E-08  0.93827000000E+00  0.93827000000E+00 0.  1.
     999902    2    1    2    0    0  0.12001407910E-01 -0.65676017795E-04 -0.14593015673E-01  0.10250357096E+01  0.10248615573E+01 0.  0.
     999903    2    3    3    0    0 -0.98114672543E-01  0.38809711687E-01  0.77494790547E-01  0.13255769246E+00  0.20818659366E-01 0.  0.
         14    1    1    2    0    0 -0.12001407910E-01  0.65676017795E-04  0.14593015673E-01  0.18894290449E-01  0.00000000000E+00 0.  1.
     999901    1    3    3    0    0  0.11011608045E+00 -0.38875387705E-01 -0.92087806220E-01  0.89247801710E+00  0.88000000000E+00 0.  1.
        -11    1    4    4    0    0 -0.36810624838E-01  0.66656462365E-02  0.35607515747E-01  0.51648903565E-01  0.51100000000E-03 0. -1.
         11    1    4    4    0    0 -0.61304047705E-01  0.32144065450E-01  0.41887274800E-01  0.80908788891E-01  0.51100000000E-03 0.  1.
</event>
<event>
 8    1  0.1114333E+005  0.1043930E+01  0.7957747E-01            NaN
         13   -1    0    0    0    0  0.00000000000E+00  0.00000000000E+00  0.74505805969E-08  0.10566000000E+00  0.10566000000E+00 0.  1.
     999900   -1    0    0    0    0 -0.00000000000E+00 -0.00000000000E+00 -0.74505805969E-08  0.93827000000E+00  0.93827000000E+00 0.  1.
     999902    2    1    2    0    0  0.70613236180E-02 -0.42725670002E-02  0.22377224993E-01  0.10200792701E+01  0.10198004020E+01 0.  0.
     999903    2    3    3    0    0 -0.44546520225E-01 -0.16624972734E-01 -0.11668513248E+00  0.12758036769E+00  0.20013692706E-01 0.  0.
         14    1    1    2    0    0 -0.70613236180E-02  0.42725670002E-02 -0.22377224993E-01  0.23850729934E-01  0.00000000000E+00 0. -1.
     999901    1    3    3    0    0  0.51607843843E-01  0.12352405734E-01  0.13906235747E+00  0.89249890237E+00  0.88000000000E+00 0. -1.
        -11    1    4    4    0    0 -0.19179793869E-01 -0.17629296365E-01 -0.63792635891E-01  0.68908766482E-01  0.51100000000E-03 0.  1.
         11    1    4    4    0    0 -0.25366726356E-01  0.10043236310E-02 -0.52892496590E-01  0.58671601209E-01  0.51100000000E-03 0. -1.
</event>
<event>
 8    1  0.1114333E+005  0.1043930E+01  0.7957747E-01            NaN
         13   -1    0    0    0    0  0.00000000000E+00  0.00000000000E+00  0.74505805969E-08  0.10566000000E+00  0.10566000000E+00 0.  1.
     999900   -1    0    0    0    0 -0.00000000000E+00 -0.00000000000E+00 -0.74505805969E-08  0.93827000000E+00  0.93827000000E+00 0.  1.
     999902    2    1    2    0    0 -0.21696258292E-01  0.46927231923E-03  0.70595131677E-02  0.10211092952E+01  0.10208542542E+01 0.  0.
     999903    2    3    3    0    0  0.73994977082E-01  0.91870032815E-01 -0.49477960749E-01  0.12942134672E+00  0.19658505145E-01 0.  0.
         14    1    1    2    0    0  0.21696258292E-01 -0.46927231923E-03 -0.70595131677E-02  0.22820704777E-01  0.00000000000E+00 0. -1.
     999901    1    3    3    0    0 -0.95691235373E-01 -0.91400760496E-01  0.56537473916E-01  0.89168794850E+00  0.88000000000E+00 0. -1.
        -11    1    4    4    0    0  0.47542264662E-01  0.47693342269E-01 -0.20811461015E-01  0.70486167838E-01  0.51100000000E-03 0. -1.
         11    1    4    4    0    0  0.26452712420E-01  0.44176690546E-01 -0.28666499734E-01  0.58935178883E-01  0.51100000000E-03 0.  1.
</event>
<event>
 8    1  0.1114333E+005  0.1043930E+01  0.7957747E-01            NaN
         13   -1    0    0    0    0  0.00000000000E+00  0.00000000000E+00  0.74505805969E-08  0.10566000000E+00  0.10566000000E+00 0.  1.
     999900   -1    0    0    0    0 -0.00000000000E+00 -0.00000000000E+00 -0.74505805969E-08  0.93827000000E+00  0.93827000000E+00 0.  1.
     999902    2    1    2    0    0 -0.10111105023E-01 -0.16634430087E-01  0.14832205570E-01  0.10194568917E+01  0.10191630983E+01 0.  0.
     999903    2    3    3    0    0  0.31321439327E-01  0.87217974473E-01  0.88387093448E-01  0.12933763045E+00  0.18109023452E-01 0.  0.
         14    1    1    2    0    0  0.10111105023E-01  0.16634430087E-01 -0.14832205570E-01  0.24473108327E-01  0.00000000000E+00 0. -1.
     999901    1    3    3    0    0 -0.41432544350E-01 -0.10385240456E+00 -0.73554887877E-01  0.89011926122E+00  0.88000000000E+00 0.  1.
        -11    1    4    4    0    0  0.56571155300E-02  0.27690891730E-01  0.37300051732E-01  0.46801104914E-01  0.51100000000E-03 0.  1.
         11    1    4    4    0    0  0.25664323797E-01  0.59527082743E-01  0.51087041715E-01  0.82536525539E-01  0.51100000000E-03 0. -1.
</event>
<event>
 8    1  0.1114333E+005  0.1043930E+01  0.7957747E-01            NaN
         13   -1    0    0    0    0  0.00000000000E+00  0.00000000000E+00  0.74505805969E-08  0.10566000000E+00  0.10566000000E+00 0. -1.
     999900   -1    0    0    0    0 -0.00000000000E+00 -0.00000000000E+00 -0.74505805969E-08  0.93827000000E+00  0.93827000000E+00 0. -1.
     999902    2    1    2    0    0 -0.98737480504E-02  0.75472339184E-02 -0.13862799176E-01  0.10253120291E+01  0.10251429794E+01 0.  0.
     999903    2    3    3    0    0  0.33443536210E-01  0.42932318521E-01 -0.12376800646E+00  0.13671333117E+00  0.20257379128E-01 0.  0.
         14    1    1    2    0    0  0.98737480504E-02 -0.75472339184E-02  0.13862799176E-01  0.18617970926E-01  0.00000000000E+00 0. -1.
     999901    1    3    3    0    0 -0.43317284260E-01 -0.35385084603E-01  0.10990520728E+00  0.88859869790E+00  0.88000000000E+00 0.  1.
        -11    1    4    4    0    0  0.14660281678E-01  0.22555179651E-01 -0.37877438077E-01  0.46460966674E-01  0.51100000000E-03 0.  1.
         11    1    4    4    0    0  0.18783254531E-01  0.20377138870E-01 -0.85890568382E-01  0.90252364497E-01  0.51100000000E-03 0. -1.
</event>
<event>
 8    1  0.1114333E+005  0.1043930E+01  0.7957747E-01            NaN
         13   -1    0    0    0    0  0.00000000000E+00  0.00000000000E+00  0.74505805969E-08  0.10566000000E+00  0.10566000000E+00 0. -1.
     999900   -1    0    0    0    0 -0.00000000000E+00 -0.00000000000E+00 -0.74505805969E-08  0.93827000000E+00  0.93827000000E+00 0.  1.
     999902    2    1    2    0    0  0.13968910822E-01 -0.16711252925E-01 -0.10316364116E-01  0.10198297134E+01  0.10195449086E+01 0.  0.
     999903    2    3    3    0    0 -0.19276944290E-01 -0.78855729318E-02 -0.12809805161E+00  0.13131651409E+00  0.20028310034E-01 0.  0.
         14    1    1    2    0    0 -0.13968910822E-01  0.16711252925E-01  0.10316364116E-01  0.24100286564E-01  0.00000000000E+00 0. -1.
     999901    1    3    3    0    0  0.33245855112E-01 -0.88256799929E-02  0.11778168750E+00  0.88851319935E+00  0.88000000000E+00 0. -1.
        -11    1    4    4    0    0  0.19543089081E-02  0.20534200736E-02 -0.41508201617E-01  0.41608025425E-01  0.51100000000E-03 0.  1.
         11    1    4    4    0    0 -0.21231253198E-01 -0.99389930054E-02 -0.86589849997E-01  0.89708488661E-01  0.51100000000E-03 0. -1.
</event>
<event>
 8    1  0.1114333E+005  0.1043930E+01  0.7957747E-01            NaN
         13   -1    0    0    0    0  0.00000000000E+00  0.00000000000E+00  0.74505805969E-08  0.10566000000E+00  0.10566000000E+00 0. -1.
     999900   -1    0    0    0    0 -0.00000000000E+00 -0.00000000000E+00 -0.74505805969E-08  0.93827000000E+00  0.93827000000E+00 0.  1.
     999902    2    1    2    0    0  0.75299665298E-02 -0.10743194103E-01  0.19313431616E-01  0.10205820824E+01  0.10203149816E+01 0.  0.
     999903    2    3    3    0    0  0.25574131173E-01  0.12531499320E+00  0.62843228652E-02  0.12984801441E+00  0.21520465248E-01 0.  0.
         14    1    1    2    0    0 -0.75299665298E-02  0.10743194103E-01 -0.19313431616E-01  0.23347917600E-01  0.00000000000E+00 0.  1.
     999901    1    3    3    0    0 -0.18044164643E-01 -0.13605818731E+00  0.13029108751E-01  0.89073406799E+00  0.88000000000E+00 0.  1.
        -11    1    4    4    0    0  0.91538008721E-02  0.89246476050E-01 -0.19681309570E-04  0.89716147187E-01  0.51100000000E-03 0.  1.
         11    1    4    4    0    0  0.16420330301E-01  0.36068517153E-01  0.63040041748E-02  0.40131867219E-01  0.51100000000E-03 0. -1.
</event>
<event>
 8    1  0.1114333E+005  0.1043930E+01  0.7957747E-01            NaN
         13   -1    0    0    0    0  0.00000000000E+00  0.00000000000E+00  0.74505805969E-08  0.10566000000E+00  0.10566000000E+00 0. -1.
     999900   -1    0    0    0    0 -0.00000000000E+00 -0.00000000000E+00 -0.74505805969E-08  0.93827000000E+00  0.93827000000E+00 0. -1.
     999902    2    1    2    0    0 -0.87314419399E-02  0.19960670084E-01  0.99261197101E-02  0.10199885238E+01  0.10197075044E+01 0.  0.
     999903    2    3    3    0    0  0.96925658375E-01 -0.66258897407E-01  0.49294537548E-01  0.12861480367E+00  0.18082907821E-01 0.  0.
         14    1    1    2    0    0  0.87314419399E-02 -0.19960670084E-01 -0.99261197101E-02  0.23941476167E-01  0.00000000000E+00 0.  1.
     999901    1    3    3    0    0 -0.10565710032E+00  0.86219567491E-01 -0.39368417837E-01  0.89137372016E+00  0.88000000000E+00 0. -1.
        -11    1    4    4    0    0  0.79120946308E-01 -0.52271473415E-01  0.47038196396E-01  0.10585501461E+00  0.51100000000E-03 0.  1.
         11    1    4    4    0    0  0.17804712068E-01 -0.13987423992E-01  0.22563411518E-02  0.22759789062E-01  0.51100000000E-03 0. -1.
</event>
<event>
 8    1  0.1114333E+005  0.1043930E+01  0.7957747E-01            NaN
         13   -1    0    0    0    0  0.00000000000E+00  0.00000000000E+00  0.74505805969E-08  0.10566000000E+00  0.10566000000E+00 0.  1.
     999900   -1    0    0    0    0 -0.00000000000E+00 -0.00000000000E+00 -0.74505805969E-08  0.93827000000E+00  0.93827000000E+00 0. -1.
     999902    2    1    2    0    0 -0.11312317665E-01  0.12315581447E-01 -0.19392648574E-01  0.10183230303E+01  0.10180010202E+01 0.  0.
     999903    2    3    3    0    0  0.32863650063E-01 -0.37547465664E-01  0.11424352307E+00  0.12574448142E+00  0.16439597648E-01 0.  0.
         14    1    1    2    0    0  0.11312317665E-01 -0.12315581447E-01  0.19392648574E-01  0.25606969677E-01  0.00000000000E+00 0.  1.
     999901    1    3    3    0    0 -0.44175967728E-01  0.49863047111E-01 -0.13363617164E+00  0.89257854890E+00  0.88000000000E+00 0.  1.
        -11    1    4    4    0    0  0.11633511435E-01 -0.32778065869E-02  0.22882278347E-01  0.25883245308E-01  0.51100000000E-03 0. -1.
         11    1    4    4    0    0  0.21230138628E-01 -0.34269659077E-01  0.91361244722E-01  0.99861236111E-01  0.51100000000E-03 0.  1.
</event>
<event>
 8    1  0.1114333E+005  0.1043930E+01  0.7957747E-01            NaN
         13   -1    0    0    0    0  0.00000000000E+00  0.00000000000E+00  0.74505805969E-08  0.10566000000E+00  0.10566000000E+00 0.  1.
     999900   -1    0    0    0    0 -0.00000000000E+00 -0.00000000000E+00 -0.74505805969E-08  0.93827000000E+00  0.93827000000E+00 0. -1.
     999902    2    1    2    0    0 -0.20761893929E-01  0.77269811581E-02 -0.37901316639E-02  0.10214549566E+01  0.10212076678E+01 0.  0.
     999903    2    3    3    0    0  0.84361165859E-01  0.89568683688E-01  0.38290040560E-01  0.13043326054E+00  0.20182984084E-01 0.  0.
         14    1    1    2    0    0  0.20761893929E-01 -0.77269811581E-02  0.37901316639E-02  0.22475043390E-01  0.00000000000E+00 0. -1.
     999901    1    3    3    0    0 -0.10512305979E+00 -0.81841702530E-01 -0.42080172224E-01  0.89102169607E+00  0.88000000000E+00 0.  1.
        -11    1    4    4    0    0  0.34584328443E-01  0.49422382843E-01  0.13293855924E-01  0.61770829896E-01  0.51100000000E-03 0.  1.
         11    1    4    4    0    0  0.49776837416E-01  0.40146300845E-01  0.24996184635E-01  0.68662430644E-01  0.51100000000E-03 0. -1.
</event>
<event>
 8    1  0.1114333E+005  0.1043930E+01  0.7957747E-01            NaN
         13   -1    0    0    0    0  0.00000000000E+00  0.00000000000E+00  0.74505805969E-08  0.10566000000E+00  0.10566000000E+00 0.  1.
     999900   -1    0    0    0    0 -0.00000000000E+00 -0.00000000000E+00 -0.74505805969E-08  0.93827000000E+00  0.93827000000E+00 0.  1.
     999902    2    1    2    0    0 -0.91271460451E-02  0.54435533830E-02  0.21385287507E-01  0.10200497238E+01  0.10197701562E+01 0.  0.
     999903    2    3    3    0    0  0.21010319147E-01 -0.10876629654E+00 -0.61178667020E-01  0.12832725399E+00  0.21295869155E-01 0.  0.
         14    1    1    2    0    0  0.91271460451E-02 -0.54435533830E-02 -0.21385287507E-01  0.23880276174E-01  0.00000000000E+00 0. -1.
     999901    1    3    3    0    0 -0.30137465192E-01  0.11420984993E+00  0.82563954527E-01  0.89172246984E+00  0.88000000000E+00 0. -1.
        -11    1    4    4    0    0  0.22246167354E-01 -0.79714249257E-01 -0.37671702742E-01  0.90932237436E-01  0.51100000000E-03 0.  1.
         11    1    4    4    0    0 -0.12358482073E-02 -0.29052047287E-01 -0.23506964277E-01  0.37395016551E-01  0.51100000000E-03 0. -1.
</event>
<event>
 8    1  0.1114333E+005  0.1043930E+01  0.7957747E-01            NaN
         13   -1    0    0    0    0  0.00000000000E+00  0.00000000000E+00  0.74505805969E-08  0.10566000000E+00  0.10566000000E+00 0.  1.
     999900   -1    0    0    0    0 -0.00000000000E+00 -0.00000000000E+00 -0.74505805969E-08  0.93827000000E+00  0.93827000000E+00 0.  1.
     999902    2    1    2    0    0 -0.84340649908E-02 -0.68093321988E-02 -0.20840828249E-01  0.10204387127E+01  0.10201682831E+01 0.  0.
     999903    2    3    3    0    0  0.36509375689E-01  0.12243470407E+00  0.68673232010E-02  0.12943272201E+00  0.19557047946E-01 0.  0.
         14    1    1    2    0    0  0.84340649908E-02  0.68093321988E-02  0.20840828249E-01  0.23491287308E-01  0.00000000000E+00 0.  1.
     999901    1    3    3    0    0 -0.44943440680E-01 -0.12924403627E+00 -0.27708151450E-01  0.89100599068E+00  0.88000000000E+00 0. -1.
        -11    1    4    4    0    0  0.34298711035E-01  0.10567032415E+00 -0.19978052744E-03  0.11109869494E+00  0.51100000000E-03 0. -1.
         11    1    4    4    0    0  0.22106646539E-02  0.16764379924E-01  0.70671037284E-02  0.18334027069E-01  0.51100000000E-03 0.  1.
</event>
<event>
 8    1  0.1114333E+005  0.1043930E+01  0.7957747E-01            NaN
         13   -1    0    0    0    0  0.00000000000E+00  0.00000000000E+00  0.74505805969E-08  0.10566000000E+00  0.10566000000E+00 0. -1.
     999900   -1    0    0    0    0 -0.00000000000E+00 -0.00000000000E+00 -0.74505805969E-08  0.93827000000E+00  0.93827000000E+00 0. -1.
     999902    2    1    2    0    0 -0.18871860246E-01  0.43761661774E-02 -0.13255308722E-01  0.10204565863E+01  0.10201865729E+01 0.  0.
     999903    2    3    3    0    0 -0.51416291395E-01 -0.10473818678E+00 -0.58800099384E-01  0.13195255710E+00  0.18447299198E-01 0.  0.
         14    1    1    2    0    0  0.18871860246E-01 -0.43761661774E-02  0.13255308722E-01  0.23473413660E-01  0.00000000000E+00 0. -1.
     999901    1    3    3    0    0  0.32544431149E-01  0.10911435295E+00  0.45544790663E-01  0.88850402924E+00  0.88000000000E+00 0.  1.
        -11    1    4    4    0    0 -0.16257450891E-01 -0.30047991175E-01 -0.82423473801E-02  0.35148028316E-01  0.51100000000E-03 0.  1.
         11    1    4    4    0    0 -0.35158840504E-01 -0.74690195600E-01 -0.50557752004E-01  0.96804528784E-01  0.51100000000E-03 0. -1.
</event>
<event>
 8    1  0.1114333E+005  0.1043930E+01  0.7957747E-01            NaN
         13   -1    0    0    0    0  0.00000000000E+00  0.00000000000E+00  0.74505805969E-08  0.10566000000E+00  0.10566000000E+00 0. -1.
     999900   -1    0    0    0    0 -0.00000000000E+00 -0.00000000000E+00 -0.74505805969E-08  0.93827000000E+00  0.93827000000E+00 0. -1.
     999902    2    1    2    0    0  0.13070095439E-01 -0.17658956825E-01 -0.71514144361E-02  0.10208256957E+01  0.10205642028E+01 0.  0.
     999903    2    3    3    0    0  0.12873133300E+00 -0.20763544970E-01  0.16367328072E-01  0.13294040374E+00  0.20059427273E-01 0.  0.
         14    1    1    2    0    0 -0.13070095439E-01  0.17658956825E-01  0.71514144361E-02  0.23104304347E-01  0.00000000000E+00 0. -1.
     999901    1    3    3    0    0 -0.11566123756E+00  0.31045881449E-02 -0.23518742508E-01  0.88788529191E+00  0.88000000000E+00 0.  1.
        -11    1    4    4    0    0  0.35221244781E-01 -0.13292717485E-01 -0.35976870335E-03  0.37651334326E-01  0.51100000000E-03 0.  1.
         11    1    4    4    0    0  0.93510088222E-01 -0.74708274854E-02  0.16727096775E-01  0.95289069416E-01  0.51100000000E-03 0. -1.
</event>
<event>
 8    1  0.1114333E+005  0.1043930E+01  0.7957747E-01            NaN
         13   -1    0    0    0    0  0.00000000000E+00  0.00000000000E+00  0.74505805969E-08  0.10566000000E+00  0.10566000000E+00 0.  1.
     999900   -1    0    0    0    0 -0.00000000000E+00 -0.00000000000E+00 -0.74505805969E-08  0.93827000000E+00  0.93827000000E+00 0.  1.
     999902    2    1    2    0    0  0.20310975137E-01 -0.10651776792E-01  0.44588434553E-02  0.10205659818E+01  0.10202985082E+01 0.  0.
     999903    2    3    3    0    0 -0.10000624363E+00  0.26883824496E-01  0.73156942607E-01  0.12893568663E+00  0.23419740634E-01 0.  0.
         14    1    1    2    0    0 -0.20310975137E-01  0.10651776792E-01 -0.44588434553E-02  0.23364018164E-01  0.00000000000E+00 0.  1.
     999901    1    3    3    0    0  0.12031721877E+00 -0.37535601288E-01 -0.68698099152E-01  0.89163029520E+00  0.88000000000E+00 0. -1.
        -11    1    4    4    0    0 -0.13569673170E-01  0.32808503097E-02  0.12093638268E-02  0.14022256971E-01  0.51100000000E-03 0. -1.
         11    1    4    4    0    0 -0.86436570460E-01  0.23602974186E-01  0.71947578781E-01  0.11491342966E+00  0.51100000000E-03 0.  1.
</event>
<event>
 8    1  0.1114333E+005  0.1043930E+01  0.7957747E-01            NaN
         13   -1    0    0    0    0  0.00000000000E+00  0.00000000000E+00  0.74505805969E-08  0.10566000000E+00  0.10566000000E+00 0.  1.
     999900   -1    0    0    0    0 -0.00000000000E+00 -0.00000000000E+00 -0.74505805969E-08  0.93827000000E+00  0.93827000000E+00 0. -1.
     999902    2    1    2    0    0 -0.31954921875E-02  0.66462351859E-02 -0.22351862828E-01  0.10203930209E+01  0.10201215260E+01 0.  0.
     999903    2    3    3    0    0 -0.84499405237E-01 -0.91447720427E-01 -0.36150450048E-01  0.13111064090E+00  0.19501539964E-01 0.  0.
         14    1    1    2    0    0  0.31954921875E-02 -0.66462351859E-02  0.22351862828E-01  0.23536979083E-01  0.00000000000E+00 0.  1.
     999901    1    3    3    0    0  0.81303913050E-01  0.98093955613E-01  0.13798587219E-01  0.88928238002E+00  0.88000000000E+00 0. -1.
        -11    1    4    4    0    0 -0.48967021876E-01 -0.66167480475E-01 -0.26107979093E-01  0.86358510855E-01  0.51100000000E-03 0. -1.
         11    1    4    4    0    0 -0.35532383362E-01 -0.25280239952E-01 -0.10042470955E-01  0.44752130041E-01  0.51100000000E-03 0.  1.
</event>
<event>
 8    1  0.1114333E+005  0.1043930E+01  0.7957747E-01            NaN
         13   -1    0    0    0    0  0.00000000000E+00  0.00000000000E+00  0.74505805969E-08  0.10566000000E+00  0.10566000000E+00 0.  1.
     999900   -1    0    0    0    0 -0.00000000000E+00 -0.00000000000E+00 -0.74505805969E-08  0.93827000000E+00  0.93827000000E+00 0.  1.
     999902    2    1    2    0    0  0.40106001935E-02  0.17904095223E-01  0.14742114983E-01  0.10203934010E+01  0.10201219149E+01 0.  0.
     999903    2    3    3    0    0  0.11297045828E+00 -0.59610730383E-01 -0.10736942327E-01  0.12992724147E+00  0.21214205727E-01 0.  0.
         14    1    1    2    0    0 -0.40106001935E-02 -0.17904095223E-01 -0.14742114983E-01  0.23536599029E-01  0.00000000000E+00 0. -1.
     999901    1    3    3    0    0 -0.10895985808E+00  0.77514825606E-01  0.25479057310E-01  0.89046615950E+00  0.88000000000E+00 0. -1.
        -11    1    4    4    0    0  0.28445168776E-01 -0.16510729566E-01  0.64016793917E-02  0.33510810757E-01  0.51100000000E-03 0. -1.
         11    1    4    4    0    0  0.84525289500E-01 -0.43100000817E-01 -0.17138621719E-01  0.96416430710E-01  0.51100000000E-03 0.  1.
</event>
<event>
 8    1  0.1114333E+005  0.1043930E+01  0.7957747E-01            NaN
         13   -1    0    0    0    0  0.00000000000E+00  0.00000000000E+00  0.74505805969E-08  0.10566000000E+00  0.10566000000E+00 0.  1.
     999900   -1    0    0    0    0 -0.00000000000E+00 -0.00000000000E+00 -0.74505805969E-08  0.93827000000E+00  0.93827000000E+00 0.  1.
     999902    2    1    2    0    0 -0.43538670374E-02  0.15068593695E-01  0.18785995416E-01  0.10194569067E+01  0.10191631137E+01 0.  0.
     999903    2    3    3    0    0  0.10169433528E-01 -0.12328005103E+00 -0.24026937775E-01  0.12750162694E+00  0.19441779126E-01 0.  0.
         14    1    1    2    0    0  0.43538670374E-02 -0.15068593695E-01 -0.18785995416E-01  0.24473093345E-01  0.00000000000E+00 0. -1.
     999901    1    3    3    0    0 -0.14523300566E-01  0.13834864472E+00  0.42812933190E-01  0.89195527971E+00  0.88000000000E+00 0.  1.
        -11    1    4    4    0    0  0.15707049121E-02 -0.84983708745E-01 -0.23719697483E-01  0.88247283446E-01  0.51100000000E-03 0. -1.
         11    1    4    4    0    0  0.85987286164E-02 -0.38296342280E-01 -0.30724029151E-03  0.39254343498E-01  0.51100000000E-03 0.  1.
</event>
<event>
 8    1  0.1114333E+005  0.1043930E+01  0.7957747E-01            NaN
         13   -1    0    0    0    0  0.00000000000E+00  0.00000000000E+00  0.74505805969E-08  0.10566000000E+00  0.10566000000E+00 0.  1.
     999900   -1    0    0    0    0 -0.00000000000E+00 -0.00000000000E+00 -0.74505805969E-08  0.93827000000E+00  0.93827000000E+00 0. -1.
     999902    2    1    2    0    0  0.20426524309E-02 -0.22979002913E-01  0.56486062005E-02  0.10201789210E+01  0.10199024056E+01 0.  0.
     999903    2    3    3    0    0  0.43279607225E-01 -0.76219747241E-01  0.97649550153E-01  0.13282372883E+00  0.20594514434E-01 0.  0.
         14    1    1    2    0    0 -0.20426524309E-02  0.22979002913E-01 -0.56486062005E-02  0.23751079046E-01  0.00000000000E+00 0.  1.
     999901    1    3    3    0    0 -0.41236954795E-01  0.53240744328E-01 -0.92000943953E-01  0.88735519212E+00  0.88000000000E+00 0. -1.
        -11    1    4    4    0    0  0.19969488449E-01 -0.19703819972E-01  0.22626664796E-01  0.36045083870E-01  0.51100000000E-03 0.  1.
         11    1    4    4    0    0  0.23310118776E-01 -0.56515927269E-01  0.75022885357E-01  0.96778644963E-01  0.51100000000E-03 0. -1.
</event>
<event>
 8    1  0.1114333E+005  0.1043930E+01  0.7957747E-01            NaN
         13   -1    0    0    0    0  0.00000000000E+00  0.00000000000E+00  0.74505805969E-08  0.10566000000E+00  0.10566000000E+00 0. -1.
     999900   -1    0    0    0    0 -0.00000000000E+00 -0.00000000000E+00 -0.74505805969E-08  0.93827000000E+00  0.93827000000E+00 0. -1.
     999902    2    1    2    0    0 -0.33770535790E-02  0.14586480480E-02 -0.22929560171E-01  0.10207072337E+01  0.10204430215E+01 0.  0.
     999903    2    3    3    0    0  0.67223603876E-01 -0.98043793803E-01 -0.53222135932E-01  0.13177369911E+00  0.20002839883E-01 0.  0.
         14    1    1    2    0    0  0.33770535790E-02 -0.14586480480E-02  0.22929560171E-01  0.23222766300E-01  0.00000000000E+00 0. -1.
     999901    1    3    3    0    0 -0.70600657456E-01  0.99502441851E-01  0.30292575762E-01  0.88893353459E+00  0.88000000000E+00 0.  1.
        -11    1    4    4    0    0  0.27276278455E-01 -0.38236638641E-01 -0.10539826153E-01  0.48139224727E-01  0.51100000000E-03 0.  1.
         11    1    4    4    0    0  0.39947325421E-01 -0.59807155162E-01 -0.42682309779E-01  0.83634474386E-01  0.51100000000E-03 0. -1.
</event>
<event>
 8    1  0.1114333E+005  0.1043930E+01  0.7957747E-01            NaN
         13   -1    0    0    0    0  0.00000000000E+00  0.00000000000E+00  0.74505805969E-08  0.10566000000E+00  0.10566000000E+00 0.  1.
     999900   -1    0    0    0    0 -0.00000000000E+00 -0.00000000000E+00 -0.74505805969E-08  0.93827000000E+00  0.93827000000E+00 0. -1.
     999902    2    1    2    0    0  0.11262902157E-01 -0.17472211284E-01 -0.10297767894E-01  0.10207313975E+01  0.10204677412E+01 0.  0.
     999903    2    3    3    0    0 -0.49106462450E-01 -0.10186679147E+00  0.64131951537E-01  0.13151450135E+00  0.19871310967E-01 0.  0.
         14    1    1    2    0    0 -0.11262902157E-01  0.17472211284E-01  0.10297767894E-01  0.23198602453E-01  0.00000000000E+00 0.  1.
     999901    1    3    3    0    0  0.60369364607E-01  0.84394580182E-01 -0.74429719431E-01  0.88921689620E+00  0.88000000000E+00 0. -1.
        -11    1    4    4    0    0 -0.50061516277E-01 -0.90808091158E-01  0.58479942934E-01  0.11904801417E+00  0.51100000000E-03 0.  1.
         11    1    4    4    0    0  0.95505382750E-03 -0.11058700308E-01  0.56520086027E-02  0.12466487178E-01  0.51100000000E-03 0. -1.
</event>
<event>
 8    1  0.1114333E+005  0.1043930E+01  0.7957747E-01            NaN
         13   -1    0    0    0    0  0.00000000000E+00  0.00000000000E+00  0.74505805969E-08  0.10566000000E+00  0.10566000000E+00 0.  1.
     999900   -1    0    0    0    0 -0.00000000000E+00 -0.00000000000E+00 -0.74505805969E-08  0.93827000000E+00  0.93827000000E+00 0.  1.
     999902    2    1    2    0    0  0.17050436671E-02 -0.30854641217E-02 -0.22003266421E-01  0.10216461270E+01  0.10214030731E+01 0.  0.
     999903    2    3    3    0    0  0.67252899112E-01 -0.10935073071E+00  0.22622886159E-01  0.13171336452E+00  0.18870099867E-01 0.  0.
         14    1    1    2    0    0 -0.17050436671E-02  0.30854641217E-02  0.22003266421E-01  0.22283873002E-01  0.00000000000E+00 0.  1.
     999901    1    3    3    0    0 -0.65547855444E-01  0.10626526659E+00 -0.44626152580E-01  0.88993276248E+00  0.88000000000E+00 0. -1.
        -11    1    4    4    0    0  0.26126341196E-01 -0.58732252804E-01  0.71355063218E-02  0.64677969937E-01  0.51100000000E-03 0.  1.
         11    1    4    4    0    0  0.41126557916E-01 -0.50618477908E-01  0.15487379837E-01  0.67035394583E-01  0.51100000000E-03 0. -1.
</event>
<event>
 8    1  0.1114333E+005  0.1043930E+01  0.7957747E-01            NaN
         13   -1    0    0    0    0  0.00000000000E+00  0.00000000000E+00  0.74505805969E-08  0.10566000000E+00  0.10566000000E+00 0. -1.
     999900   -1    0    0    0    0 -0.00000000000E+00 -0.00000000000E+00 -0.74505805969E-08  0.93827000000E+00  0.93827000000E+00 0.  1.
     999902    2    1    2    0    0 -0.86313048187E-02 -0.10613291042E-01  0.17998251056E-01  0.10213229566E+01  0.10210727218E+01 0.  0.
     999903    2    3    3    0    0 -0.54590517024E-01  0.46905119737E-01  0.10927629385E+00  0.13354353702E+00  0.26689943334E-01 0.  0.
         14    1    1    2    0    0  0.86313048187E-02  0.10613291042E-01 -0.17998251056E-01  0.22607043386E-01  0.00000000000E+00 0.  1.
     999901    1    3    3    0    0  0.45959212205E-01 -0.57518410779E-01 -0.91278042792E-01  0.88777941960E+00  0.88000000000E+00 0. -1.
        -11    1    4    4    0    0 -0.31999890704E-01  0.42406612303E-01  0.68252481948E-01  0.86492636595E-01  0.51100000000E-03 0. -1.
         11    1    4    4    0    0 -0.22590626320E-01  0.44985074343E-02  0.41023811900E-01  0.47050900421E-01  0.51100000000E-03 0.  1.
</event>
<event>
 8    1  0.1114333E+005  0.1043930E+01  0.7957747E-01            NaN
         13   -1    0    0    0    0  0.00000000000E+00  0.00000000000E+00  0.74505805969E-08  0.10566000000E+00  0.10566000000E+00 0. -1.
     999900   -1    0    0    0    0 -0.00000000000E+00 -0.00000000000E+00 -0.74505805969E-08  0.93827000000E+00  0.93827000000E+00 0.  1.
     999902    2    1    2    0    0 -0.12720524913E-01 -0.88681089380E-02 -0.18690362072E-01  0.10196445158E+01  0.10193552638E+01 0.  0.
     999903    2    3    3    0    0  0.32618123176E-01 -0.51422417790E-01 -0.11535579467E+00  0.13217019609E+00  0.21302449618E-01 0.  0.
         14    1    1    2    0    0  0.12720524913E-01  0.88681089380E-02  0.18690362072E-01  0.24285484236E-01  0.00000000000E+00 0. -1.
     999901    1    3    3    0    0 -0.45338648089E-01  0.42554308852E-01  0.96665432602E-01  0.88747431967E+00  0.88000000000E+00 0. -1.
        -11    1    4    4    0    0  0.34863495046E-01 -0.41835934874E-01 -0.10113089449E+00  0.11486264700E+00  0.51100000000E-03 0. -1.
         11    1    4    4    0    0 -0.22453718697E-02 -0.95864829155E-02 -0.14224900183E-01  0.17307549096E-01  0.51100000000E-03 0.  1.
</event>
<event>
 8    1  0.1114333E+005  0.1043930E+01  0.7957747E-01            NaN
         13   -1    0    0    0    0  0.00000000000E+00  0.00000000000E+00  0.74505805969E-08  0.10566000000E+00  0.10566000000E+00 0.  1.
     999900   -1    0    0    0    0 -0.00000000000E+00 -0.00000000000E+00 -0.74505805969E-08  0.93827000000E+00  0.93827000000E+00 0. -1.
     999902    2    1    2    0    0 -0.87549514312E-02  0.20907587325E-01 -0.91375116523E-02  0.10194908817E+01  0.10191979138E+01 0.  0.
     999903    2    3    3    0    0 -0.34614129377E-01  0.12055583739E+00  0.35645495971E-01  0.13235842906E+00  0.22722334362E-01 0.  0.
         14    1    1    2    0    0  0.87549514312E-02 -0.20907587325E-01  0.91375116523E-02  0.24439118264E-01  0.00000000000E+00 0.  1.
     999901    1    3    3    0    0  0.25859177946E-01 -0.99648250062E-01 -0.44783007623E-01  0.88713245268E+00  0.88000000000E+00 0. -1.
        -11    1    4    4    0    0  0.39179056725E-03  0.17661982616E-01 -0.88744369944E-03  0.17695982795E-01  0.51100000000E-03 0. -1.
         11    1    4    4    0    0 -0.35005919945E-01  0.10289385477E+00  0.36532939670E-01  0.11466244626E+00  0.51100000000E-03 0.  1.
</event>
<event>
 8    1  0.1114333E+005  0.1043930E+01  0.7957747E-01            NaN
         13   -1    0    0    0    0  0.00000000000E+00  0.00000000000E+00  0.74505805969E-08  0.10566000000E+00  0.10566000000E+00 0.  1.
     999900   -1    0    0    0    0 -0.00000000000E+00 -0.00000000000E+00 -0.74505805969E-08  0.93827000000E+00  0.93827000000E+00 0.  1.
     999902    2    1    2    0    0  0.18460104103E-01  0.12049068341E-01 -0.81914031011E-02  0.10204128876E+01  0.10201418561E+01 0.  0.
     999903    2    3    3    0    0 -0.96153427193E-02 -0.10401146927E+00  0.72841729850E-01  0.12865919528E+00  0.18342038255E-01 0.  0.
         14    1    1    2    0    0 -0.18460104103E-01 -0.12049068341E-01  0.81914031011E-02  0.23517112411E-01  0.00000000000E+00 0. -1.
     999901    1    3    3    0    0  0.28075446823E-01  0.11606053761E+00 -0.81033132951E-01  0.89175369231E+00  0.88000000000E+00 0.  1.
        -11    1    4    4    0    0  0.46141480222E-02 -0.49230787262E-01  0.34452418928E-01  0.60267661871E-01  0.51100000000E-03 0.  1.
         11    1    4    4    0    0 -0.14229490741E-01 -0.54780682011E-01  0.38389310922E-01  0.68391533412E-01  0.51100000000E-03 0. -1.
</event>
<event>
 8    1  0.1114333E+005  0.1043930E+01  0.7957747E-01            NaN
         13   -1    0    0    0    0  0.00000000000E+00  0.00000000000E+00  0.74505805969E-08  0.10566000000E+00  0.10566000000E+00 0.  1.
     999900   -1    0    0    0    0 -0.00000000000E+00 -0.00000000000E+00 -0.74505805969E-08  0.93827000000E+00  0.93827000000E+00 0.  1.
     999902    2    1    2    0    0  0.10634008965E-01 -0.56877306786E-02 -0.22026444223E-01  0.10188183160E+01  0.10185087945E+01 0.  0.
     999903    2    3    3    0    0  0.71255223404E-01  0.88612386392E-01  0.55958662407E-01  0.12828526185E+00  0.19906647773E-01 0.  0.
         14    1    1    2    0    0 -0.10634008965E-01  0.56877306786E-02  0.22026444223E-01  0.25111683974E-01  0.00000000000E+00 0.  1.
     999901    1    3    3    0    0 -0.60621214440E-01 -0.94300117070E-01 -0.77985106630E-01  0.89053305417E+00  0.88000000000E+00 0.  1.
        -11    1    4    4    0    0  0.22389635792E-01  0.41586304775E-01  0.17863274582E-01  0.50498259728E-01  0.51100000000E-03 0.  1.
         11    1    4    4    0    0  0.48865587612E-01  0.47026081617E-01  0.38095387825E-01  0.77787002124E-01  0.51100000000E-03 0. -1.
</event>
<event>
 8    1  0.1114333E+005  0.1043930E+01  0.7957747E-01            NaN
         13   -1    0    0    0    0  0.00000000000E+00  0.00000000000E+00  0.74505805969E-08  0.10566000000E+00  0.10566000000E+00 0. -1.
     999900   -1    0    0    0    0 -0.00000000000E+00 -0.00000000000E+00 -0.74505805969E-08  0.93827000000E+00  0.93827000000E+00 0.  1.
     999902    2    1    2    0    0 -0.83479233656E-02 -0.22540425050E-01 -0.32932356531E-02  0.10196688379E+01  0.10193801720E+01 0.  0.
     999903    2    3    3    0    0  0.12124450959E+00 -0.14775209957E-01  0.37182864968E-01  0.12922354930E+00  0.19940469224E-01 0.  0.
         14    1    1    2    0    0  0.83479233656E-02  0.22540425050E-01  0.32932356531E-02  0.24261162111E-01  0.00000000000E+00 0.  1.
     999901    1    3    3    0    0 -0.12959243295E+00 -0.77652150923E-02 -0.40476100621E-01  0.89044528859E+00  0.88000000000E+00 0.  1.
        -11    1    4    4    0    0  0.91084606121E-01 -0.47246325419E-02  0.33715166014E-01  0.97240429684E-01  0.51100000000E-03 0. -1.
         11    1    4    4    0    0  0.30159903466E-01 -0.10050577415E-01  0.34676989534E-02  0.31983119618E-01  0.51100000000E-03 0.  1.
</event>
<event>
 8    1  0.1114333E+005  0.1043930E+01  0.7957747E-01            NaN
         13   -1    0    0    0    0  0.00000000000E+00  0.00000000000E+00  0.74505805969E-08  0.10566000000E+00  0.10566000000E+00 0. -1.
     999900   -1    0    0    0    0 -0.00000000000E+00 -0.00000000000E+00 -0.74505805969E-08  0.93827000000E+00  0.93827000000E+00 0.  1.
     999902    2    1    2    0    0  0.11741230666E-01  0.44789247250E-02 -0.20166519906E-01  0.10201685651E+01  0.10198918057E+01 0.  0.
     999903    2    3    3    0    0  0.42779928644E-01  0.12191170829E+00  0.12175810485E-01  0.13123668594E+00  0.19550715095E-01 0.  0.
         14    1    1    2    0    0 -0.11741230666E-01 -0.44789247250E-02  0.20166519906E-01  0.23761434918E-01  0.00000000000E+00 0. -1.
     999901    1    3    3    0    0 -0.31038697978E-01 -0.11743278357E+00 -0.32342330391E-01  0.88893187915E+00  0.88000000000E+00 0.  1.
        -11    1    4    4    0    0  0.29408164033E-01  0.75807287863E-01 -0.14745069808E-02  0.81326627231E-01  0.51100000000E-03 0. -1.
         11    1    4    4    0    0  0.13371764611E-01  0.46104420430E-01  0.13650317466E-01  0.49910058705E-01  0.51100000000E-03 0.  1.
</event>
<event>
 8    1  0.1114333E+005  0.1043930E+01  0.7957747E-01            NaN
         13   -1    0    0    0    0  0.00000000000E+00  0.00000000000E+00  0.74505805969E-08  0.10566000000E+00  0.10566000000E+00 0.  1.
     999900   -1    0    0    0    0 -0.00000000000E+00 -0.00000000000E+00 -0.74505805969E-08  0.93827000000E+00  0.93827000000E+00 0.  1.
     999902    2    1    2    0    0 -0.99011088505E-02  0.22800728161E-01 -0.56596581907E-02  0.10184361401E+01  0.10181170044E+01 0.  0.
     999903    2    3    3    0    0 -0.12645297934E+00 -0.62621010603E-02  0.20587472385E-01  0.12988794310E+00  0.20431932058E-01 0.  0.
         14    1    1    2    0    0  0.99011088505E-02 -0.22800728161E-01  0.56596581907E-02  0.25493859887E-01  0.00000000000E+00 0.  1.
     999901    1    3    3    0    0  0.11655187049E+00  0.29062829221E-01 -0.26247130576E-01  0.88854819702E+00  0.88000000000E+00 0. -1.
        -11    1    4    4    0    0 -0.54670666706E-01 -0.29721516945E-02 -0.12995139129E-02  0.54769200662E-01  0.51100000000E-03 0. -1.
         11    1    4    4    0    0 -0.71782312639E-01 -0.32899493658E-02  0.21886986298E-01  0.75118742434E-01  0.51100000000E-03 0.  1.
</event>
<event>
 8    1  0.1114333E+005  0.1043930E+01  0.7957747E-01            NaN
         13   -1    0    0    0    0  0.00000000000E+00  0.00000000000E+00  0.74505805969E-08  0.10566000000E+00  0.10566000000E+00 0.  1.
     999900   -1    0    0    0    0 -0.00000000000E+00 -0.00000000000E+00 -0.74505805969E-08  0.93827000000E+00  0.93827000000E+00 0. -1.
     999902    2    1    2    0    0 -0.89708624741E-02  0.14094724051E-01 -0.15172662502E-01  0.10213612759E+01  0.10211118982E+01 0.  0.
     999903    2    3    3    0    0 -0.14296406774E-02 -0.34471148625E-01  0.12301735113E+00  0.12922227672E+00  0.19360376054E-01 0.  0.
         14    1    1    2    0    0  0.89708624741E-02 -0.14094724051E-01  0.15172662502E-01  0.22568724089E-01  0.00000000000E+00 0.  1.
     999901    1    3    3    0    0 -0.75412217967E-02  0.48565872676E-01 -0.13819001363E+00  0.89213899919E+00  0.88000000000E+00 0. -1.
        -11    1    4    4    0    0  0.57803920275E-02 -0.19060918352E-01  0.88766235134E-01  0.90974926003E-01  0.51100000000E-03 0. -1.
         11    1    4    4    0    0 -0.72100327048E-02 -0.15410230273E-01  0.34251115996E-01  0.38247350714E-01  0.51100000000E-03 0.  1.
</event>
<event>
 8    1  0.1114333E+005  0.1043930E+01  0.7957747E-01            NaN
         13   -1    0    0    0    0  0.00000000000E+00  0.00000000000E+00  0.74505805969E-08  0.10566000000E+00  0.10566000000E+00 0.  1.
     999900   -1    0    0    0    0 -0.00000000000E+00 -0.00000000000E+00 -0.74505805969E-08  0.93827000000E+00  0.93827000000E+00 0. -1.
     999902    2    1    2    0    0 -0.68223920937E-02  0.22228861379E-01  0.58792025976E-02  0.10199459983E+01  0.10196639678E+01 0.  0.
     999903    2    3    3    0    0  0.66126712151E-01  0.11255079582E+00 -0.74049863261E-02  0.13222076308E+00  0.19674162423E-01 0.  0.
         14    1    1    2    0    0  0.68223920937E-02 -0.22228861379E-01 -0.58792025976E-02  0.23984001652E-01  0.00000000000E+00 0. -1.
     999901    1    3    3    0    0 -0.72949104244E-01 -0.90321934445E-01  0.13284188924E-01  0.88772523527E+00  0.88000000000E+00 0. -1.
        -11    1    4    4    0    0  0.14248293552E-01  0.18217842190E-01 -0.82451443468E-02  0.24559054736E-01  0.51100000000E-03 0.  1.
         11    1    4    4    0    0  0.51878418599E-01  0.94332953633E-01  0.84015802072E-03  0.10766170835E+00  0.51100000000E-03 0. -1.
</event>
<event>
 8    1  0.1114333E+005  0.1043930E+01  0.7957747E-01            NaN
         13   -1    0    0    0    0  0.00000000000E+00  0.00000000000E+00  0.74505805969E-08  0.10566000000E+00  0.10566000000E+00 0. -1.
     999900   -1    0    0    0    0 -0.00000000000E+00 -0.00000000000E+00 -0.74505805969E-08  0.93827000000E+00  0.93827000000E+00 0. -1.
     999902    2    1    2    0    0  0.31563444514E-02 -0.13505264462E-01 -0.71780471821E-02  0.10283133730E+01  0.10281947841E+01 0.  0.
     999903    2    3    3    0    0 -0.76096171270E-01 -0.70286028988E-01  0.89954694970E-01  0.13761713627E+00  0.10764566679E-01 0.  0.
         14    1    1    2    0    0 -0.31563444514E-02  0.13505264462E-01  0.71780471821E-02  0.15616627031E-01  0.00000000000E+00 0.  1.
     999901    1    3    3    0    0  0.79252515721E-01  0.56780764527E-01 -0.97132742152E-01  0.89069623670E+00  0.88000000000E+00 0. -1.
        -11    1    4    4    0    0 -0.51037630624E-01 -0.52858716814E-01  0.66764474702E-01  0.99280611834E-01  0.51100000000E-03 0. -1.
         11    1    4    4    0    0 -0.25058540646E-01 -0.17427312174E-01  0.23190220268E-01  0.38336524438E-01  0.51100000000E-03 0.  1.
</event>
<event>
 8    1  0.1114333E+005  0.1043930E+01  0.7957747E-01            NaN
         13   -1    0    0    0    0  0.00000000000E+00  0.00000000000E+00  0.74505805969E-08  0.10566000000E+00  0.10566000000E+00 0.  1.
     999900   -1    0    0    0    0 -0.00000000000E+00 -0.00000000000E+00 -0.74505805969E-08  0.93827000000E+00  0.93827000000E+00 0. -1.
     999902    2    1    2    0    0  0.97529519358E-02  0.17653500403E-01  0.14021540266E-01  0.10193664144E+01  0.10190704181E+01 0.  0.
     999903    2    3    3    0    0 -0.41693269706E-01  0.23391218564E-01 -0.11705626450E+00  0.12815318172E+00  0.20870818891E-01 0.  0.
         14    1    1    2    0    0 -0.97529519358E-02 -0.17653500403E-01 -0.14021540266E-01  0.24563585638E-01  0.00000000000E+00 0. -1.
     999901    1    3    3    0    0  0.51446221642E-01 -0.57377181606E-02  0.13107780477E+00  0.89121323264E+00  0.88000000000E+00 0. -1.
        -11    1    4    4    0    0 -0.59041563957E-02 -0.76980427467E-03 -0.34203274988E-01  0.34721417054E-01  0.51100000000E-03 0.  1.
         11    1    4    4    0    0 -0.35789113311E-01  0.24161022839E-01 -0.82852989515E-01  0.93431764667E-01  0.51100000000E-03 0. -1.
</event>
<event>
 8    1  0.1114333E+005  0.1043930E+01  0.7957747E-01            NaN
         13   -1    0    0    0    0  0.00000000000E+00  0.00000000000E+00  0.74505805969E-08  0.10566000000E+00  0.10566000000E+00 0.  1.
     999900   -1    0    0    0    0 -0.00000000000E+00 -0.00000000000E+00 -0.74505805969E-08  0.93827000000E+00  0.93827000000E+00 0. -1.
     999902    2    1    2    0    0 -0.74472287079E-02  0.21862999295E-01  0.51092306918E-03  0.10208277708E+01  0.10205663254E+01 0.  0.
     999903    2    3    3    0    0 -0.35663737175E-01 -0.10854276810E+00  0.56627385924E-01  0.12900329648E+00  0.19538551881E-01 0.  0.
         14    1    1    2    0    0  0.74472287079E-02 -0.21862999295E-01 -0.51092306918E-03  0.23102229243E-01  0.00000000000E+00 0. -1.
     999901    1    3    3    0    0  0.28216508467E-01  0.13040576739E+00 -0.56116462855E-01  0.89182447428E+00  0.88000000000E+00 0. -1.
        -11    1    4    4    0    0 -0.20859247916E-01 -0.34664377522E-01  0.17222677069E-01  0.43972821367E-01  0.51100000000E-03 0. -1.
         11    1    4    4    0    0 -0.14804489259E-01 -0.73878390578E-01  0.39404708856E-01  0.85030475111E-01  0.51100000000E-03 0.  1.
</event>
<event>
 8    1  0.1114333E+005  0.1043930E+01  0.7957747E-01            NaN
         13   -1    0    0    0    0  0.00000000000E+00  0.00000000000E+00  0.74505805969E-08  0.10566000000E+00  0.10566000000E+00 0.  1.
     999900   -1    0    0    0    0 -0.00000000000E+00 -0.00000000000E+00 -0.74505805969E-08  0.93827000000E+00  0.93827000000E+00 0. -1.
     999902    2    1    2    0    0 -0.62829231837E-02 -0.47751596263E-02 -0.21566076618E-01  0.10209653982E+01  0.10207070939E+01 0.  0.
     999903    2    3    3    0    0  0.10584273912E+00 -0.68651174697E-01 -0.32797585862E-01  0.13148327012E+00  0.17219160009E-01 0.  0.
         14    1    1    2    0    0  0.62829231837E-02  0.47751596263E-02  0.21566076618E-01  0.22964601758E-01  0.00000000000E+00 0.  1.
     999901    1    3    3    0    0 -0.11212566230E+00  0.63876015070E-01  0.11231509244E-01  0.88948212812E+00  0.88000000000E+00 0. -1.
        -11    1    4    4    0    0  0.53154251900E-01 -0.25451476332E-01 -0.19364506261E-01  0.62035452495E-01  0.51100000000E-03 0.  1.
         11    1    4    4    0    0  0.52688487221E-01 -0.43199698364E-01 -0.13433079601E-01  0.69447817625E-01  0.51100000000E-03 0. -1.
</event>
<event>
 8    1  0.1114333E+005  0.1043930E+01  0.7957747E-01            NaN
         13   -1    0    0    0    0  0.00000000000E+00  0.00000000000E+00  0.74505805969E-08  0.10566000000E+00  0.10566000000E+00 0. -1.
     999900   -1    0    0    0    0 -0.00000000000E+00 -0.00000000000E+00 -0.74505805969E-08  0.93827000000E+00  0.93827000000E+00 0.  1.
     999902    2    1    2    0    0  0.11478333565E-01 -0.19779444700E-01  0.11652456471E-02  0.10210316077E+01  0.10207748074E+01 0.  0.
     999903    2    3    3    0    0 -0.61664701699E-01  0.60838616916E-01 -0.93897717570E-01  0.12924343638E+00  0.19575794723E-01 0.  0.
         14    1    1    2    0    0 -0.11478333565E-01  0.19779444700E-01 -0.11652456471E-02  0.22898392335E-01  0.00000000000E+00 0. -1.
     999901    1    3    3    0    0  0.73143035264E-01 -0.80618061616E-01  0.95062963217E-01  0.89178817128E+00  0.88000000000E+00 0. -1.
        -11    1    4    4    0    0 -0.39117627333E-01  0.27262770220E-01 -0.58692626538E-01  0.75620982135E-01  0.51100000000E-03 0. -1.
         11    1    4    4    0    0 -0.22547074366E-01  0.33575846695E-01 -0.35205091032E-01  0.53622454246E-01  0.51100000000E-03 0.  1.
</event>
<event>
 8    1  0.1114333E+005  0.1043930E+01  0.7957747E-01            NaN
         13   -1    0    0    0    0  0.00000000000E+00  0.00000000000E+00  0.74505805969E-08  0.10566000000E+00  0.10566000000E+00 0. -1.
     999900   -1    0    0    0    0 -0.00000000000E+00 -0.00000000000E+00 -0.74505805969E-08  0.93827000000E+00  0.93827000000E+00 0. -1.
     999902    2    1    2    0    0  0.12548989206E-01  0.89627178545E-02  0.13086725930E-01  0.10237045250E+01  0.10235047068E+01 0.  0.
     999903    2    3    3    0    0 -0.51221600207E-01  0.77038973779E-01 -0.92597992048E-01  0.13248607578E+00  0.20482097959E-01 0.  0.
         14    1    1    2    0    0 -0.12548989206E-01 -0.89627178545E-02 -0.13086725930E-01  0.20225474951E-01  0.00000000000E+00 0.  1.
     999901    1    3    3    0    0  0.63770589412E-01 -0.68076255925E-01  0.10568471798E+00  0.89121844926E+00  0.88000000000E+00 0.  1.
        -11    1    4    4    0    0 -0.21279795955E-01  0.49909481766E-01 -0.50262417040E-01  0.73961867024E-01  0.51100000000E-03 0. -1.
         11    1    4    4    0    0 -0.29941804252E-01  0.27129492014E-01 -0.42335575009E-01  0.58524208761E-01  0.51100000000E-03 0.  1.
</event>
<event>
 8    1  0.1114333E+005  0.1043930E+01  0.7957747E-01            NaN
         13   -1    0    0    0    0  0.00000000000E+00  0.00000000000E+00  0.74505805969E-08  0.10566000000E+00  0.10566000000E+00 0.  1.
     999900   -1    0    0    0    0 -0.00000000000E+00 -0.00000000000E+00 -0.74505805969E-08  0.93827000000E+00  0.93827000000E+00 0.  1.
     999902    2    1    2    0    0 -0.22618028883E-01 -0.59957774543E-02  0.43270727880E-02  0.10201340311E+01  0.10198564572E+01 0.  0.
     999903    2    3    3    0    0  0.95541993159E-01 -0.80249935149E-01  0.22686303855E-01  0.12894800555E+00  0.23336563664E-01 0.  0.
         14    1    1    2    0    0  0.22618028883E-01  0.59957774543E-02 -0.43270727880E-02  0.23795968918E-01  0.00000000000E+00 0. -1.
     999901    1    3    3    0    0 -0.11816002204E+00  0.74254157694E-01 -0.18359231067E-01  0.89118602554E+00  0.88000000000E+00 0. -1.
        -11    1    4    4    0    0  0.50821151283E-01 -0.57089823645E-01  0.10739236054E-01  0.77185683217E-01  0.51100000000E-03 0. -1.
         11    1    4    4    0    0  0.44720841876E-01 -0.23160111503E-01  0.11947067801E-01  0.51762322329E-01  0.51100000000E-03 0.  1.
</event>
<event>
 8    1  0.1114333E+005  0.1043930E+01  0.7957747E-01            NaN
         13   -1    0    0    0    0  0.00000000000E+00  0.00000000000E+00  0.74505805969E-08  0.10566000000E+00  0.10566000000E+00 0. -1.
     999900   -1    0    0    0    0 -0.00000000000E+00 -0.00000000000E+00 -0.74505805969E-08  0.93827000000E+00  0.93827000000E+00 0. -1.
     999902    2    1    2    0    0 -0.19135904417E-01  0.43058265453E-02  0.12138086750E-01  0.10208636581E+01  0.10206030336E+01 0.  0.
     999903    2    3    3    0    0  0.29933157603E-01  0.58387121957E-01 -0.10977238089E+00  0.12946323094E+00  0.20142061106E-01 0.  0.
         14    1    1    2    0    0  0.19135904417E-01 -0.43058265453E-02 -0.12138086750E-01  0.23066341931E-01  0.00000000000E+00 0.  1.
     999901    1    3    3    0    0 -0.49069062020E-01 -0.54081295412E-01  0.12191046764E+00  0.89140042713E+00  0.88000000000E+00 0.  1.
        -11    1    4    4    0    0  0.16147511663E-01  0.49694560423E-01 -0.81028478959E-01  0.96416632340E-01  0.51100000000E-03 0.  1.
         11    1    4    4    0    0  0.13785645939E-01  0.86925615343E-02 -0.28743901931E-01  0.33046598603E-01  0.51100000000E-03 0. -1.
</event>
<event>
 8    1  0.1114333E+005  0.1043930E+01  0.7957747E-01            NaN
         13   -1    0    0    0    0  0.00000000000E+00  0.00000000000E+00  0.74505805969E-08  0.10566000000E+00  0.10566000000E+00 0.  1.
     999900   -1    0    0    0    0 -0.00000000000E+00 -0.00000000000E+00 -0.74505805969E-08  0.93827000000E+00  0.93827000000E+00 0.  1.
     999902    2    1    2    0    0 -0.11853462124E-02 -0.11217538096E-01  0.20275722778E-01  0.10207277772E+01  0.10204640376E+01 0.  0.
     999903    2    3    3    0    0  0.11979674190E+00 -0.31641202905E-01  0.40446204093E-01  0.13198673507E+00  0.20788884459E-01 0.  0.
         14    1    1    2    0    0  0.11853462124E-02  0.11217538096E-01 -0.20275722778E-01  0.23202222754E-01  0.00000000000E+00 0. -1.
     999901    1    3    3    0    0 -0.12098208812E+00  0.20423664809E-01 -0.20170481316E-01  0.88874104217E+00  0.88000000000E+00 0. -1.
        -11    1    4    4    0    0  0.88967633390E-01 -0.19552542595E-01  0.38245228102E-01  0.98795244351E-01  0.51100000000E-03 0. -1.
         11    1    4    4    0    0  0.30829108515E-01 -0.12088660310E-01  0.22009759914E-02  0.33191490720E-01  0.51100000000E-03 0.  1.
</event>
<event>
 8    1  0.1114333E+005  0.1043930E+01  0.7957747E-01            NaN
         13   -1    0    0    0    0  0.00000000000E+00  0.00000000000E+00  0.74505805969E-08  0.10566000000E+00  0.10566000000E+00 0. -1.
     999900   -1    0    0    0    0 -0.00000000000E+00 -0.00000000000E+00 -0.74505805969E-08  0.93827000000E+00  0.93827000000E+00 0.  1.
     999902    2    1    2    0    0  0.10867069265E-01  0.19773640328E-01  0.76441021310E-02  0.10201072725E+01  0.10198290666E+01 0.  0.
     999903    2    3    3    0    0 -0.53283123184E-01 -0.81566057948E-01 -0.80170698743E-01  0.12764079088E+00  0.19305893758E-01 0.  0.
         14    1    1    2    0    0 -0.10867069265E-01 -0.19773640328E-01 -0.76441021310E-02  0.23822727459E-01  0.00000000000E+00 0.  1.
     999901    1    3    3    0    0  0.64150192448E-01  0.10133969828E+00  0.87814800874E-01  0.89246648166E+00  0.88000000000E+00 0. -1.
        -11    1    4    4    0    0 -0.26867061699E-01 -0.43727999417E-01 -0.29899909129E-01  0.59399011981E-01  0.51100000000E-03 0. -1.
         11    1    4    4    0    0 -0.26416061484E-01 -0.37838058531E-01 -0.50270789614E-01  0.68241778898E-01  0.51100000000E-03 0.  1.
</event>
<event>
 8    1  0.1114333E+005  0.1043930E+01  0.7957747E-01            NaN
         13   -1    0    0    0    0  0.00000000000E+00  0.00000000000E+00  0.74505805969E-08  0.10566000000E+00  0.10566000000E+00 0.  1.
     999900   -1    0    0    0    0 -0.00000000000E+00 -0.00000000000E+00 -0.74505805969E-08  0.93827000000E+00  0.93827000000E+00 0. -1.
     999902    2    1    2    0    0 -0.13498699216E-01 -0.38022095598E-02 -0.17420785672E-01  0.10215658445E+01  0.10213210167E+01 0.  0.
     999903    2    3    3    0    0  0.63727856273E-01  0.10602862281E+00  0.34284072093E-01  0.12988196277E+00  0.19764061637E-01 0.  0.
         14    1    1    2    0    0  0.13498699216E-01  0.38022095598E-02  0.17420785672E-01  0.22364155506E-01  0.00000000000E+00 0.  1.
     999901    1    3    3    0    0 -0.77226555489E-01 -0.10983083237E+00 -0.51704857765E-01  0.89168388173E+00  0.88000000000E+00 0.  1.
        -11    1    4    4    0    0  0.20597057487E-01  0.25183062940E-01  0.16716994054E-01  0.36580656738E-01  0.51100000000E-03 0. -1.
         11    1    4    4    0    0  0.43130798786E-01  0.80845559874E-01  0.17567078039E-01  0.93301306031E-01  0.51100000000E-03 0.  1.
</event>
<event>
 8    1  0.1114333E+005  0.1043930E+01  0.7957747E-01            NaN
         13   -1    0    0    0    0  0.00000000000E+00  0.00000000000E+00  0.74505805969E-08  0.10566000000E+00  0.10566000000E+00 0.  1.
     999900   -1    0    0    0    0 -0.00000000000E+00 -0.00000000000E+00 -0.74505805969E-08  0.93827000000E+00  0.93827000000E+00 0. -1.
     999902    2    1    2    0    0 -0.13404112919E-01 -0.18110211572E-01 -0.77109426124E-02  0.10201159570E+01  0.10198379563E+01 0.  0.
     999903    2    3    3    0    0 -0.23077440422E-01  0.10420078272E+00 -0.70301781209E-01  0.12940210530E+00  0.20302537768E-01 0.  0.
         14    1    1    2    0    0  0.13404112919E-01  0.18110211572E-01  0.77109426124E-02  0.23814042964E-01  0.00000000000E+00 0. -1.
     999901    1    3    3    0    0  0.96733275029E-02 -0.12231099429E+00  0.62590838596E-01  0.89071385173E+00  0.88000000000E+00 0.  1.
        -11    1    4    4    0    0 -0.47631128795E-02  0.42504428457E-01 -0.38788134497E-01  0.57741615681E-01  0.51100000000E-03 0. -1.
         11    1    4    4    0    0 -0.18314327542E-01  0.61696354266E-01 -0.31513646712E-01  0.71660489624E-01  0.51100000000E-03 0.  1.
</event>
<event>
 8    1  0.1114333E+005  0.1043930E+01  0.7957747E-01            NaN
         13   -1    0    0    0    0  0.00000000000E+00  0.00000000000E+00  0.74505805969E-08  0.10566000000E+00  0.10566000000E+00 0.  1.
     999900   -1    0    0    0    0 -0.00000000000E+00 -0.00000000000E+00 -0.74505805969E-08  0.93827000000E+00  0.93827000000E+00 0.  1.
     999902    2    1    2    0    0  0.12838109170E-01 -0.20723759574E-01  0.15116526500E-03  0.10195514416E+01  0.10192599413E+01 0.  0.
     999903    2    3    3    0    0  0.41085401580E-03 -0.66237064874E-02 -0.12839351158E+00  0.13001393138E+00  0.19356814006E-01 0.  0.
         14    1    1    2    0    0 -0.12838109170E-01  0.20723759574E-01 -0.15116526500E-03  0.24378558384E-01  0.00000000000E+00 0.  1.
     999901    1    3    3    0    0  0.12427255154E-01 -0.14100053086E-01  0.12854467685E+00  0.88953751023E+00  0.88000000000E+00 0. -1.
        -11    1    4    4    0    0 -0.63065820415E-02 -0.35557173900E-02 -0.18520906646E-01  0.19892239874E-01  0.51100000000E-03 0. -1.
         11    1    4    4    0    0  0.67174360573E-02 -0.30679890974E-02 -0.10987260494E+00  0.11012169151E+00  0.51100000000E-03 0.  1.
</event>
<event>
 8    1  0.1114333E+005  0.1043930E+01  0.7957747E-01            NaN
         13   -1    0    0    0    0  0.00000000000E+00  0.00000000000E+00  0.74505805969E-08  0.10566000000E+00  0.10566000000E+00 0.  1.
     999900   -1    0    0    0    0 -0.00000000000E+00 -0.00000000000E+00 -0.74505805969E-08  0.93827000000E+00  0.93827000000E+00 0. -1.
     999902    2    1    2    0    0 -0.65428189581E-02  0.19020163723E-01 -0.12619009607E-01  0.10201852214E+01  0.10199088545E+01 0.  0.
     999903    2    3    3    0    0  0.60463624192E-01 -0.93603954474E-01 -0.62018964884E-01  0.12911035865E+00  0.20139080442E-01 0.  0.
         14    1    1    2    0    0  0.65428189581E-02 -0.19020163723E-01  0.12619009607E-01  0.23744778614E-01  0.00000000000E+00 0.  1.
     999901    1    3    3    0    0 -0.67006443150E-01  0.11262411820E+00  0.49399955277E-01  0.89107486274E+00  0.88000000000E+00 0.  1.
        -11    1    4    4    0    0  0.45898406089E-01 -0.60326175229E-01 -0.50151138590E-01  0.90891742871E-01  0.51100000000E-03 0.  1.
         11    1    4    4    0    0  0.14565218103E-01 -0.33277779246E-01 -0.11867826294E-01  0.38218615776E-01  0.51100000000E-03 0. -1.
</event>
<event>
 8    1  0.1114333E+005  0.1043930E+01  0.7957747E-01            NaN
         13   -1    0    0    0    0  0.00000000000E+00  0.00000000000E+00  0.74505805969E-08  0.10566000000E+00  0.10566000000E+00 0.  1.
     999900   -1    0    0    0    0 -0.00000000000E+00 -0.00000000000E+00 -0.74505805969E-08  0.93827000000E+00  0.93827000000E+00 0.  1.
     999902    2    1    2    0    0 -0.19806615300E-01 -0.98905102383E-02  0.71700081604E-02  0.10206591337E+01  0.10203938132E+01 0.  0.
     999903    2    3    3    0    0  0.31747476793E-01  0.50504843137E-01  0.11431755956E+00  0.13061080864E+00  0.20785510515E-01 0.  0.
         14    1    1    2    0    0  0.19806615300E-01  0.98905102383E-02 -0.71700081604E-02  0.23270866323E-01  0.00000000000E+00 0.  1.
     999901    1    3    3    0    0 -0.51554092093E-01 -0.60395353376E-01 -0.10714755140E+00  0.89004832503E+00  0.88000000000E+00 0.  1.
        -11    1    4    4    0    0  0.98589744628E-02  0.28417812532E-01  0.72521020003E-01  0.78513253084E-01  0.51100000000E-03 0. -1.
         11    1    4    4    0    0  0.21888502331E-01  0.22087030606E-01  0.41796539560E-01  0.52097555561E-01  0.51100000000E-03 0.  1.
</event>
<event>
 8    1  0.1114333E+005  0.1043930E+01  0.7957747E-01            NaN
         13   -1    0    0    0    0  0.00000000000E+00  0.00000000000E+00  0.74505805969E-08  0.10566000000E+00  0.10566000000E+00 0.  1.
     999900   -1    0    0    0    0 -0.00000000000E+00 -0.00000000000E+00 -0.74505805969E-08  0.93827000000E+00  0.93827000000E+00 0.  1.
     999902    2    1    2    0    0  0.67343471229E-02 -0.18265251167E-01 -0.13347123205E-01  0.10203266839E+01  0.10200536385E+01 0.  0.
     999903    2    3    3    0    0  0.93977052209E-01 -0.88810945250E-01  0.20991724963E-01  0.13253890466E+00  0.20170235316E-01 0.  0.
         14    1    1    2    0    0 -0.67343471229E-02  0.18265251167E-01  0.13347123205E-01  0.23603316064E-01  0.00000000000E+00 0.  1.
     999901    1    3    3    0    0 -0.87242705086E-01  0.70545694082E-01 -0.34338848168E-01  0.88778777928E+00  0.88000000000E+00 0.  1.
        -11    1    4    4    0    0  0.43220020920E-01 -0.48915035879E-01  0.18844892105E-01  0.67941460264E-01  0.51100000000E-03 0.  1.
         11    1    4    4    0    0  0.50757031288E-01 -0.39895909371E-01  0.21468328583E-02  0.64597444393E-01  0.51100000000E-03 0. -1.
</event>
<event>
 8    1  0.1114333E+005  0.1043930E+01  0.7957747E-01            NaN
         13   -1    0    0    0    0  0.00000000000E+00  0.00000000000E+00  0.74505805969E-08  0.10566000000E+00  0.10566000000E+00 0. -1.
     999900   -1    0    0    0    0 -0.00000000000E+00 -0.00000000000E+00 -0.74505805969E-08  0.93827000000E+00  0.93827000000E+00 0.  1.
     999902    2    1    2    0    0 -0.57425350958E-02 -0.21853605911E-01 -0.39883410866E-02  0.10209852040E+01  0.10207273500E+01 0.  0.
     999903    2    3    3    0    0  0.59678381382E-01 -0.97088051148E-01  0.65654139829E-01  0.13262143094E+00  0.17040510222E-01 0.  0.
         14    1    1    2    0    0  0.57425350958E-02  0.21853605911E-01  0.39883410866E-02  0.22944796039E-01  0.00000000000E+00 0.  1.
     999901    1    3    3    0    0 -0.65420916478E-01  0.75234445237E-01 -0.69642480915E-01  0.88836377302E+00  0.88000000000E+00 0.  1.
        -11    1    4    4    0    0  0.31407890328E-01 -0.66593614504E-01  0.42940931681E-01  0.85237021312E-01  0.51100000000E-03 0. -1.
         11    1    4    4    0    0  0.28270491055E-01 -0.30494436644E-01  0.22713208148E-01  0.47384409631E-01  0.51100000000E-03 0.  1.
</event>
<event>
 8    1  0.1114333E+005  0.1043930E+01  0.7957747E-01            NaN
         13   -1    0    0    0    0  0.00000000000E+00  0.00000000000E+00  0.74505805969E-08  0.10566000000E+00  0.10566000000E+00 0.  1.
     999900   -1    0    0    0    0 -0.00000000000E+00 -0.00000000000E+00 -0.74505805969E-08  0.93827000000E+00  0.93827000000E+00 0.  1.
     999902    2    1    2    0    0  0.51249154629E-02 -0.13105499024E-01 -0.20622349236E-01  0.10189640201E+01  0.10186581243E+01 0.  0.
     999903    2    3    3    0    0  0.67665693326E-01 -0.32077322578E-02  0.10598307615E+00  0.12765136543E+00  0.21760585134E-01 0.  0.
         14    1    1    2    0    0 -0.51249154629E-02  0.13105499024E-01  0.20622349236E-01  0.24965979876E-01  0.00000000000E+00 0.  1.
     999901    1    3    3    0    0 -0.62540777863E-01 -0.98977667658E-02 -0.12660542539E+00  0.89131265470E+00  0.88000000000E+00 0.  1.
        -11    1    4    4    0    0  0.29565069832E-01  0.88520198716E-02  0.52221576780E-01  0.60661402987E-01  0.51100000000E-03 0.  1.
         11    1    4    4    0    0  0.38100623494E-01 -0.12059752129E-01  0.53761499372E-01  0.66989962441E-01  0.51100000000E-03 0. -1.
</event>
<event>
 8    1  0.1114333E+005  0.1043930E+01  0.7957747E-01            NaN
         13   -1    0    0    0    0  0.00000000000E+00  0.00000000000E+00  0.74505805969E-08  0.10566000000E+00  0.10566000000E+00 0. -1.
     999900   -1    0    0    0    0 -0.00000000000E+00 -0.00000000000E+00 -0.74505805969E-08  0.93827000000E+00  0.93827000000E+00 0. -1.
     999902    2    1    2    0    0  0.18818420769E-01 -0.11718626461E-01  0.84818798155E-02  0.10201939209E+01  0.10199177588E+01 0.  0.
     999903    2    3    3    0    0  0.38273578264E-01 -0.12128810640E+00 -0.30202890475E-01  0.13234230855E+00  0.20654309271E-01 0.  0.
         14    1    1    2    0    0 -0.18818420769E-01  0.11718626461E-01 -0.84818798155E-02  0.23736079112E-01  0.00000000000E+00 0. -1.
     999901    1    3    3    0    0 -0.19455157495E-01  0.10956947994E+00  0.38684770290E-01  0.88785161234E+00  0.88000000000E+00 0.  1.
        -11    1    4    4    0    0  0.98406806093E-02 -0.50041510631E-01 -0.35270988010E-02  0.51124292935E-01  0.51100000000E-03 0.  1.
         11    1    4    4    0    0  0.28432897655E-01 -0.71246595767E-01 -0.26675791674E-01  0.81218015611E-01  0.51100000000E-03 0. -1.
</event>
<event>
 8    1  0.1114333E+005  0.1043930E+01  0.7957747E-01            NaN
         13   -1    0    0    0    0  0.00000000000E+00  0.00000000000E+00  0.74505805969E-08  0.10566000000E+00  0.10566000000E+00 0. -1.
     999900   -1    0    0    0    0 -0.00000000000E+00 -0.00000000000E+00 -0.74505805969E-08  0.93827000000E+00  0.93827000000E+00 0.  1.
     999902    2    1    2    0    0 -0.69123503702E-02  0.18170311945E-01  0.13807658224E-01  0.10200848275E+01  0.10198060909E+01 0.  0.
     999903    2    3    3    0    0 -0.83695408985E-01 -0.70526361242E-01  0.68530285101E-01  0.13061458981E+00  0.19618409207E-01 0.  0.
         14    1    1    2    0    0  0.69123503702E-02 -0.18170311945E-01 -0.13807658224E-01  0.23845172456E-01  0.00000000000E+00 0. -1.
     999901    1    3    3    0    0  0.76783058614E-01  0.88696673187E-01 -0.54722626877E-01  0.88947023774E+00  0.88000000000E+00 0.  1.
        -11    1    4    4    0    0 -0.21582771258E-01 -0.26493095282E-01  0.29020385977E-01  0.44834629875E-01  0.51100000000E-03 0.  1.
         11    1    4    4    0    0 -0.62112637726E-01 -0.44033265960E-01  0.39509899124E-01  0.85779959934E-01  0.51100000000E-03 0. -1.
</event>
<event>
 8    1  0.1114333E+005  0.1043930E+01  0.7957747E-01            NaN
         13   -1    0    0    0    0  0.00000000000E+00  0.00000000000E+00  0.74505805969E-08  0.10566000000E+00  0.10566000000E+00 0. -1.
     999900   -1    0    0    0    0 -0.00000000000E+00 -0.00000000000E+00 -0.74505805969E-08  0.93827000000E+00  0.93827000000E+00 0.  1.
     999902    2    1    2    0    0 -0.87748302190E-02 -0.19274892836E-01  0.10717989522E-01  0.10201940686E+01  0.10199179100E+01 0.  0.
     999903    2    3    3    0    0  0.11812005886E+00  0.25951194480E-02  0.50075219234E-01  0.12995275198E+00  0.20520897038E-01 0.  0.
         14    1    1    2    0    0  0.87748302190E-02  0.19274892836E-01 -0.10717989522E-01  0.23735931383E-01  0.00000000000E+00 0.  1.
     999901    1    3    3    0    0 -0.12689488908E+00 -0.21870012284E-01 -0.39357229711E-01  0.89024131663E+00  0.88000000000E+00 0.  1.
        -11    1    4    4    0    0  0.98406674920E-01 -0.55762235730E-02  0.40678285158E-01  0.10662997675E+00  0.51100000000E-03 0.  1.
         11    1    4    4    0    0  0.19713383945E-01  0.81713430210E-02  0.93969340756E-02  0.23322775229E-01  0.51100000000E-03 0. -1.
</event>
<event>
 7    1  0.1114333E+005  0.1043930E+01  0.7957747E-01            NaN
         13   -1    0    0    0    0  0.00000000000E+00  0.00000000000E+00  0.74505805969E-08  0.10566000000E+00  0.10566000000E+00 0.  1.
     999900   -1    0    0    0    0 -0.00000000000E+00 -0.00000000000E+00 -0.74505805969E-08  0.93827000000E+00  0.93827000000E+00 0. -1.
     999902    2    1    2    0    0 -0.26480000271E-02 -0.18399854205E-01 -0.88686410269E-03  0.10253194367E+01  0.10251505227E+01 0.  0.
         14    1    1    2    0    0  0.26480000271E-02  0.18399854205E-01  0.88686410269E-03  0.18610563313E-01  0.00000000000E+00 0.  1.
     999901    1    3    3    0    0  0.13748142370E-01 -0.14284035571E+00  0.17278862537E-01  0.89179085986E+00  0.88000000000E+00 0. -1.
        -11    1    3    3    0    0 -0.13796469390E-01  0.86060067322E-02 -0.43705081759E-02  0.16845426151E-01  0.51100000000E-03 0. -1.
         11    1    3    3    0    0 -0.25996730077E-02  0.11583449477E+00 -0.13795218464E-01  0.11668315068E+00  0.51100000000E-03 0.  1.
</event>
<event>
 8    1  0.1114333E+005  0.1043930E+01  0.7957747E-01            NaN
         13   -1    0    0    0    0  0.00000000000E+00  0.00000000000E+00  0.74505805969E-08  0.10566000000E+00  0.10566000000E+00 0.  1.
     999900   -1    0    0    0    0 -0.00000000000E+00 -0.00000000000E+00 -0.74505805969E-08  0.93827000000E+00  0.93827000000E+00 0.  1.
     999902    2    1    2    0    0  0.23218419405E-01  0.45513208530E-02  0.22986400576E-02  0.10201583095E+01  0.10198813084E+01 0.  0.
     999903    2    3    3    0    0  0.74635002850E-01 -0.90584451055E-01  0.56594384051E-01  0.13187766247E+00  0.20319132075E-01 0.  0.
         14    1    1    2    0    0 -0.23218419405E-01 -0.45513208530E-02 -0.22986400576E-02  0.23771690460E-01  0.00000000000E+00 0.  1.
     999901    1    3    3    0    0 -0.51416583444E-01  0.95135771908E-01 -0.54295743994E-01  0.88828064707E+00  0.88000000000E+00 0.  1.
        -11    1    4    4    0    0  0.59841676705E-01 -0.79170192779E-01  0.40417930097E-01  0.10715790167E+00  0.51100000000E-03 0.  1.
         11    1    4    4    0    0  0.14793326145E-01 -0.11414258276E-01  0.16176453955E-01  0.24719760799E-01  0.51100000000E-03 0. -1.
</event>
<event>
 8    1  0.1114333E+005  0.1043930E+01  0.7957747E-01            NaN
         13   -1    0    0    0    0  0.00000000000E+00  0.00000000000E+00  0.74505805969E-08  0.10566000000E+00  0.10566000000E+00 0. -1.
     999900   -1    0    0    0    0 -0.00000000000E+00 -0.00000000000E+00 -0.74505805969E-08  0.93827000000E+00  0.93827000000E+00 0. -1.
     999902    2    1    2    0    0 -0.57103887716E-02  0.14889476134E-01  0.18244451520E-01  0.10196985112E+01  0.10194105594E+01 0.  0.
     999903    2    3    3    0    0  0.95045322745E-01 -0.77138101319E-01  0.35227713329E-01  0.12901943339E+00  0.20521265941E-01 0.  0.
         14    1    1    2    0    0  0.57103887716E-02 -0.14889476134E-01 -0.18244451520E-01  0.24231488826E-01  0.00000000000E+00 0.  1.
     999901    1    3    3    0    0 -0.10075571152E+00  0.92027577453E-01 -0.16983261808E-01  0.89067907778E+00  0.88000000000E+00 0.  1.
        -11    1    4    4    0    0  0.37490344757E-01 -0.18833139599E-01  0.82332354237E-02  0.42758161603E-01  0.51100000000E-03 0.  1.
         11    1    4    4    0    0  0.57554977988E-01 -0.58304961720E-01  0.26994477905E-01  0.86261271790E-01  0.51100000000E-03 0. -1.
</event>
<event>
 8    1  0.1114333E+005  0.1043930E+01  0.7957747E-01            NaN
         13   -1    0    0    0    0  0.00000000000E+00  0.00000000000E+00  0.74505805969E-08  0.10566000000E+00  0.10566000000E+00 0. -1.
     999900   -1    0    0    0    0 -0.00000000000E+00 -0.00000000000E+00 -0.74505805969E-08  0.93827000000E+00  0.93827000000E+00 0.  1.
     999902    2    1    2    0    0 -0.93373173099E-02 -0.19809277491E-01 -0.84103392066E-02  0.10204709554E+01  0.10202012762E+01 0.  0.
     999903    2    3    3    0    0 -0.54113291119E-01  0.11025013966E+00 -0.35521658233E-01  0.12937311370E+00  0.19805877226E-01 0.  0.
         14    1    1    2    0    0  0.93373173099E-02  0.19809277491E-01  0.84103392066E-02  0.23459044628E-01  0.00000000000E+00 0.  1.
     999901    1    3    3    0    0  0.44775973810E-01 -0.13005941715E+00  0.27111319027E-01  0.89109784168E+00  0.88000000000E+00 0.  1.
        -11    1    4    4    0    0 -0.45980202707E-01  0.73437836314E-01 -0.26454372749E-01  0.90594645548E-01  0.51100000000E-03 0.  1.
         11    1    4    4    0    0 -0.81330884128E-02  0.36812303347E-01 -0.90672854846E-02  0.38778468148E-01  0.51100000000E-03 0. -1.
</event>
<event>
 8    1  0.1114333E+005  0.1043930E+01  0.7957747E-01            NaN
         13   -1    0    0    0    0  0.00000000000E+00  0.00000000000E+00  0.74505805969E-08  0.10566000000E+00  0.10566000000E+00 0.  1.
     999900   -1    0    0    0    0 -0.00000000000E+00 -0.00000000000E+00 -0.74505805969E-08  0.93827000000E+00  0.93827000000E+00 0. -1.
     999902    2    1    2    0    0 -0.20228397395E-01  0.79941421195E-02  0.93599416791E-02  0.10202508345E+01  0.10199760107E+01 0.  0.
     999903    2    3    3    0    0 -0.13146655323E+00  0.76057705307E-02 -0.45795161003E-02  0.13313844783E+00  0.19067563013E-01 0.  0.
         14    1    1    2    0    0  0.20228397395E-01 -0.79941421195E-02 -0.93599416791E-02  0.23679165476E-01  0.00000000000E+00 0. -1.
     999901    1    3    3    0    0  0.11123815583E+00  0.38837158876E-03  0.13939457779E-01  0.88711238670E+00  0.88000000000E+00 0. -1.
        -11    1    4    4    0    0 -0.72534057401E-01 -0.18678532013E-02 -0.98027112271E-02  0.73219072837E-01  0.51100000000E-03 0.  1.
         11    1    4    4    0    0 -0.58932495827E-01  0.94736237320E-02  0.52231951267E-02  0.59919374991E-01  0.51100000000E-03 0. -1.
</event>
<event>
 8    1  0.1114333E+005  0.1043930E+01  0.7957747E-01            NaN
         13   -1    0    0    0    0  0.00000000000E+00  0.00000000000E+00  0.74505805969E-08  0.10566000000E+00  0.10566000000E+00 0.  1.
     999900   -1    0    0    0    0 -0.00000000000E+00 -0.00000000000E+00 -0.74505805969E-08  0.93827000000E+00  0.93827000000E+00 0.  1.
     999902    2    1    2    0    0 -0.88311018525E-02  0.20984220208E-01  0.75496449139E-02  0.10199441084E+01  0.10196620329E+01 0.  0.
     999903    2    3    3    0    0 -0.12007304646E+00  0.52161969081E-01 -0.41421113258E-02  0.13231607852E+00  0.18761131147E-01 0.  0.
         14    1    1    2    0    0  0.88311018525E-02 -0.20984220208E-01 -0.75496449139E-02  0.23985891603E-01  0.00000000000E+00 0. -1.
     999901    1    3    3    0    0  0.11124194461E+00 -0.31177748873E-01  0.11691756240E-01  0.88762802988E+00  0.88000000000E+00 0. -1.
        -11    1    4    4    0    0 -0.86518414243E-01  0.32721115993E-01  0.43934105135E-02  0.92604916781E-01  0.51100000000E-03 0.  1.
         11    1    4    4    0    0 -0.33554632221E-01  0.19440853088E-01 -0.85355218394E-02  0.39711161735E-01  0.51100000000E-03 0. -1.
</event>
<event>
 8    1  0.1114333E+005  0.1043930E+01  0.7957747E-01            NaN
         13   -1    0    0    0    0  0.00000000000E+00  0.00000000000E+00  0.74505805969E-08  0.10566000000E+00  0.10566000000E+00 0.  1.
     999900   -1    0    0    0    0 -0.00000000000E+00 -0.00000000000E+00 -0.74505805969E-08  0.93827000000E+00  0.93827000000E+00 0. -1.
     999902    2    1    2    0    0  0.13284570436E-01 -0.18654055781E-01  0.62479409324E-02  0.10201920478E+01  0.10199158416E+01 0.  0.
     999903    2    3    3    0    0  0.12256551933E-01  0.96628847743E-01 -0.81357586475E-01  0.12835914131E+00  0.19226414101E-01 0.  0.
         14    1    1    2    0    0 -0.13284570436E-01  0.18654055781E-01 -0.62479409324E-02  0.23737952200E-01  0.00000000000E+00 0. -1.
     999901    1    3    3    0    0  0.10280185024E-02 -0.11528290352E+00  0.87605527407E-01  0.89183290649E+00  0.88000000000E+00 0.  1.
        -11    1    4    4    0    0  0.13513681463E-01  0.34534396920E-01 -0.33011194614E-01  0.49651226049E-01  0.51100000000E-03 0. -1.
         11    1    4    4    0    0 -0.12571295294E-02  0.62094450824E-01 -0.48346391861E-01  0.78707915261E-01  0.51100000000E-03 0.  1.
</event>
<event>
 8    1  0.1114333E+005  0.1043930E+01  0.7957747E-01            NaN
         13   -1    0    0    0    0  0.00000000000E+00  0.00000000000E+00  0.74505805969E-08  0.10566000000E+00  0.10566000000E+00 0. -1.
     999900   -1    0    0    0    0 -0.00000000000E+00 -0.00000000000E+00 -0.74505805969E-08  0.93827000000E+00  0.93827000000E+00 0. -1.
     999902    2    1    2    0    0  0.16187321555E-01 -0.16659593678E-01 -0.48775846215E-02  0.10201947462E+01  0.10199186036E+01 0.  0.
     999903    2    3    3    0    0 -0.39118526190E-01  0.53211560276E-01 -0.10955631092E+00  0.12952176992E+00  0.20287296098E-01 0.  0.
         14    1    1    2    0    0 -0.16187321555E-01  0.16659593678E-01  0.48775846215E-02  0.23735253788E-01  0.00000000000E+00 0. -1.
     999901    1    3    3    0    0  0.55305847745E-01 -0.69871153954E-01  0.10467872630E+00  0.89067297629E+00  0.88000000000E+00 0.  1.
        -11    1    4    4    0    0 -0.28565732850E-01  0.23254616847E-01 -0.66416430079E-01  0.75948545762E-01  0.51100000000E-03 0.  1.
         11    1    4    4    0    0 -0.10552793340E-01  0.29956943429E-01 -0.43139880844E-01  0.53573224162E-01  0.51100000000E-03 0. -1.
</event>
<event>
 8    1  0.1114333E+005  0.1043930E+01  0.7957747E-01            NaN
         13   -1    0    0    0    0  0.00000000000E+00  0.00000000000E+00  0.74505805969E-08  0.10566000000E+00  0.10566000000E+00 0.  1.
     999900   -1    0    0    0    0 -0.00000000000E+00 -0.00000000000E+00 -0.74505805969E-08  0.93827000000E+00  0.93827000000E+00 0. -1.
     999902    2    1    2    0    0 -0.20194073406E-01 -0.11744219295E-01 -0.30938518487E-02  0.10203652126E+01  0.10200930682E+01 0.  0.
     999903    2    3    3    0    0 -0.45759879763E-01 -0.11543463056E+00 -0.43170477848E-01  0.13300314002E+00  0.20174849916E-01 0.  0.
         14    1    1    2    0    0  0.20194073406E-01  0.11744219295E-01  0.30938518487E-02  0.23564787434E-01  0.00000000000E+00 0.  1.
     999901    1    3    3    0    0  0.25565806357E-01  0.10369041126E+00  0.40076625999E-01  0.88736207255E+00  0.88000000000E+00 0.  1.
        -11    1    4    4    0    0 -0.12300907019E-01 -0.37310510744E-01 -0.42251581088E-02  0.39515814651E-01  0.51100000000E-03 0.  1.
         11    1    4    4    0    0 -0.33458972743E-01 -0.78124119815E-01 -0.38945319739E-01  0.93487325368E-01  0.51100000000E-03 0. -1.
</event>
<event>
 8    1  0.1114333E+005  0.1043930E+01  0.7957747E-01            NaN
         13   -1    0    0    0    0  0.00000000000E+00  0.00000000000E+00  0.74505805969E-08  0.10566000000E+00  0.10566000000E+00 0. -1.
     999900   -1    0    0    0    0 -0.00000000000E+00 -0.00000000000E+00 -0.74505805969E-08  0.93827000000E+00  0.93827000000E+00 0.  1.
     999902    2    1    2    0    0 -0.12167416621E-01  0.19212063407E-01  0.67965518550E-02  0.10201951622E+01  0.10199190294E+01 0.  0.
     999903    2    3    3    0    0  0.80515937622E-01  0.92661832542E-01  0.42683145153E-01  0.13155973623E+00  0.20422582971E-01 0.  0.
         14    1    1    2    0    0  0.12167416621E-01 -0.19212063407E-01 -0.67965518550E-02  0.23734837785E-01  0.00000000000E+00 0. -1.
     999901    1    3    3    0    0 -0.92683354243E-01 -0.73449769135E-01 -0.35886593298E-01  0.88863542599E+00  0.88000000000E+00 0.  1.
        -11    1    4    4    0    0  0.48219091751E-01  0.48538252549E-01  0.14103299357E-01  0.69858477965E-01  0.51100000000E-03 0.  1.
         11    1    4    4    0    0  0.32296845871E-01  0.44123579992E-01  0.28579845796E-01  0.61701258263E-01  0.51100000000E-03 0. -1.
</event>
<event>
 8    1  0.1114333E+005  0.1043930E+01  0.7957747E-01            NaN
         13   -1    0    0    0    0  0.00000000000E+00  0.00000000000E+00  0.74505805969E-08  0.10566000000E+00  0.10566000000E+00 0. -1.
     999900   -1    0    0    0    0 -0.00000000000E+00 -0.00000000000E+00 -0.74505805969E-08  0.93827000000E+00  0.93827000000E+00 0.  1.
     999902    2    1    2    0    0  0.15448187146E-02 -0.23699859219E-01  0.27225166089E-02  0.10200243126E+01  0.10197441427E+01 0.  0.
     999903    2    3    3    0    0 -0.13054073418E-01  0.24526386972E-01 -0.12509008485E+00  0.12936446759E+00  0.17767488775E-01 0.  0.
         14    1    1    2    0    0 -0.15448187146E-02  0.23699859219E-01 -0.27225166089E-02  0.23905687369E-01  0.00000000000E+00 0.  1.
     999901    1    3    3    0    0  0.14598892133E-01 -0.48226246191E-01  0.12781260146E+00  0.89065984504E+00  0.88000000000E+00 0. -1.
        -11    1    4    4    0    0 -0.10172637634E-01  0.69771974253E-02 -0.79014098971E-01  0.79972825370E-01  0.51100000000E-03 0.  1.
         11    1    4    4    0    0 -0.28814357843E-02  0.17549189547E-01 -0.46075985877E-01  0.49391642223E-01  0.51100000000E-03 0. -1.
</event>
<event>
 8    1  0.1114333E+005  0.1043930E+01  0.7957747E-01            NaN
         13   -1    0    0    0    0  0.00000000000E+00  0.00000000000E+00  0.74505805969E-08  0.10566000000E+00  0.10566000000E+00 0. -1.
     999900   -1    0    0    0    0 -0.00000000000E+00 -0.00000000000E+00 -0.74505805969E-08  0.93827000000E+00  0.93827000000E+00 0. -1.
     999902    2    1    2    0    0  0.23503118242E-02  0.13656618970E-01  0.18569628650E-01  0.10207597968E+01  0.10204967930E+01 0.  0.
     999903    2    3    3    0    0 -0.72481026662E-01 -0.19532164283E-01 -0.10243727269E+00  0.12871501390E+00  0.20956032515E-01 0.  0.
         14    1    1    2    0    0 -0.23503118242E-02 -0.13656618970E-01 -0.18569628650E-01  0.23170203184E-01  0.00000000000E+00 0.  1.
     999901    1    3    3    0    0  0.74831338487E-01  0.33188783252E-01  0.12100690135E+00  0.89204478292E+00  0.88000000000E+00 0.  1.
        -11    1    4    4    0    0 -0.38225906151E-01 -0.22621338836E-03 -0.44133806642E-01  0.58389426125E-01  0.51100000000E-03 0. -1.
         11    1    4    4    0    0 -0.34255120511E-01 -0.19305950894E-01 -0.58303466053E-01  0.70325587776E-01  0.51100000000E-03 0.  1.
</event>
<event>
 8    1  0.1114333E+005  0.1043930E+01  0.7957747E-01            NaN
         13   -1    0    0    0    0  0.00000000000E+00  0.00000000000E+00  0.74505805969E-08  0.10566000000E+00  0.10566000000E+00 0.  1.
     999900   -1    0    0    0    0 -0.00000000000E+00 -0.00000000000E+00 -0.74505805969E-08  0.93827000000E+00  0.93827000000E+00 0.  1.
     999902    2    1    2    0    0 -0.94637164992E-02  0.14513900973E-01  0.14684971722E-01  0.10212173681E+01  0.10209647640E+01 0.  0.
     999903    2    3    3    0    0 -0.26821509525E-01  0.95291851675E-01 -0.84663339286E-01  0.13178133492E+00  0.19962686309E-01 0.  0.
         14    1    1    2    0    0  0.94637164992E-02 -0.14513900973E-01 -0.14684971722E-01  0.22712631858E-01  0.00000000000E+00 0. -1.
     999901    1    3    3    0    0  0.17357793026E-01 -0.80777950702E-01  0.99348311008E-01  0.88943603322E+00  0.88000000000E+00 0. -1.
        -11    1    4    4    0    0 -0.12137924834E-01  0.52181433262E-01 -0.58200958008E-01  0.79106534689E-01  0.51100000000E-03 0. -1.
         11    1    4    4    0    0 -0.14683584692E-01  0.43110418413E-01 -0.26462381279E-01  0.52674800228E-01  0.51100000000E-03 0.  1.
</event>
<event>
 8    1  0.1114333E+005  0.1043930E+01  0.7957747E-01            NaN
         13   -1    0    0    0    0  0.00000000000E+00  0.00000000000E+00  0.74505805969E-08  0.10566000000E+00  0.10566000000E+00 0. -1.
     999900   -1    0    0    0    0 -0.00000000000E+00 -0.00000000000E+00 -0.74505805969E-08  0.93827000000E+00  0.93827000000E+00 0. -1.
     999902    2    1    2    0    0 -0.15405045193E-01 -0.16368684871E-01  0.75585983208E-02  0.10202154123E+01  0.10199397560E+01 0.  0.
     999903    2    3    3    0    0  0.61585131826E-01 -0.88531072427E-01  0.72270369803E-01  0.13155208408E+00  0.21271230020E-01 0.  0.
         14    1    1    2    0    0  0.15405045193E-01  0.16368684871E-01 -0.75585983208E-02  0.23714587713E-01  0.00000000000E+00 0.  1.
     999901    1    3    3    0    0 -0.76990177020E-01  0.72162387556E-01 -0.64711771483E-01  0.88866332821E+00  0.88000000000E+00 0. -1.
        -11    1    4    4    0    0  0.31276164727E-01 -0.26968243498E-01  0.26958366228E-01  0.49320373762E-01  0.51100000000E-03 0. -1.
         11    1    4    4    0    0  0.30308967100E-01 -0.61562828929E-01  0.45312003575E-01  0.82231710316E-01  0.51100000000E-03 0.  1.
</event>
<event>
 8    1  0.1114333E+005  0.1043930E+01  0.7957747E-01            NaN
         13   -1    0    0    0    0  0.00000000000E+00  0.00000000000E+00  0.74505805969E-08  0.10566000000E+00  0.10566000000E+00 0. -1.
     999900   -1    0    0    0    0 -0.00000000000E+00 -0.00000000000E+00 -0.74505805969E-08  0.93827000000E+00  0.93827000000E+00 0. -1.
     999902    2    1    2    0    0 -0.15104970401E-01  0.15752888433E-01  0.90664307327E-02  0.10202971036E+01  0.10200233654E+01 0.  0.
     999903    2    3    3    0    0  0.11389210217E+00 -0.55157029700E-01  0.52639860043E-02  0.12806231401E+00  0.18935095920E-01 0.  0.
         14    1    1    2    0    0  0.15104970401E-01 -0.15752888433E-01 -0.90664307327E-02  0.23632896374E-01  0.00000000000E+00 0.  1.
     999901    1    3    3    0    0 -0.12899707257E+00  0.70909918132E-01  0.38024447284E-02  0.89223478962E+00  0.88000000000E+00 0. -1.
        -11    1    4    4    0    0  0.10551372776E+00 -0.52608146545E-01  0.13925449517E-03  0.11790269014E+00  0.51100000000E-03 0.  1.
         11    1    4    4    0    0  0.83783744124E-02 -0.25488831546E-02  0.51247315091E-02  0.10159623870E-01  0.51100000000E-03 0. -1.
</event>
<event>
 8    1  0.1114333E+005  0.1043930E+01  0.7957747E-01            NaN
         13   -1    0    0    0    0  0.00000000000E+00  0.00000000000E+00  0.74505805969E-08  0.10566000000E+00  0.10566000000E+00 0.  1.
     999900   -1    0    0    0    0 -0.00000000000E+00 -0.00000000000E+00 -0.74505805969E-08  0.93827000000E+00  0.93827000000E+00 0. -1.
     999902    2    1    2    0    0  0.90632934892E-02  0.14606424701E-01  0.20055959736E-01  0.10175153743E+01  0.10171724556E+01 0.  0.
     999903    2    3    3    0    0  0.10262583910E+00  0.38720171269E-01  0.67749487393E-01  0.13094327044E+00  0.22909223422E-01 0.  0.
         14    1    1    2    0    0 -0.90632934892E-02 -0.14606424701E-01 -0.20055959736E-01  0.26414625728E-01  0.00000000000E+00 0. -1.
     999901    1    3    3    0    0 -0.93562545608E-01 -0.24113746568E-01 -0.47693527657E-01  0.88657210383E+00  0.88000000000E+00 0. -1.
        -11    1    4    4    0    0  0.66492416455E-01  0.13660472245E-01  0.44864435389E-01  0.81369088920E-01  0.51100000000E-03 0. -1.
         11    1    4    4    0    0  0.36133422642E-01  0.25059699024E-01  0.22885052004E-01  0.49574181519E-01  0.51100000000E-03 0.  1.
</event>
<event>
 8    1  0.1114333E+005  0.1043930E+01  0.7957747E-01            NaN
         13   -1    0    0    0    0  0.00000000000E+00  0.00000000000E+00  0.74505805969E-08  0.10566000000E+00  0.10566000000E+00 0.  1.
     999900   -1    0    0    0    0 -0.00000000000E+00 -0.00000000000E+00 -0.74505805969E-08  0.93827000000E+00  0.93827000000E+00 0.  1.
     999902    2    1    2    0    0 -0.19200481640E-01  0.14715467600E-01 -0.50544497137E-02  0.10192166242E+01  0.10189169623E+01 0.  0.
     999903    2    3    3    0    0  0.67958896351E-01  0.68800400973E-01  0.82808375301E-01  0.12891228678E+00  0.20229777471E-01 0.  0.
         14    1    1    2    0    0  0.19200481640E-01 -0.14715467600E-01  0.50544497137E-02  0.24713375807E-01  0.00000000000E+00 0.  1.
     999901    1    3    3    0    0 -0.87159377990E-01 -0.54084933374E-01 -0.87862825015E-01  0.89030433741E+00  0.88000000000E+00 0.  1.
        -11    1    4    4    0    0  0.22813564058E-01  0.12182229240E-01  0.27800448014E-01  0.37973562449E-01  0.51100000000E-03 0. -1.
         11    1    4    4    0    0  0.45145332292E-01  0.56618171733E-01  0.55007927288E-01  0.90938724335E-01  0.51100000000E-03 0.  1.
</event>
<event>
 8    1  0.1114333E+005  0.1043930E+01  0.7957747E-01            NaN
         13   -1    0    0    0    0  0.00000000000E+00  0.00000000000E+00  0.74505805969E-08  0.10566000000E+00  0.10566000000E+00 0. -1.
     999900   -1    0    0    0    0 -0.00000000000E+00 -0.00000000000E+00 -0.74505805969E-08  0.93827000000E+00  0.93827000000E+00 0.  1.
     999902    2    1    2    0    0 -0.65360646618E-02 -0.30760263023E-02  0.21918294458E-01  0.10208520081E+01  0.10205911173E+01 0.  0.
     999903    2    3    3    0    0  0.92533564622E-01  0.30322730983E-01 -0.81653414734E-01  0.12863153792E+00  0.19921441043E-01 0.  0.
         14    1    1    2    0    0  0.65360646618E-02  0.30760263023E-02 -0.21918294458E-01  0.23077991919E-01  0.00000000000E+00 0.  1.
     999901    1    3    3    0    0 -0.99069629284E-01 -0.33398757285E-01  0.10357170919E+00  0.89222047016E+00  0.88000000000E+00 0. -1.
        -11    1    4    4    0    0  0.42144498432E-01  0.35073914713E-02 -0.33590690038E-01  0.54009778015E-01  0.51100000000E-03 0.  1.
         11    1    4    4    0    0  0.50389066190E-01  0.26815339512E-01 -0.48062724696E-01  0.74621759902E-01  0.51100000000E-03 0. -1.
</event>
<event>
 8    1  0.1114333E+005  0.1043930E+01  0.7957747E-01            NaN
         13   -1    0    0    0    0  0.00000000000E+00  0.00000000000E+00  0.74505805969E-08  0.10566000000E+00  0.10566000000E+00 0.  1.
     999900   -1    0    0    0    0 -0.00000000000E+00 -0.00000000000E+00 -0.74505805969E-08  0.93827000000E+00  0.93827000000E+00 0.  1.
     999902    2    1    2    0    0  0.92054684958E-02  0.21411625369E-01 -0.63726707404E-02  0.10197678543E+01  0.10194815680E+01 0.  0.
     999903    2    3    3    0    0  0.12843754246E+00 -0.14875188400E-01 -0.78127443793E-02  0.13098492575E+00  0.19456059648E-01 0.  0.
         14    1    1    2    0    0 -0.92054684958E-02 -0.21411625369E-01  0.63726707404E-02  0.24162145673E-01  0.00000000000E+00 0.  1.
     999901    1    3    3    0    0 -0.11923207396E+00  0.36286813769E-01  0.14400736389E-02  0.88878292858E+00  0.88000000000E+00 0.  1.
        -11    1    4    4    0    0  0.75164340128E-01 -0.17334224215E-01 -0.88314074986E-02  0.77642824751E-01  0.51100000000E-03 0. -1.
         11    1    4    4    0    0  0.53273202329E-01  0.24590358144E-02  0.10186631193E-02  0.53342101000E-01  0.51100000000E-03 0.  1.
</event>
<event>
 8    1  0.1114333E+005  0.1043930E+01  0.7957747E-01            NaN
         13   -1    0    0    0    0  0.00000000000E+00  0.00000000000E+00  0.74505805969E-08  0.10566000000E+00  0.10566000000E+00 0.  1.
     999900   -1    0    0    0    0 -0.00000000000E+00 -0.00000000000E+00 -0.74505805969E-08  0.93827000000E+00  0.93827000000E+00 0. -1.
     999902    2    1    2    0    0  0.14345125579E-01  0.16901677544E-01  0.75731393943E-02  0.10205034814E+01  0.10202345583E+01 0.  0.
     999903    2    3    3    0    0 -0.93353096648E-01  0.32264765492E-02 -0.86551594490E-01  0.12885030687E+00  0.19647194869E-01 0.  0.
         14    1    1    2    0    0 -0.14345125579E-01 -0.16901677544E-01 -0.75731393943E-02  0.23426518562E-01  0.00000000000E+00 0. -1.
     999901    1    3    3    0    0  0.10769822223E+00  0.13675200995E-01  0.94124733884E-01  0.89165317457E+00  0.88000000000E+00 0.  1.
        -11    1    4    4    0    0 -0.82832948515E-01 -0.33588839458E-02 -0.77438989650E-01  0.11344442560E+00  0.51100000000E-03 0. -1.
         11    1    4    4    0    0 -0.10520148133E-01  0.65853604951E-02 -0.91126048397E-02  0.15405881265E-01  0.51100000000E-03 0.  1.
</event>
<event>
 8    1  0.1114333E+005  0.1043930E+01  0.7957747E-01            NaN
         13   -1    0    0    0    0  0.00000000000E+00  0.00000000000E+00  0.74505805969E-08  0.10566000000E+00  0.10566000000E+00 0.  1.
     999900   -1    0    0    0    0 -0.00000000000E+00 -0.00000000000E+00 -0.74505805969E-08  0.93827000000E+00  0.93827000000E+00 0. -1.
     999902    2    1    2    0    0 -0.20206146778E-01 -0.14612530293E-01  0.16311522666E-02  0.10189405009E+01  0.10186340212E+01 0.  0.
     999903    2    3    3    0    0  0.27233461124E-01  0.63944921877E-01  0.10582885458E+00  0.12805389144E+00  0.19168677934E-01 0.  0.
         14    1    1    2    0    0  0.20206146778E-01  0.14612530293E-01 -0.16311522666E-02  0.24989499132E-01  0.00000000000E+00 0.  1.
     999901    1    3    3    0    0 -0.47439607902E-01 -0.78557452170E-01 -0.10419770231E+00  0.89088660943E+00  0.88000000000E+00 0. -1.
        -11    1    4    4    0    0  0.28717676430E-01  0.47874985042E-01  0.78892346870E-01  0.96648759164E-01  0.51100000000E-03 0.  1.
         11    1    4    4    0    0 -0.14842153059E-02  0.16069936835E-01  0.26936507706E-01  0.31405132277E-01  0.51100000000E-03 0. -1.
</event>
<event>
 8    1  0.1114333E+005  0.1043930E+01  0.7957747E-01            NaN
         13   -1    0    0    0    0  0.00000000000E+00  0.00000000000E+00  0.74505805969E-08  0.10566000000E+00  0.10566000000E+00 0. -1.
     999900   -1    0    0    0    0 -0.00000000000E+00 -0.00000000000E+00 -0.74505805969E-08  0.93827000000E+00  0.93827000000E+00 0. -1.
     999902    2    1    2    0    0 -0.16965079553E-01  0.59515956934E-02 -0.14739030273E-01  0.10206818941E+01  0.10204170983E+01 0.  0.
     999903    2    3    3    0    0 -0.24213387604E-01  0.45348537539E-01  0.11748431680E+00  0.12990264505E+00  0.20720871122E-01 0.  0.
         14    1    1    2    0    0  0.16965079553E-01 -0.59515956934E-02  0.14739030273E-01  0.23248105921E-01  0.00000000000E+00 0.  1.
     999901    1    3    3    0    0  0.72483080509E-02 -0.39396941845E-01 -0.13222334707E+00  0.89077924903E+00  0.88000000000E+00 0. -1.
        -11    1    4    4    0    0 -0.25984043884E-01  0.30380616336E-01  0.78301606221E-01  0.87917888074E-01  0.51100000000E-03 0.  1.
         11    1    4    4    0    0  0.17706562803E-02  0.14967921203E-01  0.39182710578E-01  0.41984756973E-01  0.51100000000E-03 0. -1.
</event>
<event>
 8    1  0.1114333E+005  0.1043930E+01  0.7957747E-01            NaN
         13   -1    0    0    0    0  0.00000000000E+00  0.00000000000E+00  0.74505805969E-08  0.10566000000E+00  0.10566000000E+00 0.  1.
     999900   -1    0    0    0    0 -0.00000000000E+00 -0.00000000000E+00 -0.74505805969E-08  0.93827000000E+00  0.93827000000E+00 0. -1.
     999902    2    1    2    0    0  0.18767308291E-01  0.15599646193E-01  0.57291856596E-02  0.10188624036E+01  0.10185539814E+01 0.  0.
     999903    2    3    3    0    0 -0.88452087829E-01 -0.12727759043E-01 -0.87926979083E-01  0.12697120058E+00  0.20118758299E-01 0.  0.
         14    1    1    2    0    0 -0.18767308291E-01 -0.15599646193E-01 -0.57291856596E-02  0.25067596418E-01  0.00000000000E+00 0.  1.
     999901    1    3    3    0    0  0.10721939612E+00  0.28327405235E-01  0.93656164743E-01  0.89189120300E+00  0.88000000000E+00 0.  1.
        -11    1    4    4    0    0 -0.28626450868E-01  0.46819526723E-02 -0.23417265166E-01  0.37283022932E-01  0.51100000000E-03 0.  1.
         11    1    4    4    0    0 -0.59825636961E-01 -0.17409711715E-01 -0.64509713917E-01  0.89688177652E-01  0.51100000000E-03 0. -1.
</event>
<event>
 8    1  0.1114333E+005  0.1043930E+01  0.7957747E-01            NaN
         13   -1    0    0    0    0  0.00000000000E+00  0.00000000000E+00  0.74505805969E-08  0.10566000000E+00  0.10566000000E+00 0.  1.
     999900   -1    0    0    0    0 -0.00000000000E+00 -0.00000000000E+00 -0.74505805969E-08  0.93827000000E+00  0.93827000000E+00 0. -1.
     999902    2    1    2    0    0  0.13574426943E-01 -0.17468172807E-01  0.73079608942E-02  0.10206317507E+01  0.10203657982E+01 0.  0.
     999903    2    3    3    0    0  0.86167587475E-01  0.85273616469E-02 -0.96163277737E-01  0.13122080407E+00  0.21770493943E-01 0.  0.
         14    1    1    2    0    0 -0.13574426943E-01  0.17468172807E-01 -0.73079608942E-02  0.23298249301E-01  0.00000000000E+00 0. -1.
     999901    1    3    3    0    0 -0.72593160533E-01 -0.25995534454E-01  0.10347123863E+00  0.88941094663E+00  0.88000000000E+00 0.  1.
        -11    1    4    4    0    0  0.65957028542E-01  0.15714842012E-01 -0.74267023288E-01  0.10056409768E+00  0.51100000000E-03 0. -1.
         11    1    4    4    0    0  0.20210558933E-01 -0.71874803647E-02 -0.21896254449E-01  0.30656706383E-01  0.51100000000E-03 0.  1.
</event>
<event>
 8    1  0.1114333E+005  0.1043930E+01  0.7957747E-01            NaN
         13   -1    0    0    0    0  0.00000000000E+00  0.00000000000E+00  0.74505805969E-08  0.10566000000E+00  0.10566000000E+00 0.  1.
     999900   -1    0    0    0    0 -0.00000000000E+00 -0.00000000000E+00 -0.74505805969E-08  0.93827000000E+00  0.93827000000E+00 0. -1.
     999902    2    1    2    0    0 -0.14581658281E-01 -0.10252162375E-01 -0.15117395834E-01  0.10205576392E+01  0.10202899724E+01 0.  0.
     999903    2    3    3    0    0 -0.46839382334E-01  0.11578538278E+00  0.32206708695E-01  0.12973465208E+00  0.13914929490E-01 0.  0.
         14    1    1    2    0    0  0.14581658281E-01  0.10252162375E-01  0.15117395834E-01  0.23372360780E-01  0.00000000000E+00 0.  1.
     999901    1    3    3    0    0  0.32257724053E-01 -0.12603754515E+00 -0.47324104529E-01  0.89082298714E+00  0.88000000000E+00 0.  1.
        -11    1    4    4    0    0 -0.35331158159E-01  0.72215422619E-01  0.17028124270E-01  0.82180144427E-01  0.51100000000E-03 0. -1.
         11    1    4    4    0    0 -0.11508224175E-01  0.43569960159E-01  0.15178584425E-01  0.47554507652E-01  0.51100000000E-03 0.  1.
</event>
<event>
 8    1  0.1114333E+005  0.1043930E+01  0.7957747E-01            NaN
         13   -1    0    0    0    0  0.00000000000E+00  0.00000000000E+00  0.74505805969E-08  0.10566000000E+00  0.10566000000E+00 0.  1.
     999900   -1    0    0    0    0 -0.00000000000E+00 -0.00000000000E+00 -0.74505805969E-08  0.93827000000E+00  0.93827000000E+00 0.  1.
     999902    2    1    2    0    0 -0.30692450682E-02  0.21673952568E-01  0.25020785468E-02  0.10218972770E+01  0.10216597300E+01 0.  0.
     999903    2    3    3    0    0  0.22107264421E-01 -0.21363017692E-03 -0.12850712982E+00  0.13157355185E+00  0.17571008873E-01 0.  0.
         14    1    1    2    0    0  0.30692450682E-02 -0.21673952568E-01 -0.25020785468E-02  0.22032722988E-01  0.00000000000E+00 0. -1.
     999901    1    3    3    0    0 -0.25176509490E-01  0.21887582745E-01  0.13100920837E+00  0.89032372516E+00  0.88000000000E+00 0. -1.
        -11    1    4    4    0    0  0.17098463150E-01  0.54268333077E-03 -0.48987806541E-01  0.51891408326E-01  0.51100000000E-03 0.  1.
         11    1    4    4    0    0  0.50088012709E-02 -0.75631350769E-03 -0.79519323283E-01  0.79682143525E-01  0.51100000000E-03 0. -1.
</event>
<event>
 8    1  0.1114333E+005  0.1043930E+01  0.7957747E-01            NaN
         13   -1    0    0    0    0  0.00000000000E+00  0.00000000000E+00  0.74505805969E-08  0.10566000000E+00  0.10566000000E+00 0.  1.
     999900   -1    0    0    0    0 -0.00000000000E+00 -0.00000000000E+00 -0.74505805969E-08  0.93827000000E+00  0.93827000000E+00 0.  1.
     999902    2    1    2    0    0 -0.49183683964E-02  0.42814615604E-02 -0.22528010472E-01  0.10204772280E+01  0.10202076947E+01 0.  0.
     999903    2    3    3    0    0 -0.12357621467E+00  0.14868548633E-01  0.32391227779E-01  0.13075373516E+00  0.23562534917E-01 0.  0.
         14    1    1    2    0    0  0.49183683964E-02 -0.42814615604E-02  0.22528010472E-01  0.23452772045E-01  0.00000000000E+00 0.  1.
     999901    1    3    3    0    0  0.11865784627E+00 -0.10587087073E-01 -0.54919238250E-01  0.88972349279E+00  0.88000000000E+00 0.  1.
        -11    1    4    4    0    0 -0.28147713441E-01 -0.74297296874E-03 -0.17213974050E-02  0.28214714438E-01  0.51100000000E-03 0. -1.
         11    1    4    4    0    0 -0.95428501228E-01  0.15611521602E-01  0.34112625184E-01  0.10253902073E+00  0.51100000000E-03 0.  1.
</event>
<event>
 8    1  0.1114333E+005  0.1043930E+01  0.7957747E-01            NaN
         13   -1    0    0    0    0  0.00000000000E+00  0.00000000000E+00  0.74505805969E-08  0.10566000000E+00  0.10566000000E+00 0.  1.
     999900   -1    0    0    0    0 -0.00000000000E+00 -0.00000000000E+00 -0.74505805969E-08  0.93827000000E+00  0.93827000000E+00 0.  1.
     999902    2    1    2    0    0  0.58039051201E-02 -0.14623560290E-01 -0.18133877848E-01  0.10199222647E+01  0.10196396690E+01 0.  0.
     999903    2    3    3    0    0 -0.23936913350E-01  0.11990701164E+00 -0.36385829657E-01  0.12901479202E+00  0.19241119978E-01 0.  0.
         14    1    1    2    0    0 -0.58039051201E-02  0.14623560290E-01  0.18133877848E-01  0.24007735337E-01  0.00000000000E+00 0.  1.
     999901    1    3    3    0    0  0.29740818470E-01 -0.13453057193E+00  0.18251951809E-01  0.89090747264E+00  0.88000000000E+00 0. -1.
        -11    1    4    4    0    0 -0.78821053143E-02  0.24645323492E-01 -0.27986066229E-03  0.25881634362E-01  0.51100000000E-03 0. -1.
         11    1    4    4    0    0 -0.16054808035E-01  0.95261688151E-01 -0.36105968995E-01  0.10313315766E+00  0.51100000000E-03 0.  1.
</event>
<event>
 8    1  0.1114333E+005  0.1043930E+01  0.7957747E-01            NaN
         13   -1    0    0    0    0  0.00000000000E+00  0.00000000000E+00  0.74505805969E-08  0.10566000000E+00  0.10566000000E+00 0.  1.
     999900   -1    0    0    0    0 -0.00000000000E+00 -0.00000000000E+00 -0.74505805969E-08  0.93827000000E+00  0.93827000000E+00 0. -1.
     999902    2    1    2    0    0 -0.45199388750E-02  0.17580046618E-01  0.14957244068E-01  0.10204096463E+01  0.10201385393E+01 0.  0.
     999903    2    3    3    0    0 -0.69929812889E-01 -0.10652758071E+00  0.88359286235E-02  0.12927630879E+00  0.19899401938E-01 0.  0.
         14    1    1    2    0    0  0.45199388750E-02 -0.17580046618E-01 -0.14957244068E-01  0.23520353667E-01  0.00000000000E+00 0. -1.
     999901    1    3    3    0    0  0.65409874014E-01  0.12410762733E+00  0.61213154444E-02  0.89113333754E+00  0.88000000000E+00 0.  1.
        -11    1    4    4    0    0 -0.42459122136E-01 -0.53623471380E-01  0.12574481496E-01  0.69545901686E-01  0.51100000000E-03 0. -1.
         11    1    4    4    0    0 -0.27470690753E-01 -0.52904109328E-01 -0.37385528723E-02  0.59730407104E-01  0.51100000000E-03 0.  1.
</event>
<event>
 8    1  0.1114333E+005  0.1043930E+01  0.7957747E-01            NaN
         13   -1    0    0    0    0  0.00000000000E+00  0.00000000000E+00  0.74505805969E-08  0.10566000000E+00  0.10566000000E+00 0.  1.
     999900   -1    0    0    0    0 -0.00000000000E+00 -0.00000000000E+00 -0.74505805969E-08  0.93827000000E+00  0.93827000000E+00 0. -1.
     999902    2    1    2    0    0  0.11969134909E-02 -0.12056372926E-01  0.20604242485E-01  0.10200276248E+01  0.10197475334E+01 0.  0.
     999903    2    3    3    0    0  0.52356384484E-01 -0.11827827895E+00 -0.14189916417E-01  0.13148329939E+00  0.18856352305E-01 0.  0.
         14    1    1    2    0    0 -0.11969134909E-02  0.12056372926E-01 -0.20604242485E-01  0.23902375163E-01  0.00000000000E+00 0.  1.
     999901    1    3    3    0    0 -0.51159470993E-01  0.10622190603E+00  0.34794158903E-01  0.88854432545E+00  0.88000000000E+00 0. -1.
        -11    1    4    4    0    0  0.20854002313E-01 -0.54186441197E-01  0.25915901554E-02  0.58120885081E-01  0.51100000000E-03 0.  1.
         11    1    4    4    0    0  0.31502382171E-01 -0.64091837755E-01 -0.16781506573E-01  0.73362414308E-01  0.51100000000E-03 0. -1.
</event>
<event>
 8    1  0.1114333E+005  0.1043930E+01  0.7957747E-01            NaN
         13   -1    0    0    0    0  0.00000000000E+00  0.00000000000E+00  0.74505805969E-08  0.10566000000E+00  0.10566000000E+00 0.  1.
     999900   -1    0    0    0    0 -0.00000000000E+00 -0.00000000000E+00 -0.74505805969E-08  0.93827000000E+00  0.93827000000E+00 0.  1.
     999902    2    1    2    0    0 -0.11191075010E-01  0.18846475563E-01  0.10056011140E-01  0.10198145866E+01  0.10195294199E+01 0.  0.
     999903    2    3    3    0    0 -0.18802819357E-01 -0.12436672645E+00  0.13954902923E-01  0.12819630440E+00  0.20467644756E-01 0.  0.
         14    1    1    2    0    0  0.11191075010E-01 -0.18846475563E-01 -0.10056011140E-01  0.24115413351E-01  0.00000000000E+00 0. -1.
     999901    1    3    3    0    0  0.76117443478E-02  0.14321320202E+00 -0.38988917833E-02  0.89161828225E+00  0.88000000000E+00 0.  1.
        -11    1    4    4    0    0 -0.37973593833E-02 -0.74717227851E-01  0.15052748033E-01  0.76314680241E-01  0.51100000000E-03 0. -1.
         11    1    4    4    0    0 -0.15005459974E-01 -0.49649498602E-01 -0.10978451095E-02  0.51881624159E-01  0.51100000000E-03 0.  1.
</event>
<event>
 8    1  0.1114333E+005  0.1043930E+01  0.7957747E-01            NaN
         13   -1    0    0    0    0  0.00000000000E+00  0.00000000000E+00  0.74505805969E-08  0.10566000000E+00  0.10566000000E+00 0. -1.
     999900   -1    0    0    0    0 -0.00000000000E+00 -0.00000000000E+00 -0.74505805969E-08  0.93827000000E+00  0.93827000000E+00 0.  1.
     999902    2    1    2    0    0  0.13736578181E-01  0.12833350604E-02 -0.17269142718E-01  0.10218265202E+01  0.10215874283E+01 0.  0.
     999903    2    3    3    0    0 -0.72505189196E-02  0.10029931417E+00 -0.85332943026E-01  0.13341372016E+00  0.20124291619E-01 0.  0.
         14    1    1    2    0    0 -0.13736578181E-01 -0.12833350604E-02  0.17269142718E-01  0.22103479799E-01  0.00000000000E+00 0. -1.
     999901    1    3    3    0    0  0.20987097100E-01 -0.99015979114E-01  0.68063800307E-01  0.88841280004E+00  0.88000000000E+00 0. -1.
        -11    1    4    4    0    0 -0.52097931711E-02  0.29297874074E-01 -0.37057465506E-01  0.47529193564E-01  0.51100000000E-03 0. -1.
         11    1    4    4    0    0 -0.20407257485E-02  0.71001440100E-01 -0.48275477520E-01  0.85884526596E-01  0.51100000000E-03 0.  1.
</event>
<event>
 8    1  0.1114333E+005  0.1043930E+01  0.7957747E-01            NaN
         13   -1    0    0    0    0  0.00000000000E+00  0.00000000000E+00  0.74505805969E-08  0.10566000000E+00  0.10566000000E+00 0. -1.
     999900   -1    0    0    0    0 -0.00000000000E+00 -0.00000000000E+00 -0.74505805969E-08  0.93827000000E+00  0.93827000000E+00 0.  1.
     999902    2    1    2    0    0 -0.15941904265E-02  0.13189900372E-02  0.23349963919E-01  0.10204885412E+01  0.10202192709E+01 0.  0.
     999903    2    3    3    0    0 -0.94340176145E-01 -0.43420264471E-01 -0.74279990033E-01  0.12912159838E+00  0.19221915804E-01 0.  0.
         14    1    1    2    0    0  0.15941904265E-02 -0.13189900372E-02 -0.23349963919E-01  0.23441458847E-01  0.00000000000E+00 0.  1.
     999901    1    3    3    0    0  0.92745985718E-01  0.44739254508E-01  0.97629953952E-01  0.89136694277E+00  0.88000000000E+00 0.  1.
        -11    1    4    4    0    0 -0.82079649101E-01 -0.40888939534E-01 -0.71513643975E-01  0.11629031158E+00  0.51100000000E-03 0. -1.
         11    1    4    4    0    0 -0.12260527043E-01 -0.25313249364E-02 -0.27663460583E-02  0.12831286796E-01  0.51100000000E-03 0.  1.
</event>
<event>
 8    1  0.1114333E+005  0.1043930E+01  0.7957747E-01            NaN
         13   -1    0    0    0    0  0.00000000000E+00  0.00000000000E+00  0.74505805969E-08  0.10566000000E+00  0.10566000000E+00 0.  1.
     999900   -1    0    0    0    0 -0.00000000000E+00 -0.00000000000E+00 -0.74505805969E-08  0.93827000000E+00  0.93827000000E+00 0.  1.
     999902    2    1    2    0    0  0.33978428378E-02  0.22064515390E-01  0.70927587038E-02  0.10205057518E+01  0.10202368814E+01 0.  0.
     999903    2    3    3    0    0 -0.31902322753E-01  0.12271014514E+00 -0.34641356779E-01  0.13308399143E+00  0.20875518159E-01 0.  0.
         14    1    1    2    0    0 -0.33978428378E-02 -0.22064515390E-01 -0.70927587038E-02  0.23424248150E-01  0.00000000000E+00 0. -1.
     999901    1    3    3    0    0  0.35300165591E-01 -0.10064562974E+00  0.41734115483E-01  0.88742176042E+00  0.88000000000E+00 0. -1.
        -11    1    4    4    0    0 -0.22147292178E-01  0.45351871428E-01 -0.11793274681E-01  0.51832781534E-01  0.51100000000E-03 0. -1.
         11    1    4    4    0    0 -0.97550305750E-02  0.77358273707E-01 -0.22848082098E-01  0.81251209892E-01  0.51100000000E-03 0.  1.
</event>
<event>
 8    1  0.1114333E+005  0.1043930E+01  0.7957747E-01            NaN
         13   -1    0    0    0    0  0.00000000000E+00  0.00000000000E+00  0.74505805969E-08  0.10566000000E+00  0.10566000000E+00 0.  1.
     999900   -1    0    0    0    0 -0.00000000000E+00 -0.00000000000E+00 -0.74505805969E-08  0.93827000000E+00  0.93827000000E+00 0.  1.
     999902    2    1    2    0    0  0.74397908101E-03  0.23666275821E-01  0.29930410134E-02  0.10200636134E+01  0.10197843747E+01 0.  0.
     999903    2    3    3    0    0 -0.75607838662E-01 -0.99311985400E-01 -0.19770876836E-01  0.12794733801E+00  0.20005449824E-01 0.  0.
         14    1    1    2    0    0 -0.74397908101E-03 -0.23666275821E-01 -0.29930410134E-02  0.23866386627E-01  0.00000000000E+00 0. -1.
     999901    1    3    3    0    0  0.76351817743E-01  0.12297826122E+00  0.22763917850E-01  0.89211627536E+00  0.88000000000E+00 0.  1.
        -11    1    4    4    0    0 -0.18164490381E-01 -0.39266346591E-01 -0.51678456719E-02  0.43574791282E-01  0.51100000000E-03 0. -1.
         11    1    4    4    0    0 -0.57443348281E-01 -0.60045638808E-01 -0.14603031165E-01  0.84372546731E-01  0.51100000000E-03 0.  1.
</event>
<event>
 8    1  0.1114333E+005  0.1043930E+01  0.7957747E-01            NaN
         13   -1    0    0    0    0  0.00000000000E+00  0.00000000000E+00  0.74505805969E-08  0.10566000000E+00  0.10566000000E+00 0.  1.
     999900   -1    0    0    0    0 -0.00000000000E+00 -0.00000000000E+00 -0.74505805969E-08  0.93827000000E+00  0.93827000000E+00 0.  1.
     999902    2    1    2    0    0  0.14983620063E-01  0.67093090736E-02  0.17470375228E-01  0.10199563122E+01  0.10196745270E+01 0.  0.
     999903    2    3    3    0    0  0.61249894223E-01  0.19269893808E-02 -0.11192337552E+00  0.12927893990E+00  0.20759081965E-01 0.  0.
         14    1    1    2    0    0 -0.14983620063E-01 -0.67093090736E-02 -0.17470375228E-01  0.23973687848E-01  0.00000000000E+00 0. -1.
     999901    1    3    3    0    0 -0.46266274159E-01  0.47823196928E-02  0.12939375075E+00  0.89067737225E+00  0.88000000000E+00 0. -1.
        -11    1    4    4    0    0  0.15017158067E-01 -0.85242152689E-02 -0.31453498196E-01  0.35885386331E-01  0.51100000000E-03 0. -1.
         11    1    4    4    0    0  0.46232736155E-01  0.10451204650E-01 -0.80469877324E-01  0.93393553571E-01  0.51100000000E-03 0.  1.
</event>
<event>
 8    1  0.1114333E+005  0.1043930E+01  0.7957747E-01            NaN
         13   -1    0    0    0    0  0.00000000000E+00  0.00000000000E+00  0.74505805969E-08  0.10566000000E+00  0.10566000000E+00 0. -1.
     999900   -1    0    0    0    0 -0.00000000000E+00 -0.00000000000E+00 -0.74505805969E-08  0.93827000000E+00  0.93827000000E+00 0. -1.
     999902    2    1    2    0    0 -0.16307588609E-01 -0.17857868443E-02 -0.19452242682E-01  0.10184836599E+01  0.10181657278E+01 0.  0.
     999903    2    3    3    0    0 -0.34809398242E-01 -0.80161906532E-01 -0.95509468241E-01  0.13153956092E+00  0.23301761691E-01 0.  0.
         14    1    1    2    0    0  0.16307588609E-01  0.17857868443E-02  0.19452242682E-01  0.25446340135E-01  0.00000000000E+00 0. -1.
     999901    1    3    3    0    0  0.18501809633E-01  0.78376119688E-01  0.76057225559E-01  0.88694409895E+00  0.88000000000E+00 0. -1.
        -11    1    4    4    0    0 -0.16489370613E-01 -0.36402836184E-01 -0.27095022829E-01  0.48285269063E-01  0.51100000000E-03 0.  1.
         11    1    4    4    0    0 -0.18320027629E-01 -0.43759070349E-01 -0.68414445413E-01  0.83254291855E-01  0.51100000000E-03 0. -1.
</event>
<event>
 8    1  0.1114333E+005  0.1043930E+01  0.7957747E-01            NaN
         13   -1    0    0    0    0  0.00000000000E+00  0.00000000000E+00  0.74505805969E-08  0.10566000000E+00  0.10566000000E+00 0. -1.
     999900   -1    0    0    0    0 -0.00000000000E+00 -0.00000000000E+00 -0.74505805969E-08  0.93827000000E+00  0.93827000000E+00 0. -1.
     999902    2    1    2    0    0 -0.40216419165E-02 -0.94616322241E-02 -0.21156221792E-01  0.10204080569E+01  0.10201369127E+01 0.  0.
     999903    2    3    3    0    0 -0.49665077563E-01 -0.23348814982E-01  0.11462256077E+00  0.12871749684E+00  0.20446893742E-01 0.  0.
         14    1    1    2    0    0  0.40216419165E-02  0.94616322241E-02  0.21156221792E-01  0.23521943129E-01  0.00000000000E+00 0. -1.
     999901    1    3    3    0    0  0.45643435647E-01  0.13887182758E-01 -0.13577878256E+00  0.89169056004E+00  0.88000000000E+00 0. -1.
        -11    1    4    4    0    0 -0.27543413112E-01 -0.46722878025E-02  0.71593490892E-01  0.76852839494E-01  0.51100000000E-03 0.  1.
         11    1    4    4    0    0 -0.22121664452E-01 -0.18676527180E-01  0.43029069878E-01  0.51864657342E-01  0.51100000000E-03 0. -1.
</event>
<event>
 8    1  0.1114333E+005  0.1043930E+01  0.7957747E-01            NaN
         13   -1    0    0    0    0  0.00000000000E+00  0.00000000000E+00  0.74505805969E-08  0.10566000000E+00  0.10566000000E+00 0.  1.
     999900   -1    0    0    0    0 -0.00000000000E+00 -0.00000000000E+00 -0.74505805969E-08  0.93827000000E+00  0.93827000000E+00 0. -1.
     999902    2    1    2    0    0 -0.10233678084E-01 -0.54792024810E-02  0.20548483221E-01  0.10203293646E+01  0.10200563819E+01 0.  0.
     999903    2    3    3    0    0 -0.75983611142E-01  0.58999604213E-01  0.89474405313E-01  0.13284339125E+00  0.19678285863E-01 0.  0.
         14    1    1    2    0    0  0.10233678084E-01  0.54792024810E-02 -0.20548483221E-01  0.23600635366E-01  0.00000000000E+00 0. -1.
     999901    1    3    3    0    0  0.65749933058E-01 -0.64478806694E-01 -0.68925922091E-01  0.88748597338E+00  0.88000000000E+00 0. -1.
        -11    1    4    4    0    0 -0.44509697798E-01  0.34206977052E-01  0.38802202544E-01  0.68242966820E-01  0.51100000000E-03 0.  1.
         11    1    4    4    0    0 -0.31473913344E-01  0.24792627160E-01  0.50672202768E-01  0.64600424434E-01  0.51100000000E-03 0. -1.
</event>
<event>
 8    1  0.1114333E+005  0.1043930E+01  0.7957747E-01            NaN
         13   -1    0    0    0    0  0.00000000000E+00  0.00000000000E+00  0.74505805969E-08  0.10566000000E+00  0.10566000000E+00 0. -1.
     999900   -1    0    0    0    0 -0.00000000000E+00 -0.00000000000E+00 -0.74505805969E-08  0.93827000000E+00  0.93827000000E+00 0.  1.
     999902    2    1    2    0    0  0.13846675397E-01 -0.19331444368E-01 -0.12637552656E-03  0.10201507836E+01  0.10198736050E+01 0.  0.
     999903    2    3    3    0    0  0.10929895092E+00 -0.50479282247E-01  0.52705703607E-01  0.13286697711E+00  0.19527514057E-01 0.  0.
         14    1    1    2    0    0 -0.13846675397E-01  0.19331444368E-01  0.12637552656E-03  0.23779216380E-01  0.00000000000E+00 0.  1.
     999901    1    3    3    0    0 -0.95452275524E-01  0.31147837879E-01 -0.52832079134E-01  0.88728380651E+00  0.88000000000E+00 0.  1.
        -11    1    4    4    0    0  0.88716229006E-01 -0.43547004046E-01  0.35008750007E-01  0.10484648086E+00  0.51100000000E-03 0.  1.
         11    1    4    4    0    0  0.20582721915E-01 -0.69322782014E-02  0.17696953600E-01  0.28020496252E-01  0.51100000000E-03 0. -1.
</event>
<event>
 8    1  0.1114333E+005  0.1043930E+01  0.7957747E-01            NaN
         13   -1    0    0    0    0  0.00000000000E+00  0.00000000000E+00  0.74505805969E-08  0.10566000000E+00  0.10566000000E+00 0. -1.
     999900   -1    0    0    0    0 -0.00000000000E+00 -0.00000000000E+00 -0.74505805969E-08  0.93827000000E+00  0.93827000000E+00 0.  1.
     999902    2    1    2    0    0  0.51582530681E-02 -0.23132611728E-01 -0.20055274720E-02  0.10201445540E+01  0.10198672284E+01 0.  0.
     999903    2    3    3    0    0  0.31073768092E-01  0.12058916942E+00 -0.19997521975E-01  0.12792749738E+00  0.21406000466E-01 0.  0.
         14    1    1    2    0    0 -0.51582530681E-02  0.23132611728E-01  0.20055274720E-02  0.23785445981E-01  0.00000000000E+00 0. -1.
     999901    1    3    3    0    0 -0.25915515024E-01 -0.14372178115E+00  0.17991994503E-01  0.89221705664E+00  0.88000000000E+00 0. -1.
        -11    1    4    4    0    0  0.14291770437E-01  0.91540916078E-01 -0.11896127053E-01  0.93411846028E-01  0.51100000000E-03 0. -1.
         11    1    4    4    0    0  0.16781997655E-01  0.29048253340E-01 -0.81013949223E-02  0.34515651350E-01  0.51100000000E-03 0.  1.
</event>
<event>
 8    1  0.1114333E+005  0.1043930E+01  0.7957747E-01            NaN
         13   -1    0    0    0    0  0.00000000000E+00  0.00000000000E+00  0.74505805969E-08  0.10566000000E+00  0.10566000000E+00 0. -1.
     999900   -1    0    0    0    0 -0.00000000000E+00 -0.00000000000E+00 -0.74505805969E-08  0.93827000000E+00  0.93827000000E+00 0. -1.
     999902    2    1    2    0    0  0.16494404724E-01  0.15961222343E-01 -0.30944623992E-02  0.10207696523E+01  0.10205068748E+01 0.  0.
     999903    2    3    3    0    0  0.83576563840E-01  0.78773929909E-01 -0.65390189289E-01  0.13379377337E+00  0.20845212395E-01 0.  0.
         14    1    1    2    0    0 -0.16494404724E-01 -0.15961222343E-01  0.30944623992E-02  0.23160347654E-01  0.00000000000E+00 0. -1.
     999901    1    3    3    0    0 -0.67082159115E-01 -0.62812707565E-01  0.62295726890E-01  0.88697587898E+00  0.88000000000E+00 0.  1.
        -11    1    4    4    0    0  0.71598468780E-01  0.69702343288E-01 -0.48155768474E-01  0.11092338144E+00  0.51100000000E-03 0.  1.
         11    1    4    4    0    0  0.11978095059E-01  0.90715866205E-02 -0.17234420815E-01  0.22870391927E-01  0.51100000000E-03 0. -1.
</event>
<event>
 8    1  0.1114333E+005  0.1043930E+01  0.7957747E-01            NaN
         13   -1    0    0    0    0  0.00000000000E+00  0.00000000000E+00  0.74505805969E-08  0.10566000000E+00  0.10566000000E+00 0.  1.
     999900   -1    0    0    0    0 -0.00000000000E+00 -0.00000000000E+00 -0.74505805969E-08  0.93827000000E+00  0.93827000000E+00 0. -1.
     999902    2    1    2    0    0 -0.67872848610E-02  0.27644418209E-01  0.13608439801E-01  0.10123789188E+01  0.10118871500E+01 0.  0.
     999903    2    3    3    0    0 -0.50418990984E-01  0.11413028051E+00 -0.96706061047E-02  0.12675741713E+00  0.20152582826E-01 0.  0.
         14    1    1    2    0    0  0.67872848610E-02 -0.27644418209E-01 -0.13608439801E-01  0.31551081245E-01  0.00000000000E+00 0. -1.
     999901    1    3    3    0    0  0.43631706123E-01 -0.86485862302E-01  0.23279045906E-01  0.88562150162E+00  0.88000000000E+00 0.  1.
        -11    1    4    4    0    0 -0.25229053211E-01  0.72600305597E-01 -0.13477630270E-01  0.78033436022E-01  0.51100000000E-03 0.  1.
         11    1    4    4    0    0 -0.25189937773E-01  0.41529974913E-01  0.38070241649E-02  0.48723981111E-01  0.51100000000E-03 0. -1.
</event>
<event>
 8    1  0.1114333E+005  0.1043930E+01  0.7957747E-01            NaN
         13   -1    0    0    0    0  0.00000000000E+00  0.00000000000E+00  0.74505805969E-08  0.10566000000E+00  0.10566000000E+00 0. -1.
     999900   -1    0    0    0    0 -0.00000000000E+00 -0.00000000000E+00 -0.74505805969E-08  0.93827000000E+00  0.93827000000E+00 0.  1.
     999902    2    1    2    0    0  0.10348149385E-02  0.17837714711E-01 -0.15674500822E-01  0.10201614308E+01  0.10198845032E+01 0.  0.
     999903    2    3    3    0    0 -0.47983232211E-01 -0.21489505772E-02  0.11799867940E+00  0.12849402928E+00  0.16733758033E-01 0.  0.
         14    1    1    2    0    0 -0.10348149385E-02 -0.17837714711E-01  0.15674500822E-01  0.23768569248E-01  0.00000000000E+00 0.  1.
     999901    1    3    3    0    0  0.49018047149E-01  0.19986665288E-01 -0.13367318023E+00  0.89166740147E+00  0.88000000000E+00 0. -1.
        -11    1    4    4    0    0 -0.22019032195E-01  0.70086450345E-02  0.48037673676E-01  0.53308893228E-01  0.51100000000E-03 0.  1.
         11    1    4    4    0    0 -0.25964200016E-01 -0.91575956117E-02  0.69961005728E-01  0.75185136053E-01  0.51100000000E-03 0. -1.
</event>
<event>
 8    1  0.1121246E+005  0.1043930E+01  0.7957747E-01            NaN
         13   -1    0    0    0    0  0.00000000000E+00  0.00000000000E+00  0.74505805969E-08  0.10566000000E+00  0.10566000000E+00 0.  1.
     999900   -1    0    0    0    0 -0.00000000000E+00 -0.00000000000E+00 -0.74505805969E-08  0.93827000000E+00  0.93827000000E+00 0.  1.
     999902    2    1    2    0    0  0.23170829821E-01  0.86126367232E-03  0.14236896448E-02  0.10206995023E+01  0.10204351121E+01 0.  0.
     999903    2    3    3    0    0  0.91111023504E-01 -0.32894993156E-01 -0.88678709876E-01  0.13285165659E+00  0.20058661322E-01 0.  0.
         14    1    1    2    0    0 -0.23170829821E-01 -0.86126367232E-03 -0.14236896448E-02  0.23230497668E-01  0.00000000000E+00 0. -1.
     999901    1    3    3    0    0 -0.67940193683E-01  0.33756256829E-01  0.90102399521E-01  0.88784784574E+00  0.88000000000E+00 0. -1.
        -11    1    4    4    0    0  0.52122687806E-01 -0.24045580702E-01 -0.40551929229E-01  0.70282889957E-01  0.51100000000E-03 0.  1.
         11    1    4    4    0    0  0.38988335697E-01 -0.88494124545E-02 -0.48126780647E-01  0.62568766631E-01  0.51100000000E-03 0. -1.
</event>
<event>
 8    1  0.1114333E+005  0.1043930E+01  0.7957747E-01            NaN
         13   -1    0    0    0    0  0.00000000000E+00  0.00000000000E+00  0.74505805969E-08  0.10566000000E+00  0.10566000000E+00 0.  1.
     999900   -1    0    0    0    0 -0.00000000000E+00 -0.00000000000E+00 -0.74505805969E-08  0.93827000000E+00  0.93827000000E+00 0.  1.
     999902    2    1    2    0    0  0.23504666695E-01  0.23167737871E-02 -0.27324878867E-03  0.10203098505E+01  0.10200364109E+01 0.  0.
     999903    2    3    3    0    0 -0.20038686552E-01  0.12598980830E+00  0.18501093588E-01  0.13039776552E+00  0.19654669512E-01 0.  0.
         14    1    1    2    0    0 -0.23504666695E-01 -0.23167737871E-02  0.27324878867E-03  0.23620149494E-01  0.00000000000E+00 0.  1.
     999901    1    3    3    0    0  0.43543353247E-01 -0.12367303451E+00 -0.18774342376E-01  0.88991208499E+00  0.88000000000E+00 0.  1.
        -11    1    4    4    0    0 -0.70842794185E-02  0.97355618635E-01  0.12748770081E-01  0.98443363180E-01  0.51100000000E-03 0.  1.
         11    1    4    4    0    0 -0.12954407133E-01  0.28634189665E-01  0.57523235072E-02  0.31954402337E-01  0.51100000000E-03 0. -1.
</event>
<event>
 8    1  0.1114333E+005  0.1043930E+01  0.7957747E-01            NaN
         13   -1    0    0    0    0  0.00000000000E+00  0.00000000000E+00  0.74505805969E-08  0.10566000000E+00  0.10566000000E+00 0.  1.
     999900   -1    0    0    0    0 -0.00000000000E+00 -0.00000000000E+00 -0.74505805969E-08  0.93827000000E+00  0.93827000000E+00 0.  1.
     999902    2    1    2    0    0 -0.46662401136E-03  0.22511734148E-01 -0.19855752912E-02  0.10213260530E+01  0.10210758875E+01 0.  0.
     999903    2    3    3    0    0  0.17850735013E-01  0.11392304625E+00 -0.65145769247E-01  0.13415032983E+00  0.21336132160E-01 0.  0.
         14    1    1    2    0    0  0.46662401136E-03 -0.22511734148E-01  0.19855752912E-02  0.22603947035E-01  0.00000000000E+00 0.  1.
     999901    1    3    3    0    0 -0.18317359025E-01 -0.91411312100E-01  0.63160193956E-01  0.88717572314E+00  0.88000000000E+00 0.  1.
        -11    1    4    4    0    0  0.51657497816E-02  0.63853573738E-02 -0.89290667598E-02  0.12142780316E-01  0.51100000000E-03 0.  1.
         11    1    4    4    0    0  0.12684985232E-01  0.10753768887E+00 -0.56216702487E-01  0.12200754951E+00  0.51100000000E-03 0. -1.
</event>
<event>
 8    1  0.1114333E+005  0.1043930E+01  0.7957747E-01            NaN
         13   -1    0    0    0    0  0.00000000000E+00  0.00000000000E+00  0.74505805969E-08  0.10566000000E+00  0.10566000000E+00 0.  1.
     999900   -1    0    0    0    0 -0.00000000000E+00 -0.00000000000E+00 -0.74505805969E-08  0.93827000000E+00  0.93827000000E+00 0. -1.
     999902    2    1    2    0    0  0.15291959168E-01 -0.14099326902E-02 -0.18048118348E-01  0.10202326056E+01  0.10199573535E+01 0.  0.
     999903    2    3    3    0    0 -0.64230992986E-01 -0.10707746021E+00  0.26650083253E-01  0.12922898298E+00  0.19967477601E-01 0.  0.
         14    1    1    2    0    0 -0.15291959168E-01  0.14099326902E-02  0.18048118348E-01  0.23697394399E-01  0.00000000000E+00 0.  1.
     999901    1    3    3    0    0  0.79522952154E-01  0.10566752752E+00 -0.44698201601E-01  0.89100362262E+00  0.88000000000E+00 0. -1.
        -11    1    4    4    0    0 -0.75698209531E-02 -0.26707609009E-01  0.98973422307E-02  0.29475703087E-01  0.51100000000E-03 0.  1.
         11    1    4    4    0    0 -0.56661172033E-01 -0.80369851196E-01  0.16752741022E-01  0.99753279897E-01  0.51100000000E-03 0. -1.
</event>
<event>
 8    1  0.1114333E+005  0.1043930E+01  0.7957747E-01            NaN
         13   -1    0    0    0    0  0.00000000000E+00  0.00000000000E+00  0.74505805969E-08  0.10566000000E+00  0.10566000000E+00 0. -1.
     999900   -1    0    0    0    0 -0.00000000000E+00 -0.00000000000E+00 -0.74505805969E-08  0.93827000000E+00  0.93827000000E+00 0.  1.
     999902    2    1    2    0    0  0.13135183388E-01 -0.12475562903E-01 -0.15734729931E-01  0.10199351164E+01  0.10196528268E+01 0.  0.
     999903    2    3    3    0    0 -0.53200264737E-01  0.10744330415E+00  0.38568601639E-01  0.12767406819E+00  0.20947526874E-01 0.  0.
         14    1    1    2    0    0 -0.13135183388E-01  0.12475562903E-01  0.15734729931E-01  0.23994883587E-01  0.00000000000E+00 0.  1.
     999901    1    3    3    0    0  0.66335448125E-01 -0.11991886705E+00 -0.54303331570E-01  0.89226104822E+00  0.88000000000E+00 0.  1.
        -11    1    4    4    0    0 -0.67321944118E-02  0.28933248536E-01  0.15768353429E-01  0.33635656725E-01  0.51100000000E-03 0. -1.
         11    1    4    4    0    0 -0.46468070325E-01  0.78510055611E-01  0.22800248210E-01  0.94038411467E-01  0.51100000000E-03 0.  1.
</event>
<event>
 8    1  0.1114333E+005  0.1043930E+01  0.7957747E-01            NaN
         13   -1    0    0    0    0  0.00000000000E+00  0.00000000000E+00  0.74505805969E-08  0.10566000000E+00  0.10566000000E+00 0.  1.
     999900   -1    0    0    0    0 -0.00000000000E+00 -0.00000000000E+00 -0.74505805969E-08  0.93827000000E+00  0.93827000000E+00 0. -1.
     999902    2    1    2    0    0 -0.33838381288E-02 -0.16477663945E-01 -0.18793508241E-01  0.10187077931E+01  0.10183955067E+01 0.  0.
     999903    2    3    3    0    0  0.98864750943E-01 -0.49344315357E-01 -0.67527681004E-01  0.13083955380E+00  0.18705632823E-01 0.  0.
         14    1    1    2    0    0  0.33838381288E-02  0.16477663945E-01  0.18793508241E-01  0.25222206913E-01  0.00000000000E+00 0.  1.
     999901    1    3    3    0    0 -0.10224858907E+00  0.32866651412E-01  0.48734172763E-01  0.88786823929E+00  0.88000000000E+00 0.  1.
        -11    1    4    4    0    0  0.42392251162E-01 -0.15927112693E-01 -0.18478310254E-01  0.48913034543E-01  0.51100000000E-03 0.  1.
         11    1    4    4    0    0  0.56472499781E-01 -0.33417202664E-01 -0.49049370750E-01  0.81926519256E-01  0.51100000000E-03 0. -1.
</event>
<event>
 8    1  0.1114333E+005  0.1043930E+01  0.7957747E-01            NaN
         13   -1    0    0    0    0  0.00000000000E+00  0.00000000000E+00  0.74505805969E-08  0.10566000000E+00  0.10566000000E+00 0. -1.
     999900   -1    0    0    0    0 -0.00000000000E+00 -0.00000000000E+00 -0.74505805969E-08  0.93827000000E+00  0.93827000000E+00 0.  1.
     999902    2    1    2    0    0  0.81842979770E-02  0.20834934409E-01  0.88027042832E-02  0.10198766254E+01  0.10195929415E+01 0.  0.
     999903    2    3    3    0    0  0.43507163204E-01 -0.89321309075E-01  0.80460493164E-01  0.12941778782E+00  0.20097346548E-01 0.  0.
         14    1    1    2    0    0 -0.81842979770E-02 -0.20834934409E-01 -0.88027042832E-02  0.24053374564E-01  0.00000000000E+00 0.  1.
     999901    1    3    3    0    0 -0.35322865227E-01  0.11015624348E+00 -0.71657788881E-01  0.89045883762E+00  0.88000000000E+00 0.  1.
        -11    1    4    4    0    0  0.40514444898E-01 -0.70274177725E-01  0.57495337718E-01  0.99427638414E-01  0.51100000000E-03 0.  1.
         11    1    4    4    0    0  0.29927183057E-02 -0.19047131351E-01  0.22965155447E-01  0.29990149403E-01  0.51100000000E-03 0. -1.
</event>
<event>
 8    1  0.1114333E+005  0.1043930E+01  0.7957747E-01            NaN
         13   -1    0    0    0    0  0.00000000000E+00  0.00000000000E+00  0.74505805969E-08  0.10566000000E+00  0.10566000000E+00 0. -1.
     999900   -1    0    0    0    0 -0.00000000000E+00 -0.00000000000E+00 -0.74505805969E-08  0.93827000000E+00  0.93827000000E+00 0. -1.
     999902    2    1    2    0    0 -0.22504685631E-02  0.11806397002E-01 -0.99934990352E-02  0.10282990806E+01  0.10281802729E+01 0.  0.
     999903    2    3    3    0    0  0.64275121231E-01  0.10311154527E+00 -0.63841085814E-01  0.13944484799E+00  0.24615024176E-01 0.  0.
         14    1    1    2    0    0  0.22504685631E-02 -0.11806397002E-01  0.99934990352E-02  0.15630919420E-01  0.00000000000E+00 0.  1.
     999901    1    3    3    0    0 -0.66525589794E-01 -0.91305148266E-01  0.53847586778E-01  0.88885423259E+00  0.88000000000E+00 0.  1.
        -11    1    4    4    0    0  0.47509422880E-01  0.66806100448E-01 -0.30816973885E-01  0.87579377252E-01  0.51100000000E-03 0.  1.
         11    1    4    4    0    0  0.16765698351E-01  0.36305444821E-01 -0.33024111929E-01  0.51865470735E-01  0.51100000000E-03 0. -1.
</event>
<event>
 8    1  0.1114333E+005  0.1043930E+01  0.7957747E-01            NaN
         13   -1    0    0    0    0  0.00000000000E+00  0.00000000000E+00  0.74505805969E-08  0.10566000000E+00  0.10566000000E+00 0. -1.
     999900   -1    0    0    0    0 -0.00000000000E+00 -0.00000000000E+00 -0.74505805969E-08  0.93827000000E+00  0.93827000000E+00 0.  1.
     999902    2    1    2    0    0 -0.20713496705E-01  0.10763695576E-01  0.82583717599E-03  0.10205721727E+01  0.10203048425E+01 0.  0.
     999903    2    3    3    0    0  0.10729741885E+00  0.64974980731E-01  0.24510704828E-01  0.12934457502E+00  0.19868573794E-01 0.  0.
         14    1    1    2    0    0  0.20713496705E-01 -0.10763695576E-01 -0.82583717599E-03  0.23357827280E-01  0.00000000000E+00 0. -1.
     999901    1    3    3    0    0 -0.12801091555E+00 -0.54211285155E-01 -0.23684867652E-01  0.89122759770E+00  0.88000000000E+00 0. -1.
        -11    1    4    4    0    0  0.59091700264E-01  0.44968167831E-01  0.20285625195E-01  0.76978781938E-01  0.51100000000E-03 0.  1.
         11    1    4    4    0    0  0.48205718584E-01  0.20006812901E-01  0.42250796326E-02  0.52365793086E-01  0.51100000000E-03 0. -1.
</event>
<event>
 7    1  0.1114333E+005  0.1043930E+01  0.7957747E-01            NaN
         13   -1    0    0    0    0  0.00000000000E+00  0.00000000000E+00  0.74505805969E-08  0.10566000000E+00  0.10566000000E+00 0. -1.
     999900   -1    0    0    0    0 -0.00000000000E+00 -0.00000000000E+00 -0.74505805969E-08  0.93827000000E+00  0.93827000000E+00 0.  1.
     999902    2    1    2    0    0 -0.22812537768E-01 -0.37630540730E-02 -0.97558824841E-02  0.10188351858E+01  0.10185260852E+01 0.  0.
         14    1    1    2    0    0  0.22812537768E-01  0.37630540730E-02  0.97558824841E-02  0.25094814174E-01  0.00000000000E+00 0. -1.
     999901    1    3    3    0    0 -0.12629961065E+00 -0.50235835844E-01  0.37025619263E-01  0.89120487394E+00  0.88000000000E+00 0. -1.
        -11    1    3    3    0    0  0.27906034044E-01 -0.34783891441E-02 -0.12170565649E-01  0.30646854917E-01  0.51100000000E-03 0.  1.
         11    1    3    3    0    0  0.75581038835E-01  0.49951170915E-01 -0.34610936098E-01  0.96983456969E-01  0.51100000000E-03 0. -1.
</event>
<event>
 8    1  0.1114333E+005  0.1043930E+01  0.7957747E-01            NaN
         13   -1    0    0    0    0  0.00000000000E+00  0.00000000000E+00  0.74505805969E-08  0.10566000000E+00  0.10566000000E+00 0. -1.
     999900   -1    0    0    0    0 -0.00000000000E+00 -0.00000000000E+00 -0.74505805969E-08  0.93827000000E+00  0.93827000000E+00 0. -1.
     999902    2    1    2    0    0  0.10041904754E-01 -0.19665105259E-02 -0.21092871211E-01  0.10204861046E+01  0.10202167777E+01 0.  0.
     999903    2    3    3    0    0 -0.50529973661E-01 -0.18789815653E-01  0.11386145531E+00  0.12798140082E+00  0.22549335684E-01 0.  0.
         14    1    1    2    0    0 -0.10041904754E-01  0.19665105259E-02  0.21092871211E-01  0.23443895381E-01  0.00000000000E+00 0. -1.
     999901    1    3    3    0    0  0.60571878415E-01  0.16823305127E-01 -0.13495432653E+00  0.89250470380E+00  0.88000000000E+00 0. -1.
        -11    1    4    4    0    0 -0.10150304827E-01 -0.13105985846E-01  0.44888410613E-01  0.47854216967E-01  0.51100000000E-03 0.  1.
         11    1    4    4    0    0 -0.40379668833E-01 -0.56838298061E-02  0.68973044701E-01  0.80127183856E-01  0.51100000000E-03 0. -1.
</event>
<event>
 8    1  0.1114333E+005  0.1043930E+01  0.7957747E-01            NaN
         13   -1    0    0    0    0  0.00000000000E+00  0.00000000000E+00  0.74505805969E-08  0.10566000000E+00  0.10566000000E+00 0.  1.
     999900   -1    0    0    0    0 -0.00000000000E+00 -0.00000000000E+00 -0.74505805969E-08  0.93827000000E+00  0.93827000000E+00 0. -1.
     999902    2    1    2    0    0  0.98066073780E-02 -0.20430680160E-01  0.63521685539E-02  0.10203942339E+01  0.10201227673E+01 0.  0.
     999903    2    3    3    0    0  0.54874869938E-01  0.56628983719E-01  0.10224212243E+00  0.13069528295E+00  0.20241349748E-01 0.  0.
         14    1    1    2    0    0 -0.98066073780E-02  0.20430680160E-01 -0.63521685539E-02  0.23535766089E-01  0.00000000000E+00 0. -1.
     999901    1    3    3    0    0 -0.45068262560E-01 -0.77059663879E-01 -0.95889953871E-01  0.88969895096E+00  0.88000000000E+00 0. -1.
        -11    1    4    4    0    0  0.28398524494E-01  0.41032433762E-01  0.54304775947E-01  0.73752333018E-01  0.51100000000E-03 0.  1.
         11    1    4    4    0    0  0.26476345445E-01  0.15596549957E-01  0.47937346478E-01  0.56942949932E-01  0.51100000000E-03 0. -1.
</event>
<event>
 8    1  0.1114333E+005  0.1043930E+01  0.7957747E-01            NaN
         13   -1    0    0    0    0  0.00000000000E+00  0.00000000000E+00  0.74505805969E-08  0.10566000000E+00  0.10566000000E+00 0. -1.
     999900   -1    0    0    0    0 -0.00000000000E+00 -0.00000000000E+00 -0.74505805969E-08  0.93827000000E+00  0.93827000000E+00 0.  1.
     999902    2    1    2    0    0  0.34608141558E-03  0.65167514023E-02  0.23366255575E-01  0.10196695441E+01  0.10193808952E+01 0.  0.
     999903    2    3    3    0    0  0.32872091326E-01 -0.95829424054E-01  0.81075977181E-01  0.13126474170E+00  0.19830921172E-01 0.  0.
         14    1    1    2    0    0 -0.34608141558E-03 -0.65167514023E-02 -0.23366255575E-01  0.24260455907E-01  0.00000000000E+00 0.  1.
     999901    1    3    3    0    0 -0.32526009911E-01  0.10234617546E+00 -0.57709721606E-01  0.88840480240E+00  0.88000000000E+00 0.  1.
        -11    1    4    4    0    0  0.29040465888E-01 -0.55115064817E-01  0.47245189640E-01  0.78188158271E-01  0.51100000000E-03 0. -1.
         11    1    4    4    0    0  0.38316254380E-02 -0.40714359237E-01  0.33830787541E-01  0.53076583427E-01  0.51100000000E-03 0.  1.
</event>
<event>
 8    1  0.1114333E+005  0.1043930E+01  0.7957747E-01            NaN
         13   -1    0    0    0    0  0.00000000000E+00  0.00000000000E+00  0.74505805969E-08  0.10566000000E+00  0.10566000000E+00 0. -1.
     999900   -1    0    0    0    0 -0.00000000000E+00 -0.00000000000E+00 -0.74505805969E-08  0.93827000000E+00  0.93827000000E+00 0.  1.
     999902    2    1    2    0    0  0.12330972193E-01 -0.21168636788E-01 -0.17759943822E-02  0.10193674632E+01  0.10190714925E+01 0.  0.
     999903    2    3    3    0    0  0.20854968628E-01  0.44251286206E-01  0.11756966520E+00  0.12886434062E+00  0.19755658936E-01 0.  0.
         14    1    1    2    0    0 -0.12330972193E-01  0.21168636788E-01  0.17759943822E-02  0.24562536814E-01  0.00000000000E+00 0. -1.
     999901    1    3    3    0    0 -0.85239964342E-02 -0.65419922994E-01 -0.11934565958E+00  0.89050312257E+00  0.88000000000E+00 0.  1.
        -11    1    4    4    0    0  0.83783743370E-02  0.16637498162E-01  0.70187301676E-01  0.72619019129E-01  0.51100000000E-03 0.  1.
         11    1    4    4    0    0  0.12476594291E-01  0.27613788044E-01  0.47382363526E-01  0.56245321490E-01  0.51100000000E-03 0. -1.
</event>
<event>
 8    1  0.1114333E+005  0.1043930E+01  0.7957747E-01            NaN
         13   -1    0    0    0    0  0.00000000000E+00  0.00000000000E+00  0.74505805969E-08  0.10566000000E+00  0.10566000000E+00 0. -1.
     999900   -1    0    0    0    0 -0.00000000000E+00 -0.00000000000E+00 -0.74505805969E-08  0.93827000000E+00  0.93827000000E+00 0.  1.
     999902    2    1    2    0    0 -0.21953410166E-01  0.56131910105E-02 -0.82801838309E-02  0.10198048767E+01  0.10195194775E+01 0.  0.
     999903    2    3    3    0    0 -0.20780724444E-01  0.11542564975E+00  0.54329475728E-01  0.13077162603E+00  0.19864720305E-01 0.  0.
         14    1    1    2    0    0  0.21953410166E-01 -0.56131910105E-02  0.82801838309E-02  0.24125123327E-01  0.00000000000E+00 0. -1.
     999901    1    3    3    0    0 -0.11726857225E-02 -0.10981245874E+00 -0.62609659559E-01  0.88903325065E+00  0.88000000000E+00 0.  1.
        -11    1    4    4    0    0 -0.14010289476E-01  0.72606037472E-01  0.44542044659E-01  0.86326008549E-01  0.51100000000E-03 0.  1.
         11    1    4    4    0    0 -0.67704349679E-02  0.42819612275E-01  0.97874310694E-02  0.44445617477E-01  0.51100000000E-03 0. -1.
</event>
<event>
 7    1  0.1114755E+005  0.1043930E+01  0.7957747E-01            NaN
         13   -1    0    0    0    0  0.00000000000E+00  0.00000000000E+00  0.74505805969E-08  0.10566000000E+00  0.10566000000E+00 0.  1.
     999900   -1    0    0    0    0 -0.00000000000E+00 -0.00000000000E+00 -0.74505805969E-08  0.93827000000E+00  0.93827000000E+00 0.  1.
     999903    2    1    2    0    0  0.56735651115E-01 -0.79704764389E-01  0.42068807240E-01  0.10992430815E+00  0.27235737682E-01 0.  0.
         14    1    1    2    0    0  0.23945812428E-01  0.38532129408E-03  0.36104101212E-01  0.43325010440E-01  0.00000000000E+00 0.  1.
     999901    1    1    2    0    0 -0.80681463543E-01  0.79319443094E-01 -0.78172908452E-01  0.89068068140E+00  0.88000000000E+00 0.  1.
        -11    1    3    3    0    0  0.47318363352E-01 -0.44298162011E-01  0.24585302025E-01  0.69325701327E-01  0.51100000000E-03 0. -1.
         11    1    3    3    0    0  0.94172877629E-02 -0.35406602378E-01  0.17483505215E-01  0.40598606828E-01  0.51100000000E-03 0.  1.
</event>
<event>
 8    1  0.1114333E+005  0.1043930E+01  0.7957747E-01            NaN
         13   -1    0    0    0    0  0.00000000000E+00  0.00000000000E+00  0.74505805969E-08  0.10566000000E+00  0.10566000000E+00 0.  1.
     999900   -1    0    0    0    0 -0.00000000000E+00 -0.00000000000E+00 -0.74505805969E-08  0.93827000000E+00  0.93827000000E+00 0.  1.
     999902    2    1    2    0    0  0.68907333322E-02  0.10453019074E-01  0.19768743132E-01  0.10205301919E+01  0.10202618887E+01 0.  0.
     999903    2    3    3    0    0  0.11064922031E-01  0.12927455709E+00 -0.12878887911E-01  0.13193475553E+00  0.20163589761E-01 0.  0.
         14    1    1    2    0    0 -0.68907333322E-02 -0.10453019074E-01 -0.19768743132E-01  0.23399808090E-01  0.00000000000E+00 0. -1.
     999901    1    3    3    0    0 -0.41741886990E-02 -0.11882153802E+00  0.32647631043E-01  0.88859543638E+00  0.88000000000E+00 0. -1.
        -11    1    4    4    0    0 -0.26062581617E-02  0.14311830558E-01  0.35980127019E-02  0.14994261967E-01  0.51100000000E-03 0.  1.
         11    1    4    4    0    0  0.13671180193E-01  0.11496272653E+00 -0.16476900613E-01  0.11694049356E+00  0.51100000000E-03 0. -1.
</event>
<event>
 8    1  0.1114333E+005  0.1043930E+01  0.7957747E-01            NaN
         13   -1    0    0    0    0  0.00000000000E+00  0.00000000000E+00  0.74505805969E-08  0.10566000000E+00  0.10566000000E+00 0.  1.
     999900   -1    0    0    0    0 -0.00000000000E+00 -0.00000000000E+00 -0.74505805969E-08  0.93827000000E+00  0.93827000000E+00 0.  1.
     999902    2    1    2    0    0  0.19193761466E-01  0.98907430852E-02  0.10363968922E-01  0.10199792353E+01  0.10196979951E+01 0.  0.
     999903    2    3    3    0    0  0.93054753583E-01 -0.79176199666E-01  0.45012372329E-01  0.13172877608E+00  0.19957430348E-01 0.  0.
         14    1    1    2    0    0 -0.19193761466E-01 -0.98907430852E-02 -0.10363968922E-01  0.23950764702E-01  0.00000000000E+00 0. -1.
     999901    1    3    3    0    0 -0.73860992117E-01  0.89066942752E-01 -0.34648403407E-01  0.88825045922E+00  0.88000000000E+00 0.  1.
        -11    1    4    4    0    0  0.48884212606E-01 -0.53634132469E-01  0.30122544722E-01  0.78574265694E-01  0.51100000000E-03 0. -1.
         11    1    4    4    0    0  0.44170540977E-01 -0.25542067197E-01  0.14889827607E-01  0.53154510383E-01  0.51100000000E-03 0.  1.
</event>
<event>
 8    1  0.1114333E+005  0.1043930E+01  0.7957747E-01            NaN
         13   -1    0    0    0    0  0.00000000000E+00  0.00000000000E+00  0.74505805969E-08  0.10566000000E+00  0.10566000000E+00 0.  1.
     999900   -1    0    0    0    0 -0.00000000000E+00 -0.00000000000E+00 -0.74505805969E-08  0.93827000000E+00  0.93827000000E+00 0. -1.
     999902    2    1    2    0    0  0.17191289145E-01  0.16011338769E-01  0.49477473900E-02  0.10199220097E+01  0.10196394080E+01 0.  0.
     999903    2    3    3    0    0 -0.10095356210E+00  0.39373527880E-01  0.67721528637E-01  0.12950382408E+00  0.21050857739E-01 0.  0.
         14    1    1    2    0    0 -0.17191289145E-01 -0.16011338769E-01 -0.49477473900E-02  0.24007990250E-01  0.00000000000E+00 0.  1.
     999901    1    3    3    0    0  0.11814485125E+00 -0.23362189111E-01 -0.62773781247E-01  0.89041818567E+00  0.88000000000E+00 0. -1.
        -11    1    4    4    0    0 -0.49178580249E-01  0.23369917400E-01  0.45390573603E-01  0.70889005407E-01  0.51100000000E-03 0. -1.
         11    1    4    4    0    0 -0.51774981855E-01  0.16003610480E-01  0.22330955034E-01  0.58614818674E-01  0.51100000000E-03 0.  1.
</event>
<event>
 8    1  0.1114333E+005  0.1043930E+01  0.7957747E-01            NaN
         13   -1    0    0    0    0  0.00000000000E+00  0.00000000000E+00  0.74505805969E-08  0.10566000000E+00  0.10566000000E+00 0. -1.
     999900   -1    0    0    0    0 -0.00000000000E+00 -0.00000000000E+00 -0.74505805969E-08  0.93827000000E+00  0.93827000000E+00 0. -1.
     999902    2    1    2    0    0  0.65021023789E-03 -0.95391058329E-03  0.20602344821E-01  0.10232953367E+01  0.10230872674E+01 0.  0.
     999903    2    3    3    0    0  0.90340184181E-01 -0.91239346511E-01 -0.27901349276E-01  0.13281885764E+00  0.19400938700E-01 0.  0.
         14    1    1    2    0    0 -0.65021023789E-03  0.95391058329E-03 -0.20602344821E-01  0.20634663334E-01  0.00000000000E+00 0.  1.
     999901    1    3    3    0    0 -0.89689973943E-01  0.90285435928E-01  0.48503694097E-01  0.89047647903E+00  0.88000000000E+00 0. -1.
        -11    1    4    4    0    0  0.14246130152E-01 -0.63613617356E-02 -0.71310624289E-03  0.15626541171E-01  0.51100000000E-03 0.  1.
         11    1    4    4    0    0  0.76094054029E-01 -0.84877984775E-01 -0.27188243033E-01  0.11719231646E+00  0.51100000000E-03 0. -1.
</event>
<event>
 8    1  0.1114333E+005  0.1043930E+01  0.7957747E-01            NaN
         13   -1    0    0    0    0  0.00000000000E+00  0.00000000000E+00  0.74505805969E-08  0.10566000000E+00  0.10566000000E+00 0. -1.
     999900   -1    0    0    0    0 -0.00000000000E+00 -0.00000000000E+00 -0.74505805969E-08  0.93827000000E+00  0.93827000000E+00 0. -1.
     999902    2    1    2    0    0  0.12789976213E-01 -0.97333709042E-02  0.15316692849E-01  0.10217281289E+01  0.10214868801E+01 0.  0.
     999903    2    3    3    0    0 -0.12370848244E-01  0.97147911226E-01  0.86878830205E-01  0.13202153959E+00  0.17058758319E-01 0.  0.
         14    1    1    2    0    0 -0.12789976213E-01  0.97333709042E-02 -0.15316692849E-01  0.22201871104E-01  0.00000000000E+00 0.  1.
     999901    1    3    3    0    0  0.25160824458E-01 -0.10688128213E+00 -0.71562137356E-01  0.88970658931E+00  0.88000000000E+00 0. -1.
        -11    1    4    4    0    0 -0.41356000754E-03  0.37871055023E-01  0.24319715262E-01  0.45012192924E-01  0.51100000000E-03 0.  1.
         11    1    4    4    0    0 -0.11957288237E-01  0.59276856203E-01  0.62559114942E-01  0.87009346662E-01  0.51100000000E-03 0. -1.
</event>
<event>
 8    1  0.1114333E+005  0.1043930E+01  0.7957747E-01            NaN
         13   -1    0    0    0    0  0.00000000000E+00  0.00000000000E+00  0.74505805969E-08  0.10566000000E+00  0.10566000000E+00 0.  1.
     999900   -1    0    0    0    0 -0.00000000000E+00 -0.00000000000E+00 -0.74505805969E-08  0.93827000000E+00  0.93827000000E+00 0.  1.
     999902    2    1    2    0    0  0.27042195239E-02  0.70602886344E-02 -0.22815616806E-01  0.10198943421E+01  0.10196110809E+01 0.  0.
     999903    2    3    3    0    0 -0.10747061104E+00  0.36713400626E-01 -0.61149523253E-01  0.13170106997E+00  0.26610178751E-01 0.  0.
         14    1    1    2    0    0 -0.27042195239E-02 -0.70602886344E-02  0.22815616806E-01  0.24035657867E-01  0.00000000000E+00 0.  1.
     999901    1    3    3    0    0  0.11017483056E+00 -0.29653111991E-01  0.38333906447E-01  0.88819327217E+00  0.88000000000E+00 0.  1.
        -11    1    4    4    0    0 -0.31458647113E-01  0.22014999456E-01 -0.27775245705E-01  0.47392320836E-01  0.51100000000E-03 0.  1.
         11    1    4    4    0    0 -0.76011963927E-01  0.14698401170E-01 -0.33374277548E-01  0.84308749130E-01  0.51100000000E-03 0. -1.
</event>
<event>
 8    1  0.1114333E+005  0.1043930E+01  0.7957747E-01            NaN
         13   -1    0    0    0    0  0.00000000000E+00  0.00000000000E+00  0.74505805969E-08  0.10566000000E+00  0.10566000000E+00 0. -1.
     999900   -1    0    0    0    0 -0.00000000000E+00 -0.00000000000E+00 -0.74505805969E-08  0.93827000000E+00  0.93827000000E+00 0. -1.
     999902    2    1    2    0    0  0.92140429726E-02  0.21762127066E-01 -0.32312541101E-02  0.10200777514E+01  0.10197988473E+01 0.  0.
     999903    2    3    3    0    0 -0.60702412420E-01  0.10074707242E+00  0.56278712056E-01  0.13178254794E+00  0.19094267138E-01 0.  0.
         14    1    1    2    0    0 -0.92140429726E-02 -0.21762127066E-01  0.32312541101E-02  0.23852248646E-01  0.00000000000E+00 0.  1.
     999901    1    3    3    0    0  0.69916455392E-01 -0.78984945353E-01 -0.59509966166E-01  0.88829520341E+00  0.88000000000E+00 0. -1.
        -11    1    4    4    0    0 -0.52972648088E-01  0.72082283810E-01  0.43085495365E-01  0.99290372729E-01  0.51100000000E-03 0.  1.
         11    1    4    4    0    0 -0.77297643315E-02  0.28664788609E-01  0.13193216691E-01  0.32492175216E-01  0.51100000000E-03 0. -1.
</event>
<event>
 8    1  0.1114333E+005  0.1043930E+01  0.7957747E-01            NaN
         13   -1    0    0    0    0  0.00000000000E+00  0.00000000000E+00  0.74505805969E-08  0.10566000000E+00  0.10566000000E+00 0.  1.
     999900   -1    0    0    0    0 -0.00000000000E+00 -0.00000000000E+00 -0.74505805969E-08  0.93827000000E+00  0.93827000000E+00 0. -1.
     999902    2    1    2    0    0  0.11399152598E-01 -0.13339281923E-01  0.15712588660E-01  0.10203766018E+01  0.10201047236E+01 0.  0.
     999903    2    3    3    0    0  0.92935688029E-01  0.27181914971E-01 -0.84557055669E-01  0.13001477900E+00  0.19443468937E-01 0.  0.
         14    1    1    2    0    0 -0.11399152598E-01  0.13339281923E-01 -0.15712588660E-01  0.23553398153E-01  0.00000000000E+00 0. -1.
     999901    1    3    3    0    0 -0.81536535431E-01 -0.40521196894E-01  0.10026964433E+00  0.89036182285E+00  0.88000000000E+00 0.  1.
        -11    1    4    4    0    0  0.51249228429E-01  0.92236731471E-02 -0.55566165822E-01  0.76153919571E-01  0.51100000000E-03 0. -1.
         11    1    4    4    0    0  0.41686459599E-01  0.17958241824E-01 -0.28990889847E-01  0.53860859429E-01  0.51100000000E-03 0.  1.
</event>
<event>
 8    1  0.1114333E+005  0.1043930E+01  0.7957747E-01            NaN
         13   -1    0    0    0    0  0.00000000000E+00  0.00000000000E+00  0.74505805969E-08  0.10566000000E+00  0.10566000000E+00 0. -1.
     999900   -1    0    0    0    0 -0.00000000000E+00 -0.00000000000E+00 -0.74505805969E-08  0.93827000000E+00  0.93827000000E+00 0.  1.
     999902    2    1    2    0    0 -0.21609362435E-01 -0.81880810206E-03  0.10354551256E-01  0.10199539344E+01  0.10196720926E+01 0.  0.
     999903    2    3    3    0    0  0.41281420418E-01  0.11831972157E+00 -0.23926426082E-01  0.12904180333E+00  0.19380427185E-01 0.  0.
         14    1    1    2    0    0  0.21609362435E-01  0.81880810206E-03 -0.10354551256E-01  0.23976065633E-01  0.00000000000E+00 0. -1.
     999901    1    3    3    0    0 -0.62890782852E-01 -0.11913852967E+00  0.34280977338E-01  0.89091213104E+00  0.88000000000E+00 0.  1.
        -11    1    4    4    0    0  0.25498140147E-01  0.67589787995E-01 -0.23304670999E-01  0.75907202580E-01  0.51100000000E-03 0. -1.
         11    1    4    4    0    0  0.15783280271E-01  0.50729933574E-01 -0.62175508298E-03  0.53134600750E-01  0.51100000000E-03 0.  1.
</event>
<event>
 8    1  0.1114333E+005  0.1043930E+01  0.7957747E-01            NaN
         13   -1    0    0    0    0  0.00000000000E+00  0.00000000000E+00  0.74505805969E-08  0.10566000000E+00  0.10566000000E+00 0.  1.
     999900   -1    0    0    0    0 -0.00000000000E+00 -0.00000000000E+00 -0.74505805969E-08  0.93827000000E+00  0.93827000000E+00 0.  1.
     999902    2    1    2    0    0  0.61726988070E-02 -0.17925136499E-01 -0.14608249893E-01  0.10199964734E+01  0.10197156428E+01 0.  0.
     999903    2    3    3    0    0 -0.39373617165E-01  0.11638775121E+00  0.27983080925E-01  0.12762410711E+00  0.20210629337E-01 0.  0.
         14    1    1    2    0    0 -0.61726988070E-02  0.17925136499E-01  0.14608249893E-01  0.23933526569E-01  0.00000000000E+00 0.  1.
     999901    1    3    3    0    0  0.45546315972E-01 -0.13431288771E+00 -0.42591330819E-01  0.89237236632E+00  0.88000000000E+00 0.  1.
        -11    1    4    4    0    0 -0.28605608798E-01  0.79615626979E-01  0.96628644022E-02  0.85150225974E-01  0.51100000000E-03 0. -1.
         11    1    4    4    0    0 -0.10768008367E-01  0.36772124231E-01  0.18320216523E-01  0.42473881141E-01  0.51100000000E-03 0.  1.
</event>
<event>
 8    1  0.1114333E+005  0.1043930E+01  0.7957747E-01            NaN
         13   -1    0    0    0    0  0.00000000000E+00  0.00000000000E+00  0.74505805969E-08  0.10566000000E+00  0.10566000000E+00 0.  1.
     999900   -1    0    0    0    0 -0.00000000000E+00 -0.00000000000E+00 -0.74505805969E-08  0.93827000000E+00  0.93827000000E+00 0.  1.
     999902    2    1    2    0    0 -0.17319044575E-02  0.16287951085E-01  0.16300593724E-01  0.10208214258E+01  0.10205598352E+01 0.  0.
     999903    2    3    3    0    0 -0.10963525502E+00 -0.60525108485E-01 -0.27515988924E-01  0.12983137422E+00  0.20393091590E-01 0.  0.
         14    1    1    2    0    0  0.17319044575E-02 -0.16287951085E-01 -0.16300593724E-01  0.23108574152E-01  0.00000000000E+00 0. -1.
     999901    1    3    3    0    0  0.10790335057E+00  0.76813059569E-01  0.43816582648E-01  0.89099005163E+00  0.88000000000E+00 0.  1.
        -11    1    4    4    0    0 -0.65956069895E-01 -0.30070168409E-01 -0.72350199288E-02  0.72849329568E-01  0.51100000000E-03 0.  1.
         11    1    4    4    0    0 -0.43679185129E-01 -0.30454940076E-01 -0.20280968995E-01  0.56982044653E-01  0.51100000000E-03 0. -1.
</event>
<event>
 8    1  0.1114333E+005  0.1043930E+01  0.7957747E-01            NaN
         13   -1    0    0    0    0  0.00000000000E+00  0.00000000000E+00  0.74505805969E-08  0.10566000000E+00  0.10566000000E+00 0.  1.
     999900   -1    0    0    0    0 -0.00000000000E+00 -0.00000000000E+00 -0.74505805969E-08  0.93827000000E+00  0.93827000000E+00 0.  1.
     999902    2    1    2    0    0  0.64963276810E-02 -0.21270580460E-01 -0.83477454259E-02  0.10201744802E+01  0.10198978603E+01 0.  0.
     999903    2    3    3    0    0 -0.52857977344E-01  0.33090266361E-01 -0.11270047907E+00  0.13036128172E+00  0.20093140449E-01 0.  0.
         14    1    1    2    0    0 -0.64963276810E-02  0.21270580460E-01  0.83477454259E-02  0.23755519783E-01  0.00000000000E+00 0.  1.
     999901    1    3    3    0    0  0.59354305025E-01 -0.54360846821E-01  0.10435273365E+00  0.88981319849E+00  0.88000000000E+00 0. -1.
        -11    1    4    4    0    0 -0.37242195228E-01  0.30606231153E-01 -0.71555586324E-01  0.86279693706E-01  0.51100000000E-03 0. -1.
         11    1    4    4    0    0 -0.15615782116E-01  0.24840352073E-02 -0.41144892748E-01  0.44081588019E-01  0.51100000000E-03 0.  1.
</event>
<event>
 8    1  0.1114333E+005  0.1043930E+01  0.7957747E-01            NaN
         13   -1    0    0    0    0  0.00000000000E+00  0.00000000000E+00  0.74505805969E-08  0.10566000000E+00  0.10566000000E+00 0.  1.
     999900   -1    0    0    0    0 -0.00000000000E+00 -0.00000000000E+00 -0.74505805969E-08  0.93827000000E+00  0.93827000000E+00 0.  1.
     999902    2    1    2    0    0 -0.18119111688E-01  0.17271698034E-01 -0.13981503457E-02  0.10188587299E+01  0.10185502162E+01 0.  0.
     999903    2    3    3    0    0 -0.12882379716E+00  0.20060994690E-01  0.15584444849E-02  0.13191338262E+00  0.20017430954E-01 0.  0.
         14    1    1    2    0    0  0.18119111688E-01 -0.17271698034E-01  0.13981503457E-02  0.25071270126E-01  0.00000000000E+00 0.  1.
     999901    1    3    3    0    0  0.11070468547E+00 -0.27892966556E-02 -0.29565948306E-02  0.88694534725E+00  0.88000000000E+00 0. -1.
        -11    1    4    4    0    0 -0.90323399167E-01  0.14167633846E-01  0.10253976188E-01  0.92002409938E-01  0.51100000000E-03 0.  1.
         11    1    4    4    0    0 -0.38500397995E-01  0.58933608437E-02 -0.86955317028E-02  0.39910972682E-01  0.51100000000E-03 0. -1.
</event>
<event>
 8    1  0.1114333E+005  0.1043930E+01  0.7957747E-01            NaN
         13   -1    0    0    0    0  0.00000000000E+00  0.00000000000E+00  0.74505805969E-08  0.10566000000E+00  0.10566000000E+00 0.  1.
     999900   -1    0    0    0    0 -0.00000000000E+00 -0.00000000000E+00 -0.74505805969E-08  0.93827000000E+00  0.93827000000E+00 0. -1.
     999902    2    1    2    0    0  0.93799031183E-02 -0.99914278303E-02 -0.19974545636E-01  0.10197061752E+01  0.10194184078E+01 0.  0.
     999903    2    3    3    0    0  0.50989780921E-01 -0.49025440413E-01 -0.11116295082E+00  0.13315648046E+00  0.19235256364E-01 0.  0.
         14    1    1    2    0    0 -0.93799031183E-02  0.99914278303E-02  0.19974545636E-01  0.24223824760E-01  0.00000000000E+00 0.  1.
     999901    1    3    3    0    0 -0.41609877802E-01  0.39034012583E-01  0.91188405187E-01  0.88654969478E+00  0.88000000000E+00 0.  1.
        -11    1    4    4    0    0  0.16965893313E-01 -0.16880791373E-01 -0.22289001607E-01  0.32708765903E-01  0.51100000000E-03 0. -1.
         11    1    4    4    0    0  0.34023887608E-01 -0.32144649041E-01 -0.88873949217E-01  0.10044771456E+00  0.51100000000E-03 0.  1.
</event>
<event>
 8    1  0.1414285E+005  0.1043930E+01  0.7957747E-01            NaN
         13   -1    0    0    0    0  0.00000000000E+00  0.00000000000E+00  0.74505805969E-08  0.10566000000E+00  0.10566000000E+00 0.  1.
     999900   -1    0    0    0    0 -0.00000000000E+00 -0.00000000000E+00 -0.74505805969E-08  0.93827000000E+00  0.93827000000E+00 0.  1.
     999902    2    1    2    0    0 -0.77219156368E-02 -0.22532353577E-01 -0.21680953561E-02  0.10200127348E+01  0.10197322901E+01 0.  0.
     999903    2    3    3    0    0 -0.59171925270E-01 -0.97891744412E-01  0.64508493956E-01  0.13278564499E+00  0.19661417995E-01 0.  0.
         14    1    1    2    0    0  0.77219156368E-02  0.22532353577E-01  0.21680953561E-02  0.23917265234E-01  0.00000000000E+00 0.  1.
     999901    1    3    3    0    0  0.51450009633E-01  0.75359390835E-01 -0.66676589312E-01  0.88722708978E+00  0.88000000000E+00 0. -1.
        -11    1    4    4    0    0 -0.34612956960E-01 -0.56377152104E-01  0.48246860650E-01  0.81880771567E-01  0.51100000000E-03 0. -1.
         11    1    4    4    0    0 -0.24558968310E-01 -0.41514592308E-01  0.16261633306E-01  0.50904873418E-01  0.51100000000E-03 0.  1.
</event>
<event>
 8    1  0.1114333E+005  0.1043930E+01  0.7957747E-01            NaN
         13   -1    0    0    0    0  0.00000000000E+00  0.00000000000E+00  0.74505805969E-08  0.10566000000E+00  0.10566000000E+00 0. -1.
     999900   -1    0    0    0    0 -0.00000000000E+00 -0.00000000000E+00 -0.74505805969E-08  0.93827000000E+00  0.93827000000E+00 0. -1.
     999902    2    1    2    0    0  0.16059348996E-01 -0.14015841501E-01 -0.10385129281E-01  0.10202192975E+01  0.10199437325E+01 0.  0.
     999903    2    3    3    0    0 -0.68112958739E-01  0.38205782431E-01  0.99314086351E-01  0.12789312770E+00  0.19857175146E-01 0.  0.
         14    1    1    2    0    0 -0.16059348996E-01  0.14015841501E-01  0.10385129281E-01  0.23710702507E-01  0.00000000000E+00 0. -1.
     999901    1    3    3    0    0  0.84172307735E-01 -0.52221623932E-01 -0.10969921563E+00  0.89232616980E+00  0.88000000000E+00 0. -1.
        -11    1    4    4    0    0 -0.62383882797E-01  0.28076775670E-01  0.79261604488E-01  0.10470299533E+00  0.51100000000E-03 0.  1.
         11    1    4    4    0    0 -0.57290759423E-02  0.10129006761E-01  0.20052481862E-01  0.23190132362E-01  0.51100000000E-03 0. -1.
</event>
<event>
 8    1  0.1114333E+005  0.1043930E+01  0.7957747E-01            NaN
         13   -1    0    0    0    0  0.00000000000E+00  0.00000000000E+00  0.74505805969E-08  0.10566000000E+00  0.10566000000E+00 0.  1.
     999900   -1    0    0    0    0 -0.00000000000E+00 -0.00000000000E+00 -0.74505805969E-08  0.93827000000E+00  0.93827000000E+00 0.  1.
     999902    2    1    2    0    0 -0.11423516541E-01  0.17382861285E-01  0.11129836003E-01  0.10203390304E+01  0.10200662739E+01 0.  0.
     999903    2    3    3    0    0 -0.31760942980E-01 -0.45900977790E-02 -0.12387102832E+00  0.12954070576E+00  0.20172662068E-01 0.  0.
         14    1    1    2    0    0  0.11423516541E-01 -0.17382861285E-01 -0.11129836003E-01  0.23590969588E-01  0.00000000000E+00 0. -1.
     999901    1    3    3    0    0  0.20337426439E-01  0.21972959064E-01  0.13500086432E+00  0.89079832466E+00  0.88000000000E+00 0. -1.
        -11    1    4    4    0    0 -0.82473857651E-02 -0.73431548126E-02 -0.67482529714E-01  0.68381973006E-01  0.51100000000E-03 0.  1.
         11    1    4    4    0    0 -0.23513557215E-01  0.27530570336E-02 -0.56388498602E-01  0.61158732750E-01  0.51100000000E-03 0. -1.
</event>
<event>
 8    1  0.1114333E+005  0.1043930E+01  0.7957747E-01            NaN
         13   -1    0    0    0    0  0.00000000000E+00  0.00000000000E+00  0.74505805969E-08  0.10566000000E+00  0.10566000000E+00 0. -1.
     999900   -1    0    0    0    0 -0.00000000000E+00 -0.00000000000E+00 -0.74505805969E-08  0.93827000000E+00  0.93827000000E+00 0. -1.
     999902    2    1    2    0    0  0.13469641669E-01  0.17661193680E-01 -0.25012610385E-02  0.10215781474E+01  0.10213335919E+01 0.  0.
     999903    2    3    3    0    0 -0.33458426752E-01 -0.12263319319E+00  0.62867631407E-02  0.12918698429E+00  0.22167253458E-01 0.  0.
         14    1    1    2    0    0 -0.13469641669E-01 -0.17661193680E-01  0.25012610385E-02  0.22351852623E-01  0.00000000000E+00 0.  1.
     999901    1    3    3    0    0  0.46928068421E-01  0.14029438687E+00 -0.87880241792E-02  0.89239116309E+00  0.88000000000E+00 0.  1.
        -11    1    4    4    0    0 -0.11428870770E-01 -0.69447393440E-01  0.11753948110E-01  0.71358082653E-01  0.51100000000E-03 0. -1.
         11    1    4    4    0    0 -0.22029555982E-01 -0.53185799749E-01 -0.54671849695E-02  0.57828901634E-01  0.51100000000E-03 0.  1.
</event>
<event>
 8    1  0.1114333E+005  0.1043930E+01  0.7957747E-01            NaN
         13   -1    0    0    0    0  0.00000000000E+00  0.00000000000E+00  0.74505805969E-08  0.10566000000E+00  0.10566000000E+00 0.  1.
     999900   -1    0    0    0    0 -0.00000000000E+00 -0.00000000000E+00 -0.74505805969E-08  0.93827000000E+00  0.93827000000E+00 0.  1.
     999902    2    1    2    0    0 -0.95489585081E-02 -0.22790349331E-01  0.96812718601E-03  0.10192010716E+01  0.10189010278E+01 0.  0.
     999903    2    3    3    0    0 -0.12279553456E+00 -0.41518130127E-01 -0.11412649779E-01  0.13166019904E+00  0.20041481959E-01 0.  0.
         14    1    1    2    0    0  0.95489585081E-02  0.22790349331E-01 -0.96812718601E-03  0.24728928433E-01  0.00000000000E+00 0.  1.
     999901    1    3    3    0    0  0.11324657606E+00  0.18727780796E-01  0.12380776965E-01  0.88754087252E+00  0.88000000000E+00 0.  1.
        -11    1    4    4    0    0 -0.96078234871E-01 -0.40625106189E-01 -0.11273525900E-01  0.10492273336E+00  0.51100000000E-03 0. -1.
         11    1    4    4    0    0 -0.26717299693E-01 -0.89302393734E-03 -0.13912387854E-03  0.26737465682E-01  0.51100000000E-03 0.  1.
</event>
<event>
 8    1  0.1114333E+005  0.1043930E+01  0.7957747E-01            NaN
         13   -1    0    0    0    0  0.00000000000E+00  0.00000000000E+00  0.74505805969E-08  0.10566000000E+00  0.10566000000E+00 0. -1.
     999900   -1    0    0    0    0 -0.00000000000E+00 -0.00000000000E+00 -0.74505805969E-08  0.93827000000E+00  0.93827000000E+00 0. -1.
     999902    2    1    2    0    0 -0.10115263616E-01  0.19071930258E-01 -0.12457334796E-01  0.10190052679E+01  0.10187003945E+01 0.  0.
     999903    2    3    3    0    0 -0.12722799839E+00  0.10181525419E-01  0.24648484394E-01  0.13042703621E+00  0.10631884066E-01 0.  0.
         14    1    1    2    0    0  0.10115263616E-01 -0.19071930258E-01  0.12457334796E-01  0.24924732135E-01  0.00000000000E+00 0. -1.
     999901    1    3    3    0    0  0.11711273477E+00  0.88904048398E-02 -0.37105819189E-01  0.88857823165E+00  0.88000000000E+00 0. -1.
        -11    1    4    4    0    0 -0.10208877913E+00  0.12227761154E-01  0.18675005375E-01  0.10450193259E+00  0.51100000000E-03 0.  1.
         11    1    4    4    0    0 -0.25139219257E-01 -0.20462357352E-02  0.59734790181E-02  0.25925103628E-01  0.51100000000E-03 0. -1.
</event>
<event>
 8    1  0.1114333E+005  0.1043930E+01  0.7957747E-01            NaN
         13   -1    0    0    0    0  0.00000000000E+00  0.00000000000E+00  0.74505805969E-08  0.10566000000E+00  0.10566000000E+00 0. -1.
     999900   -1    0    0    0    0 -0.00000000000E+00 -0.00000000000E+00 -0.74505805969E-08  0.93827000000E+00  0.93827000000E+00 0.  1.
     999902    2    1    2    0    0 -0.16168878425E-01  0.10842278510E-03  0.19411024980E-01  0.10186667406E+01  0.10183534240E+01 0.  0.
     999903    2    3    3    0    0  0.76965917940E-01  0.82690935340E-01 -0.54117431681E-01  0.12687057800E+00  0.20147055360E-01 0.  0.
         14    1    1    2    0    0  0.16168878425E-01 -0.10842278510E-03 -0.19411024980E-01  0.25263259405E-01  0.00000000000E+00 0.  1.
     999901    1    3    3    0    0 -0.93134796364E-01 -0.82582512555E-01  0.73528456660E-01  0.89179616259E+00  0.88000000000E+00 0. -1.
        -11    1    4    4    0    0  0.50297422399E-01  0.66942610916E-01 -0.40980642071E-01  0.93224556860E-01  0.51100000000E-03 0.  1.
         11    1    4    4    0    0  0.26668495541E-01  0.15748324424E-01 -0.13136789610E-01  0.33646021144E-01  0.51100000000E-03 0. -1.
</event>
<event>
 8    1  0.1114333E+005  0.1043930E+01  0.7957747E-01            NaN
         13   -1    0    0    0    0  0.00000000000E+00  0.00000000000E+00  0.74505805969E-08  0.10566000000E+00  0.10566000000E+00 0. -1.
     999900   -1    0    0    0    0 -0.00000000000E+00 -0.00000000000E+00 -0.74505805969E-08  0.93827000000E+00  0.93827000000E+00 0. -1.
     999902    2    1    2    0    0 -0.17112996922E-01  0.16840820951E-01  0.36712266879E-02  0.10196411997E+01  0.10193518678E+01 0.  0.
     999903    2    3    3    0    0 -0.18912273420E-01  0.12825483032E+00  0.19327849670E-01  0.13247636231E+00  0.19220957639E-01 0.  0.
         14    1    1    2    0    0  0.17112996922E-01 -0.16840820951E-01 -0.36712266879E-02  0.24288800286E-01  0.00000000000E+00 0.  1.
     999901    1    3    3    0    0  0.17992764978E-02 -0.11141400937E+00 -0.15656622982E-01  0.88716483740E+00  0.88000000000E+00 0.  1.
        -11    1    4    4    0    0  0.16066974087E-02  0.50336192585E-01  0.10169530010E-01  0.51380874089E-01  0.51100000000E-03 0. -1.
         11    1    4    4    0    0 -0.20518970829E-01  0.77918637734E-01  0.91583196593E-02  0.81095488223E-01  0.51100000000E-03 0.  1.
</event>
<event>
 8    1  0.1114333E+005  0.1043930E+01  0.7957747E-01            NaN
         13   -1    0    0    0    0  0.00000000000E+00  0.00000000000E+00  0.74505805969E-08  0.10566000000E+00  0.10566000000E+00 0.  1.
     999900   -1    0    0    0    0 -0.00000000000E+00 -0.00000000000E+00 -0.74505805969E-08  0.93827000000E+00  0.93827000000E+00 0. -1.
     999902    2    1    2    0    0  0.17880312010E-01 -0.12960068528E-01  0.22213693281E-02  0.10217353291E+01  0.10214942385E+01 0.  0.
     999903    2    3    3    0    0 -0.85703802249E-01  0.91062142971E-01  0.25629318788E-01  0.12926783878E+00  0.20392561371E-01 0.  0.
         14    1    1    2    0    0 -0.17880312010E-01  0.12960068528E-01 -0.22213693281E-02  0.22194670881E-01  0.00000000000E+00 0. -1.
     999901    1    3    3    0    0  0.10358411426E+00 -0.10402221150E+00 -0.23407949460E-01  0.89246749034E+00  0.88000000000E+00 0.  1.
        -11    1    4    4    0    0 -0.16231379329E-01  0.27396704251E-01  0.12094517666E-01  0.34067221156E-01  0.51100000000E-03 0. -1.
         11    1    4    4    0    0 -0.69472422920E-01  0.63665438720E-01  0.13534801122E-01  0.95200617625E-01  0.51100000000E-03 0.  1.
</event>
<event>
 8    1  0.1114333E+005  0.1043930E+01  0.7957747E-01            NaN
         13   -1    0    0    0    0  0.00000000000E+00  0.00000000000E+00  0.74505805969E-08  0.10566000000E+00  0.10566000000E+00 0. -1.
     999900   -1    0    0    0    0 -0.00000000000E+00 -0.00000000000E+00 -0.74505805969E-08  0.93827000000E+00  0.93827000000E+00 0. -1.
     999902    2    1    2    0    0  0.14323017843E-01 -0.15934121348E-01  0.99263948010E-02  0.10203169024E+01  0.10200436280E+01 0.  0.
     999903    2    3    3    0    0 -0.10032400286E+00  0.76789809651E-01 -0.25392559645E-02  0.12796211918E+00  0.20156282121E-01 0.  0.
         14    1    1    2    0    0 -0.14323017843E-01  0.15934121348E-01 -0.99263948010E-02  0.23613097573E-01  0.00000000000E+00 0.  1.
     999901    1    3    3    0    0  0.11464702070E+00 -0.92723930998E-01  0.12465650765E-01  0.89235478325E+00  0.88000000000E+00 0.  1.
        -11    1    4    4    0    0 -0.43703645925E-01  0.43262500483E-01  0.51377753982E-02  0.61711510046E-01  0.51100000000E-03 0.  1.
         11    1    4    4    0    0 -0.56620356931E-01  0.33527309168E-01 -0.76770313627E-02  0.66250609134E-01  0.51100000000E-03 0. -1.
</event>
<event>
 8    1  0.1114333E+005  0.1043930E+01  0.7957747E-01            NaN
         13   -1    0    0    0    0  0.00000000000E+00  0.00000000000E+00  0.74505805969E-08  0.10566000000E+00  0.10566000000E+00 0. -1.
     999900   -1    0    0    0    0 -0.00000000000E+00 -0.00000000000E+00 -0.74505805969E-08  0.93827000000E+00  0.93827000000E+00 0.  1.
     999902    2    1    2    0    0  0.11981947631E-02 -0.14424801511E-01  0.18179248944E-01  0.10206921933E+01  0.10204276347E+01 0.  0.
     999903    2    3    3    0    0 -0.75285972141E-01  0.31082081605E-01 -0.97641523567E-01  0.12865230877E+00  0.19582543996E-01 0.  0.
         14    1    1    2    0    0 -0.11981947631E-02  0.14424801511E-01 -0.18179248944E-01  0.23237806727E-01  0.00000000000E+00 0. -1.
     999901    1    3    3    0    0  0.76484166904E-01 -0.45506883116E-01  0.11582077251E+00  0.89203988450E+00  0.88000000000E+00 0. -1.
        -11    1    4    4    0    0 -0.32822396094E-01  0.72208191841E-02 -0.51888179577E-01  0.61823088049E-01  0.51100000000E-03 0.  1.
         11    1    4    4    0    0 -0.42463576047E-01  0.23861262421E-01 -0.45753343990E-01  0.66829220722E-01  0.51100000000E-03 0. -1.
</event>
<event>
 8    1  0.1114333E+005  0.1043930E+01  0.7957747E-01            NaN
         13   -1    0    0    0    0  0.00000000000E+00  0.00000000000E+00  0.74505805969E-08  0.10566000000E+00  0.10566000000E+00 0.  1.
     999900   -1    0    0    0    0 -0.00000000000E+00 -0.00000000000E+00 -0.74505805969E-08  0.93827000000E+00  0.93827000000E+00 0.  1.
     999902    2    1    2    0    0 -0.19966663410E-01 -0.47580668120E-02 -0.12234565394E-01  0.10200345729E+01  0.10197546462E+01 0.  0.
     999903    2    3    3    0    0  0.21781121705E-03 -0.12131469507E+00 -0.46735015801E-01  0.13144966320E+00  0.19430634848E-01 0.  0.
         14    1    1    2    0    0  0.19966663410E-01  0.47580668120E-02  0.12234565394E-01  0.23895427134E-01  0.00000000000E+00 0.  1.
     999901    1    3    3    0    0 -0.20184474627E-01  0.11655662826E+00  0.34500450407E-01  0.88858490967E+00  0.88000000000E+00 0. -1.
        -11    1    4    4    0    0 -0.31371131839E-02 -0.58118690495E-01 -0.12637686565E-01  0.59561698319E-01  0.51100000000E-03 0. -1.
         11    1    4    4    0    0  0.33549244010E-02 -0.63196004580E-01 -0.34097329237E-01  0.71887964881E-01  0.51100000000E-03 0.  1.
</event>
<event>
 8    1  0.1114333E+005  0.1043930E+01  0.7957747E-01            NaN
         13   -1    0    0    0    0  0.00000000000E+00  0.00000000000E+00  0.74505805969E-08  0.10566000000E+00  0.10566000000E+00 0.  1.
     999900   -1    0    0    0    0 -0.00000000000E+00 -0.00000000000E+00 -0.74505805969E-08  0.93827000000E+00  0.93827000000E+00 0. -1.
     999902    2    1    2    0    0 -0.10346672035E-01 -0.16548151164E-01  0.13186399607E-01  0.10203763153E+01  0.10201044303E+01 0.  0.
     999903    2    3    3    0    0  0.12512020058E+00 -0.20812777040E-01 -0.88015749503E-02  0.12972883640E+00  0.25765616440E-01 0.  0.
         14    1    1    2    0    0  0.10346672035E-01  0.16548151164E-01 -0.13186399607E-01  0.23553684717E-01  0.00000000000E+00 0. -1.
     999901    1    3    3    0    0 -0.13546687262E+00  0.42646258766E-02  0.21987974558E-01  0.89064747888E+00  0.88000000000E+00 0.  1.
        -11    1    4    4    0    0  0.96357103816E-01 -0.91424769413E-02  0.21331003393E-02  0.96814707450E-01  0.51100000000E-03 0.  1.
         11    1    4    4    0    0  0.28763096768E-01 -0.11670300099E-01 -0.10934675290E-01  0.32914128953E-01  0.51100000000E-03 0. -1.
</event>
<event>
 8    1  0.1114333E+005  0.1043930E+01  0.7957747E-01            NaN
         13   -1    0    0    0    0  0.00000000000E+00  0.00000000000E+00  0.74505805969E-08  0.10566000000E+00  0.10566000000E+00 0.  1.
     999900   -1    0    0    0    0 -0.00000000000E+00 -0.00000000000E+00 -0.74505805969E-08  0.93827000000E+00  0.93827000000E+00 0.  1.
     999902    2    1    2    0    0  0.19859564015E-01 -0.12436459035E-01  0.57980577486E-02  0.10197911253E+01  0.10195053968E+01 0.  0.
     999903    2    3    3    0    0  0.52011875603E-01 -0.12017420609E+00 -0.39542666639E-02  0.13258410265E+00  0.20391984632E-01 0.  0.
         14    1    1    2    0    0 -0.19859564015E-01  0.12436459035E-01 -0.57980577486E-02  0.24138874660E-01  0.00000000000E+00 0. -1.
     999901    1    3    3    0    0 -0.32152311588E-01  0.10773774705E+00  0.97523244125E-02  0.88720702269E+00  0.88000000000E+00 0. -1.
        -11    1    4    4    0    0  0.14239419263E-01 -0.43110410056E-01  0.74295004435E-02  0.46007902734E-01  0.51100000000E-03 0.  1.
         11    1    4    4    0    0  0.37772456340E-01 -0.77063796035E-01 -0.11383767107E-01  0.86576199915E-01  0.51100000000E-03 0. -1.
</event>
<event>
 8    1  0.1114333E+005  0.1043930E+01  0.7957747E-01            NaN
         13   -1    0    0    0    0  0.00000000000E+00  0.00000000000E+00  0.74505805969E-08  0.10566000000E+00  0.10566000000E+00 0.  1.
     999900   -1    0    0    0    0 -0.00000000000E+00 -0.00000000000E+00 -0.74505805969E-08  0.93827000000E+00  0.93827000000E+00 0.  1.
     999902    2    1    2    0    0  0.50245822034E-02 -0.10249972423E-01  0.21903206616E-01  0.10192306312E+01  0.10189313130E+01 0.  0.
     999903    2    3    3    0    0 -0.96942556687E-01 -0.40578572092E-01  0.76337596714E-01  0.13115393166E+00  0.18150628300E-01 0.  0.
         14    1    1    2    0    0 -0.50245822034E-02  0.10249972423E-01 -0.21903206616E-01  0.24699368840E-01  0.00000000000E+00 0. -1.
     999901    1    3    3    0    0  0.10196713889E+00  0.30328599668E-01 -0.54434390097E-01  0.88807669950E+00  0.88000000000E+00 0.  1.
        -11    1    4    4    0    0 -0.42903069169E-01 -0.90059953012E-02  0.35605266843E-01  0.56478114730E-01  0.51100000000E-03 0. -1.
         11    1    4    4    0    0 -0.54039487517E-01 -0.31572576790E-01  0.40732329871E-01  0.74675816929E-01  0.51100000000E-03 0.  1.
</event>
<event>
 8    1  0.1114333E+005  0.1043930E+01  0.7957747E-01            NaN
         13   -1    0    0    0    0  0.00000000000E+00  0.00000000000E+00  0.74505805969E-08  0.10566000000E+00  0.10566000000E+00 0.  1.
     999900   -1    0    0    0    0 -0.00000000000E+00 -0.00000000000E+00 -0.74505805969E-08  0.93827000000E+00  0.93827000000E+00 0.  1.
     999902    2    1    2    0    0 -0.22055713491E-01 -0.12887119844E-01 -0.17292255069E-02  0.10183268249E+01  0.10180049114E+01 0.  0.
     999903    2    3    3    0    0  0.83710629146E-01 -0.50956498508E-01 -0.79627183438E-01  0.12776302106E+00  0.19464507064E-01 0.  0.
         14    1    1    2    0    0  0.22055713491E-01  0.12887119844E-01  0.17292255069E-02  0.25603175122E-01  0.00000000000E+00 0.  1.
     999901    1    3    3    0    0 -0.10576634264E+00  0.38069378663E-01  0.77897957931E-01  0.89056380382E+00  0.88000000000E+00 0. -1.
        -11    1    4    4    0    0  0.34468703884E-01 -0.26970415740E-01 -0.25011304619E-01  0.50411520036E-01  0.51100000000E-03 0. -1.
         11    1    4    4    0    0  0.49241925262E-01 -0.23986082768E-01 -0.54615878819E-01  0.77351501021E-01  0.51100000000E-03 0.  1.
</event>
<event>
 8    1  0.1114333E+005  0.1043930E+01  0.7957747E-01            NaN
         13   -1    0    0    0    0  0.00000000000E+00  0.00000000000E+00  0.74505805969E-08  0.10566000000E+00  0.10566000000E+00 0. -1.
     999900   -1    0    0    0    0 -0.00000000000E+00 -0.00000000000E+00 -0.74505805969E-08  0.93827000000E+00  0.93827000000E+00 0. -1.
     999902    2    1    2    0    0 -0.60041102674E-02  0.64581714829E-02 -0.25521456269E-01  0.10169281103E+01  0.10165695645E+01 0.  0.
     999903    2    3    3    0    0 -0.23061411427E-01 -0.77519278706E-01 -0.99766650564E-01  0.12965390658E+00  0.17767488775E-01 0.  0.
         14    1    1    2    0    0  0.60041102674E-02 -0.64581714829E-02  0.25521456269E-01  0.27001889732E-01  0.00000000000E+00 0. -1.
     999901    1    3    3    0    0  0.17057301160E-01  0.83977450189E-01  0.74245194296E-01  0.88727420369E+00  0.88000000000E+00 0.  1.
        -11    1    4    4    0    0 -0.20614569488E-01 -0.41094186035E-01 -0.49934795734E-01  0.67878108010E-01  0.51100000000E-03 0.  1.
         11    1    4    4    0    0 -0.24468419395E-02 -0.36425092671E-01 -0.49831854830E-01  0.61775798566E-01  0.51100000000E-03 0. -1.
</event>
<event>
 8    1  0.1114333E+005  0.1043930E+01  0.7957747E-01            NaN
         13   -1    0    0    0    0  0.00000000000E+00  0.00000000000E+00  0.74505805969E-08  0.10566000000E+00  0.10566000000E+00 0.  1.
     999900   -1    0    0    0    0 -0.00000000000E+00 -0.00000000000E+00 -0.74505805969E-08  0.93827000000E+00  0.93827000000E+00 0. -1.
     999902    2    1    2    0    0 -0.15907858658E-01 -0.12864875440E-01  0.13493265090E-01  0.10194221810E+01  0.10191275435E+01 0.  0.
     999903    2    3    3    0    0 -0.11844818223E+00 -0.52985376389E-01 -0.14363151341E-01  0.13212282204E+00  0.20315462150E-01 0.  0.
         14    1    1    2    0    0  0.15907858658E-01  0.12864875440E-01 -0.13493265090E-01  0.24507818956E-01  0.00000000000E+00 0. -1.
     999901    1    3    3    0    0  0.10254032357E+00  0.40120500949E-01  0.27856416430E-01  0.88729935901E+00  0.88000000000E+00 0. -1.
        -11    1    4    4    0    0 -0.60415326938E-01 -0.26996335166E-01 -0.17524614057E-01  0.68455730661E-01  0.51100000000E-03 0. -1.
         11    1    4    4    0    0 -0.58032855292E-01 -0.25989041223E-01  0.31614627167E-02  0.63667091378E-01  0.51100000000E-03 0.  1.
</event>
<event>
 8    1  0.1114333E+005  0.1043930E+01  0.7957747E-01            NaN
         13   -1    0    0    0    0  0.00000000000E+00  0.00000000000E+00  0.74505805969E-08  0.10566000000E+00  0.10566000000E+00 0. -1.
     999900   -1    0    0    0    0 -0.00000000000E+00 -0.00000000000E+00 -0.74505805969E-08  0.93827000000E+00  0.93827000000E+00 0.  1.
     999902    2    1    2    0    0  0.71275053815E-02  0.49143246136E-02 -0.19255170687E-01  0.10228180717E+01  0.10226001634E+01 0.  0.
     999903    2    3    3    0    0  0.10044355733E+00 -0.42235226991E-01 -0.76425385084E-01  0.13478687899E+00  0.21305883094E-01 0.  0.
         14    1    1    2    0    0 -0.71275053815E-02 -0.49143246136E-02  0.19255170687E-01  0.21111928324E-01  0.00000000000E+00 0. -1.
     999901    1    3    3    0    0 -0.93316051950E-01  0.47149551604E-01  0.57170214397E-01  0.88803119269E+00  0.88000000000E+00 0. -1.
        -11    1    4    4    0    0  0.58779804385E-01 -0.35894814773E-01 -0.46857611121E-01  0.83303061001E-01  0.51100000000E-03 0.  1.
         11    1    4    4    0    0  0.41663752946E-01 -0.63404122173E-02 -0.29567773963E-01  0.51483817990E-01  0.51100000000E-03 0. -1.
</event>
<event>
 8    1  0.1114333E+005  0.1043930E+01  0.7957747E-01            NaN
         13   -1    0    0    0    0  0.00000000000E+00  0.00000000000E+00  0.74505805969E-08  0.10566000000E+00  0.10566000000E+00 0.  1.
     999900   -1    0    0    0    0 -0.00000000000E+00 -0.00000000000E+00 -0.74505805969E-08  0.93827000000E+00  0.93827000000E+00 0. -1.
     999902    2    1    2    0    0  0.22487685949E-01 -0.71664252234E-02 -0.21726964398E-02  0.10202282220E+01  0.10199528669E+01 0.  0.
     999903    2    3    3    0    0  0.85452595359E-01 -0.94008314433E-01  0.33270722279E-01  0.13300653074E+00  0.21073372359E-01 0.  0.
         14    1    1    2    0    0 -0.22487685949E-01  0.71664252234E-02  0.21726964398E-02  0.23701777985E-01  0.00000000000E+00 0. -1.
     999901    1    3    3    0    0 -0.62964909410E-01  0.86841889209E-01 -0.35443418719E-01  0.88722169128E+00  0.88000000000E+00 0. -1.
        -11    1    4    4    0    0  0.37132869563E-01 -0.47536173378E-01  0.59656636092E-02  0.60616730733E-01  0.51100000000E-03 0.  1.
         11    1    4    4    0    0  0.48319725796E-01 -0.46472141055E-01  0.27305058670E-01  0.72389800008E-01  0.51100000000E-03 0. -1.
</event>
<event>
 8    1  0.1114333E+005  0.1043930E+01  0.7957747E-01            NaN
         13   -1    0    0    0    0  0.00000000000E+00  0.00000000000E+00  0.74505805969E-08  0.10566000000E+00  0.10566000000E+00 0.  1.
     999900   -1    0    0    0    0 -0.00000000000E+00 -0.00000000000E+00 -0.74505805969E-08  0.93827000000E+00  0.93827000000E+00 0. -1.
     999902    2    1    2    0    0  0.24261390642E-01  0.82267945330E-02 -0.10189889481E-02  0.10182914828E+01  0.10179686687E+01 0.  0.
     999903    2    3    3    0    0 -0.12038422649E+00 -0.27778413749E-01  0.12157290646E-01  0.12565922713E+00  0.19453518673E-01 0.  0.
         14    1    1    2    0    0 -0.24261390642E-01 -0.82267945330E-02  0.10189889481E-02  0.25638517169E-01  0.00000000000E+00 0.  1.
     999901    1    3    3    0    0  0.14464561713E+00  0.36005208282E-01 -0.13176279595E-01  0.89263225570E+00  0.88000000000E+00 0. -1.
        -11    1    4    4    0    0 -0.67112032811E-01 -0.25126981956E-01  0.49543567308E-02  0.71834510800E-01  0.51100000000E-03 0.  1.
         11    1    4    4    0    0 -0.53272193677E-01 -0.26514317938E-02  0.72029339155E-02  0.53824716328E-01  0.51100000000E-03 0. -1.
</event>
<event>
 8    1  0.1114333E+005  0.1043930E+01  0.7957747E-01            NaN
         13   -1    0    0    0    0  0.00000000000E+00  0.00000000000E+00  0.74505805969E-08  0.10566000000E+00  0.10566000000E+00 0.  1.
     999900   -1    0    0    0    0 -0.00000000000E+00 -0.00000000000E+00 -0.74505805969E-08  0.93827000000E+00  0.93827000000E+00 0. -1.
     999902    2    1    2    0    0  0.28669841112E-02 -0.22128473302E-01 -0.44008006213E-02  0.10211867378E+01  0.10209334442E+01 0.  0.
     999903    2    3    3    0    0  0.74097750663E-01 -0.10871100615E-01  0.10569574830E+00  0.13139923474E+00  0.22034296007E-01 0.  0.
         14    1    1    2    0    0 -0.28669841112E-02  0.22128473302E-01  0.44008006213E-02  0.22743262182E-01  0.00000000000E+00 0.  1.
     999901    1    3    3    0    0 -0.71230766552E-01 -0.11257372687E-01 -0.11009654892E+00  0.88978750307E+00  0.88000000000E+00 0. -1.
        -11    1    4    4    0    0  0.42091130004E-01 -0.78180085769E-03  0.74520962913E-01  0.85591526871E-01  0.51100000000E-03 0. -1.
         11    1    4    4    0    0  0.32006620659E-01 -0.10089299757E-01  0.31174785387E-01  0.45807707873E-01  0.51100000000E-03 0.  1.
</event>
<event>
 8    1  0.1114333E+005  0.1043930E+01  0.7957747E-01            NaN
         13   -1    0    0    0    0  0.00000000000E+00  0.00000000000E+00  0.74505805969E-08  0.10566000000E+00  0.10566000000E+00 0.  1.
     999900   -1    0    0    0    0 -0.00000000000E+00 -0.00000000000E+00 -0.74505805969E-08  0.93827000000E+00  0.93827000000E+00 0. -1.
     999902    2    1    2    0    0 -0.18832716519E-01  0.67189781631E-02 -0.13589960694E-01  0.10197535050E+01  0.10194668744E+01 0.  0.
     999903    2    3    3    0    0 -0.88005603446E-01  0.93786947663E-01  0.22074961309E-01  0.13203862607E+00  0.20147383674E-01 0.  0.
         14    1    1    2    0    0  0.18832716519E-01 -0.67189781631E-02  0.13589960694E-01  0.24176495004E-01  0.00000000000E+00 0. -1.
     999901    1    3    3    0    0  0.69172886927E-01 -0.87067969500E-01 -0.35664922003E-01  0.88771487892E+00  0.88000000000E+00 0.  1.
        -11    1    4    4    0    0 -0.53995740088E-01  0.70413006749E-01  0.11868764835E-01  0.89524634413E-01  0.51100000000E-03 0.  1.
         11    1    4    4    0    0 -0.34009863358E-01  0.23373940914E-01  0.10206196474E-01  0.42513991661E-01  0.51100000000E-03 0. -1.
</event>
<event>
 8    1  0.1114333E+005  0.1043930E+01  0.7957747E-01            NaN
         13   -1    0    0    0    0  0.00000000000E+00  0.00000000000E+00  0.74505805969E-08  0.10566000000E+00  0.10566000000E+00 0. -1.
     999900   -1    0    0    0    0 -0.00000000000E+00 -0.00000000000E+00 -0.74505805969E-08  0.93827000000E+00  0.93827000000E+00 0.  1.
     999902    2    1    2    0    0 -0.93576043696E-02  0.52336287786E-02 -0.21407268557E-01  0.10199878452E+01  0.10197068096E+01 0.  0.
     999903    2    3    3    0    0 -0.71483470577E-01 -0.10402589683E+00  0.23744793038E-01  0.12991145754E+00  0.19542206283E-01 0.  0.
         14    1    1    2    0    0  0.93576043696E-02 -0.52336287786E-02  0.21407268557E-01  0.23942154807E-01  0.00000000000E+00 0. -1.
     999901    1    3    3    0    0  0.62125866208E-01  0.10925952561E+00 -0.45152061594E-01  0.89007638765E+00  0.88000000000E+00 0.  1.
        -11    1    4    4    0    0 -0.33534672927E-01 -0.44154713662E-01  0.19934151477E-01  0.58922360297E-01  0.51100000000E-03 0.  1.
         11    1    4    4    0    0 -0.37948797651E-01 -0.59871183172E-01  0.38106415606E-02  0.70989097245E-01  0.51100000000E-03 0. -1.
</event>
<event>
 8    1  0.1114333E+005  0.1043930E+01  0.7957747E-01            NaN
         13   -1    0    0    0    0  0.00000000000E+00  0.00000000000E+00  0.74505805969E-08  0.10566000000E+00  0.10566000000E+00 0. -1.
     999900   -1    0    0    0    0 -0.00000000000E+00 -0.00000000000E+00 -0.74505805969E-08  0.93827000000E+00  0.93827000000E+00 0. -1.
     999902    2    1    2    0    0 -0.16614372187E-02 -0.20857999435E-01 -0.10862821468E-01  0.10203542200E+01  0.10200818187E+01 0.  0.
     999903    2    3    3    0    0  0.59218822918E-01 -0.79147920026E-01 -0.86804094627E-01  0.13307117725E+00  0.20043082073E-01 0.  0.
         14    1    1    2    0    0  0.16614372187E-02  0.20857999435E-01  0.10862821468E-01  0.23575780036E-01  0.00000000000E+00 0. -1.
     999901    1    3    3    0    0 -0.60880260136E-01  0.58289920591E-01  0.75941273159E-01  0.88728304271E+00  0.88000000000E+00 0.  1.
        -11    1    4    4    0    0  0.11256746647E-01 -0.18251449232E-01 -0.90608929326E-02  0.23284987565E-01  0.51100000000E-03 0. -1.
         11    1    4    4    0    0  0.47962076270E-01 -0.60896470793E-01 -0.77743201694E-01  0.10978618969E+00  0.51100000000E-03 0.  1.
</event>
<event>
 8    1  0.1114333E+005  0.1043930E+01  0.7957747E-01            NaN
         13   -1    0    0    0    0  0.00000000000E+00  0.00000000000E+00  0.74505805969E-08  0.10566000000E+00  0.10566000000E+00 0. -1.
     999900   -1    0    0    0    0 -0.00000000000E+00 -0.00000000000E+00 -0.74505805969E-08  0.93827000000E+00  0.93827000000E+00 0.  1.
     999902    2    1    2    0    0 -0.16663342296E-02  0.66886128223E-02 -0.22155751013E-01  0.10207267348E+01  0.10204629713E+01 0.  0.
     999903    2    3    3    0    0 -0.22320719419E-02 -0.12369074496E+00 -0.40099750862E-01  0.13093963439E+00  0.15258286300E-01 0.  0.
         14    1    1    2    0    0  0.16663342296E-02 -0.66886128223E-02  0.22155751013E-01  0.23203265163E-01  0.00000000000E+00 0. -1.
     999901    1    3    3    0    0  0.56573771227E-03  0.13037935778E+00  0.17943999849E-01  0.88978710045E+00  0.88000000000E+00 0. -1.
        -11    1    4    4    0    0 -0.81053352747E-02 -0.47854488309E-01 -0.17329638900E-01  0.51539557784E-01  0.51100000000E-03 0. -1.
         11    1    4    4    0    0  0.58732633328E-02 -0.75836256651E-01 -0.22770111962E-01  0.79400076604E-01  0.51100000000E-03 0.  1.
</event>
<event>
 8    1  0.1114333E+005  0.1043930E+01  0.7957747E-01            NaN
         13   -1    0    0    0    0  0.00000000000E+00  0.00000000000E+00  0.74505805969E-08  0.10566000000E+00  0.10566000000E+00 0. -1.
     999900   -1    0    0    0    0 -0.00000000000E+00 -0.00000000000E+00 -0.74505805969E-08  0.93827000000E+00  0.93827000000E+00 0. -1.
     999902    2    1    2    0    0 -0.68672095697E-02 -0.19974662515E-01 -0.10166429819E-01  0.10204885409E+01  0.10202192706E+01 0.  0.
     999903    2    3    3    0    0 -0.10710986049E+00 -0.20476196498E-01  0.69984538348E-01  0.13117812360E+00  0.20446703104E-01 0.  0.
         14    1    1    2    0    0  0.68672095697E-02  0.19974662515E-01  0.10166429819E-01  0.23441459109E-01  0.00000000000E+00 0.  1.
     999901    1    3    3    0    0  0.10024265092E+00  0.50153398234E-03 -0.80150968167E-01  0.88931041729E+00  0.88000000000E+00 0. -1.
        -11    1    4    4    0    0 -0.66513365358E-01 -0.19769532889E-01  0.52276740275E-01  0.86879116574E-01  0.51100000000E-03 0.  1.
         11    1    4    4    0    0 -0.40596495128E-01 -0.70666360853E-03  0.17707798072E-01  0.44299007029E-01  0.51100000000E-03 0. -1.
</event>
<event>
 8    1  0.1114333E+005  0.1043930E+01  0.7957747E-01            NaN
         13   -1    0    0    0    0  0.00000000000E+00  0.00000000000E+00  0.74505805969E-08  0.10566000000E+00  0.10566000000E+00 0. -1.
     999900   -1    0    0    0    0 -0.00000000000E+00 -0.00000000000E+00 -0.74505805969E-08  0.93827000000E+00  0.93827000000E+00 0.  1.
     999902    2    1    2    0    0  0.12363736176E-01  0.68414900679E-02 -0.19683377986E-01  0.10196997848E+01  0.10194118637E+01 0.  0.
     999903    2    3    3    0    0 -0.42276735242E-01 -0.87148158333E-01 -0.85276910861E-01  0.13058666116E+00  0.19964986909E-01 0.  0.
         14    1    1    2    0    0 -0.12363736176E-01 -0.68414900679E-02  0.19683377986E-01  0.24230215177E-01  0.00000000000E+00 0. -1.
     999901    1    3    3    0    0  0.54640471418E-01  0.93989648401E-01  0.65593532875E-01  0.88911312367E+00  0.88000000000E+00 0. -1.
        -11    1    4    4    0    0 -0.84606057046E-02 -0.29586481594E-01 -0.37385058750E-01  0.48423604582E-01  0.51100000000E-03 0.  1.
         11    1    4    4    0    0 -0.33816129537E-01 -0.57561676739E-01 -0.47891852111E-01  0.82163056574E-01  0.51100000000E-03 0. -1.
</event>
<event>
 8    1  0.1114333E+005  0.1043930E+01  0.7957747E-01            NaN
         13   -1    0    0    0    0  0.00000000000E+00  0.00000000000E+00  0.74505805969E-08  0.10566000000E+00  0.10566000000E+00 0. -1.
     999900   -1    0    0    0    0 -0.00000000000E+00 -0.00000000000E+00 -0.74505805969E-08  0.93827000000E+00  0.93827000000E+00 0. -1.
     999902    2    1    2    0    0  0.14841738397E-01  0.17730894838E-01 -0.48690806922E-02  0.10203001507E+01  0.10200264839E+01 0.  0.
     999903    2    3    3    0    0 -0.70097837926E-01  0.10823630224E+00 -0.18115056225E-01  0.13149116321E+00  0.18247376184E-01 0.  0.
         14    1    1    2    0    0 -0.14841738397E-01 -0.17730894838E-01  0.48690806922E-02  0.23629849284E-01  0.00000000000E+00 0.  1.
     999901    1    3    3    0    0  0.84939576323E-01 -0.90505407400E-01  0.13245975533E-01  0.88880898750E+00  0.88000000000E+00 0.  1.
        -11    1    4    4    0    0 -0.67429127685E-02  0.13413779438E-01 -0.79548700489E-02  0.16998159604E-01  0.51100000000E-03 0. -1.
         11    1    4    4    0    0 -0.63354925158E-01  0.94822522800E-01 -0.10160186176E-01  0.11449300361E+00  0.51100000000E-03 0.  1.
</event>
<event>
 8    1  0.1114333E+005  0.1043930E+01  0.7957747E-01            NaN
         13   -1    0    0    0    0  0.00000000000E+00  0.00000000000E+00  0.74505805969E-08  0.10566000000E+00  0.10566000000E+00 0.  1.
     999900   -1    0    0    0    0 -0.00000000000E+00 -0.00000000000E+00 -0.74505805969E-08  0.93827000000E+00  0.93827000000E+00 0. -1.
     999902    2    1    2    0    0 -0.23871753466E-03 -0.82148818358E-02  0.22412754178E-01  0.10200579909E+01  0.10197786191E+01 0.  0.
     999903    2    3    3    0    0  0.11335907108E+00 -0.21036128183E-01  0.60905278853E-01  0.13182912601E+00  0.19407930991E-01 0.  0.
         14    1    1    2    0    0  0.23871753466E-03  0.82148818358E-02 -0.22412754178E-01  0.23872009121E-01  0.00000000000E+00 0. -1.
     999901    1    3    3    0    0 -0.11359778862E+00  0.12821246348E-01 -0.38492524675E-01  0.88822886487E+00  0.88000000000E+00 0.  1.
        -11    1    4    4    0    0  0.44240021801E-01 -0.35629635446E-03  0.17164372263E-01  0.47457173032E-01  0.51100000000E-03 0.  1.
         11    1    4    4    0    0  0.69119049283E-01 -0.20679831829E-01  0.43740906590E-01  0.84371952974E-01  0.51100000000E-03 0. -1.
</event>
<event>
 8    1  0.1114333E+005  0.1043930E+01  0.7957747E-01            NaN
         13   -1    0    0    0    0  0.00000000000E+00  0.00000000000E+00  0.74505805969E-08  0.10566000000E+00  0.10566000000E+00 0. -1.
     999900   -1    0    0    0    0 -0.00000000000E+00 -0.00000000000E+00 -0.74505805969E-08  0.93827000000E+00  0.93827000000E+00 0.  1.
     999902    2    1    2    0    0  0.63383446029E-03  0.16923259252E-01 -0.20452680279E-01  0.10173760816E+01  0.10170294887E+01 0.  0.
     999903    2    3    3    0    0 -0.59662049898E-01  0.10238820614E+00  0.46485694389E-01  0.12865756781E+00  0.18680070061E-01 0.  0.
         14    1    1    2    0    0 -0.63383446029E-03 -0.16923259252E-01  0.20452680279E-01  0.26553918363E-01  0.00000000000E+00 0. -1.
     999901    1    3    3    0    0  0.60295884359E-01 -0.85464946886E-01 -0.66938374669E-01  0.88871851383E+00  0.88000000000E+00 0. -1.
        -11    1    4    4    0    0 -0.40710448839E-01  0.84942159305E-01  0.35948535859E-01  0.10082196895E+00  0.51100000000E-03 0. -1.
         11    1    4    4    0    0 -0.18951601060E-01  0.17446046833E-01  0.10537158530E-01  0.27835598857E-01  0.51100000000E-03 0.  1.
</event>
<event>
 8    1  0.1114333E+005  0.1043930E+01  0.7957747E-01            NaN
         13   -1    0    0    0    0  0.00000000000E+00  0.00000000000E+00  0.74505805969E-08  0.10566000000E+00  0.10566000000E+00 0. -1.
     999900   -1    0    0    0    0 -0.00000000000E+00 -0.00000000000E+00 -0.74505805969E-08  0.93827000000E+00  0.93827000000E+00 0.  1.
     999902    2    1    2    0    0 -0.18909814715E-01 -0.18768337859E-01 -0.14485521849E-01  0.10136040715E+01  0.10131503105E+01 0.  0.
     999903    2    3    3    0    0  0.93765832092E-01 -0.22692010896E-01 -0.75905266931E-01  0.12428771511E+00  0.19464530611E-01 0.  0.
         14    1    1    2    0    0  0.18909814715E-01  0.18768337859E-01  0.14485521849E-01  0.30325928540E-01  0.00000000000E+00 0.  1.
     999901    1    3    3    0    0 -0.11267564681E+00  0.39236730369E-02  0.61419745082E-01  0.88931635635E+00  0.88000000000E+00 0. -1.
        -11    1    4    4    0    0  0.56614608051E-01 -0.13666175148E-01 -0.33499716656E-01  0.67189808193E-01  0.51100000000E-03 0.  1.
         11    1    4    4    0    0  0.37151224041E-01 -0.90258357479E-02 -0.42405550276E-01  0.57097906913E-01  0.51100000000E-03 0. -1.
</event>
<event>
 8    1  0.1114333E+005  0.1043930E+01  0.7957747E-01            NaN
         13   -1    0    0    0    0  0.00000000000E+00  0.00000000000E+00  0.74505805969E-08  0.10566000000E+00  0.10566000000E+00 0.  1.
     999900   -1    0    0    0    0 -0.00000000000E+00 -0.00000000000E+00 -0.74505805969E-08  0.93827000000E+00  0.93827000000E+00 0. -1.
     999902    2    1    2    0    0  0.34709731446E-02  0.17154481669E-01 -0.14594657454E-01  0.10211412325E+01  0.10208869129E+01 0.  0.
     999903    2    3    3    0    0  0.53678489651E-01 -0.10949713908E+00  0.31879720202E-01  0.12944549098E+00  0.29475665497E-01 0.  0.
         14    1    1    2    0    0 -0.34709731446E-02 -0.17154481669E-01  0.14594657454E-01  0.22788767454E-01  0.00000000000E+00 0.  1.
     999901    1    3    3    0    0 -0.50207516507E-01  0.12665162075E+00 -0.46474377656E-01  0.89169574157E+00  0.88000000000E+00 0. -1.
        -11    1    4    4    0    0  0.31104578229E-01 -0.52295937353E-01  0.30187423945E-01  0.67925706002E-01  0.51100000000E-03 0.  1.
         11    1    4    4    0    0  0.22573911422E-01 -0.57201201726E-01  0.16922962570E-02  0.61519784975E-01  0.51100000000E-03 0. -1.
</event>
<event>
 8    1  0.1114333E+005  0.1043930E+01  0.7957747E-01            NaN
         13   -1    0    0    0    0  0.00000000000E+00  0.00000000000E+00  0.74505805969E-08  0.10566000000E+00  0.10566000000E+00 0. -1.
     999900   -1    0    0    0    0 -0.00000000000E+00 -0.00000000000E+00 -0.74505805969E-08  0.93827000000E+00  0.93827000000E+00 0.  1.
     999902    2    1    2    0    0 -0.11909329980E-01 -0.20357553730E-01 -0.20223737803E-02  0.10202582419E+01  0.10199835921E+01 0.  0.
     999903    2    3    3    0    0 -0.75782688786E-01 -0.55733071778E-01 -0.91114816274E-01  0.13275122981E+00  0.21720682846E-01 0.  0.
         14    1    1    2    0    0  0.11909329980E-01  0.20357553730E-01  0.20223737803E-02  0.23671758071E-01  0.00000000000E+00 0.  1.
     999901    1    3    3    0    0  0.63873358806E-01  0.35375518048E-01  0.89092442494E-01  0.88750701211E+00  0.88000000000E+00 0. -1.
        -11    1    4    4    0    0 -0.69131627499E-01 -0.53826629520E-01 -0.75478682057E-01  0.11564506272E+00  0.51100000000E-03 0. -1.
         11    1    4    4    0    0 -0.66510612874E-02 -0.19064422576E-02 -0.15636134217E-01  0.17106167092E-01  0.51100000000E-03 0.  1.
</event>
<event>
 7    1  0.1114333E+005  0.1043930E+01  0.7957747E-01            NaN
         13   -1    0    0    0    0  0.00000000000E+00  0.00000000000E+00  0.74505805969E-08  0.10566000000E+00  0.10566000000E+00 0.  1.
     999900   -1    0    0    0    0 -0.00000000000E+00 -0.00000000000E+00 -0.74505805969E-08  0.93827000000E+00  0.93827000000E+00 0. -1.
     999903    2    1    2    0    0 -0.10761091270E-02  0.68404633585E-01  0.91802019184E-01  0.11611019007E+00  0.19329087029E-01 0.  0.
         14    1    1    2    0    0  0.38554252240E-01  0.47600715983E-02 -0.10593944453E-01  0.40265621894E-01  0.00000000000E+00 0.  1.
     999901    1    1    2    0    0 -0.37478143113E-01 -0.73164705183E-01 -0.81208074731E-01  0.88755418803E+00  0.88000000000E+00 0. -1.
        -11    1    3    3    0    0 -0.44430865371E-02  0.57822411072E-01  0.65098530958E-01  0.87185159827E-01  0.51100000000E-03 0.  1.
         11    1    3    3    0    0  0.33669774101E-02  0.10582222513E-01  0.26703488226E-01  0.28925030244E-01  0.51100000000E-03 0. -1.
</event>
<event>
 8    1  0.1114333E+005  0.1043930E+01  0.7957747E-01            NaN
         13   -1    0    0    0    0  0.00000000000E+00  0.00000000000E+00  0.74505805969E-08  0.10566000000E+00  0.10566000000E+00 0. -1.
     999900   -1    0    0    0    0 -0.00000000000E+00 -0.00000000000E+00 -0.74505805969E-08  0.93827000000E+00  0.93827000000E+00 0. -1.
     999902    2    1    2    0    0 -0.10821395667E-01 -0.18396032432E-01 -0.94260378254E-02  0.10205983305E+01  0.10203316056E+01 0.  0.
     999903    2    3    3    0    0 -0.82315216472E-02  0.12101985132E+00  0.37097320546E-01  0.12840557162E+00  0.19955381945E-01 0.  0.
         14    1    1    2    0    0  0.10821395667E-01  0.18396032432E-01  0.94260378254E-02  0.23331669519E-01  0.00000000000E+00 0. -1.
     999901    1    3    3    0    0 -0.25898740201E-02 -0.13941588376E+00 -0.46523358372E-01  0.89219275886E+00  0.88000000000E+00 0. -1.
        -11    1    4    4    0    0 -0.12997492889E-01  0.10619329066E+00  0.29012866231E-01  0.11085105922E+00  0.51100000000E-03 0.  1.
         11    1    4    4    0    0  0.47659712419E-02  0.14826560660E-01  0.80844543152E-02  0.17554512396E-01  0.51100000000E-03 0. -1.
</event>
<event>
 8    1  0.1114333E+005  0.1043930E+01  0.7957747E-01            NaN
         13   -1    0    0    0    0  0.00000000000E+00  0.00000000000E+00  0.74505805969E-08  0.10566000000E+00  0.10566000000E+00 0. -1.
     999900   -1    0    0    0    0 -0.00000000000E+00 -0.00000000000E+00 -0.74505805969E-08  0.93827000000E+00  0.93827000000E+00 0. -1.
     999902    2    1    2    0    0  0.18638482885E-01 -0.12259449252E-01 -0.22287119405E-02  0.10215100469E+01  0.10212639823E+01 0.  0.
     999903    2    3    3    0    0  0.80919077683E-01  0.10010429738E+00  0.20032660520E-01  0.13190336260E+00  0.20698359606E-01 0.  0.
         14    1    1    2    0    0 -0.18638482885E-01  0.12259449252E-01  0.22287119405E-02  0.22419953103E-01  0.00000000000E+00 0. -1.
     999901    1    3    3    0    0 -0.62280594798E-01 -0.11236374663E+00 -0.22261372460E-01  0.88960668430E+00  0.88000000000E+00 0. -1.
        -11    1    4    4    0    0  0.19560461520E-01  0.39723319220E-01  0.62576950112E-02  0.44721064529E-01  0.51100000000E-03 0.  1.
         11    1    4    4    0    0  0.61358616163E-01  0.60380978159E-01  0.13774965508E-01  0.87182298070E-01  0.51100000000E-03 0. -1.
</event>
<event>
 8    1  0.1114333E+005  0.1043930E+01  0.7957747E-01            NaN
         13   -1    0    0    0    0  0.00000000000E+00  0.00000000000E+00  0.74505805969E-08  0.10566000000E+00  0.10566000000E+00 0.  1.
     999900   -1    0    0    0    0 -0.00000000000E+00 -0.00000000000E+00 -0.74505805969E-08  0.93827000000E+00  0.93827000000E+00 0.  1.
     999902    2    1    2    0    0 -0.13429028004E-01 -0.19198356305E-01 -0.18540040450E-02  0.10204278084E+01  0.10201571248E+01 0.  0.
     999903    2    3    3    0    0  0.10766324432E+00  0.53215658579E-01 -0.39922283588E-01  0.12837605999E+00  0.21525416524E-01 0.  0.
         14    1    1    2    0    0  0.13429028004E-01  0.19198356305E-01  0.18540040450E-02  0.23502191578E-01  0.00000000000E+00 0.  1.
     999901    1    3    3    0    0 -0.12109227233E+00 -0.72414014884E-01  0.38068279543E-01  0.89205174843E+00  0.88000000000E+00 0. -1.
        -11    1    4    4    0    0  0.37957712032E-01  0.82103622548E-02 -0.16163497372E-01  0.42068013018E-01  0.51100000000E-03 0.  1.
         11    1    4    4    0    0  0.69705532290E-01  0.45005296324E-01 -0.23758786216E-01  0.86308046974E-01  0.51100000000E-03 0. -1.
</event>
<event>
 8    1  0.1114333E+005  0.1043930E+01  0.7957747E-01            NaN
         13   -1    0    0    0    0  0.00000000000E+00  0.00000000000E+00  0.74505805969E-08  0.10566000000E+00  0.10566000000E+00 0.  1.
     999900   -1    0    0    0    0 -0.00000000000E+00 -0.00000000000E+00 -0.74505805969E-08  0.93827000000E+00  0.93827000000E+00 0.  1.
     999902    2    1    2    0    0 -0.15922423588E-01  0.24443452863E-02 -0.17216166931E-01  0.10203525786E+01  0.10200801389E+01 0.  0.
     999903    2    3    3    0    0 -0.79895624049E-01 -0.10114027245E+00 -0.19941466102E-01  0.13196653037E+00  0.20120576860E-01 0.  0.
         14    1    1    2    0    0  0.15922423588E-01 -0.24443452863E-02  0.17216166931E-01  0.23577421415E-01  0.00000000000E+00 0.  1.
     999901    1    3    3    0    0  0.63973200461E-01  0.10358461774E+00  0.27252991712E-02  0.88838604822E+00  0.88000000000E+00 0. -1.
        -11    1    4    4    0    0 -0.22428472616E-01 -0.28834406229E-01  0.34247917775E-02  0.36694000683E-01  0.51100000000E-03 0. -1.
         11    1    4    4    0    0 -0.57467151433E-01 -0.72305866224E-01 -0.23366257880E-01  0.95272529685E-01  0.51100000000E-03 0.  1.
</event>
<event>
 8    1  0.1114333E+005  0.1043930E+01  0.7957747E-01            NaN
         13   -1    0    0    0    0  0.00000000000E+00  0.00000000000E+00  0.74505805969E-08  0.10566000000E+00  0.10566000000E+00 0. -1.
     999900   -1    0    0    0    0 -0.00000000000E+00 -0.00000000000E+00 -0.74505805969E-08  0.93827000000E+00  0.93827000000E+00 0. -1.
     999902    2    1    2    0    0 -0.11792633727E-01  0.16848578991E-03 -0.21592536819E-01  0.10193264994E+01  0.10190295285E+01 0.  0.
     999903    2    3    3    0    0  0.54655805828E-01  0.16416800106E-01  0.11198277074E+00  0.12662175218E+00  0.15367457389E-01 0.  0.
         14    1    1    2    0    0  0.11792633727E-01 -0.16848578991E-03  0.21592536819E-01  0.24603500645E-01  0.00000000000E+00 0. -1.
     999901    1    3    3    0    0 -0.66448439555E-01 -0.16248314316E-01 -0.13357530756E+00  0.89270474717E+00  0.88000000000E+00 0. -1.
        -11    1    4    4    0    0  0.49729294579E-01  0.17877325658E-01  0.10748275622E+00  0.11977230698E+00  0.51100000000E-03 0.  1.
         11    1    4    4    0    0  0.49265112488E-02 -0.14605255515E-02  0.45000145142E-02  0.68494452037E-02  0.51100000000E-03 0. -1.
</event>
<event>
 8    1  0.1114333E+005  0.1043930E+01  0.7957747E-01            NaN
         13   -1    0    0    0    0  0.00000000000E+00  0.00000000000E+00  0.74505805969E-08  0.10566000000E+00  0.10566000000E+00 0. -1.
     999900   -1    0    0    0    0 -0.00000000000E+00 -0.00000000000E+00 -0.74505805969E-08  0.93827000000E+00  0.93827000000E+00 0.  1.
     999902    2    1    2    0    0  0.14132779043E-01  0.65527254531E-02  0.19388955603E-01  0.10190582238E+01  0.10187546604E+01 0.  0.
     999903    2    3    3    0    0  0.11010662700E+00 -0.61157042000E-01  0.30912873191E-01  0.13117963252E+00  0.19718954409E-01 0.  0.
         14    1    1    2    0    0 -0.14132779043E-01 -0.65527254531E-02 -0.19388955603E-01  0.24871776247E-01  0.00000000000E+00 0.  1.
     999901    1    3    3    0    0 -0.95973847956E-01  0.67709767453E-01 -0.11523917588E-01  0.88787859124E+00  0.88000000000E+00 0.  1.
        -11    1    4    4    0    0  0.41292242393E-01 -0.33798165085E-01  0.10854300735E-01  0.54455873975E-01  0.51100000000E-03 0. -1.
         11    1    4    4    0    0  0.68814384606E-01 -0.27358876915E-01  0.20058572456E-01  0.76723758541E-01  0.51100000000E-03 0.  1.
</event>
<event>
 8    1  0.1114333E+005  0.1043930E+01  0.7957747E-01            NaN
         13   -1    0    0    0    0  0.00000000000E+00  0.00000000000E+00  0.74505805969E-08  0.10566000000E+00  0.10566000000E+00 0.  1.
     999900   -1    0    0    0    0 -0.00000000000E+00 -0.00000000000E+00 -0.74505805969E-08  0.93827000000E+00  0.93827000000E+00 0. -1.
     999902    2    1    2    0    0 -0.20165107023E-01  0.13959813557E-01 -0.78078944781E-02  0.10181914850E+01  0.10178661155E+01 0.  0.
     999903    2    3    3    0    0  0.33857782933E-01 -0.11548296680E+00  0.30975364379E-01  0.12623966617E+00  0.22233196620E-01 0.  0.
         14    1    1    2    0    0  0.20165107023E-01 -0.13959813557E-01  0.78078944781E-02  0.25738514953E-01  0.00000000000E+00 0.  1.
     999901    1    3    3    0    0 -0.54022889957E-01  0.12944278035E+00 -0.38783258857E-01  0.89195181887E+00  0.88000000000E+00 0. -1.
        -11    1    4    4    0    0  0.66921836231E-02 -0.60441242572E-01  0.11945105217E-01  0.61974799596E-01  0.51100000000E-03 0.  1.
         11    1    4    4    0    0  0.27165599310E-01 -0.55041724224E-01  0.19030259163E-01  0.64264866578E-01  0.51100000000E-03 0. -1.
</event>
<event>
 8    1  0.1114333E+005  0.1043930E+01  0.7957747E-01            NaN
         13   -1    0    0    0    0  0.00000000000E+00  0.00000000000E+00  0.74505805969E-08  0.10566000000E+00  0.10566000000E+00 0. -1.
     999900   -1    0    0    0    0 -0.00000000000E+00 -0.00000000000E+00 -0.74505805969E-08  0.93827000000E+00  0.93827000000E+00 0. -1.
     999902    2    1    2    0    0 -0.75380994508E-02 -0.16808852647E-01 -0.16217412220E-01  0.10193868761E+01  0.10190913788E+01 0.  0.
     999903    2    3    3    0    0 -0.44172761200E-01  0.14804835867E-01 -0.12166466171E+00  0.13177173082E+00  0.19775822043E-01 0.  0.
         14    1    1    2    0    0  0.75380994508E-02  0.16808852647E-01  0.16217412220E-01  0.24543123880E-01  0.00000000000E+00 0. -1.
     999901    1    3    3    0    0  0.36634661749E-01 -0.31613688514E-01  0.10544724949E+00  0.88761514530E+00  0.88000000000E+00 0.  1.
        -11    1    4    4    0    0 -0.62320975446E-02 -0.19082812664E-02 -0.36141909019E-01  0.36728453353E-01  0.51100000000E-03 0.  1.
         11    1    4    4    0    0 -0.37940663655E-01  0.16713117133E-01 -0.85522752690E-01  0.95043277466E-01  0.51100000000E-03 0. -1.
</event>
<event>
 8    1  0.1114333E+005  0.1043930E+01  0.7957747E-01            NaN
         13   -1    0    0    0    0  0.00000000000E+00  0.00000000000E+00  0.74505805969E-08  0.10566000000E+00  0.10566000000E+00 0.  1.
     999900   -1    0    0    0    0 -0.00000000000E+00 -0.00000000000E+00 -0.74505805969E-08  0.93827000000E+00  0.93827000000E+00 0.  1.
     999902    2    1    2    0    0  0.19228096748E-01  0.33151560981E-02  0.11471672739E-01  0.10212957507E+01  0.10210449066E+01 0.  0.
     999903    2    3    3    0    0  0.72000516274E-01  0.22283094251E-01  0.10912609518E+00  0.13411983967E+00  0.19975387625E-01 0.  0.
         14    1    1    2    0    0 -0.19228096748E-01 -0.33151560981E-02 -0.11471672739E-01  0.22634249268E-01  0.00000000000E+00 0. -1.
     999901    1    3    3    0    0 -0.52772419526E-01 -0.18967938153E-01 -0.97654422444E-01  0.88717591106E+00  0.88000000000E+00 0.  1.
        -11    1    4    4    0    0  0.42563421371E-01  0.31399621136E-02  0.64275107785E-01  0.77156041907E-01  0.51100000000E-03 0. -1.
         11    1    4    4    0    0  0.29437094903E-01  0.19143132138E-01  0.44850987398E-01  0.56963797766E-01  0.51100000000E-03 0.  1.
</event>
<event>
 8    1  0.1114333E+005  0.1043930E+01  0.7957747E-01            NaN
         13   -1    0    0    0    0  0.00000000000E+00  0.00000000000E+00  0.74505805969E-08  0.10566000000E+00  0.10566000000E+00 0.  1.
     999900   -1    0    0    0    0 -0.00000000000E+00 -0.00000000000E+00 -0.74505805969E-08  0.93827000000E+00  0.93827000000E+00 0. -1.
     999902    2    1    2    0    0  0.16227974425E-01 -0.10065600709E-01 -0.12953971241E-01  0.10208547136E+01  0.10205938847E+01 0.  0.
     999903    2    3    3    0    0  0.21267124668E-01  0.12239671471E+00 -0.35376312053E-01  0.13064439047E+00  0.19576183031E-01 0.  0.
         14    1    1    2    0    0 -0.16227974425E-01  0.10065600709E-01  0.12953971241E-01  0.23075286401E-01  0.00000000000E+00 0.  1.
     999901    1    3    3    0    0 -0.50391502430E-02 -0.13246231542E+00  0.22422340812E-01  0.89021032313E+00  0.88000000000E+00 0. -1.
        -11    1    4    4    0    0  0.19725974203E-01  0.98243457452E-01 -0.20656038376E-01  0.10231238455E+00  0.51100000000E-03 0.  1.
         11    1    4    4    0    0  0.15411504642E-02  0.24153257261E-01 -0.14720273677E-01  0.28332005916E-01  0.51100000000E-03 0. -1.
</event>
<event>
 8    1  0.1114333E+005  0.1043930E+01  0.7957747E-01            NaN
         13   -1    0    0    0    0  0.00000000000E+00  0.00000000000E+00  0.74505805969E-08  0.10566000000E+00  0.10566000000E+00 0.  1.
     999900   -1    0    0    0    0 -0.00000000000E+00 -0.00000000000E+00 -0.74505805969E-08  0.93827000000E+00  0.93827000000E+00 0.  1.
     999902    2    1    2    0    0 -0.17951291293E-01 -0.34502124258E-03 -0.15538811666E-01  0.10201850518E+01  0.10199086809E+01 0.  0.
     999903    2    3    3    0    0 -0.62439145175E-01  0.11336404084E+00 -0.10812177133E-01  0.13174188475E+00  0.22112630262E-01 0.  0.
         14    1    1    2    0    0  0.17951291293E-01  0.34502124258E-03  0.15538811666E-01  0.23744948236E-01  0.00000000000E+00 0.  1.
     999901    1    3    3    0    0  0.44487853882E-01 -0.11370906208E+00 -0.47266345334E-02  0.88844316702E+00  0.88000000000E+00 0.  1.
        -11    1    4    4    0    0 -0.54413207103E-01  0.10845389934E+00 -0.68886767780E-02  0.12153501708E+00  0.51100000000E-03 0. -1.
         11    1    4    4    0    0 -0.80259380723E-02  0.49101415031E-02 -0.39235003547E-02  0.10206867666E-01  0.51100000000E-03 0.  1.
</event>
<event>
 8    1  0.1114333E+005  0.1043930E+01  0.7957747E-01            NaN
         13   -1    0    0    0    0  0.00000000000E+00  0.00000000000E+00  0.74505805969E-08  0.10566000000E+00  0.10566000000E+00 0.  1.
     999900   -1    0    0    0    0 -0.00000000000E+00 -0.00000000000E+00 -0.74505805969E-08  0.93827000000E+00  0.93827000000E+00 0. -1.
     999902    2    1    2    0    0  0.67658032298E-02  0.12733273871E-01  0.17369439476E-01  0.10213554616E+01  0.10211059539E+01 0.  0.
     999903    2    3    3    0    0  0.91319957084E-01  0.43093394439E-01  0.86001005053E-01  0.13412300408E+00  0.19910603915E-01 0.  0.
         14    1    1    2    0    0 -0.67658032298E-02 -0.12733273871E-01 -0.17369439476E-01  0.22574538412E-01  0.00000000000E+00 0. -1.
     999901    1    3    3    0    0 -0.84554153854E-01 -0.30360120568E-01 -0.68631565577E-01  0.88723245750E+00  0.88000000000E+00 0. -1.
        -11    1    4    4    0    0  0.40857581273E-01  0.86680738243E-02  0.32635057758E-01  0.53007410493E-01  0.51100000000E-03 0. -1.
         11    1    4    4    0    0  0.50462375811E-01  0.34425320615E-01  0.53365947295E-01  0.81115593591E-01  0.51100000000E-03 0.  1.
</event>
<event>
 8    1  0.1114333E+005  0.1043930E+01  0.7957747E-01            NaN
         13   -1    0    0    0    0  0.00000000000E+00  0.00000000000E+00  0.74505805969E-08  0.10566000000E+00  0.10566000000E+00 0. -1.
     999900   -1    0    0    0    0 -0.00000000000E+00 -0.00000000000E+00 -0.74505805969E-08  0.93827000000E+00  0.93827000000E+00 0.  1.
     999902    2    1    2    0    0  0.15830419967E-01 -0.16164004197E-01  0.10380542061E-01  0.10190375738E+01  0.10187335000E+01 0.  0.
     999903    2    3    3    0    0  0.90595616150E-01  0.89600244327E-01  0.12447995521E-01  0.12955447381E+00  0.19840353896E-01 0.  0.
         14    1    1    2    0    0 -0.15830419967E-01  0.16164004197E-01 -0.10380542061E-01  0.24892426188E-01  0.00000000000E+00 0.  1.
     999901    1    3    3    0    0 -0.74765196182E-01 -0.10576424852E+00 -0.20674534600E-02  0.88948310000E+00  0.88000000000E+00 0. -1.
        -11    1    4    4    0    0  0.28129137234E-01  0.29126873358E-01 -0.52273813041E-02  0.40831479883E-01  0.51100000000E-03 0. -1.
         11    1    4    4    0    0  0.62466478915E-01  0.60473370969E-01  0.17675376825E-01  0.88722993927E-01  0.51100000000E-03 0.  1.
</event>
<event>
 8    1  0.1114333E+005  0.1043930E+01  0.7957747E-01            NaN
         13   -1    0    0    0    0  0.00000000000E+00  0.00000000000E+00  0.74505805969E-08  0.10566000000E+00  0.10566000000E+00 0.  1.
     999900   -1    0    0    0    0 -0.00000000000E+00 -0.00000000000E+00 -0.74505805969E-08  0.93827000000E+00  0.93827000000E+00 0.  1.
     999902    2    1    2    0    0  0.12935825753E-01 -0.46170597093E-02 -0.18699057988E-01  0.10207285432E+01  0.10204648212E+01 0.  0.
     999903    2    3    3    0    0  0.62431958141E-01 -0.11308340684E+00  0.23546339759E-01  0.13168439963E+00  0.10037165425E-01 0.  0.
         14    1    1    2    0    0 -0.12935825753E-01  0.46170597093E-02  0.18699057988E-01  0.23201456806E-01  0.00000000000E+00 0. -1.
     999901    1    3    3    0    0 -0.49496132388E-01  0.10846634713E+00 -0.42245397748E-01  0.88904414357E+00  0.88000000000E+00 0.  1.
        -11    1    4    4    0    0  0.40801662244E-01 -0.81793121309E-01  0.14108553494E-01  0.92488933057E-01  0.51100000000E-03 0.  1.
         11    1    4    4    0    0  0.21630295897E-01 -0.31290285528E-01  0.94377862655E-02  0.39195466570E-01  0.51100000000E-03 0. -1.
</event>
<event>
 8    1  0.1114333E+005  0.1043930E+01  0.7957747E-01            NaN
         13   -1    0    0    0    0  0.00000000000E+00  0.00000000000E+00  0.74505805969E-08  0.10566000000E+00  0.10566000000E+00 0.  1.
     999900   -1    0    0    0    0 -0.00000000000E+00 -0.00000000000E+00 -0.74505805969E-08  0.93827000000E+00  0.93827000000E+00 0.  1.
     999902    2    1    2    0    0  0.38883966978E-02  0.18456237786E-01  0.15436398853E-01  0.10195571719E+01  0.10192658102E+01 0.  0.
     999903    2    3    3    0    0 -0.11408410245E+00  0.25377359285E-02  0.59907357537E-01  0.13042918589E+00  0.20031438034E-01 0.  0.
         14    1    1    2    0    0 -0.38883966978E-02 -0.18456237786E-01 -0.15436398853E-01  0.24372828142E-01  0.00000000000E+00 0. -1.
     999901    1    3    3    0    0  0.11797249915E+00  0.15918501858E-01 -0.44470958684E-01  0.88912798596E+00  0.88000000000E+00 0.  1.
        -11    1    4    4    0    0 -0.70990866412E-01  0.16851523727E-03  0.26229499155E-01  0.75683414684E-01  0.51100000000E-03 0. -1.
         11    1    4    4    0    0 -0.43093236041E-01  0.23692206913E-02  0.33677858382E-01  0.54745771210E-01  0.51100000000E-03 0.  1.
</event>
<event>
 8    1  0.1114333E+005  0.1043930E+01  0.7957747E-01            NaN
         13   -1    0    0    0    0  0.00000000000E+00  0.00000000000E+00  0.74505805969E-08  0.10566000000E+00  0.10566000000E+00 0. -1.
     999900   -1    0    0    0    0 -0.00000000000E+00 -0.00000000000E+00 -0.74505805969E-08  0.93827000000E+00  0.93827000000E+00 0.  1.
     999902    2    1    2    0    0 -0.16656912427E-01  0.14925342088E-01 -0.71180161982E-02  0.10204590664E+01  0.10201891107E+01 0.  0.
     999903    2    3    3    0    0 -0.57386013305E-01 -0.10574059523E+00  0.44707892004E-01  0.12978232774E+00  0.19246531702E-01 0.  0.
         14    1    1    2    0    0  0.16656912427E-01 -0.14925342088E-01  0.71180161982E-02  0.23470933570E-01  0.00000000000E+00 0.  1.
     999901    1    3    3    0    0  0.40729100878E-01  0.12066593732E+00 -0.51825908202E-01  0.89067673869E+00  0.88000000000E+00 0.  1.
        -11    1    4    4    0    0 -0.14966885599E-01 -0.33340945434E-01  0.48019563405E-02  0.36863887650E-01  0.51100000000E-03 0. -1.
         11    1    4    4    0    0 -0.42419127706E-01 -0.72399649797E-01  0.39905935663E-01  0.92918440087E-01  0.51100000000E-03 0.  1.
</event>
<event>
 8    1  0.1114333E+005  0.1043930E+01  0.7957747E-01            NaN
         13   -1    0    0    0    0  0.00000000000E+00  0.00000000000E+00  0.74505805969E-08  0.10566000000E+00  0.10566000000E+00 0.  1.
     999900   -1    0    0    0    0 -0.00000000000E+00 -0.00000000000E+00 -0.74505805969E-08  0.93827000000E+00  0.93827000000E+00 0.  1.
     999902    2    1    2    0    0 -0.23325396823E-01  0.25387447204E-02 -0.49048419150E-02  0.10199596676E+01  0.10196779622E+01 0.  0.
     999903    2    3    3    0    0  0.11630164363E+00 -0.47379033664E-01 -0.10198641831E-01  0.12753851178E+00  0.19779144297E-01 0.  0.
         14    1    1    2    0    0  0.23325396823E-01 -0.25387447204E-02  0.49048419150E-02  0.23970332411E-01  0.00000000000E+00 0.  1.
     999901    1    3    3    0    0 -0.13962704045E+00  0.49917778384E-01  0.52937999158E-02  0.89242115581E+00  0.88000000000E+00 0.  1.
        -11    1    4    4    0    0  0.46180186215E-01 -0.22031465491E-01 -0.13438761466E-01  0.52904220070E-01  0.51100000000E-03 0. -1.
         11    1    4    4    0    0  0.70121457414E-01 -0.25347568173E-01  0.32401196350E-02  0.74634291706E-01  0.51100000000E-03 0.  1.
</event>
<event>
 8    1  0.1114333E+005  0.1043930E+01  0.7957747E-01            NaN
         13   -1    0    0    0    0  0.00000000000E+00  0.00000000000E+00  0.74505805969E-08  0.10566000000E+00  0.10566000000E+00 0.  1.
     999900   -1    0    0    0    0 -0.00000000000E+00 -0.00000000000E+00 -0.74505805969E-08  0.93827000000E+00  0.93827000000E+00 0. -1.
     999902    2    1    2    0    0 -0.14604172417E-01  0.68395940396E-02  0.17970354837E-01  0.10197846992E+01  0.10194988166E+01 0.  0.
     999903    2    3    3    0    0 -0.10909205316E-01  0.42725523150E-01  0.12389257802E+00  0.13269903813E+00  0.17753386794E-01 0.  0.
         14    1    1    2    0    0  0.14604172417E-01 -0.68395940396E-02 -0.17970354837E-01  0.24145300818E-01  0.00000000000E+00 0. -1.
     999901    1    3    3    0    0 -0.36949671005E-02 -0.35885929110E-01 -0.10592222318E+00  0.88708566106E+00  0.88000000000E+00 0. -1.
        -11    1    4    4    0    0  0.24296045592E-02  0.11998989459E-01  0.51393784955E-01  0.52834278450E-01  0.51100000000E-03 0. -1.
         11    1    4    4    0    0 -0.13338809876E-01  0.30726533691E-01  0.72498793062E-01  0.79864759675E-01  0.51100000000E-03 0.  1.
</event>
<event>
 8    1  0.1114333E+005  0.1043930E+01  0.7957747E-01            NaN
         13   -1    0    0    0    0  0.00000000000E+00  0.00000000000E+00  0.74505805969E-08  0.10566000000E+00  0.10566000000E+00 0. -1.
     999900   -1    0    0    0    0 -0.00000000000E+00 -0.00000000000E+00 -0.74505805969E-08  0.93827000000E+00  0.93827000000E+00 0. -1.
     999902    2    1    2    0    0 -0.17591187403E-01 -0.12015502965E-01 -0.97970562419E-02  0.10204820897E+01  0.10202126695E+01 0.  0.
     999903    2    3    3    0    0 -0.12111547770E+00  0.42372287745E-01  0.25088596142E-01  0.13206083873E+00  0.18608002610E-01 0.  0.
         14    1    1    2    0    0  0.17591187403E-01  0.12015502965E-01  0.97970562419E-02  0.23447910286E-01  0.00000000000E+00 0. -1.
     999901    1    3    3    0    0  0.10352429030E+00 -0.54387790711E-01 -0.34885652384E-01  0.88842125099E+00  0.88000000000E+00 0.  1.
        -11    1    4    4    0    0 -0.61392775812E-01  0.30052012345E-01  0.86412814959E-02  0.68899413893E-01  0.51100000000E-03 0. -1.
         11    1    4    4    0    0 -0.59722701892E-01  0.12320275400E-01  0.16447314646E-01  0.63161424835E-01  0.51100000000E-03 0.  1.
</event>
<event>
 8    1  0.1114333E+005  0.1043930E+01  0.7957747E-01            NaN
         13   -1    0    0    0    0  0.00000000000E+00  0.00000000000E+00  0.74505805969E-08  0.10566000000E+00  0.10566000000E+00 0.  1.
     999900   -1    0    0    0    0 -0.00000000000E+00 -0.00000000000E+00 -0.74505805969E-08  0.93827000000E+00  0.93827000000E+00 0. -1.
     999902    2    1    2    0    0  0.16257704030E-01 -0.16497134948E-01  0.53708001723E-02  0.10201536694E+01  0.10198765589E+01 0.  0.
     999903    2    3    3    0    0  0.57091405297E-01 -0.63137756303E-01  0.99779500779E-01  0.13293569086E+00  0.21682811123E-01 0.  0.
         14    1    1    2    0    0 -0.16257704030E-01  0.16497134948E-01 -0.53708001723E-02  0.23776330589E-01  0.00000000000E+00 0.  1.
     999901    1    3    3    0    0 -0.40833701267E-01  0.46640621355E-01 -0.94408700606E-01  0.88721797855E+00  0.88000000000E+00 0. -1.
        -11    1    4    4    0    0  0.28764140888E-01 -0.39146602561E-01  0.70677765242E-01  0.85763861351E-01  0.51100000000E-03 0.  1.
         11    1    4    4    0    0  0.28327264408E-01 -0.23991153742E-01  0.29101735536E-01  0.47171829506E-01  0.51100000000E-03 0. -1.
</event>
<event>
 8    1  0.1114333E+005  0.1043930E+01  0.7957747E-01            NaN
         13   -1    0    0    0    0  0.00000000000E+00  0.00000000000E+00  0.74505805969E-08  0.10566000000E+00  0.10566000000E+00 0.  1.
     999900   -1    0    0    0    0 -0.00000000000E+00 -0.00000000000E+00 -0.74505805969E-08  0.93827000000E+00  0.93827000000E+00 0. -1.
     999902    2    1    2    0    0  0.51346807680E-02  0.17181657424E-01  0.41137397823E-02  0.10255317079E+01  0.10253666596E+01 0.  0.
     999903    2    3    3    0    0  0.11989999426E+00  0.17222730277E-01 -0.58242560472E-01  0.13589167558E+00  0.20042968326E-01 0.  0.
         14    1    1    2    0    0 -0.51346807680E-02 -0.17181657424E-01 -0.41137397823E-02  0.18398292133E-01  0.00000000000E+00 0. -1.
     999901    1    3    3    0    0 -0.11476531349E+00 -0.41072852728E-04  0.62356300254E-01  0.88964003229E+00  0.88000000000E+00 0. -1.
        -11    1    4    4    0    0  0.86001073749E-01  0.35431700194E-02 -0.37846711004E-01  0.94028577542E-01  0.51100000000E-03 0.  1.
         11    1    4    4    0    0  0.33898920512E-01  0.13679560257E-01 -0.20395849467E-01  0.41863098036E-01  0.51100000000E-03 0. -1.
</event>
<event>
 8    1  0.1114333E+005  0.1043930E+01  0.7957747E-01            NaN
         13   -1    0    0    0    0  0.00000000000E+00  0.00000000000E+00  0.74505805969E-08  0.10566000000E+00  0.10566000000E+00 0. -1.
     999900   -1    0    0    0    0 -0.00000000000E+00 -0.00000000000E+00 -0.74505805969E-08  0.93827000000E+00  0.93827000000E+00 0.  1.
     999902    2    1    2    0    0  0.12607927295E-01  0.14519177029E-01 -0.14503920927E-01  0.10198441109E+01  0.10195596503E+01 0.  0.
     999903    2    3    3    0    0 -0.38260616743E-01 -0.11407142299E+00 -0.40840006456E-01  0.12865572419E+00  0.20204576248E-01 0.  0.
         14    1    1    2    0    0 -0.12607927295E-01 -0.14519177029E-01  0.14503920927E-01  0.24085889116E-01  0.00000000000E+00 0. -1.
     999901    1    3    3    0    0  0.50868544038E-01  0.12859060002E+00  0.26336085529E-01  0.89118838670E+00  0.88000000000E+00 0.  1.
        -11    1    4    4    0    0 -0.10257185120E-01 -0.11902612876E-01 -0.86049509259E-02  0.17921728190E-01  0.51100000000E-03 0.  1.
         11    1    4    4    0    0 -0.28003431623E-01 -0.10216881012E+00 -0.32235055530E-01  0.11073399600E+00  0.51100000000E-03 0. -1.
</event>
<event>
 8    1  0.1114333E+005  0.1043930E+01  0.7957747E-01            NaN
         13   -1    0    0    0    0  0.00000000000E+00  0.00000000000E+00  0.74505805969E-08  0.10566000000E+00  0.10566000000E+00 0. -1.
     999900   -1    0    0    0    0 -0.00000000000E+00 -0.00000000000E+00 -0.74505805969E-08  0.93827000000E+00  0.93827000000E+00 0. -1.
     999902    2    1    2    0    0 -0.19674607291E-02  0.17858372935E-01  0.13396391044E-01  0.10215189385E+01  0.10212730712E+01 0.  0.
     999903    2    3    3    0    0 -0.48179297643E-01 -0.60807781329E-01  0.10440432554E+00  0.13213356540E+00  0.23241878634E-01 0.  0.
         14    1    1    2    0    0  0.19674607291E-02 -0.17858372935E-01 -0.13396391044E-01  0.22411061523E-01  0.00000000000E+00 0.  1.
     999901    1    3    3    0    0  0.46211836914E-01  0.78666154264E-01 -0.91007934498E-01  0.88938537307E+00  0.88000000000E+00 0. -1.
        -11    1    4    4    0    0 -0.76353541263E-03 -0.97600739505E-02  0.22886287501E-01  0.24897495987E-01  0.51100000000E-03 0. -1.
         11    1    4    4    0    0 -0.47415762231E-01 -0.51047707378E-01  0.81518038041E-01  0.10723606941E+00  0.51100000000E-03 0.  1.
</event>
<event>
 8    1  0.1114333E+005  0.1043930E+01  0.7957747E-01            NaN
         13   -1    0    0    0    0  0.00000000000E+00  0.00000000000E+00  0.74505805969E-08  0.10566000000E+00  0.10566000000E+00 0. -1.
     999900   -1    0    0    0    0 -0.00000000000E+00 -0.00000000000E+00 -0.74505805969E-08  0.93827000000E+00  0.93827000000E+00 0.  1.
     999902    2    1    2    0    0 -0.14618256328E-01 -0.17517997402E-01  0.74022640434E-02  0.10199431877E+01  0.10196610903E+01 0.  0.
     999903    2    3    3    0    0 -0.21048396248E-01  0.10521049501E-01  0.12753548716E+00  0.13131529812E+00  0.20607755049E-01 0.  0.
         14    1    1    2    0    0  0.14618256328E-01  0.17517997402E-01 -0.74022640434E-02  0.23986812293E-01  0.00000000000E+00 0. -1.
     999901    1    3    3    0    0  0.64301399202E-02 -0.28039046903E-01 -0.12013322312E+00  0.88862788958E+00  0.88000000000E+00 0.  1.
        -11    1    4    4    0    0 -0.10486552961E-01 -0.48996565296E-02  0.65733506567E-01  0.66746755979E-01  0.51100000000E-03 0.  1.
         11    1    4    4    0    0 -0.10561843287E-01  0.15420706030E-01  0.61801980594E-01  0.64568542143E-01  0.51100000000E-03 0. -1.
</event>
<event>
 8    1  0.1114333E+005  0.1043930E+01  0.7957747E-01            NaN
         13   -1    0    0    0    0  0.00000000000E+00  0.00000000000E+00  0.74505805969E-08  0.10566000000E+00  0.10566000000E+00 0.  1.
     999900   -1    0    0    0    0 -0.00000000000E+00 -0.00000000000E+00 -0.74505805969E-08  0.93827000000E+00  0.93827000000E+00 0.  1.
     999902    2    1    2    0    0  0.14491659320E-01 -0.15911426945E-01 -0.10061533747E-01  0.10201725557E+01  0.10198958904E+01 0.  0.
     999903    2    3    3    0    0 -0.33315120190E-01  0.11465722227E+00 -0.43458510628E-01  0.12862950102E+00  0.20018255057E-01 0.  0.
         14    1    1    2    0    0 -0.14491659320E-01  0.15911426945E-01  0.10061533747E-01  0.23757444278E-01  0.00000000000E+00 0.  1.
     999901    1    3    3    0    0  0.47806779510E-01 -0.13056864921E+00  0.33396976881E-01  0.89154305470E+00  0.88000000000E+00 0. -1.
        -11    1    4    4    0    0 -0.22329986081E-01  0.67045396974E-01 -0.35626447904E-01  0.79140498134E-01  0.51100000000E-03 0.  1.
         11    1    4    4    0    0 -0.10985134109E-01  0.47611825292E-01 -0.78320627247E-02  0.49489002885E-01  0.51100000000E-03 0. -1.
</event>
<event>
 8    1  0.1114333E+005  0.1043930E+01  0.7957747E-01            NaN
         13   -1    0    0    0    0  0.00000000000E+00  0.00000000000E+00  0.74505805969E-08  0.10566000000E+00  0.10566000000E+00 0.  1.
     999900   -1    0    0    0    0 -0.00000000000E+00 -0.00000000000E+00 -0.74505805969E-08  0.93827000000E+00  0.93827000000E+00 0. -1.
     999902    2    1    2    0    0  0.15688408284E-01 -0.32756040801E-02 -0.17322296622E-01  0.10203308963E+01  0.10200579494E+01 0.  0.
     999903    2    3    3    0    0 -0.69712215375E-01  0.10938040046E-01 -0.10891551506E+00  0.13135136227E+00  0.20277013046E-01 0.  0.
         14    1    1    2    0    0 -0.15688408284E-01  0.32756040801E-02  0.17322296622E-01  0.23599103729E-01  0.00000000000E+00 0.  1.
     999901    1    3    3    0    0  0.85400623659E-01 -0.14213644126E-01  0.91593218438E-01  0.88897953400E+00  0.88000000000E+00 0.  1.
        -11    1    4    4    0    0 -0.18387881059E-01 -0.24341361165E-02 -0.42362815662E-01  0.46248334676E-01  0.51100000000E-03 0.  1.
         11    1    4    4    0    0 -0.51324334317E-01  0.13372176163E-01 -0.66552699397E-01  0.85103027599E-01  0.51100000000E-03 0. -1.
</event>
<event>
 8    1  0.1114333E+005  0.1043930E+01  0.7957747E-01            NaN
         13   -1    0    0    0    0  0.00000000000E+00  0.00000000000E+00  0.74505805969E-08  0.10566000000E+00  0.10566000000E+00 0.  1.
     999900   -1    0    0    0    0 -0.00000000000E+00 -0.00000000000E+00 -0.74505805969E-08  0.93827000000E+00  0.93827000000E+00 0.  1.
     999902    2    1    2    0    0  0.10851533731E-01 -0.50073627933E-02 -0.19510571791E-01  0.10210500551E+01  0.10207936732E+01 0.  0.
     999903    2    3    3    0    0 -0.10924465880E+00  0.62393142306E-01  0.16040753697E-01  0.12962994075E+00  0.26820068547E-01 0.  0.
         14    1    1    2    0    0 -0.10851533731E-01  0.50073627933E-02  0.19510571791E-01  0.22879944888E-01  0.00000000000E+00 0.  1.
     999901    1    3    3    0    0  0.12009619253E+00 -0.67400505100E-01 -0.35551325488E-01  0.89142011436E+00  0.88000000000E+00 0. -1.
        -11    1    4    4    0    0 -0.94257565923E-01  0.48200475823E-01  0.22021319709E-01  0.10813405683E+00  0.51100000000E-03 0. -1.
         11    1    4    4    0    0 -0.14987092874E-01  0.14192666483E-01 -0.59805660124E-02  0.21495883921E-01  0.51100000000E-03 0.  1.
</event>
<event>
 8    1  0.1114333E+005  0.1043930E+01  0.7957747E-01            NaN
         13   -1    0    0    0    0  0.00000000000E+00  0.00000000000E+00  0.74505805969E-08  0.10566000000E+00  0.10566000000E+00 0.  1.
     999900   -1    0    0    0    0 -0.00000000000E+00 -0.00000000000E+00 -0.74505805969E-08  0.93827000000E+00  0.93827000000E+00 0.  1.
     999902    2    1    2    0    0 -0.16222325719E-02  0.22928014012E-01 -0.62462955191E-02  0.10201110648E+01  0.10198329485E+01 0.  0.
     999903    2    3    3    0    0 -0.58079009665E-01  0.29207350847E-01 -0.11272155464E+00  0.13187473448E+00  0.21413920814E-01 0.  0.
         14    1    1    2    0    0  0.16222325719E-02 -0.22928014012E-01  0.62462955191E-02  0.23818935173E-01  0.00000000000E+00 0.  1.
     999901    1    3    3    0    0  0.56456777093E-01 -0.62793368345E-02  0.10647525912E+00  0.88823633035E+00  0.88000000000E+00 0. -1.
        -11    1    4    4    0    0 -0.27217740250E-01  0.43714387469E-02 -0.59008284951E-01  0.65131817684E-01  0.51100000000E-03 0.  1.
         11    1    4    4    0    0 -0.30861269416E-01  0.24835912100E-01 -0.53713269692E-01  0.66742916791E-01  0.51100000000E-03 0. -1.
</event>
<event>
 8    1  0.1114333E+005  0.1043930E+01  0.7957747E-01            NaN
         13   -1    0    0    0    0  0.00000000000E+00  0.00000000000E+00  0.74505805969E-08  0.10566000000E+00  0.10566000000E+00 0.  1.
     999900   -1    0    0    0    0 -0.00000000000E+00 -0.00000000000E+00 -0.74505805969E-08  0.93827000000E+00  0.93827000000E+00 0. -1.
     999902    2    1    2    0    0 -0.15022463515E-01 -0.15857695719E-01 -0.87967198452E-02  0.10203816836E+01  0.10201099240E+01 0.  0.
     999903    2    3    3    0    0 -0.12980776137E+00 -0.12124461549E-01 -0.16267438233E-01  0.13288778885E+00  0.19936835283E-01 0.  0.
         14    1    1    2    0    0  0.15022463515E-01  0.15857695719E-01  0.87967198452E-02  0.23548316365E-01  0.00000000000E+00 0.  1.
     999901    1    3    3    0    0  0.11478529785E+00 -0.37332341700E-02  0.74707183873E-02  0.88749389478E+00  0.88000000000E+00 0. -1.
        -11    1    4    4    0    0 -0.11081438853E+00 -0.10207293287E-01 -0.65916759571E-02  0.11147972396E+00  0.51100000000E-03 0.  1.
         11    1    4    4    0    0 -0.18993372835E-01 -0.19171682621E-02 -0.96757622755E-02  0.21408064892E-01  0.51100000000E-03 0. -1.
</event>
<event>
 8    1  0.1114333E+005  0.1043930E+01  0.7957747E-01            NaN
         13   -1    0    0    0    0  0.00000000000E+00  0.00000000000E+00  0.74505805969E-08  0.10566000000E+00  0.10566000000E+00 0. -1.
     999900   -1    0    0    0    0 -0.00000000000E+00 -0.00000000000E+00 -0.74505805969E-08  0.93827000000E+00  0.93827000000E+00 0. -1.
     999902    2    1    2    0    0  0.35911874169E-02  0.20778104164E-01 -0.96786567848E-02  0.10207286501E+01  0.10204649306E+01 0.  0.
     999903    2    3    3    0    0 -0.82620395353E-01 -0.80517082556E-01  0.53165697225E-01  0.12851647540E+00  0.19513143704E-01 0.  0.
         14    1    1    2    0    0 -0.35911874169E-02 -0.20778104164E-01  0.96786567848E-02  0.23201349894E-01  0.00000000000E+00 0. -1.
     999901    1    3    3    0    0  0.86211582770E-01  0.10129518672E+00 -0.62844354010E-01  0.89221217470E+00  0.88000000000E+00 0.  1.
        -11    1    4    4    0    0 -0.34070101182E-01 -0.20958286533E-01  0.15050045922E-01  0.42740923858E-01  0.51100000000E-03 0. -1.
         11    1    4    4    0    0 -0.48550294171E-01 -0.59558796023E-01  0.38115651303E-01  0.85775551546E-01  0.51100000000E-03 0.  1.
</event>
<event>
 8    1  0.1114333E+005  0.1043930E+01  0.7957747E-01            NaN
         13   -1    0    0    0    0  0.00000000000E+00  0.00000000000E+00  0.74505805969E-08  0.10566000000E+00  0.10566000000E+00 0. -1.
     999900   -1    0    0    0    0 -0.00000000000E+00 -0.00000000000E+00 -0.74505805969E-08  0.93827000000E+00  0.93827000000E+00 0. -1.
     999902    2    1    2    0    0 -0.20521646221E-01  0.11534104441E-01 -0.83760289930E-03  0.10203742129E+01  0.10201022788E+01 0.  0.
     999903    2    3    3    0    0 -0.14874643504E-01 -0.12187433076E+00  0.36194007982E-01  0.12953133142E+00  0.19843187417E-01 0.  0.
         14    1    1    2    0    0  0.20521646221E-01 -0.11534104441E-01  0.83760289930E-03  0.23555787133E-01  0.00000000000E+00 0.  1.
     999901    1    3    3    0    0 -0.56470027165E-02  0.13340843520E+00 -0.37031610881E-01  0.89084288145E+00  0.88000000000E+00 0. -1.
        -11    1    4    4    0    0 -0.39611009744E-02 -0.96365958130E-01  0.25228433227E-01  0.99693646595E-01  0.51100000000E-03 0. -1.
         11    1    4    4    0    0 -0.10913542530E-01 -0.25508372633E-01  0.10965574755E-01  0.29837684824E-01  0.51100000000E-03 0.  1.
</event>
<event>
 8    1  0.1114333E+005  0.1043930E+01  0.7957747E-01            NaN
         13   -1    0    0    0    0  0.00000000000E+00  0.00000000000E+00  0.74505805969E-08  0.10566000000E+00  0.10566000000E+00 0. -1.
     999900   -1    0    0    0    0 -0.00000000000E+00 -0.00000000000E+00 -0.74505805969E-08  0.93827000000E+00  0.93827000000E+00 0.  1.
     999902    2    1    2    0    0 -0.22083247680E-01  0.84987374057E-02  0.23474450164E-02  0.10201516724E+01  0.10198745147E+01 0.  0.
     999903    2    3    3    0    0  0.86860258066E-01 -0.89491192029E-01 -0.19086237554E-01  0.12777836684E+00  0.20239779812E-01 0.  0.
         14    1    1    2    0    0  0.22083247680E-01 -0.84987374057E-02 -0.23474450164E-02  0.23778327605E-01  0.00000000000E+00 0. -1.
     999901    1    3    3    0    0 -0.10894350575E+00  0.97989929435E-01  0.21433682570E-01  0.89237330555E+00  0.88000000000E+00 0. -1.
        -11    1    4    4    0    0  0.64545882536E-01 -0.58184496857E-01 -0.20563470715E-01  0.89301310605E-01  0.51100000000E-03 0.  1.
         11    1    4    4    0    0  0.22314375529E-01 -0.31306695172E-01  0.14772331615E-02  0.38477056237E-01  0.51100000000E-03 0. -1.
</event>
<event>
 8    1  0.1114333E+005  0.1043930E+01  0.7957747E-01            NaN
         13   -1    0    0    0    0  0.00000000000E+00  0.00000000000E+00  0.74505805969E-08  0.10566000000E+00  0.10566000000E+00 0. -1.
     999900   -1    0    0    0    0 -0.00000000000E+00 -0.00000000000E+00 -0.74505805969E-08  0.93827000000E+00  0.93827000000E+00 0.  1.
     999902    2    1    2    0    0 -0.72295876646E-03  0.24002854645E-01  0.39642268803E-02  0.10195912491E+01  0.10193007115E+01 0.  0.
     999903    2    3    3    0    0  0.69373797275E-01 -0.41937179733E-01  0.98494852103E-01  0.12931169613E+00  0.21185562826E-01 0.  0.
         14    1    1    2    0    0  0.72295876646E-03 -0.24002854645E-01 -0.39642268803E-02  0.24338750897E-01  0.00000000000E+00 0. -1.
     999901    1    3    3    0    0 -0.70096756041E-01  0.65940034378E-01 -0.94530625223E-01  0.89027955298E+00  0.88000000000E+00 0.  1.
        -11    1    4    4    0    0  0.63467298647E-01 -0.31597812294E-01  0.76550670144E-01  0.10433976212E+00  0.51100000000E-03 0.  1.
         11    1    4    4    0    0  0.59064986275E-02 -0.10339367439E-01  0.21944181959E-01  0.24971934005E-01  0.51100000000E-03 0. -1.
</event>
<event>
 8    1  0.1114333E+005  0.1043930E+01  0.7957747E-01            NaN
         13   -1    0    0    0    0  0.00000000000E+00  0.00000000000E+00  0.74505805969E-08  0.10566000000E+00  0.10566000000E+00 0. -1.
     999900   -1    0    0    0    0 -0.00000000000E+00 -0.00000000000E+00 -0.74505805969E-08  0.93827000000E+00  0.93827000000E+00 0.  1.
     999902    2    1    2    0    0 -0.53632081538E-02  0.11758680660E-01 -0.20241923052E-01  0.10199140465E+01  0.10196312550E+01 0.  0.
     999903    2    3    3    0    0  0.98942594008E-01  0.44549593623E-02 -0.84051381363E-01  0.13142955500E+00  0.19990238769E-01 0.  0.
         14    1    1    2    0    0  0.53632081538E-02 -0.11758680660E-01  0.20241923052E-01  0.24015953477E-01  0.00000000000E+00 0. -1.
     999901    1    3    3    0    0 -0.10430580216E+00  0.73037212979E-02  0.63809458310E-01  0.88848449152E+00  0.88000000000E+00 0. -1.
        -11    1    4    4    0    0  0.18617242120E-01 -0.53675912885E-02 -0.10349558032E-01  0.21972419367E-01  0.51100000000E-03 0. -1.
         11    1    4    4    0    0  0.80325351888E-01  0.98225506508E-02 -0.73701823330E-01  0.10945713563E+00  0.51100000000E-03 0.  1.
</event>
<event>
 8    1  0.1114333E+005  0.1043930E+01  0.7957747E-01            NaN
         13   -1    0    0    0    0  0.00000000000E+00  0.00000000000E+00  0.74505805969E-08  0.10566000000E+00  0.10566000000E+00 0.  1.
     999900   -1    0    0    0    0 -0.00000000000E+00 -0.00000000000E+00 -0.74505805969E-08  0.93827000000E+00  0.93827000000E+00 0.  1.
     999902    2    1    2    0    0 -0.12546637209E-01 -0.21147373524E-01 -0.10256174123E-02  0.10193194047E+01  0.10190222605E+01 0.  0.
     999903    2    3    3    0    0 -0.10934581259E+00 -0.69792351524E-01  0.18602582327E-01  0.13245882910E+00  0.19282278828E-01 0.  0.
         14    1    1    2    0    0  0.12546637209E-01  0.21147373524E-01  0.10256174123E-02  0.24610595346E-01  0.00000000000E+00 0.  1.
     999901    1    3    3    0    0  0.96799175379E-01  0.48644978000E-01 -0.19628199739E-01  0.88686057555E+00  0.88000000000E+00 0. -1.
        -11    1    4    4    0    0 -0.59477282573E-01 -0.48243329119E-01  0.69827751485E-02  0.76902446102E-01  0.51100000000E-03 0. -1.
         11    1    4    4    0    0 -0.49868530015E-01 -0.21549022405E-01  0.11619807178E-01  0.55556383002E-01  0.51100000000E-03 0.  1.
</event>
<event>
 8    1  0.1114333E+005  0.1043930E+01  0.7957747E-01            NaN
         13   -1    0    0    0    0  0.00000000000E+00  0.00000000000E+00  0.74505805969E-08  0.10566000000E+00  0.10566000000E+00 0. -1.
     999900   -1    0    0    0    0 -0.00000000000E+00 -0.00000000000E+00 -0.74505805969E-08  0.93827000000E+00  0.93827000000E+00 0.  1.
     999902    2    1    2    0    0  0.12408131987E-02  0.15963181649E-01 -0.16208980752E-01  0.10211463690E+01  0.10208921652E+01 0.  0.
     999903    2    3    3    0    0 -0.71125977239E-01  0.57017593140E-01  0.91324929126E-01  0.13070492854E+00  0.20823666827E-01 0.  0.
         14    1    1    2    0    0 -0.12408131987E-02 -0.15963181649E-01  0.16208980752E-01  0.22783631027E-01  0.00000000000E+00 0. -1.
     999901    1    3    3    0    0  0.72366790437E-01 -0.41054411491E-01 -0.10753390988E+00  0.89044144043E+00  0.88000000000E+00 0.  1.
        -11    1    4    4    0    0 -0.45655243998E-01  0.23696298551E-01  0.53607536986E-01  0.74296332428E-01  0.51100000000E-03 0. -1.
         11    1    4    4    0    0 -0.25470733241E-01  0.33321294589E-01  0.37717392140E-01  0.56408596116E-01  0.51100000000E-03 0.  1.
</event>
<event>
 8    1  0.1114333E+005  0.1043930E+01  0.7957747E-01            NaN
         13   -1    0    0    0    0  0.00000000000E+00  0.00000000000E+00  0.74505805969E-08  0.10566000000E+00  0.10566000000E+00 0.  1.
     999900   -1    0    0    0    0 -0.00000000000E+00 -0.00000000000E+00 -0.74505805969E-08  0.93827000000E+00  0.93827000000E+00 0. -1.
     999902    2    1    2    0    0  0.15547306575E-01 -0.13935004004E-01  0.10305767388E-01  0.10206467030E+01  0.10203810957E+01 0.  0.
     999903    2    3    3    0    0  0.76134403565E-01 -0.10728863224E+00  0.11954449572E-01  0.13363575921E+00  0.20206663759E-01 0.  0.
         14    1    1    2    0    0 -0.15547306575E-01  0.13935004004E-01 -0.10305767388E-01  0.23283297013E-01  0.00000000000E+00 0. -1.
     999901    1    3    3    0    0 -0.60587096990E-01  0.93353628239E-01 -0.16486821840E-02  0.88701094378E+00  0.88000000000E+00 0.  1.
        -11    1    4    4    0    0  0.47547281542E-01 -0.71464249368E-01 -0.15519900307E-02  0.85851923181E-01  0.51100000000E-03 0.  1.
         11    1    4    4    0    0  0.28587122023E-01 -0.35824382875E-01  0.13506439602E-01  0.47783836029E-01  0.51100000000E-03 0. -1.
</event>
<event>
 8    1  0.1114333E+005  0.1043930E+01  0.7957747E-01            NaN
         13   -1    0    0    0    0  0.00000000000E+00  0.00000000000E+00  0.74505805969E-08  0.10566000000E+00  0.10566000000E+00 0. -1.
     999900   -1    0    0    0    0 -0.00000000000E+00 -0.00000000000E+00 -0.74505805969E-08  0.93827000000E+00  0.93827000000E+00 0. -1.
     999902    2    1    2    0    0  0.22073286576E-01  0.33278190792E-02  0.85308634053E-02  0.10200327200E+01  0.10197527494E+01 0.  0.
     999903    2    3    3    0    0 -0.83590525259E-01  0.91612691864E-01 -0.22700076758E-01  0.12877830543E+00  0.26235419599E-01 0.  0.
         14    1    1    2    0    0 -0.22073286576E-01 -0.33278190792E-02 -0.85308634053E-02  0.23897279982E-01  0.00000000000E+00 0.  1.
     999901    1    3    3    0    0  0.10566381184E+00 -0.88284872785E-01  0.31230940163E-01  0.89125441459E+00  0.88000000000E+00 0. -1.
        -11    1    4    4    0    0 -0.74245100025E-02  0.13123705787E-01  0.51065278130E-02  0.15927735233E-01  0.51100000000E-03 0. -1.
         11    1    4    4    0    0 -0.76166015256E-01  0.78488986078E-01 -0.27806604571E-01  0.11285057020E+00  0.51100000000E-03 0.  1.
</event>
<event>
 8    1  0.1114333E+005  0.1043930E+01  0.7957747E-01            NaN
         13   -1    0    0    0    0  0.00000000000E+00  0.00000000000E+00  0.74505805969E-08  0.10566000000E+00  0.10566000000E+00 0. -1.
     999900   -1    0    0    0    0 -0.00000000000E+00 -0.00000000000E+00 -0.74505805969E-08  0.93827000000E+00  0.93827000000E+00 0.  1.
     999902    2    1    2    0    0  0.13068565166E-01 -0.19959054948E-01  0.49784134548E-02  0.10195592005E+01  0.10192678879E+01 0.  0.
     999903    2    3    3    0    0  0.67277840452E-01  0.21610147678E-01 -0.10697930001E+00  0.12983948406E+00  0.20504016498E-01 0.  0.
         14    1    1    2    0    0 -0.13068565166E-01  0.19959054948E-01 -0.49784134548E-02  0.24370799544E-01  0.00000000000E+00 0. -1.
     999901    1    3    3    0    0 -0.54209275286E-01 -0.41569202626E-01  0.11195771346E+00  0.88971971639E+00  0.88000000000E+00 0. -1.
        -11    1    4    4    0    0  0.34375481610E-01  0.20184545693E-02 -0.40933998870E-01  0.53493936846E-01  0.51100000000E-03 0. -1.
         11    1    4    4    0    0  0.32902358842E-01  0.19591693109E-01 -0.66045301139E-01  0.76345547217E-01  0.51100000000E-03 0.  1.
</event>
<event>
 8    1  0.1114333E+005  0.1043930E+01  0.7957747E-01            NaN
         13   -1    0    0    0    0  0.00000000000E+00  0.00000000000E+00  0.74505805969E-08  0.10566000000E+00  0.10566000000E+00 0.  1.
     999900   -1    0    0    0    0 -0.00000000000E+00 -0.00000000000E+00 -0.74505805969E-08  0.93827000000E+00  0.93827000000E+00 0.  1.
     999902    2    1    2    0    0  0.56736063408E-03  0.14832191621E-01  0.19697602884E-01  0.10192660310E+01  0.10189675808E+01 0.  0.
     999903    2    3    3    0    0  0.78729680676E-01  0.28918348869E-01  0.99916515223E-01  0.13205532212E+00  0.20510108831E-01 0.  0.
         14    1    1    2    0    0 -0.56736063408E-03 -0.14832191621E-01 -0.19697602884E-01  0.24663968978E-01  0.00000000000E+00 0. -1.
     999901    1    3    3    0    0 -0.78162320042E-01 -0.14086157248E-01 -0.80218912340E-01  0.88721070891E+00  0.88000000000E+00 0.  1.
        -11    1    4    4    0    0  0.19475136662E-01 -0.16111594499E-02  0.25856940724E-01  0.32414800437E-01  0.51100000000E-03 0. -1.
         11    1    4    4    0    0  0.59254544015E-01  0.30529508318E-01  0.74059574500E-01  0.99640521680E-01  0.51100000000E-03 0.  1.
</event>
<event>
 8    1  0.1114333E+005  0.1043930E+01  0.7957747E-01            NaN
         13   -1    0    0    0    0  0.00000000000E+00  0.00000000000E+00  0.74505805969E-08  0.10566000000E+00  0.10566000000E+00 0.  1.
     999900   -1    0    0    0    0 -0.00000000000E+00 -0.00000000000E+00 -0.74505805969E-08  0.93827000000E+00  0.93827000000E+00 0. -1.
     999902    2    1    2    0    0  0.21516538078E-01 -0.67211223876E-02  0.75701246624E-02  0.10201509823E+01  0.10198738083E+01 0.  0.
     999903    2    3    3    0    0  0.44017419129E-01  0.62105228478E-01 -0.10319164408E+00  0.13025687304E+00  0.22885475187E-01 0.  0.
         14    1    1    2    0    0 -0.21516538078E-01  0.67211223876E-02 -0.75701246624E-02  0.23779017735E-01  0.00000000000E+00 0. -1.
     999901    1    3    3    0    0 -0.22500881051E-01 -0.68826350866E-01  0.11076176874E+00  0.88989410923E+00  0.88000000000E+00 0.  1.
        -11    1    4    4    0    0  0.91029573917E-02  0.20300349650E-01 -0.46978108659E-01  0.51982418598E-01  0.51100000000E-03 0. -1.
         11    1    4    4    0    0  0.34914461737E-01  0.41804878828E-01 -0.56213535422E-01  0.78274454440E-01  0.51100000000E-03 0.  1.
</event>
<event>
 8    1  0.1607583E+005  0.1043930E+01  0.7957747E-01            NaN
         13   -1    0    0    0    0  0.00000000000E+00  0.00000000000E+00  0.74505805969E-08  0.10566000000E+00  0.10566000000E+00 0. -1.
     999900   -1    0    0    0    0 -0.00000000000E+00 -0.00000000000E+00 -0.74505805969E-08  0.93827000000E+00  0.93827000000E+00 0.  1.
     999902    2    1    2    0    0  0.21942981229E-01  0.46514271653E-03  0.94758193213E-02  0.10200238934E+01  0.10197437134E+01 0.  0.
     999903    2    3    3    0    0 -0.88119901502E-01  0.88153451426E-01  0.25342376542E-01  0.12870193959E+00  0.19641923663E-01 0.  0.
         14    1    1    2    0    0 -0.21942981229E-01 -0.46514271653E-03 -0.94758193213E-02  0.23906106641E-01  0.00000000000E+00 0.  1.
     999901    1    3    3    0    0  0.11006288273E+00 -0.87688308710E-01 -0.15866557220E-01  0.89132195377E+00  0.88000000000E+00 0.  1.
        -11    1    4    4    0    0 -0.47421179098E-01  0.60857364057E-01  0.14340963275E-01  0.78474908956E-01  0.51100000000E-03 0. -1.
         11    1    4    4    0    0 -0.40698722404E-01  0.27296087370E-01  0.11001413267E-01  0.50227030630E-01  0.51100000000E-03 0.  1.
</event>
<event>
 8    1  0.1114333E+005  0.1043930E+01  0.7957747E-01            NaN
         13   -1    0    0    0    0  0.00000000000E+00  0.00000000000E+00  0.74505805969E-08  0.10566000000E+00  0.10566000000E+00 0. -1.
     999900   -1    0    0    0    0 -0.00000000000E+00 -0.00000000000E+00 -0.74505805969E-08  0.93827000000E+00  0.93827000000E+00 0.  1.
     999902    2    1    2    0    0  0.14314937736E-01 -0.99384355797E-02 -0.16458795308E-01  0.10199595622E+01  0.10196778544E+01 0.  0.
     999903    2    3    3    0    0 -0.88442657907E-01 -0.43503819523E-01 -0.84183268891E-01  0.13076196732E+00  0.17239004767E-01 0.  0.
         14    1    1    2    0    0 -0.14314937736E-01  0.99384355797E-02  0.16458795308E-01  0.23970437776E-01  0.00000000000E+00 0. -1.
     999901    1    3    3    0    0  0.10275759564E+00  0.33565383944E-01  0.67724473583E-01  0.88919759490E+00  0.88000000000E+00 0.  1.
        -11    1    4    4    0    0 -0.18873244447E-01 -0.15143687258E-01 -0.27593987093E-01  0.36704493791E-01  0.51100000000E-03 0. -1.
         11    1    4    4    0    0 -0.69569413460E-01 -0.28360132265E-01 -0.56589281798E-01  0.94057473529E-01  0.51100000000E-03 0.  1.
</event>
<event>
 8    1  0.1114333E+005  0.1043930E+01  0.7957747E-01            NaN
         13   -1    0    0    0    0  0.00000000000E+00  0.00000000000E+00  0.74505805969E-08  0.10566000000E+00  0.10566000000E+00 0. -1.
     999900   -1    0    0    0    0 -0.00000000000E+00 -0.00000000000E+00 -0.74505805969E-08  0.93827000000E+00  0.93827000000E+00 0.  1.
     999902    2    1    2    0    0 -0.19240518932E-01 -0.89459988284E-02  0.10129559744E-01  0.10204175258E+01  0.10201466024E+01 0.  0.
     999903    2    3    3    0    0 -0.10593739416E+00  0.48681455422E-01  0.60854780953E-01  0.13283073017E+00  0.18656980722E-01 0.  0.
         14    1    1    2    0    0  0.19240518932E-01  0.89459988284E-02 -0.10129559744E-01  0.23512474230E-01  0.00000000000E+00 0.  1.
     999901    1    3    3    0    0  0.86696875225E-01 -0.57627454250E-01 -0.50725221210E-01  0.88758679560E+00  0.88000000000E+00 0. -1.
        -11    1    4    4    0    0 -0.73030047398E-01  0.42606381035E-01  0.41810339016E-01  0.94324212679E-01  0.51100000000E-03 0. -1.
         11    1    4    4    0    0 -0.32907346760E-01  0.60750743864E-02  0.19044441938E-01  0.38506517491E-01  0.51100000000E-03 0.  1.
</event>
<event>
 8    1  0.1400944E+005  0.1043930E+01  0.7957747E-01            NaN
         13   -1    0    0    0    0  0.00000000000E+00  0.00000000000E+00  0.74505805969E-08  0.10566000000E+00  0.10566000000E+00 0.  1.
     999900   -1    0    0    0    0 -0.00000000000E+00 -0.00000000000E+00 -0.74505805969E-08  0.93827000000E+00  0.93827000000E+00 0. -1.
     999902    2    1    2    0    0  0.20893923206E-01 -0.52076898079E-03 -0.11587720228E-01  0.10200322493E+01  0.10197522676E+01 0.  0.
     999903    2    3    3    0    0  0.58783452213E-01  0.48961522909E-01  0.10393330514E+00  0.13029677126E+00  0.17955269525E-01 0.  0.
         14    1    1    2    0    0 -0.20893923206E-01  0.52076898079E-03  0.11587720228E-01  0.23897750676E-01  0.00000000000E+00 0.  1.
     999901    1    3    3    0    0 -0.37889529007E-01 -0.49482291890E-01 -0.11552102537E+00  0.88973547806E+00  0.88000000000E+00 0. -1.
        -11    1    4    4    0    0  0.11686620330E-01  0.20349105189E-01  0.31306959202E-01  0.39128633917E-01  0.51100000000E-03 0.  1.
         11    1    4    4    0    0  0.47096831884E-01  0.28612417720E-01  0.72626345941E-01  0.91168137346E-01  0.51100000000E-03 0. -1.
</event>
<event>
 8    1  0.1114333E+005  0.1043930E+01  0.7957747E-01            NaN
         13   -1    0    0    0    0  0.00000000000E+00  0.00000000000E+00  0.74505805969E-08  0.10566000000E+00  0.10566000000E+00 0.  1.
     999900   -1    0    0    0    0 -0.00000000000E+00 -0.00000000000E+00 -0.74505805969E-08  0.93827000000E+00  0.93827000000E+00 0. -1.
     999902    2    1    2    0    0  0.46349749472E-02  0.21206049538E-01  0.10491433302E-01  0.10198208793E+01  0.10195358631E+01 0.  0.
     999903    2    3    3    0    0 -0.49359210546E-01  0.86602091450E-01  0.84999137574E-01  0.13260984893E+00  0.20597687602E-01 0.  0.
         14    1    1    2    0    0 -0.46349749472E-02 -0.21206049538E-01 -0.10491433302E-01  0.24109120733E-01  0.00000000000E+00 0.  1.
     999901    1    3    3    0    0  0.53994185493E-01 -0.65396041912E-01 -0.74507704271E-01  0.88721103034E+00  0.88000000000E+00 0. -1.
        -11    1    4    4    0    0 -0.48268445276E-02  0.11889465668E-01  0.21027309108E-01  0.24638723004E-01  0.51100000000E-03 0. -1.
         11    1    4    4    0    0 -0.44532366018E-01  0.74712625782E-01  0.63971828466E-01  0.10797112592E+00  0.51100000000E-03 0.  1.
</event>
<event>
 8    1  0.1114333E+005  0.1043930E+01  0.7957747E-01            NaN
         13   -1    0    0    0    0  0.00000000000E+00  0.00000000000E+00  0.74505805969E-08  0.10566000000E+00  0.10566000000E+00 0. -1.
     999900   -1    0    0    0    0 -0.00000000000E+00 -0.00000000000E+00 -0.74505805969E-08  0.93827000000E+00  0.93827000000E+00 0. -1.
     999902    2    1    2    0    0 -0.22905812298E-01  0.54555542058E-02 -0.32549308158E-02  0.10201595586E+01  0.10198825869E+01 0.  0.
     999903    2    3    3    0    0 -0.54766739277E-01 -0.81075415023E-01 -0.85432717890E-01  0.13153370035E+00  0.20730325344E-01 0.  0.
         14    1    1    2    0    0  0.22905812298E-01 -0.54555542058E-02  0.32549308158E-02  0.23770441379E-01  0.00000000000E+00 0.  1.
     999901    1    3    3    0    0  0.31860926979E-01  0.86530969229E-01  0.82177787074E-01  0.88862585827E+00  0.88000000000E+00 0.  1.
        -11    1    4    4    0    0 -0.14247073744E-01 -0.35178738297E-01 -0.24645653086E-01  0.45256956101E-01  0.51100000000E-03 0.  1.
         11    1    4    4    0    0 -0.40519665533E-01 -0.45896676726E-01 -0.60787064804E-01  0.86276744247E-01  0.51100000000E-03 0. -1.
</event>
<event>
 8    1  0.1114333E+005  0.1043930E+01  0.7957747E-01            NaN
         13   -1    0    0    0    0  0.00000000000E+00  0.00000000000E+00  0.74505805969E-08  0.10566000000E+00  0.10566000000E+00 0. -1.
     999900   -1    0    0    0    0 -0.00000000000E+00 -0.00000000000E+00 -0.74505805969E-08  0.93827000000E+00  0.93827000000E+00 0.  1.
     999902    2    1    2    0    0  0.72834304094E-02  0.23047786102E-01  0.22077987624E-01  0.10111933792E+01  0.10106633286E+01 0.  0.
     999903    2    3    3    0    0  0.91296677479E-01  0.19128056587E-01  0.80929489731E-01  0.12522662518E+00  0.20764380026E-01 0.  0.
         14    1    1    2    0    0 -0.72834304094E-02 -0.23047786102E-01 -0.22077987624E-01  0.32736620782E-01  0.00000000000E+00 0.  1.
     999901    1    3    3    0    0 -0.84013247070E-01  0.39197295150E-02 -0.58851502107E-01  0.88596675404E+00  0.88000000000E+00 0.  1.
        -11    1    4    4    0    0  0.41569588837E-01  0.13601140310E-01  0.25829304577E-01  0.50797990411E-01  0.51100000000E-03 0.  1.
         11    1    4    4    0    0  0.49727088642E-01  0.55269162767E-02  0.55100185154E-01  0.74428634768E-01  0.51100000000E-03 0. -1.
</event>
<event>
 8    1  0.1114333E+005  0.1043930E+01  0.7957747E-01            NaN
         13   -1    0    0    0    0  0.00000000000E+00  0.00000000000E+00  0.74505805969E-08  0.10566000000E+00  0.10566000000E+00 0. -1.
     999900   -1    0    0    0    0 -0.00000000000E+00 -0.00000000000E+00 -0.74505805969E-08  0.93827000000E+00  0.93827000000E+00 0.  1.
     999902    2    1    2    0    0 -0.13765178524E-01 -0.15370074918E-01 -0.11924206460E-01  0.10200992207E+01  0.10198208245E+01 0.  0.
     999903    2    3    3    0    0  0.11149901119E+00  0.87711381253E-02  0.59125928373E-01  0.12806668930E+00  0.19905756515E-01 0.  0.
         14    1    1    2    0    0  0.13765178524E-01  0.15370074918E-01  0.11924206460E-01  0.23830779310E-01  0.00000000000E+00 0. -1.
     999901    1    3    3    0    0 -0.12526418972E+00 -0.24141213044E-01 -0.71050134833E-01  0.89203253139E+00  0.88000000000E+00 0.  1.
        -11    1    4    4    0    0  0.66103679508E-01  0.10453651768E-01  0.25814347257E-01  0.71732955642E-01  0.51100000000E-03 0. -1.
         11    1    4    4    0    0  0.45395331684E-01 -0.16825136427E-02  0.33311581115E-01  0.56333733661E-01  0.51100000000E-03 0.  1.
</event>
<event>
 8    1  0.1114333E+005  0.1043930E+01  0.7957747E-01            NaN
         13   -1    0    0    0    0  0.00000000000E+00  0.00000000000E+00  0.74505805969E-08  0.10566000000E+00  0.10566000000E+00 0.  1.
     999900   -1    0    0    0    0 -0.00000000000E+00 -0.00000000000E+00 -0.74505805969E-08  0.93827000000E+00  0.93827000000E+00 0. -1.
     999902    2    1    2    0    0  0.89164391040E-02 -0.18839360486E-01  0.42259019085E-02  0.10226630624E+01  0.10224419086E+01 0.  0.
     999903    2    3    3    0    0  0.83179557263E-01 -0.10131494125E+00 -0.25038451849E-01  0.13520960750E+00  0.21706170100E-01 0.  0.
         14    1    1    2    0    0 -0.89164391040E-02  0.18839360486E-01 -0.42259019085E-02  0.21266937644E-01  0.00000000000E+00 0. -1.
     999901    1    3    3    0    0 -0.74263118159E-01  0.82475580768E-01  0.29264353758E-01  0.88745345486E+00  0.88000000000E+00 0.  1.
        -11    1    4    4    0    0  0.21310951380E-02 -0.10011169186E-01 -0.52954930428E-02  0.11535529573E-01  0.51100000000E-03 0. -1.
         11    1    4    4    0    0  0.81048462125E-01 -0.91303772068E-01 -0.19742958806E-01  0.12367407792E+00  0.51100000000E-03 0.  1.
</event>
<event>
 8    1  0.1114333E+005  0.1043930E+01  0.7957747E-01            NaN
         13   -1    0    0    0    0  0.00000000000E+00  0.00000000000E+00  0.74505805969E-08  0.10566000000E+00  0.10566000000E+00 0.  1.
     999900   -1    0    0    0    0 -0.00000000000E+00 -0.00000000000E+00 -0.74505805969E-08  0.93827000000E+00  0.93827000000E+00 0.  1.
     999902    2    1    2    0    0 -0.10911549733E-01 -0.20260837398E-01  0.21044560602E-02  0.10208217291E+01  0.10205601454E+01 0.  0.
     999903    2    3    3    0    0  0.24129646398E-01  0.83681746212E-01 -0.92865287410E-01  0.12894102053E+00  0.20419370317E-01 0.  0.
         14    1    1    2    0    0  0.10911549733E-01  0.20260837398E-01 -0.21044560602E-02  0.23108270921E-01  0.00000000000E+00 0.  1.
     999901    1    3    3    0    0 -0.35041196131E-01 -0.10394258361E+00  0.94969743470E-01  0.89188070855E+00  0.88000000000E+00 0.  1.
        -11    1    4    4    0    0  0.16594901863E-01  0.66089609663E-01 -0.59455386257E-01  0.90434680014E-01  0.51100000000E-03 0. -1.
         11    1    4    4    0    0  0.75347445341E-02  0.17592136549E-01 -0.33409901153E-01  0.38506340512E-01  0.51100000000E-03 0.  1.
</event>
<event>
 8    1  0.1114333E+005  0.1043930E+01  0.7957747E-01            NaN
         13   -1    0    0    0    0  0.00000000000E+00  0.00000000000E+00  0.74505805969E-08  0.10566000000E+00  0.10566000000E+00 0.  1.
     999900   -1    0    0    0    0 -0.00000000000E+00 -0.00000000000E+00 -0.74505805969E-08  0.93827000000E+00  0.93827000000E+00 0. -1.
     999902    2    1    2    0    0 -0.14692322664E-01 -0.45400106799E-02  0.18510198619E-01  0.10198654307E+01  0.10195814795E+01 0.  0.
     999903    2    3    3    0    0 -0.36884445213E-01 -0.12421139052E+00  0.10031544233E-01  0.13144795168E+00  0.19723090237E-01 0.  0.
         14    1    1    2    0    0  0.14692322664E-01  0.45400106799E-02 -0.18510198619E-01  0.24064569291E-01  0.00000000000E+00 0. -1.
     999901    1    3    3    0    0  0.22192122550E-01  0.11967137984E+00  0.84786543858E-02  0.88841747902E+00  0.88000000000E+00 0.  1.
        -11    1    4    4    0    0 -0.12201528575E-01 -0.55296180379E-01 -0.45308832249E-02  0.56809637279E-01  0.51100000000E-03 0. -1.
         11    1    4    4    0    0 -0.24682916638E-01 -0.68915210143E-01  0.14562427458E-01  0.74638314405E-01  0.51100000000E-03 0.  1.
</event>
<event>
 8    1  0.1114333E+005  0.1043930E+01  0.7957747E-01            NaN
         13   -1    0    0    0    0  0.00000000000E+00  0.00000000000E+00  0.74505805969E-08  0.10566000000E+00  0.10566000000E+00 0.  1.
     999900   -1    0    0    0    0 -0.00000000000E+00 -0.00000000000E+00 -0.74505805969E-08  0.93827000000E+00  0.93827000000E+00 0.  1.
     999902    2    1    2    0    0 -0.22655003507E-01 -0.10191614128E-01 -0.22765718871E-02  0.10189840392E+01  0.10186786398E+01 0.  0.
     999903    2    3    3    0    0 -0.79888647156E-01 -0.31296871848E-01 -0.98159419278E-01  0.13167651508E+00  0.18486289501E-01 0.  0.
         14    1    1    2    0    0  0.22655003507E-01  0.10191614128E-01  0.22765718871E-02  0.24945960835E-01  0.00000000000E+00 0. -1.
     999901    1    3    3    0    0  0.57233643649E-01  0.21105257721E-01  0.95882847391E-01  0.88730752408E+00  0.88000000000E+00 0. -1.
        -11    1    4    4    0    0 -0.39656775217E-01 -0.66618810288E-02 -0.51269171482E-01  0.65160030271E-01  0.51100000000E-03 0.  1.
         11    1    4    4    0    0 -0.40231871939E-01 -0.24634990819E-01 -0.46890247796E-01  0.66516484812E-01  0.51100000000E-03 0. -1.
</event>
<event>
 8    1  0.1114333E+005  0.1043930E+01  0.7957747E-01            NaN
         13   -1    0    0    0    0  0.00000000000E+00  0.00000000000E+00  0.74505805969E-08  0.10566000000E+00  0.10566000000E+00 0. -1.
     999900   -1    0    0    0    0 -0.00000000000E+00 -0.00000000000E+00 -0.74505805969E-08  0.93827000000E+00  0.93827000000E+00 0. -1.
     999902    2    1    2    0    0 -0.92158771919E-02 -0.63305277754E-02  0.19894695258E-01  0.10211088065E+01  0.10208537544E+01 0.  0.
     999903    2    3    3    0    0  0.10295548317E+00 -0.41792920639E-01  0.68723345905E-01  0.13193827586E+00  0.18393766218E-01 0.  0.
         14    1    1    2    0    0  0.92158771919E-02  0.63305277754E-02 -0.19894695258E-01  0.22821193521E-01  0.00000000000E+00 0. -1.
     999901    1    3    3    0    0 -0.11217136036E+00  0.35462392863E-01 -0.48828650647E-01  0.88917053062E+00  0.88000000000E+00 0. -1.
        -11    1    4    4    0    0  0.94137687314E-01 -0.36584362485E-01  0.55621973319E-01  0.11530127835E+00  0.51100000000E-03 0. -1.
         11    1    4    4    0    0  0.88177958522E-02 -0.52085581539E-02  0.13101372586E-01  0.16636997517E-01  0.51100000000E-03 0.  1.
</event>
<event>
 8    1  0.1114333E+005  0.1043930E+01  0.7957747E-01            NaN
         13   -1    0    0    0    0  0.00000000000E+00  0.00000000000E+00  0.74505805969E-08  0.10566000000E+00  0.10566000000E+00 0.  1.
     999900   -1    0    0    0    0 -0.00000000000E+00 -0.00000000000E+00 -0.74505805969E-08  0.93827000000E+00  0.93827000000E+00 0.  1.
     999902    2    1    2    0    0  0.15029831849E-01  0.16533605708E-01 -0.47624515523E-02  0.10210840615E+01  0.10208284497E+01 0.  0.
     999903    2    3    3    0    0  0.35310622081E-01  0.12743845227E+00  0.53473702117E-02  0.13383358727E+00  0.19885561735E-01 0.  0.
         14    1    1    2    0    0 -0.15029831849E-01 -0.16533605708E-01  0.47624515523E-02  0.22845938543E-01  0.00000000000E+00 0.  1.
     999901    1    3    3    0    0 -0.20280790232E-01 -0.11090484656E+00 -0.10109821764E-01  0.88725047418E+00  0.88000000000E+00 0.  1.
        -11    1    4    4    0    0  0.61431322422E-02  0.50210290389E-01  0.81097852777E-02  0.51233202837E-01  0.51100000000E-03 0.  1.
         11    1    4    4    0    0  0.29167489838E-01  0.77228161881E-01 -0.27624150659E-02  0.82600384436E-01  0.51100000000E-03 0. -1.
</event>
<event>
 8    1  0.1114333E+005  0.1043930E+01  0.7957747E-01            NaN
         13   -1    0    0    0    0  0.00000000000E+00  0.00000000000E+00  0.74505805969E-08  0.10566000000E+00  0.10566000000E+00 0. -1.
     999900   -1    0    0    0    0 -0.00000000000E+00 -0.00000000000E+00 -0.74505805969E-08  0.93827000000E+00  0.93827000000E+00 0.  1.
     999902    2    1    2    0    0  0.21056742580E-01  0.61995775376E-02  0.82395101968E-02  0.10204840900E+01  0.10202147162E+01 0.  0.
     999903    2    3    3    0    0 -0.97863011363E-02  0.12287333821E+00  0.41248661405E-01  0.13163446046E+00  0.20797840772E-01 0.  0.
         14    1    1    2    0    0 -0.21056742580E-01 -0.61995775376E-02 -0.82395101968E-02  0.23445910049E-01  0.00000000000E+00 0.  1.
     999901    1    3    3    0    0  0.30843043716E-01 -0.11667376067E+00 -0.33009151208E-01  0.88884962949E+00  0.88000000000E+00 0.  1.
        -11    1    4    4    0    0  0.56398867623E-02  0.15011939361E-01  0.52630936679E-02  0.16885731315E-01  0.51100000000E-03 0.  1.
         11    1    4    4    0    0 -0.15426187899E-01  0.10786139885E+00  0.35985567737E-01  0.11474872915E+00  0.51100000000E-03 0. -1.
</event>
<event>
 8    1  0.1114333E+005  0.1043930E+01  0.7957747E-01            NaN
         13   -1    0    0    0    0  0.00000000000E+00  0.00000000000E+00  0.74505805969E-08  0.10566000000E+00  0.10566000000E+00 0. -1.
     999900   -1    0    0    0    0 -0.00000000000E+00 -0.00000000000E+00 -0.74505805969E-08  0.93827000000E+00  0.93827000000E+00 0.  1.
     999902    2    1    2    0    0 -0.47493116949E-02  0.23495313060E-01  0.32027166628E-02  0.10197464707E+01  0.10194596713E+01 0.  0.
     999903    2    3    3    0    0  0.17704689945E-01  0.23730822519E-01 -0.12519599238E+00  0.13014517449E+00  0.19675414905E-01 0.  0.
         14    1    1    2    0    0  0.47493116949E-02 -0.23495313060E-01 -0.32027166628E-02  0.24183529341E-01  0.00000000000E+00 0. -1.
     999901    1    3    3    0    0 -0.22454001640E-01 -0.23550945931E-03  0.12839870905E+00  0.88960129617E+00  0.88000000000E+00 0. -1.
        -11    1    4    4    0    0  0.15831303130E-01  0.11779643175E-01 -0.46399442511E-01  0.50423799326E-01  0.51100000000E-03 0. -1.
         11    1    4    4    0    0  0.18733868150E-02  0.11951179344E-01 -0.78796549872E-01  0.79721375168E-01  0.51100000000E-03 0.  1.
</event>
<event>
 8    1  0.1114333E+005  0.1043930E+01  0.7957747E-01            NaN
         13   -1    0    0    0    0  0.00000000000E+00  0.00000000000E+00  0.74505805969E-08  0.10566000000E+00  0.10566000000E+00 0.  1.
     999900   -1    0    0    0    0 -0.00000000000E+00 -0.00000000000E+00 -0.74505805969E-08  0.93827000000E+00  0.93827000000E+00 0.  1.
     999902    2    1    2    0    0  0.92428935175E-02  0.67441428406E-02 -0.21068103708E-01  0.10199554398E+01  0.10196736339E+01 0.  0.
     999903    2    3    3    0    0 -0.54814267359E-01  0.81362013507E-01 -0.87670618984E-01  0.13197624999E+00  0.10354321836E-01 0.  0.
         14    1    1    2    0    0 -0.92428935175E-02 -0.67441428406E-02  0.21068103708E-01  0.23974560206E-01  0.00000000000E+00 0.  1.
     999901    1    3    3    0    0  0.64057160876E-01 -0.74617870666E-01  0.66602515276E-01  0.88797918980E+00  0.88000000000E+00 0. -1.
        -11    1    4    4    0    0 -0.15230658237E-01  0.17399721802E-01 -0.25106079087E-01  0.34136484840E-01  0.51100000000E-03 0. -1.
         11    1    4    4    0    0 -0.39583609122E-01  0.63962291705E-01 -0.62564539897E-01  0.97839765151E-01  0.51100000000E-03 0.  1.
</event>
<event>
 8    1  0.1114333E+005  0.1043930E+01  0.7957747E-01            NaN
         13   -1    0    0    0    0  0.00000000000E+00  0.00000000000E+00  0.74505805969E-08  0.10566000000E+00  0.10566000000E+00 0.  1.
     999900   -1    0    0    0    0 -0.00000000000E+00 -0.00000000000E+00 -0.74505805969E-08  0.93827000000E+00  0.93827000000E+00 0.  1.
     999902    2    1    2    0    0 -0.10074742386E-01  0.12156208633E-01  0.16371374803E-01  0.10211858633E+01  0.10209325500E+01 0.  0.
     999903    2    3    3    0    0  0.10089647053E+00  0.72602778618E-01 -0.35081570258E-01  0.13067151557E+00  0.19825921945E-01 0.  0.
         14    1    1    2    0    0  0.10074742386E-01 -0.12156208633E-01 -0.16371374803E-01  0.22744136726E-01  0.00000000000E+00 0. -1.
     999901    1    3    3    0    0 -0.11097121291E+00 -0.60446569985E-01  0.51452945062E-01  0.89051434771E+00  0.88000000000E+00 0. -1.
        -11    1    4    4    0    0  0.82791754361E-01  0.52663077840E-01 -0.21279837068E-01  0.10040401857E+00  0.51100000000E-03 0. -1.
         11    1    4    4    0    0  0.18104716164E-01  0.19939700778E-01 -0.13801733191E-01  0.30267496999E-01  0.51100000000E-03 0.  1.
</event>
<event>
 8    1  0.1114333E+005  0.1043930E+01  0.7957747E-01            NaN
         13   -1    0    0    0    0  0.00000000000E+00  0.00000000000E+00  0.74505805969E-08  0.10566000000E+00  0.10566000000E+00 0.  1.
     999900   -1    0    0    0    0 -0.00000000000E+00 -0.00000000000E+00 -0.74505805969E-08  0.93827000000E+00  0.93827000000E+00 0. -1.
     999902    2    1    2    0    0 -0.21862092103E-01 -0.68031427853E-02  0.59650977397E-02  0.10202695644E+01  0.10199951803E+01 0.  0.
     999903    2    3    3    0    0 -0.54855278805E-01  0.39787825048E-01 -0.11001250038E+00  0.13082587762E+00  0.20505788944E-01 0.  0.
         14    1    1    2    0    0  0.21862092103E-01  0.68031427853E-02 -0.59650977397E-02  0.23660435624E-01  0.00000000000E+00 0. -1.
     999901    1    3    3    0    0  0.32993186702E-01 -0.46590967833E-01  0.11597759812E+00  0.88944368676E+00  0.88000000000E+00 0.  1.
        -11    1    4    4    0    0 -0.41745916171E-01  0.20812859747E-01 -0.83788933212E-01  0.95899651186E-01  0.51100000000E-03 0.  1.
         11    1    4    4    0    0 -0.13109362633E-01  0.18974965301E-01 -0.26223567164E-01  0.34926226430E-01  0.51100000000E-03 0. -1.
</event>
<event>
 8    1  0.1114333E+005  0.1043930E+01  0.7957747E-01            NaN
         13   -1    0    0    0    0  0.00000000000E+00  0.00000000000E+00  0.74505805969E-08  0.10566000000E+00  0.10566000000E+00 0. -1.
     999900   -1    0    0    0    0 -0.00000000000E+00 -0.00000000000E+00 -0.74505805969E-08  0.93827000000E+00  0.93827000000E+00 0. -1.
     999902    2    1    2    0    0 -0.10946655414E-02  0.22668277741E-01 -0.56442611939E-02  0.10205439616E+01  0.10202759777E+01 0.  0.
     999903    2    3    3    0    0 -0.32331362700E-01 -0.56556766362E-01 -0.11121924428E+00  0.13015167954E+00  0.18048671826E-01 0.  0.
         14    1    1    2    0    0  0.10946655414E-02 -0.22668277741E-01  0.56442611939E-02  0.23386038416E-01  0.00000000000E+00 0. -1.
     999901    1    3    3    0    0  0.31236697159E-01  0.79225044103E-01  0.10557498309E+00  0.89039228204E+00  0.88000000000E+00 0.  1.
        -11    1    4    4    0    0 -0.10309744696E-01 -0.35759671255E-01 -0.58034261572E-01  0.68944046597E-01  0.51100000000E-03 0. -1.
         11    1    4    4    0    0 -0.22021618004E-01 -0.20797095107E-01 -0.53184982707E-01  0.61207632947E-01  0.51100000000E-03 0.  1.
</event>
<event>
 8    1  0.1114333E+005  0.1043930E+01  0.7957747E-01            NaN
         13   -1    0    0    0    0  0.00000000000E+00  0.00000000000E+00  0.74505805969E-08  0.10566000000E+00  0.10566000000E+00 0. -1.
     999900   -1    0    0    0    0 -0.00000000000E+00 -0.00000000000E+00 -0.74505805969E-08  0.93827000000E+00  0.93827000000E+00 0.  1.
     999902    2    1    2    0    0 -0.38387293763E-02 -0.59265445347E-02  0.22579807936E-01  0.10202718619E+01  0.10199975317E+01 0.  0.
     999903    2    3    3    0    0 -0.73032214238E-01 -0.78407181265E-01 -0.70197222057E-01  0.12973901108E+00  0.20571111300E-01 0.  0.
         14    1    1    2    0    0  0.38387293763E-02  0.59265445347E-02 -0.22579807936E-01  0.23658138130E-01  0.00000000000E+00 0.  1.
     999901    1    3    3    0    0  0.69193484862E-01  0.72480636731E-01  0.92777029993E-01  0.89053285079E+00  0.88000000000E+00 0. -1.
        -11    1    4    4    0    0 -0.71721603690E-01 -0.73048794334E-01 -0.61496971270E-01  0.11942467662E+00  0.51100000000E-03 0.  1.
         11    1    4    4    0    0 -0.13106105480E-02 -0.53583869316E-02 -0.87002507870E-02  0.10314334456E-01  0.51100000000E-03 0. -1.
</event>
<event>
 8    1  0.1114333E+005  0.1043930E+01  0.7957747E-01            NaN
         13   -1    0    0    0    0  0.00000000000E+00  0.00000000000E+00  0.74505805969E-08  0.10566000000E+00  0.10566000000E+00 0. -1.
     999900   -1    0    0    0    0 -0.00000000000E+00 -0.00000000000E+00 -0.74505805969E-08  0.93827000000E+00  0.93827000000E+00 0. -1.
     999902    2    1    2    0    0  0.21435500924E-01  0.67092685288E-02  0.79200959341E-02  0.10201135581E+01  0.10198355007E+01 0.  0.
     999903    2    3    3    0    0  0.23419861630E-01 -0.10641901887E+00 -0.67405315667E-01  0.12967778575E+00  0.19983844481E-01 0.  0.
         14    1    1    2    0    0 -0.21435500924E-01 -0.67092685288E-02 -0.79200959341E-02  0.23816441877E-01  0.00000000000E+00 0.  1.
     999901    1    3    3    0    0 -0.19843607057E-02  0.11312828740E+00  0.75325411601E-01  0.89043577238E+00  0.88000000000E+00 0.  1.
        -11    1    4    4    0    0  0.16141603914E-01 -0.77883127568E-01 -0.38341945583E-01  0.88298917596E-01  0.51100000000E-03 0. -1.
         11    1    4    4    0    0  0.72782577159E-02 -0.28535891300E-01 -0.29063370084E-01  0.41378868149E-01  0.51100000000E-03 0.  1.
</event>
<event>
 8    1  0.1114333E+005  0.1043930E+01  0.7957747E-01            NaN
         13   -1    0    0    0    0  0.00000000000E+00  0.00000000000E+00  0.74505805969E-08  0.10566000000E+00  0.10566000000E+00 0. -1.
     999900   -1    0    0    0    0 -0.00000000000E+00 -0.00000000000E+00 -0.74505805969E-08  0.93827000000E+00  0.93827000000E+00 0. -1.
     999902    2    1    2    0    0  0.63221895861E-02  0.23928297753E-01 -0.20274863676E-02  0.10190976780E+01  0.10187950889E+01 0.  0.
     999903    2    3    3    0    0  0.46442050453E-01  0.12254350178E+00 -0.28141544367E-02  0.13268063138E+00  0.20553749077E-01 0.  0.
         14    1    1    2    0    0 -0.63221895861E-02 -0.23928297753E-01  0.20274863676E-02  0.24832321991E-01  0.00000000000E+00 0.  1.
     999901    1    3    3    0    0 -0.40119860867E-01 -0.98615204024E-01  0.78666806909E-03  0.88641704663E+00  0.88000000000E+00 0. -1.
        -11    1    4    4    0    0  0.45018319296E-01  0.99739243575E-01  0.14127131362E-02  0.10943867077E+00  0.51100000000E-03 0.  1.
         11    1    4    4    0    0  0.14237311570E-02  0.22804258202E-01 -0.42268675729E-02  0.23241960611E-01  0.51100000000E-03 0. -1.
</event>
<event>
 8    1  0.1114333E+005  0.1043930E+01  0.7957747E-01            NaN
         13   -1    0    0    0    0  0.00000000000E+00  0.00000000000E+00  0.74505805969E-08  0.10566000000E+00  0.10566000000E+00 0. -1.
     999900   -1    0    0    0    0 -0.00000000000E+00 -0.00000000000E+00 -0.74505805969E-08  0.93827000000E+00  0.93827000000E+00 0. -1.
     999902    2    1    2    0    0  0.50169827660E-02 -0.36030820085E-02  0.23107945407E-01  0.10200107722E+01  0.10197302810E+01 0.  0.
     999903    2    3    3    0    0  0.32059312623E-01  0.11850622926E+00 -0.34570463007E-01  0.12929826514E+00  0.21246142146E-01 0.  0.
         14    1    1    2    0    0 -0.50169827660E-02  0.36030820085E-02 -0.23107945407E-01  0.23919227767E-01  0.00000000000E+00 0.  1.
     999901    1    3    3    0    0 -0.27042329857E-01 -0.12210931127E+00  0.57678408414E-01  0.89071250710E+00  0.88000000000E+00 0.  1.
        -11    1    4    4    0    0  0.24904622295E-01  0.10408378543E+00 -0.23002575528E-01  0.10946713755E+00  0.51100000000E-03 0.  1.
         11    1    4    4    0    0  0.71546903282E-02  0.14422443822E-01 -0.11567887479E-01  0.19831127583E-01  0.51100000000E-03 0. -1.
</event>
<event>
 8    1  0.1114333E+005  0.1043930E+01  0.7957747E-01            NaN
         13   -1    0    0    0    0  0.00000000000E+00  0.00000000000E+00  0.74505805969E-08  0.10566000000E+00  0.10566000000E+00 0. -1.
     999900   -1    0    0    0    0 -0.00000000000E+00 -0.00000000000E+00 -0.74505805969E-08  0.93827000000E+00  0.93827000000E+00 0. -1.
     999902    2    1    2    0    0 -0.92817604715E-02  0.77192853413E-02 -0.20435253728E-01  0.10201952567E+01  0.10199191261E+01 0.  0.
     999903    2    3    3    0    0 -0.69286653409E-01 -0.90562858927E-01 -0.62680599994E-01  0.13168828638E+00  0.20265127607E-01 0.  0.
         14    1    1    2    0    0  0.92817604715E-02 -0.77192853413E-02  0.20435253728E-01  0.23734743280E-01  0.00000000000E+00 0. -1.
     999901    1    3    3    0    0  0.60004892938E-01  0.98282144268E-01  0.42245346266E-01  0.88850697034E+00  0.88000000000E+00 0.  1.
        -11    1    4    4    0    0 -0.43243801280E-01 -0.71300075848E-01 -0.43859898303E-01  0.94221435806E-01  0.51100000000E-03 0. -1.
         11    1    4    4    0    0 -0.26042852130E-01 -0.19262783078E-01 -0.18820701691E-01  0.37466850576E-01  0.51100000000E-03 0.  1.
</event>
<event>
 8    1  0.1114333E+005  0.1043930E+01  0.7957747E-01            NaN
         13   -1    0    0    0    0  0.00000000000E+00  0.00000000000E+00  0.74505805969E-08  0.10566000000E+00  0.10566000000E+00 0.  1.
     999900   -1    0    0    0    0 -0.00000000000E+00 -0.00000000000E+00 -0.74505805969E-08  0.93827000000E+00  0.93827000000E+00 0. -1.
     999902    2    1    2    0    0  0.16400107831E-01 -0.19699858709E-01  0.56061520191E-02  0.10176911565E+01  0.10173528459E+01 0.  0.
     999903    2    3    3    0    0  0.73793871909E-01  0.62981381225E-02  0.10486523663E+00  0.12987230901E+00  0.19618784856E-01 0.  0.
         14    1    1    2    0    0 -0.16400107831E-01  0.19699858709E-01 -0.56061520191E-02  0.26238843543E-01  0.00000000000E+00 0. -1.
     999901    1    3    3    0    0 -0.57393764078E-01 -0.25997996832E-01 -0.99259084616E-01  0.88781884744E+00  0.88000000000E+00 0.  1.
        -11    1    4    4    0    0  0.24756447778E-01 -0.60962556379E-02  0.28160759563E-01  0.37991256093E-01  0.51100000000E-03 0.  1.
         11    1    4    4    0    0  0.49037424131E-01  0.12394393760E-01  0.76704477072E-01  0.91881052922E-01  0.51100000000E-03 0. -1.
</event>
<event>
 8    1  0.1114333E+005  0.1043930E+01  0.7957747E-01            NaN
         13   -1    0    0    0    0  0.00000000000E+00  0.00000000000E+00  0.74505805969E-08  0.10566000000E+00  0.10566000000E+00 0. -1.
     999900   -1    0    0    0    0 -0.00000000000E+00 -0.00000000000E+00 -0.74505805969E-08  0.93827000000E+00  0.93827000000E+00 0.  1.
     999902    2    1    2    0    0 -0.20615348402E-01 -0.68306683079E-02  0.66763476141E-03  0.10222022216E+01  0.10219712743E+01 0.  0.
     999903    2    3    3    0    0 -0.13303169118E+00 -0.89884930160E-02  0.61049226586E-02  0.13503163232E+00  0.20446216839E-01 0.  0.
         14    1    1    2    0    0  0.20615348402E-01  0.68306683079E-02 -0.66763476141E-03  0.21727778429E-01  0.00000000000E+00 0. -1.
     999901    1    3    3    0    0  0.11241634277E+00  0.21578247081E-02 -0.54372878972E-02  0.88717058925E+00  0.88000000000E+00 0.  1.
        -11    1    4    4    0    0 -0.32536572418E-01 -0.10924242548E-01 -0.96181399422E-04  0.34325471473E-01  0.51100000000E-03 0.  1.
         11    1    4    4    0    0 -0.10049511876E+00  0.19357495324E-02  0.62011040580E-02  0.10070616085E+00  0.51100000000E-03 0. -1.
</event>
<event>
 8    1  0.1114333E+005  0.1043930E+01  0.7957747E-01            NaN
         13   -1    0    0    0    0  0.00000000000E+00  0.00000000000E+00  0.74505805969E-08  0.10566000000E+00  0.10566000000E+00 0.  1.
     999900   -1    0    0    0    0 -0.00000000000E+00 -0.00000000000E+00 -0.74505805969E-08  0.93827000000E+00  0.93827000000E+00 0. -1.
     999902    2    1    2    0    0  0.21102376744E-01  0.10239921237E-01  0.41058001621E-02  0.10201177366E+01  0.10198397780E+01 0.  0.
     999903    2    3    3    0    0 -0.94186112798E-01  0.83912723000E-01 -0.19390998306E-01  0.12923546772E+00  0.20332889040E-01 0.  0.
         14    1    1    2    0    0 -0.21102376744E-01 -0.10239921237E-01 -0.41058001621E-02  0.23812263357E-01  0.00000000000E+00 0. -1.
     999901    1    3    3    0    0  0.11528848954E+00 -0.73672801764E-01  0.23496798468E-01  0.89088226892E+00  0.88000000000E+00 0.  1.
        -11    1    4    4    0    0 -0.60132781567E-01  0.45413137662E-01 -0.35153375374E-02  0.75438207894E-01  0.51100000000E-03 0. -1.
         11    1    4    4    0    0 -0.34053331231E-01  0.38499585339E-01 -0.15875660768E-01  0.53797259828E-01  0.51100000000E-03 0.  1.
</event>
<event>
 8    1  0.1114333E+005  0.1043930E+01  0.7957747E-01            NaN
         13   -1    0    0    0    0  0.00000000000E+00  0.00000000000E+00  0.74505805969E-08  0.10566000000E+00  0.10566000000E+00 0.  1.
     999900   -1    0    0    0    0 -0.00000000000E+00 -0.00000000000E+00 -0.74505805969E-08  0.93827000000E+00  0.93827000000E+00 0.  1.
     999902    2    1    2    0    0  0.13848800573E-01 -0.19449290062E-01  0.34097740484E-03  0.10200515489E+01  0.10197720245E+01 0.  0.
     999903    2    3    3    0    0  0.67182623271E-01 -0.10726527947E+00  0.36762059393E-01  0.13332575146E+00  0.20123666229E-01 0.  0.
         14    1    1    2    0    0 -0.13848800573E-01  0.19449290062E-01 -0.34097740484E-03  0.23878451097E-01  0.00000000000E+00 0.  1.
     999901    1    3    3    0    0 -0.53333822698E-01  0.87815989406E-01 -0.36421081988E-01  0.88672579744E+00  0.88000000000E+00 0. -1.
        -11    1    4    4    0    0  0.44313434043E-01 -0.85882797530E-01  0.30956990742E-01  0.10147971100E+00  0.51100000000E-03 0. -1.
         11    1    4    4    0    0  0.22869189228E-01 -0.21382481938E-01  0.58050686508E-02  0.31846040457E-01  0.51100000000E-03 0.  1.
</event>
<event>
 8    1  0.1114333E+005  0.1043930E+01  0.7957747E-01            NaN
         13   -1    0    0    0    0  0.00000000000E+00  0.00000000000E+00  0.74505805969E-08  0.10566000000E+00  0.10566000000E+00 0. -1.
     999900   -1    0    0    0    0 -0.00000000000E+00 -0.00000000000E+00 -0.74505805969E-08  0.93827000000E+00  0.93827000000E+00 0. -1.
     999902    2    1    2    0    0 -0.12591315215E-01 -0.16907616501E-01  0.10553682503E-01  0.10203548239E+01  0.10200824367E+01 0.  0.
     999903    2    3    3    0    0  0.60729931495E-01 -0.11517268029E+00  0.45378931589E-02  0.13183458343E+00  0.20171614917E-01 0.  0.
         14    1    1    2    0    0  0.12591315215E-01  0.16907616501E-01 -0.10553682503E-01  0.23575176118E-01  0.00000000000E+00 0.  1.
     999901    1    3    3    0    0 -0.73321246710E-01  0.98265063787E-01  0.60157893446E-02  0.88852024046E+00  0.88000000000E+00 0.  1.
        -11    1    4    4    0    0  0.42004864708E-01 -0.85239864938E-01  0.11879182003E-01  0.95768571671E-01  0.51100000000E-03 0. -1.
         11    1    4    4    0    0  0.18725066787E-01 -0.29932815351E-01 -0.73412888441E-02  0.36066011755E-01  0.51100000000E-03 0.  1.
</event>
<event>
 8    1  0.1114333E+005  0.1043930E+01  0.7957747E-01            NaN
         13   -1    0    0    0    0  0.00000000000E+00  0.00000000000E+00  0.74505805969E-08  0.10566000000E+00  0.10566000000E+00 0.  1.
     999900   -1    0    0    0    0 -0.00000000000E+00 -0.00000000000E+00 -0.74505805969E-08  0.93827000000E+00  0.93827000000E+00 0.  1.
     999902    2    1    2    0    0 -0.60535115053E-02  0.17211445747E-01  0.14342626623E-01  0.10207224623E+01  0.10204586005E+01 0.  0.
     999903    2    3    3    0    0 -0.42354862805E-01 -0.99837124064E-01  0.70009643873E-01  0.13048823888E+00  0.19090429671E-01 0.  0.
         14    1    1    2    0    0  0.60535115053E-02 -0.17211445747E-01 -0.14342626623E-01  0.23207537669E-01  0.00000000000E+00 0. -1.
     999901    1    3    3    0    0  0.36301351299E-01  0.11704856981E+00 -0.55667017251E-01  0.89023422345E+00  0.88000000000E+00 0.  1.
        -11    1    4    4    0    0 -0.30601125586E-01 -0.67060627699E-01  0.36890771308E-01  0.82430254174E-01  0.51100000000E-03 0.  1.
         11    1    4    4    0    0 -0.11753737219E-01 -0.32776496365E-01  0.33118872566E-01  0.48057984702E-01  0.51100000000E-03 0. -1.
</event>
<event>
 8    1  0.1114333E+005  0.1043930E+01  0.7957747E-01            NaN
         13   -1    0    0    0    0  0.00000000000E+00  0.00000000000E+00  0.74505805969E-08  0.10566000000E+00  0.10566000000E+00 0. -1.
     999900   -1    0    0    0    0 -0.00000000000E+00 -0.00000000000E+00 -0.74505805969E-08  0.93827000000E+00  0.93827000000E+00 0. -1.
     999902    2    1    2    0    0 -0.14164899515E-01  0.19739807246E-01 -0.27043606890E-02  0.10194837746E+01  0.10191906342E+01 0.  0.
     999903    2    3    3    0    0 -0.12101022764E+00  0.10582697647E-01  0.46906008147E-01  0.13158684058E+00  0.18959280852E-01 0.  0.
         14    1    1    2    0    0  0.14164899515E-01 -0.19739807246E-01  0.27043606890E-02  0.24446225376E-01  0.00000000000E+00 0. -1.
     999901    1    3    3    0    0  0.10684532812E+00  0.91571095991E-02 -0.49610368836E-01  0.88789693405E+00  0.88000000000E+00 0. -1.
        -11    1    4    4    0    0 -0.74010734744E-01  0.88074553554E-02  0.19085756411E-01  0.76939504456E-01  0.51100000000E-03 0. -1.
         11    1    4    4    0    0 -0.46999492891E-01  0.17752422919E-02  0.27820251736E-01  0.54647336119E-01  0.51100000000E-03 0.  1.
</event>
<event>
 8    1  0.1114333E+005  0.1043930E+01  0.7957747E-01            NaN
         13   -1    0    0    0    0  0.00000000000E+00  0.00000000000E+00  0.74505805969E-08  0.10566000000E+00  0.10566000000E+00 0. -1.
     999900   -1    0    0    0    0 -0.00000000000E+00 -0.00000000000E+00 -0.74505805969E-08  0.93827000000E+00  0.93827000000E+00 0. -1.
     999902    2    1    2    0    0 -0.12324191051E-01 -0.18960922728E-01 -0.91728812278E-02  0.10195262293E+01  0.10192341184E+01 0.  0.
     999903    2    3    3    0    0  0.11687283002E+00 -0.41341904307E-01 -0.31515521235E-01  0.12953073931E+00  0.20410117593E-01 0.  0.
         14    1    1    2    0    0  0.12324191051E-01  0.18960922728E-01  0.91728812278E-02  0.24403770728E-01  0.00000000000E+00 0. -1.
     999901    1    3    3    0    0 -0.12919702107E+00  0.22380981579E-01  0.22342640007E-01  0.88999548996E+00  0.88000000000E+00 0.  1.
        -11    1    4    4    0    0  0.46026391198E-01 -0.23552337448E-01 -0.20665256287E-01  0.55681731514E-01  0.51100000000E-03 0. -1.
         11    1    4    4    0    0  0.70846438818E-01 -0.17789566858E-01 -0.10850264948E-01  0.73849007797E-01  0.51100000000E-03 0.  1.
</event>
<event>
 8    1  0.1114333E+005  0.1043930E+01  0.7957747E-01            NaN
         13   -1    0    0    0    0  0.00000000000E+00  0.00000000000E+00  0.74505805969E-08  0.10566000000E+00  0.10566000000E+00 0. -1.
     999900   -1    0    0    0    0 -0.00000000000E+00 -0.00000000000E+00 -0.74505805969E-08  0.93827000000E+00  0.93827000000E+00 0.  1.
     999902    2    1    2    0    0 -0.28741586915E-01 -0.63456200114E-02 -0.51762209962E-02  0.10140445692E+01  0.10136040890E+01 0.  0.
     999903    2    3    3    0    0 -0.10972569018E+00 -0.53998992863E-01 -0.34092044788E-01  0.12856989772E+00  0.20305978596E-01 0.  0.
         14    1    1    2    0    0  0.28741586915E-01  0.63456200114E-02  0.51762209962E-02  0.29885430823E-01  0.00000000000E+00 0. -1.
     999901    1    3    3    0    0  0.80984103263E-01  0.47653372852E-01  0.28915823792E-01  0.88547467146E+00  0.88000000000E+00 0.  1.
        -11    1    4    4    0    0 -0.70262799586E-01 -0.31422892763E-01 -0.11587963241E-01  0.77838301679E-01  0.51100000000E-03 0. -1.
         11    1    4    4    0    0 -0.39462890592E-01 -0.22576100101E-01 -0.22504081547E-01  0.50731596041E-01  0.51100000000E-03 0.  1.
</event>
<event>
 8    1  0.1114333E+005  0.1043930E+01  0.7957747E-01            NaN
         13   -1    0    0    0    0  0.00000000000E+00  0.00000000000E+00  0.74505805969E-08  0.10566000000E+00  0.10566000000E+00 0.  1.
     999900   -1    0    0    0    0 -0.00000000000E+00 -0.00000000000E+00 -0.74505805969E-08  0.93827000000E+00  0.93827000000E+00 0. -1.
     999902    2    1    2    0    0 -0.41101854151E-02  0.92076834935E-02  0.21196983249E-01  0.10204568843E+01  0.10201868778E+01 0.  0.
     999903    2    3    3    0    0 -0.37325673268E-01  0.11856952142E+00 -0.35958276720E-01  0.13122687813E+00  0.21807305732E-01 0.  0.
         14    1    1    2    0    0  0.41101854151E-02 -0.92076834935E-02 -0.21196983249E-01  0.23473115650E-01  0.00000000000E+00 0. -1.
     999901    1    3    3    0    0  0.33215487853E-01 -0.10936183793E+00  0.57155259970E-01  0.88923000622E+00  0.88000000000E+00 0. -1.
        -11    1    4    4    0    0 -0.16651976417E-01  0.51132526033E-01 -0.44163701882E-02  0.53959141799E-01  0.51100000000E-03 0. -1.
         11    1    4    4    0    0 -0.20673696851E-01  0.67436995386E-01 -0.31541906532E-01  0.77267736326E-01  0.51100000000E-03 0.  1.
</event>
<event>
 8    1  0.1114333E+005  0.1043930E+01  0.7957747E-01            NaN
         13   -1    0    0    0    0  0.00000000000E+00  0.00000000000E+00  0.74505805969E-08  0.10566000000E+00  0.10566000000E+00 0. -1.
     999900   -1    0    0    0    0 -0.00000000000E+00 -0.00000000000E+00 -0.74505805969E-08  0.93827000000E+00  0.93827000000E+00 0. -1.
     999902    2    1    2    0    0  0.21688709742E-01 -0.78621390960E-02  0.73974787838E-02  0.10197032368E+01  0.10194153987E+01 0.  0.
     999903    2    3    3    0    0  0.26099346508E-01  0.10961353030E+00  0.62894585544E-01  0.13015283608E+00  0.16962604025E-01 0.  0.
         14    1    1    2    0    0 -0.21688709742E-01  0.78621390960E-02 -0.73974787838E-02  0.24226763172E-01  0.00000000000E+00 0. -1.
     999901    1    3    3    0    0 -0.44106367658E-02 -0.11747566940E+00 -0.55497106761E-01  0.88955040075E+00  0.88000000000E+00 0. -1.
        -11    1    4    4    0    0  0.16878009676E-01  0.44408297059E-01  0.32888811866E-01  0.57783207987E-01  0.51100000000E-03 0.  1.
         11    1    4    4    0    0  0.92213368325E-02  0.65205233240E-01  0.30005773678E-01  0.72369628090E-01  0.51100000000E-03 0. -1.
</event>
<event>
 8    1  0.1114333E+005  0.1043930E+01  0.7957747E-01            NaN
         13   -1    0    0    0    0  0.00000000000E+00  0.00000000000E+00  0.74505805969E-08  0.10566000000E+00  0.10566000000E+00 0.  1.
     999900   -1    0    0    0    0 -0.00000000000E+00 -0.00000000000E+00 -0.74505805969E-08  0.93827000000E+00  0.93827000000E+00 0. -1.
     999902    2    1    2    0    0 -0.44884880247E-02  0.59250333066E-02 -0.22357912836E-01  0.10203688283E+01  0.10200967684E+01 0.  0.
     999903    2    3    3    0    0  0.92149976226E-01 -0.19218357433E-01 -0.90593233045E-01  0.13209677439E+00  0.19531015082E-01 0.  0.
         14    1    1    2    0    0  0.44884880247E-02 -0.59250333066E-02  0.22357912836E-01  0.23561171677E-01  0.00000000000E+00 0.  1.
     999901    1    3    3    0    0 -0.96638464251E-01  0.25143390740E-01  0.68235320209E-01  0.88827205393E+00  0.88000000000E+00 0.  1.
        -11    1    4    4    0    0  0.36433107865E-01 -0.17267890724E-01 -0.40386738648E-01  0.57069266496E-01  0.51100000000E-03 0. -1.
         11    1    4    4    0    0  0.55716868361E-01 -0.19504667094E-02 -0.50206494397E-01  0.75027507896E-01  0.51100000000E-03 0.  1.
</event>
<event>
 8    1  0.1114333E+005  0.1043930E+01  0.7957747E-01            NaN
         13   -1    0    0    0    0  0.00000000000E+00  0.00000000000E+00  0.74505805969E-08  0.10566000000E+00  0.10566000000E+00 0. -1.
     999900   -1    0    0    0    0 -0.00000000000E+00 -0.00000000000E+00 -0.74505805969E-08  0.93827000000E+00  0.93827000000E+00 0. -1.
     999902    2    1    2    0    0 -0.10695010993E-01  0.87443202269E-02  0.17073979590E-01  0.10219671410E+01  0.10217311144E+01 0.  0.
     999903    2    3    3    0    0  0.71753159430E-01  0.10136909545E+00 -0.37881247595E-01  0.13157558287E+00  0.21282285807E-01 0.  0.
         14    1    1    2    0    0  0.10695010993E-01 -0.87443202269E-02 -0.17073979590E-01  0.21962858999E-01  0.00000000000E+00 0.  1.
     999901    1    3    3    0    0 -0.82448170423E-01 -0.92624775220E-01  0.54955227185E-01  0.89039155813E+00  0.88000000000E+00 0. -1.
        -11    1    4    4    0    0  0.11770247270E-01  0.33034916483E-01 -0.10052241012E-01  0.36484970854E-01  0.51100000000E-03 0.  1.
         11    1    4    4    0    0  0.59982912160E-01  0.68334178964E-01 -0.27829006584E-01  0.95090612020E-01  0.51100000000E-03 0. -1.
</event>
<event>
 8    1  0.1114333E+005  0.1043930E+01  0.7957747E-01            NaN
         13   -1    0    0    0    0  0.00000000000E+00  0.00000000000E+00  0.74505805969E-08  0.10566000000E+00  0.10566000000E+00 0.  1.
     999900   -1    0    0    0    0 -0.00000000000E+00 -0.00000000000E+00 -0.74505805969E-08  0.93827000000E+00  0.93827000000E+00 0.  1.
     999902    2    1    2    0    0  0.33214996656E-02  0.51264952603E-02 -0.22772454440E-01  0.10203525108E+01  0.10200800696E+01 0.  0.
     999903    2    3    3    0    0 -0.22441123386E-01  0.12822947002E+00 -0.16881398429E-01  0.13139089205E+00  0.56730856805E-02 0.  0.
         14    1    1    2    0    0 -0.33214996656E-02 -0.51264952603E-02  0.22772454440E-01  0.23577489156E-01  0.00000000000E+00 0.  1.
     999901    1    3    3    0    0  0.25762623052E-01 -0.12310297476E+00 -0.58910560108E-02  0.88896161879E+00  0.88000000000E+00 0.  1.
        -11    1    4    4    0    0 -0.14809299546E-01  0.76907687429E-01 -0.12556185012E-01  0.79322295994E-01  0.51100000000E-03 0. -1.
         11    1    4    4    0    0 -0.76318238399E-02  0.51321782592E-01 -0.43252134168E-02  0.52068596060E-01  0.51100000000E-03 0.  1.
</event>
<event>
 8    1  0.1114333E+005  0.1043930E+01  0.7957747E-01            NaN
         13   -1    0    0    0    0  0.00000000000E+00  0.00000000000E+00  0.74505805969E-08  0.10566000000E+00  0.10566000000E+00 0. -1.
     999900   -1    0    0    0    0 -0.00000000000E+00 -0.00000000000E+00 -0.74505805969E-08  0.93827000000E+00  0.93827000000E+00 0.  1.
     999902    2    1    2    0    0  0.77305421349E-02  0.14593368131E-01 -0.16946019170E-01  0.10202678944E+01  0.10199934711E+01 0.  0.
     999903    2    3    3    0    0 -0.11036771419E+00  0.66355418349E-01  0.79143096624E-02  0.13052380540E+00  0.19742178128E-01 0.  0.
         14    1    1    2    0    0 -0.77305421349E-02 -0.14593368131E-01  0.16946019170E-01  0.23662105587E-01  0.00000000000E+00 0.  1.
     999901    1    3    3    0    0  0.11809825633E+00 -0.51762050218E-01 -0.24860328833E-01  0.88974408902E+00  0.88000000000E+00 0.  1.
        -11    1    4    4    0    0 -0.54092058726E-01  0.42472800070E-01  0.91064485023E-02  0.69376351074E-01  0.51100000000E-03 0.  1.
         11    1    4    4    0    0 -0.56275655466E-01  0.23882618279E-01 -0.11921388399E-02  0.61147454322E-01  0.51100000000E-03 0. -1.
</event>
<event>
 8    1  0.1114333E+005  0.1043930E+01  0.7957747E-01            NaN
         13   -1    0    0    0    0  0.00000000000E+00  0.00000000000E+00  0.74505805969E-08  0.10566000000E+00  0.10566000000E+00 0.  1.
     999900   -1    0    0    0    0 -0.00000000000E+00 -0.00000000000E+00 -0.74505805969E-08  0.93827000000E+00  0.93827000000E+00 0.  1.
     999902    2    1    2    0    0 -0.15421100078E-01  0.17247031679E-01 -0.32760407560E-04  0.10207940647E+01  0.10205318471E+01 0.  0.
     999903    2    3    3    0    0  0.45435551280E-01 -0.11764896177E+00  0.12280401192E-01  0.12835242794E+00  0.20441868301E-01 0.  0.
         14    1    1    2    0    0  0.15421100078E-01 -0.17247031679E-01  0.32760407560E-04  0.23135935309E-01  0.00000000000E+00 0.  1.
     999901    1    3    3    0    0 -0.60856651358E-01  0.13489599344E+00 -0.12313161600E-01  0.89244163675E+00  0.88000000000E+00 0.  1.
        -11    1    4    4    0    0  0.81170533899E-02 -0.30636230200E-01  0.11351411018E-01  0.33668691832E-01  0.51100000000E-03 0. -1.
         11    1    4    4    0    0  0.37318497890E-01 -0.87012731565E-01  0.92899017400E-03  0.94683736105E-01  0.51100000000E-03 0.  1.
</event>
<event>
 8    1  0.1114333E+005  0.1043930E+01  0.7957747E-01            NaN
         13   -1    0    0    0    0  0.00000000000E+00  0.00000000000E+00  0.74505805969E-08  0.10566000000E+00  0.10566000000E+00 0. -1.
     999900   -1    0    0    0    0 -0.00000000000E+00 -0.00000000000E+00 -0.74505805969E-08  0.93827000000E+00  0.93827000000E+00 0.  1.
     999902    2    1    2    0    0  0.21456503281E-01  0.60279692451E-02  0.30856662255E-03  0.10216406941E+01  0.10213975204E+01 0.  0.
     999903    2    3    3    0    0  0.71714340348E-01  0.11095424907E+00 -0.12873173331E-01  0.13388558556E+00  0.17488265503E-01 0.  0.
         14    1    1    2    0    0 -0.21456503281E-01 -0.60279692451E-02 -0.30856662255E-03  0.22289305948E-01  0.00000000000E+00 0.  1.
     999901    1    3    3    0    0 -0.50257837067E-01 -0.10492627983E+00  0.13181739954E-01  0.88775510849E+00  0.88000000000E+00 0.  1.
        -11    1    4    4    0    0  0.13179531279E-01  0.11228538478E-01 -0.47650775158E-02  0.17965166456E-01  0.51100000000E-03 0.  1.
         11    1    4    4    0    0  0.58534809069E-01  0.99725710595E-01 -0.81080958155E-02  0.11592041910E+00  0.51100000000E-03 0. -1.
</event>
<event>
 8    1  0.1114333E+005  0.1043930E+01  0.7957747E-01            NaN
         13   -1    0    0    0    0  0.00000000000E+00  0.00000000000E+00  0.74505805969E-08  0.10566000000E+00  0.10566000000E+00 0.  1.
     999900   -1    0    0    0    0 -0.00000000000E+00 -0.00000000000E+00 -0.74505805969E-08  0.93827000000E+00  0.93827000000E+00 0. -1.
     999902    2    1    2    0    0  0.16389417810E-03 -0.23106943818E-01 -0.47321931352E-02  0.10203428983E+01  0.10200702323E+01 0.  0.
     999903    2    3    3    0    0 -0.33353110504E-02 -0.10183055851E+00 -0.83806677397E-01  0.13329023584E+00  0.19029998628E-01 0.  0.
         14    1    1    2    0    0 -0.16389417810E-03  0.23106943818E-01  0.47321931352E-02  0.23587101682E-01  0.00000000000E+00 0. -1.
     999901    1    3    3    0    0  0.34992052285E-02  0.78723614692E-01  0.79074484262E-01  0.88705266248E+00  0.88000000000E+00 0.  1.
        -11    1    4    4    0    0  0.72238023830E-02 -0.61501895987E-01 -0.48532551572E-01  0.78678689707E-01  0.51100000000E-03 0. -1.
         11    1    4    4    0    0 -0.10559113433E-01 -0.40328662523E-01 -0.35274125825E-01  0.54611546133E-01  0.51100000000E-03 0.  1.
</event>
<event>
 8    1  0.1114333E+005  0.1043930E+01  0.7957747E-01            NaN
         13   -1    0    0    0    0  0.00000000000E+00  0.00000000000E+00  0.74505805969E-08  0.10566000000E+00  0.10566000000E+00 0. -1.
     999900   -1    0    0    0    0 -0.00000000000E+00 -0.00000000000E+00 -0.74505805969E-08  0.93827000000E+00  0.93827000000E+00 0.  1.
     999902    2    1    2    0    0  0.10537839933E-01  0.12854211645E-01 -0.16304718745E-01  0.10206465148E+01  0.10203809032E+01 0.  0.
     999903    2    3    3    0    0 -0.74618308107E-01 -0.91938977316E-01 -0.49046062021E-01  0.12974518610E+00  0.20189840570E-01 0.  0.
         14    1    1    2    0    0 -0.10537839933E-01 -0.12854211645E-01  0.16304718745E-01  0.23283485152E-01  0.00000000000E+00 0. -1.
     999901    1    3    3    0    0  0.85156148040E-01  0.10479318896E+00  0.32741343276E-01  0.89090132875E+00  0.88000000000E+00 0.  1.
        -11    1    4    4    0    0 -0.73081755839E-02 -0.21303678325E-01 -0.83305577130E-02  0.24019064373E-01  0.51100000000E-03 0. -1.
         11    1    4    4    0    0 -0.67310132523E-01 -0.70635298991E-01 -0.40715504308E-01  0.10572612173E+00  0.51100000000E-03 0.  1.
</event>
<event>
 8    1  0.1114333E+005  0.1043930E+01  0.7957747E-01            NaN
         13   -1    0    0    0    0  0.00000000000E+00  0.00000000000E+00  0.74505805969E-08  0.10566000000E+00  0.10566000000E+00 0. -1.
     999900   -1    0    0    0    0 -0.00000000000E+00 -0.00000000000E+00 -0.74505805969E-08  0.93827000000E+00  0.93827000000E+00 0. -1.
     999902    2    1    2    0    0 -0.36731088878E-02  0.16760418935E-01 -0.16320853344E-01  0.10202493407E+01  0.10199744818E+01 0.  0.
     999903    2    3    3    0    0  0.42659612450E-02  0.46982923962E-02  0.12680464279E+00  0.12856922350E+00  0.20257231387E-01 0.  0.
         14    1    1    2    0    0  0.36731088878E-02 -0.16760418935E-01  0.16320853344E-01  0.23680659316E-01  0.00000000000E+00 0. -1.
     999901    1    3    3    0    0 -0.79390701328E-02  0.12062126538E-01 -0.14312549613E+00  0.89168011718E+00  0.88000000000E+00 0. -1.
        -11    1    4    4    0    0  0.91878307406E-02  0.68605866944E-02  0.40479700219E-01  0.42075540809E-01  0.51100000000E-03 0. -1.
         11    1    4    4    0    0 -0.49218694956E-02 -0.21622942982E-02  0.86324942567E-01  0.86493682695E-01  0.51100000000E-03 0.  1.
</event>
<event>
 8    1  0.1114333E+005  0.1043930E+01  0.7957747E-01            NaN
         13   -1    0    0    0    0  0.00000000000E+00  0.00000000000E+00  0.74505805969E-08  0.10566000000E+00  0.10566000000E+00 0. -1.
     999900   -1    0    0    0    0 -0.00000000000E+00 -0.00000000000E+00 -0.74505805969E-08  0.93827000000E+00  0.93827000000E+00 0. -1.
     999902    2    1    2    0    0  0.22590034340E-01 -0.68280991877E-02  0.22197050222E-02  0.10202264205E+01  0.10199510231E+01 0.  0.
     999903    2    3    3    0    0 -0.10887728876E+00  0.21729800003E-01 -0.60161820727E-01  0.12781918982E+00  0.19795261953E-01 0.  0.
         14    1    1    2    0    0 -0.22590034340E-01  0.68280991877E-02 -0.22197050222E-02  0.23703579485E-01  0.00000000000E+00 0. -1.
     999901    1    3    3    0    0  0.13146732310E+00 -0.28557899190E-01  0.62381525749E-01  0.89240723070E+00  0.88000000000E+00 0.  1.
        -11    1    4    4    0    0 -0.53776521911E-01  0.17471032755E-01 -0.22088359151E-01  0.60706737891E-01  0.51100000000E-03 0. -1.
         11    1    4    4    0    0 -0.55100766850E-01  0.42587672474E-02 -0.38073461576E-01  0.67112451925E-01  0.51100000000E-03 0.  1.
</event>
<event>
 8    1  0.1114333E+005  0.1043930E+01  0.7957747E-01            NaN
         13   -1    0    0    0    0  0.00000000000E+00  0.00000000000E+00  0.74505805969E-08  0.10566000000E+00  0.10566000000E+00 0. -1.
     999900   -1    0    0    0    0 -0.00000000000E+00 -0.00000000000E+00 -0.74505805969E-08  0.93827000000E+00  0.93827000000E+00 0. -1.
     999902    2    1    2    0    0 -0.18659955594E-01 -0.65121948360E-02 -0.12677851693E-01  0.10204495710E+01  0.10201793942E+01 0.  0.
     999903    2    3    3    0    0  0.51234370542E-01 -0.87225108996E-01 -0.81420254490E-01  0.13133466878E+00  0.19655966468E-01 0.  0.
         14    1    1    2    0    0  0.18659955594E-01  0.65121948360E-02  0.12677851693E-01  0.23480429040E-01  0.00000000000E+00 0. -1.
     999901    1    3    3    0    0 -0.69894326136E-01  0.80712914160E-01  0.68742402797E-01  0.88911490218E+00  0.88000000000E+00 0. -1.
        -11    1    4    4    0    0  0.18147924155E-01 -0.17228140983E-01 -0.14046762245E-01  0.28700673223E-01  0.51100000000E-03 0. -1.
         11    1    4    4    0    0  0.33086446387E-01 -0.69996968013E-01 -0.67373492245E-01  0.10263399556E+00  0.51100000000E-03 0.  1.
</event>
<event>
 8    1  0.1114333E+005  0.1043930E+01  0.7957747E-01            NaN
         13   -1    0    0    0    0  0.00000000000E+00  0.00000000000E+00  0.74505805969E-08  0.10566000000E+00  0.10566000000E+00 0. -1.
     999900   -1    0    0    0    0 -0.00000000000E+00 -0.00000000000E+00 -0.74505805969E-08  0.93827000000E+00  0.93827000000E+00 0. -1.
     999902    2    1    2    0    0  0.26398819774E-02  0.76083965018E-02 -0.22154481175E-01  0.10203571828E+01  0.10200848508E+01 0.  0.
     999903    2    3    3    0    0  0.95488703807E-02  0.12518394355E+00  0.31133913259E-01  0.13091275151E+00  0.20165002010E-01 0.  0.
         14    1    1    2    0    0 -0.26398819774E-02 -0.76083965018E-02  0.22154481175E-01  0.23572817191E-01  0.00000000000E+00 0. -1.
     999901    1    3    3    0    0 -0.69089884033E-02 -0.11757554705E+00 -0.53288394433E-01  0.88944443130E+00  0.88000000000E+00 0. -1.
        -11    1    4    4    0    0  0.10493885549E-01  0.52046844028E-01  0.20870739091E-01  0.57051244319E-01  0.51100000000E-03 0. -1.
         11    1    4    4    0    0 -0.94501516852E-03  0.73137099520E-01  0.10263174168E-01  0.73861507193E-01  0.51100000000E-03 0.  1.
</event>
<event>
 8    1  0.1114333E+005  0.1043930E+01  0.7957747E-01            NaN
         13   -1    0    0    0    0  0.00000000000E+00  0.00000000000E+00  0.74505805969E-08  0.10566000000E+00  0.10566000000E+00 0.  1.
     999900   -1    0    0    0    0 -0.00000000000E+00 -0.00000000000E+00 -0.74505805969E-08  0.93827000000E+00  0.93827000000E+00 0. -1.
     999902    2    1    2    0    0  0.16457037935E-01  0.89564652628E-02  0.12509906888E-01  0.10214011266E+01  0.10211526386E+01 0.  0.
     999903    2    3    3    0    0 -0.75715744033E-01 -0.72049488772E-01  0.75691271284E-01  0.13064320708E+00  0.20358690566E-01 0.  0.
         14    1    1    2    0    0 -0.16457037935E-01 -0.89564652628E-02 -0.12509906888E-01  0.22528873428E-01  0.00000000000E+00 0. -1.
     999901    1    3    3    0    0  0.92172781968E-01  0.81005954035E-01 -0.63181364396E-01  0.89075791949E+00  0.88000000000E+00 0. -1.
        -11    1    4    4    0    0 -0.58859807514E-01 -0.52760259429E-01  0.46124600601E-01  0.91519734578E-01  0.51100000000E-03 0.  1.
         11    1    4    4    0    0 -0.16855936519E-01 -0.19289229343E-01  0.29566670683E-01  0.39123472505E-01  0.51100000000E-03 0. -1.
</event>
<event>
 8    1  0.1114333E+005  0.1043930E+01  0.7957747E-01            NaN
         13   -1    0    0    0    0  0.00000000000E+00  0.00000000000E+00  0.74505805969E-08  0.10566000000E+00  0.10566000000E+00 0.  1.
     999900   -1    0    0    0    0 -0.00000000000E+00 -0.00000000000E+00 -0.74505805969E-08  0.93827000000E+00  0.93827000000E+00 0.  1.
     999902    2    1    2    0    0 -0.28461389471E-03 -0.84705638842E-02  0.22114053597E-01  0.10202474574E+01  0.10199725543E+01 0.  0.
     999903    2    3    3    0    0 -0.32977203525E-01  0.12321626424E+00 -0.86772853267E-02  0.12931629694E+00  0.19433621599E-01 0.  0.
         14    1    1    2    0    0  0.28461389471E-03  0.84705638842E-02 -0.22114053597E-01  0.23682542602E-01  0.00000000000E+00 0. -1.
     999901    1    3    3    0    0  0.32692589630E-01 -0.13168682812E+00  0.30791338924E-01  0.89093116046E+00  0.88000000000E+00 0. -1.
        -11    1    4    4    0    0 -0.20284854082E-01  0.65164558022E-01  0.46710489244E-02  0.68410340932E-01  0.51100000000E-03 0. -1.
         11    1    4    4    0    0 -0.12692349443E-01  0.58051706218E-01 -0.13348334251E-01  0.60905956010E-01  0.51100000000E-03 0.  1.
</event>
<event>
 8    1  0.1114333E+005  0.1043930E+01  0.7957747E-01            NaN
         13   -1    0    0    0    0  0.00000000000E+00  0.00000000000E+00  0.74505805969E-08  0.10566000000E+00  0.10566000000E+00 0.  1.
     999900   -1    0    0    0    0 -0.00000000000E+00 -0.00000000000E+00 -0.74505805969E-08  0.93827000000E+00  0.93827000000E+00 0.  1.
     999902    2    1    2    0    0 -0.14753916209E-01  0.17060163708E-01 -0.59203657342E-02  0.10206109529E+01  0.10203445198E+01 0.  0.
     999903    2    3    3    0    0 -0.79332643578E-01 -0.74258937706E-01  0.69859292993E-01  0.13030081196E+00  0.17027114049E-01 0.  0.
         14    1    1    2    0    0  0.14753916209E-01 -0.17060163708E-01  0.59203657342E-02  0.23319047143E-01  0.00000000000E+00 0.  1.
     999901    1    3    3    0    0  0.64578727369E-01  0.91319101415E-01 -0.75779658727E-01  0.89031014090E+00  0.88000000000E+00 0.  1.
        -11    1    4    4    0    0 -0.17053606712E-01 -0.21221576319E-01  0.25196163301E-01  0.37098363433E-01  0.51100000000E-03 0. -1.
         11    1    4    4    0    0 -0.62279036867E-01 -0.53037361388E-01  0.44663129692E-01  0.93202448524E-01  0.51100000000E-03 0.  1.
</event>
<event>
 8    1  0.1114333E+005  0.1043930E+01  0.7957747E-01            NaN
         13   -1    0    0    0    0  0.00000000000E+00  0.00000000000E+00  0.74505805969E-08  0.10566000000E+00  0.10566000000E+00 0. -1.
     999900   -1    0    0    0    0 -0.00000000000E+00 -0.00000000000E+00 -0.74505805969E-08  0.93827000000E+00  0.93827000000E+00 0. -1.
     999902    2    1    2    0    0 -0.34566435343E-02  0.12824625629E-01  0.15381176709E-01  0.10236075985E+01  0.10234058411E+01 0.  0.
     999903    2    3    3    0    0  0.12680092940E-02  0.13017054175E+00  0.31704854450E-01  0.13565554524E+00  0.21242678084E-01 0.  0.
         14    1    1    2    0    0  0.34566435343E-02 -0.12824625629E-01 -0.15381176709E-01  0.20322401531E-01  0.00000000000E+00 0.  1.
     999901    1    3    3    0    0 -0.47246528283E-02 -0.11734591612E+00 -0.16323677741E-01  0.88795205323E+00  0.88000000000E+00 0.  1.
        -11    1    4    4    0    0  0.43504447516E-02  0.69383287050E-01  0.66699161286E-02  0.69840645713E-01  0.51100000000E-03 0. -1.
         11    1    4    4    0    0 -0.30824354576E-02  0.60787254700E-01  0.25034938321E-01  0.65814899530E-01  0.51100000000E-03 0.  1.
</event>
<event>
 8    1  0.1114333E+005  0.1043930E+01  0.7957747E-01            NaN
         13   -1    0    0    0    0  0.00000000000E+00  0.00000000000E+00  0.74505805969E-08  0.10566000000E+00  0.10566000000E+00 0.  1.
     999900   -1    0    0    0    0 -0.00000000000E+00 -0.00000000000E+00 -0.74505805969E-08  0.93827000000E+00  0.93827000000E+00 0.  1.
     999902    2    1    2    0    0  0.86882687176E-03 -0.95674079710E-02 -0.22958611212E-01  0.10190424934E+01  0.10187385412E+01 0.  0.
     999903    2    3    3    0    0 -0.16886261978E-01 -0.99745133127E-01  0.76791110922E-01  0.12865085354E+00  0.20492192969E-01 0.  0.
         14    1    1    2    0    0 -0.86882687176E-03  0.95674079710E-02  0.22958611212E-01  0.24887506589E-01  0.00000000000E+00 0.  1.
     999901    1    3    3    0    0  0.17755088850E-01  0.90177725156E-01 -0.99749722134E-01  0.89039163988E+00  0.88000000000E+00 0.  1.
        -11    1    4    4    0    0 -0.83248559956E-02 -0.78270228244E-01  0.67634658406E-01  0.10377976679E+00  0.51100000000E-03 0. -1.
         11    1    4    4    0    0 -0.85614059824E-02 -0.21474904883E-01  0.91564525161E-02  0.24871086744E-01  0.51100000000E-03 0.  1.
</event>
<event>
 8    1  0.1114333E+005  0.1043930E+01  0.7957747E-01            NaN
         13   -1    0    0    0    0  0.00000000000E+00  0.00000000000E+00  0.74505805969E-08  0.10566000000E+00  0.10566000000E+00 0. -1.
     999900   -1    0    0    0    0 -0.00000000000E+00 -0.00000000000E+00 -0.74505805969E-08  0.93827000000E+00  0.93827000000E+00 0. -1.
     999902    2    1    2    0    0  0.22724342909E-01  0.21523075775E-02  0.82750143708E-02  0.10196502955E+01  0.10193611828E+01 0.  0.
     999903    2    3    3    0    0  0.42461199542E-01  0.12251341615E+00 -0.25333900900E-02  0.13117229262E+00  0.19678965461E-01 0.  0.
         14    1    1    2    0    0 -0.22724342909E-01 -0.21523075775E-02 -0.82750143708E-02  0.24279704516E-01  0.00000000000E+00 0.  1.
     999901    1    3    3    0    0 -0.19736856633E-01 -0.12036110858E+00  0.10808404461E-01  0.88847800286E+00  0.88000000000E+00 0. -1.
        -11    1    4    4    0    0  0.24075577492E-01  0.92996543322E-01  0.20990454003E-02  0.96086719239E-01  0.51100000000E-03 0. -1.
         11    1    4    4    0    0  0.18385622050E-01  0.29516872831E-01 -0.46324354904E-02  0.35085573381E-01  0.51100000000E-03 0.  1.
</event>
<event>
 8    1  0.1114333E+005  0.1043930E+01  0.7957747E-01            NaN
         13   -1    0    0    0    0  0.00000000000E+00  0.00000000000E+00  0.74505805969E-08  0.10566000000E+00  0.10566000000E+00 0.  1.
     999900   -1    0    0    0    0 -0.00000000000E+00 -0.00000000000E+00 -0.74505805969E-08  0.93827000000E+00  0.93827000000E+00 0.  1.
     999902    2    1    2    0    0  0.18595871229E-02  0.14121723806E-02 -0.23654521425E-01  0.10201605095E+01  0.10198835602E+01 0.  0.
     999903    2    3    3    0    0 -0.64051754593E-01 -0.30568770470E-01  0.10444393704E+00  0.12787339161E+00  0.20149225876E-01 0.  0.
         14    1    1    2    0    0 -0.18595871229E-02 -0.14121723806E-02  0.23654521425E-01  0.23769490507E-01  0.00000000000E+00 0.  1.
     999901    1    3    3    0    0  0.65911341716E-01  0.31980942850E-01 -0.12809845847E+00  0.89228711788E+00  0.88000000000E+00 0.  1.
        -11    1    4    4    0    0 -0.35409244171E-01 -0.24339705008E-01  0.49128803595E-01  0.65269719445E-01  0.51100000000E-03 0.  1.
         11    1    4    4    0    0 -0.28642510422E-01 -0.62290654615E-02  0.55315133447E-01  0.62603672169E-01  0.51100000000E-03 0. -1.
</event>
<event>
 8    1  0.1114333E+005  0.1043930E+01  0.7957747E-01            NaN
         13   -1    0    0    0    0  0.00000000000E+00  0.00000000000E+00  0.74505805969E-08  0.10566000000E+00  0.10566000000E+00 0.  1.
     999900   -1    0    0    0    0 -0.00000000000E+00 -0.00000000000E+00 -0.74505805969E-08  0.93827000000E+00  0.93827000000E+00 0.  1.
     999902    2    1    2    0    0  0.15181056280E-01  0.14466809206E-01  0.10954034946E-01  0.10202710922E+01  0.10199967439E+01 0.  0.
     999903    2    3    3    0    0  0.37608183839E-01 -0.10148593193E-01 -0.12194701225E+00  0.12966928303E+00  0.20632007376E-01 0.  0.
         14    1    1    2    0    0 -0.15181056280E-01 -0.14466809206E-01 -0.10954034946E-01  0.23658907836E-01  0.00000000000E+00 0. -1.
     999901    1    3    3    0    0 -0.22427127560E-01  0.24615402399E-01  0.13290104720E+00  0.89060180913E+00  0.88000000000E+00 0. -1.
        -11    1    4    4    0    0  0.18217570003E-01  0.49696339180E-02 -0.42648342902E-01  0.46644607313E-01  0.51100000000E-03 0. -1.
         11    1    4    4    0    0  0.19390613837E-01 -0.15118227111E-01 -0.79298669352E-01  0.83024675718E-01  0.51100000000E-03 0.  1.
</event>
<event>
 8    1  0.1114333E+005  0.1043930E+01  0.7957747E-01            NaN
         13   -1    0    0    0    0  0.00000000000E+00  0.00000000000E+00  0.74505805969E-08  0.10566000000E+00  0.10566000000E+00 0. -1.
     999900   -1    0    0    0    0 -0.00000000000E+00 -0.00000000000E+00 -0.74505805969E-08  0.93827000000E+00  0.93827000000E+00 0.  1.
     999902    2    1    2    0    0 -0.18768785349E-01  0.80105542958E-02 -0.13214786552E-01  0.10196181332E+01  0.10193282448E+01 0.  0.
     999903    2    3    3    0    0  0.60315873352E-01  0.11240946044E+00  0.10744662865E-01  0.12960264454E+00  0.20186785697E-01 0.  0.
         14    1    1    2    0    0  0.18768785349E-01 -0.80105542958E-02  0.13214786552E-01  0.24311866799E-01  0.00000000000E+00 0.  1.
     999901    1    3    3    0    0 -0.79084658701E-01 -0.10439890614E+00 -0.23959449417E-01  0.89001548866E+00  0.88000000000E+00 0. -1.
        -11    1    4    4    0    0  0.36024653151E-01  0.76716771446E-01 -0.13393028263E-02  0.84766110615E-01  0.51100000000E-03 0. -1.
         11    1    4    4    0    0  0.24291220201E-01  0.35692688992E-01  0.12083965691E-01  0.44836533922E-01  0.51100000000E-03 0.  1.
</event>
<event>
 8    1  0.1114333E+005  0.1043930E+01  0.7957747E-01            NaN
         13   -1    0    0    0    0  0.00000000000E+00  0.00000000000E+00  0.74505805969E-08  0.10566000000E+00  0.10566000000E+00 0.  1.
     999900   -1    0    0    0    0 -0.00000000000E+00 -0.00000000000E+00 -0.74505805969E-08  0.93827000000E+00  0.93827000000E+00 0.  1.
     999902    2    1    2    0    0 -0.12550168222E-01  0.92972773382E-02 -0.17204943158E-01  0.10206930433E+01  0.10204285043E+01 0.  0.
     999903    2    3    3    0    0 -0.72435375663E-01 -0.10675621289E+00  0.98981936430E-02  0.13064291510E+00  0.18050606363E-01 0.  0.
         14    1    1    2    0    0  0.12550168222E-01 -0.92972773382E-02  0.17204943158E-01  0.23236956715E-01  0.00000000000E+00 0.  1.
     999901    1    3    3    0    0  0.59885207440E-01  0.11605349023E+00 -0.27103136801E-01  0.89005012819E+00  0.88000000000E+00 0.  1.
        -11    1    4    4    0    0 -0.28242502505E-01 -0.52062454713E-01 -0.22902391014E-02  0.59276002350E-01  0.51100000000E-03 0. -1.
         11    1    4    4    0    0 -0.44192873157E-01 -0.54693758175E-01  0.12188432744E-01  0.71366912746E-01  0.51100000000E-03 0.  1.
</event>
<event>
 8    1  0.1114333E+005  0.1043930E+01  0.7957747E-01            NaN
         13   -1    0    0    0    0  0.00000000000E+00  0.00000000000E+00  0.74505805969E-08  0.10566000000E+00  0.10566000000E+00 0. -1.
     999900   -1    0    0    0    0 -0.00000000000E+00 -0.00000000000E+00 -0.74505805969E-08  0.93827000000E+00  0.93827000000E+00 0. -1.
     999902    2    1    2    0    0 -0.45179044349E-02 -0.23870991471E-01  0.39862268490E-02  0.10193103798E+01  0.10190130150E+01 0.  0.
     999903    2    3    3    0    0  0.72833201144E-01  0.92798131219E-01 -0.42226895231E-01  0.12704891006E+00  0.21027280397E-01 0.  0.
         14    1    1    2    0    0  0.45179044349E-02  0.23870991471E-01 -0.39862268490E-02  0.24619620200E-01  0.00000000000E+00 0. -1.
     999901    1    3    3    0    0 -0.77351105579E-01 -0.11666912269E+00  0.46213122080E-01  0.89226146974E+00  0.88000000000E+00 0.  1.
        -11    1    4    4    0    0  0.19563071618E-01  0.33225869768E-01 -0.22825518174E-01  0.44810016669E-01  0.51100000000E-03 0. -1.
         11    1    4    4    0    0  0.53270129526E-01  0.59572261450E-01 -0.19401377057E-01  0.82238893394E-01  0.51100000000E-03 0.  1.
</event>
<event>
 8    1  0.1114333E+005  0.1043930E+01  0.7957747E-01            NaN
         13   -1    0    0    0    0  0.00000000000E+00  0.00000000000E+00  0.74505805969E-08  0.10566000000E+00  0.10566000000E+00 0. -1.
     999900   -1    0    0    0    0 -0.00000000000E+00 -0.00000000000E+00 -0.74505805969E-08  0.93827000000E+00  0.93827000000E+00 0.  1.
     999902    2    1    2    0    0 -0.12855311317E-01  0.16738039935E-01  0.11983724279E-01  0.10196600462E+01  0.10193711685E+01 0.  0.
     999903    2    3    3    0    0  0.32785833808E-01 -0.68665273082E-01  0.10319621438E+00  0.12966197971E+00  0.19311646618E-01 0.  0.
         14    1    1    2    0    0  0.12855311317E-01 -0.16738039935E-01 -0.11983724279E-01  0.24269953802E-01  0.00000000000E+00 0. -1.
     999901    1    3    3    0    0 -0.45641145126E-01  0.85403313017E-01 -0.91212490096E-01  0.88999806649E+00  0.88000000000E+00 0.  1.
        -11    1    4    4    0    0  0.14874528830E-01 -0.36607938580E-01  0.68815668046E-01  0.79355214477E-01  0.51100000000E-03 0.  1.
         11    1    4    4    0    0  0.17911304979E-01 -0.32057334502E-01  0.34380546329E-01  0.50306765234E-01  0.51100000000E-03 0. -1.
</event>
<event>
 8    1  0.1114333E+005  0.1043930E+01  0.7957747E-01            NaN
         13   -1    0    0    0    0  0.00000000000E+00  0.00000000000E+00  0.74505805969E-08  0.10566000000E+00  0.10566000000E+00 0. -1.
     999900   -1    0    0    0    0 -0.00000000000E+00 -0.00000000000E+00 -0.74505805969E-08  0.93827000000E+00  0.93827000000E+00 0. -1.
     999902    2    1    2    0    0  0.54709960527E-02 -0.10642206272E-01  0.20573559289E-01  0.10201295863E+01  0.10198519074E+01 0.  0.
     999903    2    3    3    0    0 -0.81219108480E-01  0.98431227874E-01 -0.17655097882E-02  0.12888819233E+00  0.17994412847E-01 0.  0.
         14    1    1    2    0    0 -0.54709960527E-02  0.10642206272E-01 -0.20573559289E-01  0.23800413735E-01  0.00000000000E+00 0.  1.
     999901    1    3    3    0    0  0.86690104532E-01 -0.10907343415E+00  0.22339069077E-01  0.89124139394E+00  0.88000000000E+00 0.  1.
        -11    1    4    4    0    0 -0.36684404630E-01  0.40081426847E-01 -0.91892515302E-02  0.55108708802E-01  0.51100000000E-03 0. -1.
         11    1    4    4    0    0 -0.44534703850E-01  0.58349801027E-01  0.74237417420E-02  0.73779483526E-01  0.51100000000E-03 0.  1.
</event>
<event>
 8    1  0.1114333E+005  0.1043930E+01  0.7957747E-01            NaN
         13   -1    0    0    0    0  0.00000000000E+00  0.00000000000E+00  0.74505805969E-08  0.10566000000E+00  0.10566000000E+00 0.  1.
     999900   -1    0    0    0    0 -0.00000000000E+00 -0.00000000000E+00 -0.74505805969E-08  0.93827000000E+00  0.93827000000E+00 0.  1.
     999902    2    1    2    0    0  0.69473633076E-02 -0.45042810117E-02  0.22273337816E-01  0.10201675089E+01  0.10198907247E+01 0.  0.
     999903    2    3    3    0    0  0.58527454357E-01  0.39903205025E-01  0.11098395132E+00  0.13309248191E+00  0.19453601405E-01 0.  0.
         14    1    1    2    0    0 -0.69473633076E-02  0.45042810117E-02 -0.22273337816E-01  0.23762491069E-01  0.00000000000E+00 0. -1.
     999901    1    3    3    0    0 -0.51580091049E-01 -0.44407486037E-01 -0.88710613500E-01  0.88707502702E+00  0.88000000000E+00 0.  1.
        -11    1    4    4    0    0  0.45942669914E-02  0.62892963906E-02  0.24872914847E-01  0.26068861737E-01  0.51100000000E-03 0. -1.
         11    1    4    4    0    0  0.53933187365E-01  0.33613908634E-01  0.86111036469E-01  0.10702362018E+00  0.51100000000E-03 0.  1.
</event>
<event>
 8    1  0.1114333E+005  0.1043930E+01  0.7957747E-01            NaN
         13   -1    0    0    0    0  0.00000000000E+00  0.00000000000E+00  0.74505805969E-08  0.10566000000E+00  0.10566000000E+00 0.  1.
     999900   -1    0    0    0    0 -0.00000000000E+00 -0.00000000000E+00 -0.74505805969E-08  0.93827000000E+00  0.93827000000E+00 0.  1.
     999902    2    1    2    0    0  0.22438060997E-02  0.10319119180E-01 -0.20486856397E-01  0.10208815690E+01  0.10206213538E+01 0.  0.
     999903    2    3    3    0    0 -0.29271160781E-01 -0.12111891493E+00  0.27459368260E-01  0.12927179427E+00  0.20750601934E-01 0.  0.
         14    1    1    2    0    0 -0.22438060997E-02 -0.10319119180E-01  0.20486856397E-01  0.23048430998E-01  0.00000000000E+00 0.  1.
     999901    1    3    3    0    0  0.31514966881E-01  0.13143803411E+00 -0.47946224656E-01  0.89160977474E+00  0.88000000000E+00 0.  1.
        -11    1    4    4    0    0 -0.16746477672E-01 -0.95756439475E-01  0.15011551052E-01  0.98363346839E-01  0.51100000000E-03 0. -1.
         11    1    4    4    0    0 -0.12524683109E-01 -0.25362475452E-01  0.12447817208E-01  0.30908447426E-01  0.51100000000E-03 0.  1.
</event>
<event>
 8    1  0.1114333E+005  0.1043930E+01  0.7957747E-01            NaN
         13   -1    0    0    0    0  0.00000000000E+00  0.00000000000E+00  0.74505805969E-08  0.10566000000E+00  0.10566000000E+00 0. -1.
     999900   -1    0    0    0    0 -0.00000000000E+00 -0.00000000000E+00 -0.74505805969E-08  0.93827000000E+00  0.93827000000E+00 0.  1.
     999902    2    1    2    0    0 -0.22853001551E-01 -0.99393320364E-03 -0.75127572026E-02  0.10198532663E+01  0.10195690245E+01 0.  0.
     999903    2    3    3    0    0  0.18491276274E-01  0.11578918966E+00 -0.52424162040E-01  0.13004166753E+00  0.20334177804E-01 0.  0.
         14    1    1    2    0    0  0.22853001551E-01  0.99393320364E-03  0.75127572026E-02  0.24076733663E-01  0.00000000000E+00 0. -1.
     999901    1    3    3    0    0 -0.41344277825E-01 -0.11678312286E+00  0.44911404838E-01  0.88981159881E+00  0.88000000000E+00 0.  1.
        -11    1    4    4    0    0 -0.99008602134E-03  0.51664406613E-01 -0.27487423846E-01  0.58532134522E-01  0.51100000000E-03 0. -1.
         11    1    4    4    0    0  0.19481362295E-01  0.64124783046E-01 -0.24936738194E-01  0.71509533004E-01  0.51100000000E-03 0.  1.
</event>
<event>
 8    1  0.1114333E+005  0.1043930E+01  0.7957747E-01            NaN
         13   -1    0    0    0    0  0.00000000000E+00  0.00000000000E+00  0.74505805969E-08  0.10566000000E+00  0.10566000000E+00 0. -1.
     999900   -1    0    0    0    0 -0.00000000000E+00 -0.00000000000E+00 -0.74505805969E-08  0.93827000000E+00  0.93827000000E+00 0.  1.
     999902    2    1    2    0    0 -0.68598107863E-03  0.12534583910E-01  0.20327156016E-01  0.10200390051E+01  0.10197591835E+01 0.  0.
     999903    2    3    3    0    0  0.35890073560E-01 -0.62980646755E-01  0.10794281553E+00  0.13171650648E+00  0.21045840610E-01 0.  0.
         14    1    1    2    0    0  0.68598107863E-03 -0.12534583910E-01 -0.20327156016E-01  0.23890994863E-01  0.00000000000E+00 0.  1.
     999901    1    3    3    0    0 -0.36576054638E-01  0.75515230665E-01 -0.87615659519E-01  0.88832249866E+00  0.88000000000E+00 0.  1.
        -11    1    4    4    0    0  0.24267714626E-01 -0.32206829064E-01  0.43230561325E-01  0.59121437441E-01  0.51100000000E-03 0.  1.
         11    1    4    4    0    0  0.11622358933E-01 -0.30773817691E-01  0.64712254209E-01  0.72595069035E-01  0.51100000000E-03 0. -1.
</event>
<event>
 8    1  0.1114333E+005  0.1043930E+01  0.7957747E-01            NaN
         13   -1    0    0    0    0  0.00000000000E+00  0.00000000000E+00  0.74505805969E-08  0.10566000000E+00  0.10566000000E+00 0. -1.
     999900   -1    0    0    0    0 -0.00000000000E+00 -0.00000000000E+00 -0.74505805969E-08  0.93827000000E+00  0.93827000000E+00 0.  1.
     999902    2    1    2    0    0 -0.27009430835E-02 -0.14568165578E-01  0.19490032908E-01  0.10194475997E+01  0.10191535805E+01 0.  0.
     999903    2    3    3    0    0  0.89866354958E-01 -0.84251105902E-01 -0.36801335684E-01  0.13006965134E+00  0.19737408474E-01 0.  0.
         14    1    1    2    0    0  0.27009430835E-02  0.14568165578E-01 -0.19490032908E-01  0.24482400304E-01  0.00000000000E+00 0.  1.
     999901    1    3    3    0    0 -0.92567298041E-01  0.69682940324E-01  0.56291368593E-01  0.88937794835E+00  0.88000000000E+00 0. -1.
        -11    1    4    4    0    0  0.36336824356E-01 -0.40691370728E-01 -0.25162917306E-01  0.60079830096E-01  0.51100000000E-03 0.  1.
         11    1    4    4    0    0  0.53529530602E-01 -0.43559735174E-01 -0.11638418378E-01  0.69989821247E-01  0.51100000000E-03 0. -1.
</event>
<event>
 8    1  0.1114333E+005  0.1043930E+01  0.7957747E-01            NaN
         13   -1    0    0    0    0  0.00000000000E+00  0.00000000000E+00  0.74505805969E-08  0.10566000000E+00  0.10566000000E+00 0. -1.
     999900   -1    0    0    0    0 -0.00000000000E+00 -0.00000000000E+00 -0.74505805969E-08  0.93827000000E+00  0.93827000000E+00 0.  1.
     999902    2    1    2    0    0  0.18995786647E-03 -0.22010439331E-01  0.75569097430E-02  0.10206576471E+01  0.10203922923E+01 0.  0.
     999903    2    3    3    0    0 -0.75804129686E-02  0.12532263769E+00 -0.15279076204E-01  0.12808333845E+00  0.20215470361E-01 0.  0.
         14    1    1    2    0    0 -0.18995786647E-03  0.22010439331E-01 -0.75569097430E-02  0.23272352876E-01  0.00000000000E+00 0.  1.
     999901    1    3    3    0    0  0.77703708351E-02 -0.14733307702E+00  0.22835985947E-01  0.89257430867E+00  0.88000000000E+00 0. -1.
        -11    1    4    4    0    0 -0.66469418561E-02  0.41039359994E-01 -0.13707747505E-01  0.43778697644E-01  0.51100000000E-03 0. -1.
         11    1    4    4    0    0 -0.93347111248E-03  0.84283277693E-01 -0.15713286991E-02  0.84304640808E-01  0.51100000000E-03 0.  1.
</event>
<event>
 8    1  0.1265975E+005  0.1043930E+01  0.7957747E-01            NaN
         13   -1    0    0    0    0  0.00000000000E+00  0.00000000000E+00  0.74505805969E-08  0.10566000000E+00  0.10566000000E+00 0.  1.
     999900   -1    0    0    0    0 -0.00000000000E+00 -0.00000000000E+00 -0.74505805969E-08  0.93827000000E+00  0.93827000000E+00 0. -1.
     999902    2    1    2    0    0  0.25822231624E-01 -0.78972341550E-02 -0.28169363793E-02  0.10167806154E+01  0.10164180886E+01 0.  0.
     999903    2    3    3    0    0 -0.61330936432E-01  0.10707517078E+00 -0.79830012382E-02  0.12501774512E+00  0.18415545733E-01 0.  0.
         14    1    1    2    0    0 -0.25822231624E-01  0.78972341550E-02  0.28169363793E-02  0.27149384595E-01  0.00000000000E+00 0.  1.
     999901    1    3    3    0    0  0.87153168056E-01 -0.11497240493E+00  0.51660648589E-02  0.89176287029E+00  0.88000000000E+00 0.  1.
        -11    1    4    4    0    0 -0.17654109705E-01  0.24871090370E-01  0.53808472141E-02  0.30975044204E-01  0.51100000000E-03 0.  1.
         11    1    4    4    0    0 -0.43676826727E-01  0.82204080407E-01 -0.13363848452E-01  0.94042700913E-01  0.51100000000E-03 0. -1.
</event>
<event>
 8    1  0.1114333E+005  0.1043930E+01  0.7957747E-01            NaN
         13   -1    0    0    0    0  0.00000000000E+00  0.00000000000E+00  0.74505805969E-08  0.10566000000E+00  0.10566000000E+00 0.  1.
     999900   -1    0    0    0    0 -0.00000000000E+00 -0.00000000000E+00 -0.74505805969E-08  0.93827000000E+00  0.93827000000E+00 0.  1.
     999902    2    1    2    0    0 -0.22098754223E-01 -0.20098030754E-02 -0.87214124066E-02  0.10200876578E+01  0.10198089882E+01 0.  0.
     999903    2    3    3    0    0 -0.10665922370E+00 -0.10999514182E-01  0.74292664441E-01  0.13209969345E+00  0.20826658568E-01 0.  0.
         14    1    1    2    0    0  0.22098754223E-01  0.20098030754E-02  0.87214124066E-02  0.23842342187E-01  0.00000000000E+00 0.  1.
     999901    1    3    3    0    0  0.84560469475E-01  0.89897111064E-02 -0.83014076848E-01  0.88798796437E+00  0.88000000000E+00 0. -1.
        -11    1    4    4    0    0 -0.51975554049E-01  0.50351045064E-02  0.36757970523E-01  0.63860942791E-01  0.51100000000E-03 0.  1.
         11    1    4    4    0    0 -0.54683669648E-01 -0.16034618688E-01  0.37534693918E-01  0.68238750657E-01  0.51100000000E-03 0. -1.
</event>
<event>
 8    1  0.1114333E+005  0.1043930E+01  0.7957747E-01            NaN
         13   -1    0    0    0    0  0.00000000000E+00  0.00000000000E+00  0.74505805969E-08  0.10566000000E+00  0.10566000000E+00 0. -1.
     999900   -1    0    0    0    0 -0.00000000000E+00 -0.00000000000E+00 -0.74505805969E-08  0.93827000000E+00  0.93827000000E+00 0. -1.
     999902    2    1    2    0    0 -0.11613468152E-01 -0.96811063882E-02  0.19602576896E-01  0.10191740414E+01  0.10188733333E+01 0.  0.
     999903    2    3    3    0    0 -0.11338911674E+00 -0.62458165477E-01  0.13169923944E-01  0.13171413832E+00  0.20421878131E-01 0.  0.
         14    1    1    2    0    0  0.11613468152E-01  0.96811063882E-02 -0.19602576896E-01  0.24755958563E-01  0.00000000000E+00 0.  1.
     999901    1    3    3    0    0  0.10177564859E+00  0.52777059088E-01  0.64326529513E-02  0.88745990311E+00  0.88000000000E+00 0.  1.
        -11    1    4    4    0    0 -0.58710554808E-01 -0.26673807528E-01 -0.24117446303E-02  0.64532928703E-01  0.51100000000E-03 0.  1.
         11    1    4    4    0    0 -0.54678561937E-01 -0.35784357948E-01  0.15581668575E-01  0.67181209619E-01  0.51100000000E-03 0. -1.
</event>
<event>
 8    1  0.1114333E+005  0.1043930E+01  0.7957747E-01            NaN
         13   -1    0    0    0    0  0.00000000000E+00  0.00000000000E+00  0.74505805969E-08  0.10566000000E+00  0.10566000000E+00 0.  1.
     999900   -1    0    0    0    0 -0.00000000000E+00 -0.00000000000E+00 -0.74505805969E-08  0.93827000000E+00  0.93827000000E+00 0.  1.
     999902    2    1    2    0    0  0.18196912016E-01  0.11574743491E-01  0.10548500128E-01  0.10199222273E+01  0.10196396308E+01 0.  0.
     999903    2    3    3    0    0  0.92670195114E-01 -0.88102585035E-01  0.20997264297E-01  0.13110783928E+00  0.19963713621E-01 0.  0.
         14    1    1    2    0    0 -0.18196912016E-01 -0.11574743491E-01 -0.10548500128E-01  0.24007772674E-01  0.00000000000E+00 0. -1.
     999901    1    3    3    0    0 -0.74473283098E-01  0.99677328526E-01 -0.10448764168E-01  0.88881438804E+00  0.88000000000E+00 0.  1.
        -11    1    4    4    0    0  0.52431966285E-01 -0.58579351842E-01  0.20282050619E-01  0.81192821414E-01  0.51100000000E-03 0.  1.
         11    1    4    4    0    0  0.40238228829E-01 -0.29523233193E-01  0.71521367766E-03  0.49915017871E-01  0.51100000000E-03 0. -1.
</event>
<event>
 7    1  0.1404628E+005  0.1043930E+01  0.7957747E-01            NaN
         13   -1    0    0    0    0  0.00000000000E+00  0.00000000000E+00  0.74505805969E-08  0.10566000000E+00  0.10566000000E+00 0.  1.
     999900   -1    0    0    0    0 -0.00000000000E+00 -0.00000000000E+00 -0.74505805969E-08  0.93827000000E+00  0.93827000000E+00 0. -1.
     999903    2    1    2    0    0 -0.58458301104E-01  0.33340528801E-01  0.82003995745E-01  0.10961127708E+00  0.27586462541E-01 0.  0.
         14    1    1    2    0    0 -0.40382612359E-01 -0.28798958599E-03  0.14548001080E-01  0.42924150013E-01  0.00000000000E+00 0.  1.
     999901    1    1    2    0    0  0.98840913463E-01 -0.33052539215E-01 -0.96551996825E-01  0.89139457291E+00  0.88000000000E+00 0. -1.
        -11    1    3    3    0    0 -0.42230048890E-01  0.36754559387E-01  0.60167901587E-01  0.82187055960E-01  0.51100000000E-03 0. -1.
         11    1    3    3    0    0 -0.16228252214E-01 -0.34140305862E-02  0.21836094158E-01  0.27424221117E-01  0.51100000000E-03 0.  1.
</event>
<event>
 8    1  0.1114333E+005  0.1043930E+01  0.7957747E-01            NaN
         13   -1    0    0    0    0  0.00000000000E+00  0.00000000000E+00  0.74505805969E-08  0.10566000000E+00  0.10566000000E+00 0.  1.
     999900   -1    0    0    0    0 -0.00000000000E+00 -0.00000000000E+00 -0.74505805969E-08  0.93827000000E+00  0.93827000000E+00 0.  1.
     999902    2    1    2    0    0 -0.19116254925E-01 -0.17842692122E-02  0.13619870475E-01  0.10203903379E+01  0.10201187804E+01 0.  0.
     999903    2    3    3    0    0  0.50532389504E-01  0.35730785273E-01  0.11394769013E+00  0.13116371642E+00  0.19739123947E-01 0.  0.
         14    1    1    2    0    0  0.19116254925E-01  0.17842692122E-02 -0.13619870475E-01  0.23539662078E-01  0.00000000000E+00 0.  1.
     999901    1    3    3    0    0 -0.69648644430E-01 -0.37515054485E-01 -0.10032781966E+00  0.88922662150E+00  0.88000000000E+00 0.  1.
        -11    1    4    4    0    0  0.27620863057E-01  0.26831112382E-01  0.53598543854E-01  0.65999134024E-01  0.51100000000E-03 0.  1.
         11    1    4    4    0    0  0.22911526448E-01  0.88996728909E-02  0.60349146279E-01  0.65164582400E-01  0.51100000000E-03 0. -1.
</event>
<event>
 8    1  0.1114333E+005  0.1043930E+01  0.7957747E-01            NaN
         13   -1    0    0    0    0  0.00000000000E+00  0.00000000000E+00  0.74505805969E-08  0.10566000000E+00  0.10566000000E+00 0.  1.
     999900   -1    0    0    0    0 -0.00000000000E+00 -0.00000000000E+00 -0.74505805969E-08  0.93827000000E+00  0.93827000000E+00 0. -1.
     999902    2    1    2    0    0  0.91550290240E-02  0.21386662232E-01  0.59992560773E-02  0.10199051181E+01  0.10196221138E+01 0.  0.
     999903    2    3    3    0    0  0.86709718035E-01  0.17102137529E-01  0.95945340210E-01  0.13191672570E+00  0.19633030915E-01 0.  0.
         14    1    1    2    0    0 -0.91550290240E-02 -0.21386662232E-01 -0.59992560773E-02  0.24024881921E-01  0.00000000000E+00 0. -1.
     999901    1    3    3    0    0 -0.77554689011E-01  0.42845247035E-02 -0.89946084133E-01  0.88798839237E+00  0.88000000000E+00 0. -1.
        -11    1    4    4    0    0  0.45307361557E-01  0.15609071148E-02  0.58190618308E-01  0.73767219159E-01  0.51100000000E-03 0.  1.
         11    1    4    4    0    0  0.41402356478E-01  0.15541230414E-01  0.37754721902E-01  0.58149506546E-01  0.51100000000E-03 0. -1.
</event>
<event>
 8    1  0.1114333E+005  0.1043930E+01  0.7957747E-01            NaN
         13   -1    0    0    0    0  0.00000000000E+00  0.00000000000E+00  0.74505805969E-08  0.10566000000E+00  0.10566000000E+00 0.  1.
     999900   -1    0    0    0    0 -0.00000000000E+00 -0.00000000000E+00 -0.74505805969E-08  0.93827000000E+00  0.93827000000E+00 0. -1.
     999902    2    1    2    0    0 -0.22781789238E-01 -0.92010693062E-03  0.52630677411E-02  0.10205300769E+01  0.10202617711E+01 0.  0.
     999903    2    3    3    0    0  0.14006634321E-01  0.11923388306E+00 -0.46441420458E-01  0.13010112214E+00  0.18883637731E-01 0.  0.
         14    1    1    2    0    0  0.22781789238E-01  0.92010693062E-03 -0.52630677411E-02  0.23399923071E-01  0.00000000000E+00 0. -1.
     999901    1    3    3    0    0 -0.36788423559E-01 -0.12015398999E+00  0.51704488200E-01  0.89042895478E+00  0.88000000000E+00 0.  1.
        -11    1    4    4    0    0  0.17504399321E-01  0.79557449437E-01 -0.34952108214E-01  0.88643684186E-01  0.51100000000E-03 0. -1.
         11    1    4    4    0    0 -0.34977649999E-02  0.39676433626E-01 -0.11489312245E-01  0.41457437959E-01  0.51100000000E-03 0.  1.
</event>
<event>
 8    1  0.1114333E+005  0.1043930E+01  0.7957747E-01            NaN
         13   -1    0    0    0    0  0.00000000000E+00  0.00000000000E+00  0.74505805969E-08  0.10566000000E+00  0.10566000000E+00 0. -1.
     999900   -1    0    0    0    0 -0.00000000000E+00 -0.00000000000E+00 -0.74505805969E-08  0.93827000000E+00  0.93827000000E+00 0. -1.
     999902    2    1    2    0    0  0.61048802970E-02  0.10479955436E-01  0.20142958435E-01  0.10204174969E+01  0.10201465728E+01 0.  0.
     999903    2    3    3    0    0  0.84289557078E-01  0.27253952690E-01  0.97707399785E-01  0.13339413007E+00  0.19993763907E-01 0.  0.
         14    1    1    2    0    0 -0.61048802970E-02 -0.10479955436E-01 -0.20142958435E-01  0.23512503139E-01  0.00000000000E+00 0. -1.
     999901    1    3    3    0    0 -0.78184676781E-01 -0.16773997254E-01 -0.77564441351E-01  0.88702336679E+00  0.88000000000E+00 0. -1.
        -11    1    4    4    0    0  0.28036520846E-01  0.43425313322E-02  0.43757892764E-01  0.52152836736E-01  0.51100000000E-03 0.  1.
         11    1    4    4    0    0  0.56253036232E-01  0.22911421358E-01  0.53949507022E-01  0.81241293336E-01  0.51100000000E-03 0. -1.
</event>
<event>
 8    1  0.1114333E+005  0.1043930E+01  0.7957747E-01            NaN
         13   -1    0    0    0    0  0.00000000000E+00  0.00000000000E+00  0.74505805969E-08  0.10566000000E+00  0.10566000000E+00 0.  1.
     999900   -1    0    0    0    0 -0.00000000000E+00 -0.00000000000E+00 -0.74505805969E-08  0.93827000000E+00  0.93827000000E+00 0. -1.
     999902    2    1    2    0    0  0.21865011072E-01  0.53194885402E-02  0.84715123491E-02  0.10198854125E+01  0.10196019382E+01 0.  0.
     999903    2    3    3    0    0 -0.94945537839E-01  0.83265764396E-01 -0.93821656208E-02  0.12857229125E+00  0.22247839672E-01 0.  0.
         14    1    1    2    0    0 -0.21865011072E-01 -0.53194885402E-02 -0.84715123491E-02  0.24044587520E-01  0.00000000000E+00 0. -1.
     999901    1    3    3    0    0  0.11681054891E+00 -0.77946275855E-01  0.17853677970E-01  0.89131312123E+00  0.88000000000E+00 0. -1.
        -11    1    4    4    0    0 -0.21200196449E-01  0.10141991948E-01 -0.75924937362E-02  0.24702538579E-01  0.51100000000E-03 0. -1.
         11    1    4    4    0    0 -0.73745341391E-01  0.73123772448E-01 -0.17896718846E-02  0.10386975267E+00  0.51100000000E-03 0.  1.
</event>
<event>
 7    1  0.1114333E+005  0.1043930E+01  0.7957747E-01            NaN
         13   -1    0    0    0    0  0.00000000000E+00  0.00000000000E+00  0.74505805969E-08  0.10566000000E+00  0.10566000000E+00 0.  1.
     999900   -1    0    0    0    0 -0.00000000000E+00 -0.00000000000E+00 -0.74505805969E-08  0.93827000000E+00  0.93827000000E+00 0.  1.
     999903    2    1    2    0    0  0.25895462819E-01  0.68158513067E-01 -0.89444649992E-01  0.11756589612E+00  0.22477469165E-01 0.  0.
         14    1    1    2    0    0 -0.12982023487E-01  0.11807346877E-01  0.37164094400E-01  0.41098859920E-01  0.00000000000E+00 0.  1.
     999901    1    1    2    0    0 -0.12913439333E-01 -0.79965859944E-01  0.52280555592E-01  0.88526524396E+00  0.88000000000E+00 0. -1.
        -11    1    3    3    0    0  0.10756979328E-01  0.55535914036E-01 -0.67176203578E-01  0.87822854658E-01  0.51100000000E-03 0.  1.
         11    1    3    3    0    0  0.15138483491E-01  0.12622599031E-01 -0.22268446414E-01  0.29743041462E-01  0.51100000000E-03 0. -1.
</event>
<event>
 8    1  0.1114333E+005  0.1043930E+01  0.7957747E-01            NaN
         13   -1    0    0    0    0  0.00000000000E+00  0.00000000000E+00  0.74505805969E-08  0.10566000000E+00  0.10566000000E+00 0. -1.
     999900   -1    0    0    0    0 -0.00000000000E+00 -0.00000000000E+00 -0.74505805969E-08  0.93827000000E+00  0.93827000000E+00 0. -1.
     999902    2    1    2    0    0 -0.20142571578E-02  0.11896569553E-01 -0.20649600651E-01  0.10200136540E+01  0.10197332312E+01 0.  0.
     999903    2    3    3    0    0 -0.48370737047E-01  0.23429692884E-01  0.11488070644E+00  0.12835766635E+00  0.19734109780E-01 0.  0.
         14    1    1    2    0    0  0.20142571578E-02 -0.11896569553E-01  0.20649600651E-01  0.23916346002E-01  0.00000000000E+00 0. -1.
     999901    1    3    3    0    0  0.46356479889E-01 -0.11533123331E-01 -0.13553030709E+00  0.89165598764E+00  0.88000000000E+00 0. -1.
        -11    1    4    4    0    0 -0.20707164355E-01  0.30024198994E-02  0.60462265784E-01  0.63982402937E-01  0.51100000000E-03 0.  1.
         11    1    4    4    0    0 -0.27663572691E-01  0.20427272984E-01  0.54418440655E-01  0.64375263417E-01  0.51100000000E-03 0. -1.
</event>
<event>
 8    1  0.1114333E+005  0.1043930E+01  0.7957747E-01            NaN
         13   -1    0    0    0    0  0.00000000000E+00  0.00000000000E+00  0.74505805969E-08  0.10566000000E+00  0.10566000000E+00 0. -1.
     999900   -1    0    0    0    0 -0.00000000000E+00 -0.00000000000E+00 -0.74505805969E-08  0.93827000000E+00  0.93827000000E+00 0.  1.
     999902    2    1    2    0    0 -0.64407673121E-02 -0.23765399931E-01 -0.32235223631E-02  0.10190971827E+01  0.10187945814E+01 0.  0.
     999903    2    3    3    0    0 -0.83929025144E-01 -0.68035015575E-01  0.72013092275E-01  0.13138958607E+00  0.20112017883E-01 0.  0.
         14    1    1    2    0    0  0.64407673121E-02  0.23765399931E-01  0.32235223631E-02  0.24832817276E-01  0.00000000000E+00 0. -1.
     999901    1    3    3    0    0  0.77488257832E-01  0.44269615644E-01 -0.75236614638E-01  0.88770759665E+00  0.88000000000E+00 0.  1.
        -11    1    4    4    0    0 -0.79716572065E-02 -0.93745663162E-02  0.17381294756E-02  0.12438328960E-01  0.51100000000E-03 0.  1.
         11    1    4    4    0    0 -0.75957367938E-01 -0.58660449258E-01  0.70274962799E-01  0.11895125711E+00  0.51100000000E-03 0. -1.
</event>
<event>
 8    1  0.1114333E+005  0.1043930E+01  0.7957747E-01            NaN
         13   -1    0    0    0    0  0.00000000000E+00  0.00000000000E+00  0.74505805969E-08  0.10566000000E+00  0.10566000000E+00 0. -1.
     999900   -1    0    0    0    0 -0.00000000000E+00 -0.00000000000E+00 -0.74505805969E-08  0.93827000000E+00  0.93827000000E+00 0.  1.
     999902    2    1    2    0    0  0.16334906738E-01 -0.17160261999E-01  0.23967653843E-02  0.10201172250E+01  0.10198392542E+01 0.  0.
     999903    2    3    3    0    0  0.57156120642E-01 -0.10563544982E+00  0.54015189425E-01  0.13323578303E+00  0.20210462760E-01 0.  0.
         14    1    1    2    0    0 -0.16334906738E-01  0.17160261999E-01 -0.23967653843E-02  0.23812775024E-01  0.00000000000E+00 0.  1.
     999901    1    3    3    0    0 -0.40821213904E-01  0.88475187825E-01 -0.51618424041E-01  0.88688144194E+00  0.88000000000E+00 0.  1.
        -11    1    4    4    0    0  0.55353718303E-01 -0.91256964167E-01  0.51538679642E-01  0.11852579575E+00  0.51100000000E-03 0.  1.
         11    1    4    4    0    0  0.18024023389E-02 -0.14378485657E-01  0.24765097832E-02  0.14709987277E-01  0.51100000000E-03 0. -1.
</event>
<event>
 8    1  0.1114333E+005  0.1043930E+01  0.7957747E-01            NaN
         13   -1    0    0    0    0  0.00000000000E+00  0.00000000000E+00  0.74505805969E-08  0.10566000000E+00  0.10566000000E+00 0.  1.
     999900   -1    0    0    0    0 -0.00000000000E+00 -0.00000000000E+00 -0.74505805969E-08  0.93827000000E+00  0.93827000000E+00 0.  1.
     999902    2    1    2    0    0 -0.16667981074E-01  0.17187732597E-01  0.33023772144E-03  0.10199852970E+01  0.10197042009E+01 0.  0.
     999903    2    3    3    0    0  0.44589871268E-01 -0.95231790371E-01  0.69680861023E-01  0.12802106982E+00  0.21831660663E-01 0.  0.
         14    1    1    2    0    0  0.16667981074E-01 -0.17187732597E-01 -0.33023772144E-03  0.23944703002E-01  0.00000000000E+00 0.  1.
     999901    1    3    3    0    0 -0.61257852342E-01  0.11241952297E+00 -0.69350623301E-01  0.89196422718E+00  0.88000000000E+00 0. -1.
        -11    1    4    4    0    0  0.11813663972E-01 -0.50923959662E-01  0.34307550375E-01  0.62530644150E-01  0.51100000000E-03 0. -1.
         11    1    4    4    0    0  0.32776207296E-01 -0.44307830709E-01  0.35373310648E-01  0.65490425667E-01  0.51100000000E-03 0.  1.
</event>
<event>
 8    1  0.1114333E+005  0.1043930E+01  0.7957747E-01            NaN
         13   -1    0    0    0    0  0.00000000000E+00  0.00000000000E+00  0.74505805969E-08  0.10566000000E+00  0.10566000000E+00 0. -1.
     999900   -1    0    0    0    0 -0.00000000000E+00 -0.00000000000E+00 -0.74505805969E-08  0.93827000000E+00  0.93827000000E+00 0.  1.
     999902    2    1    2    0    0 -0.11805457343E-01  0.10637930817E-01  0.16472933650E-01  0.10210413142E+01  0.10207847341E+01 0.  0.
     999903    2    3    3    0    0  0.74885739895E-01  0.10158668956E+00 -0.28711347271E-01  0.13096903643E+00  0.20020427183E-01 0.  0.
         14    1    1    2    0    0  0.11805457343E-01 -0.10637930817E-01 -0.16472933650E-01  0.22888685812E-01  0.00000000000E+00 0.  1.
     999901    1    3    3    0    0 -0.86691197239E-01 -0.90948758746E-01  0.45184280921E-01  0.89007227776E+00  0.88000000000E+00 0. -1.
        -11    1    4    4    0    0  0.45994283107E-01  0.66498766862E-01 -0.27808803392E-01  0.85505267322E-01  0.51100000000E-03 0.  1.
         11    1    4    4    0    0  0.28891456788E-01  0.35087922701E-01 -0.90254387867E-03  0.45463769106E-01  0.51100000000E-03 0. -1.
</event>
<event>
 8    1  0.1114333E+005  0.1043930E+01  0.7957747E-01            NaN
         13   -1    0    0    0    0  0.00000000000E+00  0.00000000000E+00  0.74505805969E-08  0.10566000000E+00  0.10566000000E+00 0.  1.
     999900   -1    0    0    0    0 -0.00000000000E+00 -0.00000000000E+00 -0.74505805969E-08  0.93827000000E+00  0.93827000000E+00 0. -1.
     999902    2    1    2    0    0  0.10961461460E-01  0.15853647674E-01 -0.13252956097E-01  0.10205391337E+01  0.10202710379E+01 0.  0.
     999903    2    3    3    0    0  0.38547174299E-01 -0.69304707535E-01  0.99811978827E-01  0.12880116963E+00  0.18392472594E-01 0.  0.
         14    1    1    2    0    0 -0.10961461460E-01 -0.15853647674E-01  0.13252956097E-01  0.23390866320E-01  0.00000000000E+00 0.  1.
     999901    1    3    3    0    0 -0.27585712839E-01  0.85158355209E-01 -0.11306493492E+00  0.89173796405E+00  0.88000000000E+00 0. -1.
        -11    1    4    4    0    0  0.15241064721E-01 -0.28279761244E-01  0.26653323217E-01  0.41745607066E-01  0.51100000000E-03 0.  1.
         11    1    4    4    0    0  0.23306109578E-01 -0.41024946291E-01  0.73158655610E-01  0.87055562565E-01  0.51100000000E-03 0. -1.
</event>
<event>
 8    1  0.1114333E+005  0.1043930E+01  0.7957747E-01            NaN
         13   -1    0    0    0    0  0.00000000000E+00  0.00000000000E+00  0.74505805969E-08  0.10566000000E+00  0.10566000000E+00 0.  1.
     999900   -1    0    0    0    0 -0.00000000000E+00 -0.00000000000E+00 -0.74505805969E-08  0.93827000000E+00  0.93827000000E+00 0.  1.
     999902    2    1    2    0    0  0.48605772343E-02  0.20407704136E-01  0.10815138112E-01  0.10203277372E+01  0.10200547164E+01 0.  0.
     999903    2    3    3    0    0  0.84134893183E-01 -0.46587984444E-01 -0.83790294231E-01  0.12919192972E+00  0.20509040748E-01 0.  0.
         14    1    1    2    0    0 -0.48605772343E-02 -0.20407704136E-01 -0.10815138112E-01  0.23602262847E-01  0.00000000000E+00 0. -1.
     999901    1    3    3    0    0 -0.79274315949E-01  0.66995688580E-01  0.94605432342E-01  0.89113580743E+00  0.88000000000E+00 0. -1.
        -11    1    4    4    0    0  0.64251029987E-01 -0.44865829685E-01 -0.66375698767E-01  0.10269923094E+00  0.51100000000E-03 0.  1.
         11    1    4    4    0    0  0.19883863196E-01 -0.17221547597E-02 -0.17414595463E-01  0.26492698782E-01  0.51100000000E-03 0. -1.
</event>
<event>
 8    1  0.1114333E+005  0.1043930E+01  0.7957747E-01            NaN
         13   -1    0    0    0    0  0.00000000000E+00  0.00000000000E+00  0.74505805969E-08  0.10566000000E+00  0.10566000000E+00 0. -1.
     999900   -1    0    0    0    0 -0.00000000000E+00 -0.00000000000E+00 -0.74505805969E-08  0.93827000000E+00  0.93827000000E+00 0. -1.
     999902    2    1    2    0    0 -0.21999112119E-01  0.42934131946E-02 -0.12138239589E-01  0.10184401748E+01  0.10181211413E+01 0.  0.
     999903    2    3    3    0    0  0.10492455140E+00  0.33880583037E-01  0.57910052673E-01  0.12608834939E+00  0.19688632712E-01 0.  0.
         14    1    1    2    0    0  0.21999112119E-01 -0.42934131946E-02  0.12138239589E-01  0.25489825248E-01  0.00000000000E+00 0. -1.
     999901    1    3    3    0    0 -0.12692366352E+00 -0.29587169842E-01 -0.70048292263E-01  0.89235182536E+00  0.88000000000E+00 0. -1.
        -11    1    4    4    0    0  0.63021874335E-01  0.16182938615E-01  0.24012210600E-01  0.69357707040E-01  0.51100000000E-03 0. -1.
         11    1    4    4    0    0  0.41902677062E-01  0.17697644422E-01  0.33897842074E-01  0.56730642349E-01  0.51100000000E-03 0.  1.
</event>
<event>
 8    1  0.1114333E+005  0.1043930E+01  0.7957747E-01            NaN
         13   -1    0    0    0    0  0.00000000000E+00  0.00000000000E+00  0.74505805969E-08  0.10566000000E+00  0.10566000000E+00 0.  1.
     999900   -1    0    0    0    0 -0.00000000000E+00 -0.00000000000E+00 -0.74505805969E-08  0.93827000000E+00  0.93827000000E+00 0.  1.
     999902    2    1    2    0    0  0.15798938870E-02  0.16046801343E-01 -0.16625442645E-01  0.10207696623E+01  0.10205068850E+01 0.  0.
     999903    2    3    3    0    0  0.53359295880E-01 -0.11265524449E+00 -0.29771131872E-01  0.12980494236E+00  0.20605441046E-01 0.  0.
         14    1    1    2    0    0 -0.15798938870E-02 -0.16046801343E-01  0.16625442645E-01  0.23160337674E-01  0.00000000000E+00 0.  1.
     999901    1    3    3    0    0 -0.51779401993E-01  0.12870204583E+00  0.13145689228E-01  0.89096471996E+00  0.88000000000E+00 0.  1.
        -11    1    4    4    0    0  0.24899387835E-01 -0.36598731746E-01 -0.33017627267E-02  0.44391546922E-01  0.51100000000E-03 0.  1.
         11    1    4    4    0    0  0.28459908046E-01 -0.76056512745E-01 -0.26469369146E-01  0.85413395442E-01  0.51100000000E-03 0. -1.
</event>
<event>
 8    1  0.1114333E+005  0.1043930E+01  0.7957747E-01            NaN
         13   -1    0    0    0    0  0.00000000000E+00  0.00000000000E+00  0.74505805969E-08  0.10566000000E+00  0.10566000000E+00 0.  1.
     999900   -1    0    0    0    0 -0.00000000000E+00 -0.00000000000E+00 -0.74505805969E-08  0.93827000000E+00  0.93827000000E+00 0. -1.
     999902    2    1    2    0    0 -0.93353277799E-02  0.38350909755E-02 -0.21969217293E-01  0.10197535078E+01  0.10194668773E+01 0.  0.
     999903    2    3    3    0    0  0.80309735272E-01 -0.52651962769E-02  0.96401179263E-01  0.12726787577E+00  0.20653061990E-01 0.  0.
         14    1    1    2    0    0  0.93353277799E-02 -0.38350909755E-02  0.21969217293E-01  0.24176492219E-01  0.00000000000E+00 0.  1.
     999901    1    3    3    0    0 -0.89645063052E-01  0.91002872524E-02 -0.11837039656E+00  0.89248563201E+00  0.88000000000E+00 0. -1.
        -11    1    4    4    0    0  0.58423064459E-01  0.34191910466E-02  0.77224629621E-01  0.96896077678E-01  0.51100000000E-03 0.  1.
         11    1    4    4    0    0  0.21886670813E-01 -0.86843873235E-02  0.19176549641E-01  0.30371798097E-01  0.51100000000E-03 0. -1.
</event>
<event>
 8    1  0.1114333E+005  0.1043930E+01  0.7957747E-01            NaN
         13   -1    0    0    0    0  0.00000000000E+00  0.00000000000E+00  0.74505805969E-08  0.10566000000E+00  0.10566000000E+00 0. -1.
     999900   -1    0    0    0    0 -0.00000000000E+00 -0.00000000000E+00 -0.74505805969E-08  0.93827000000E+00  0.93827000000E+00 0. -1.
     999902    2    1    2    0    0 -0.11976109513E-01 -0.19062428179E-01 -0.88365288684E-02  0.10197455503E+01  0.10194587288E+01 0.  0.
     999903    2    3    3    0    0 -0.76992611227E-01  0.31937772832E-01 -0.99303015461E-01  0.13125674830E+00  0.20478319698E-01 0.  0.
         14    1    1    2    0    0  0.11976109513E-01  0.19062428179E-01  0.88365288684E-02  0.24184449748E-01  0.00000000000E+00 0. -1.
     999901    1    3    3    0    0  0.65016501714E-01 -0.51000201012E-01  0.90466486592E-01  0.88848880195E+00  0.88000000000E+00 0.  1.
        -11    1    4    4    0    0 -0.39228240540E-01  0.23736920888E-01 -0.65227568594E-01  0.79732007969E-01  0.51100000000E-03 0.  1.
         11    1    4    4    0    0 -0.37764370687E-01  0.82008519440E-02 -0.34075446867E-01  0.51524740331E-01  0.51100000000E-03 0. -1.
</event>
<event>
 8    1  0.1114333E+005  0.1043930E+01  0.7957747E-01            NaN
         13   -1    0    0    0    0  0.00000000000E+00  0.00000000000E+00  0.74505805969E-08  0.10566000000E+00  0.10566000000E+00 0.  1.
     999900   -1    0    0    0    0 -0.00000000000E+00 -0.00000000000E+00 -0.74505805969E-08  0.93827000000E+00  0.93827000000E+00 0. -1.
     999902    2    1    2    0    0  0.18182328310E-01  0.26969706265E-01 -0.67815254349E-02  0.10107042388E+01  0.10101579615E+01 0.  0.
     999903    2    3    3    0    0 -0.11739078251E+00 -0.11537451317E-02 -0.14860394236E-01  0.11984158666E+00  0.18953828884E-01 0.  0.
         14    1    1    2    0    0 -0.18182328310E-01 -0.26969706265E-01  0.67815254349E-02  0.33225761181E-01  0.00000000000E+00 0. -1.
     999901    1    3    3    0    0  0.13557311082E+00  0.28123451397E-01  0.80788688013E-02  0.89086265216E+00  0.88000000000E+00 0.  1.
        -11    1    4    4    0    0 -0.36647608135E-01 -0.80979940506E-02 -0.89253608393E-02  0.38581703912E-01  0.51100000000E-03 0. -1.
         11    1    4    4    0    0 -0.80743174376E-01  0.69442489189E-02 -0.59350333970E-02  0.81259882745E-01  0.51100000000E-03 0.  1.
</event>
<event>
 8    1  0.1114333E+005  0.1043930E+01  0.7957747E-01            NaN
         13   -1    0    0    0    0  0.00000000000E+00  0.00000000000E+00  0.74505805969E-08  0.10566000000E+00  0.10566000000E+00 0.  1.
     999900   -1    0    0    0    0 -0.00000000000E+00 -0.00000000000E+00 -0.74505805969E-08  0.93827000000E+00  0.93827000000E+00 0.  1.
     999902    2    1    2    0    0  0.28935943917E-02 -0.48179408758E-02 -0.23029251555E-01  0.10202248978E+01  0.10199494645E+01 0.  0.
     999903    2    3    3    0    0 -0.19457209346E-01 -0.11591741797E+00  0.51442426280E-01  0.12983808128E+00  0.19904103752E-01 0.  0.
         14    1    1    2    0    0 -0.28935943917E-02  0.48179408758E-02  0.23029251555E-01  0.23705102193E-01  0.00000000000E+00 0.  1.
     999901    1    3    3    0    0  0.22350803738E-01  0.11109947709E+00 -0.74471677835E-01  0.89038681652E+00  0.88000000000E+00 0.  1.
        -11    1    4    4    0    0  0.27683704331E-02 -0.32827813734E-01  0.10519867612E-01  0.34586962356E-01  0.51100000000E-03 0. -1.
         11    1    4    4    0    0 -0.22225579780E-01 -0.83089604234E-01  0.40922558668E-01  0.95251118929E-01  0.51100000000E-03 0.  1.
</event>
<event>
 8    1  0.1114333E+005  0.1043930E+01  0.7957747E-01            NaN
         13   -1    0    0    0    0  0.00000000000E+00  0.00000000000E+00  0.74505805969E-08  0.10566000000E+00  0.10566000000E+00 0.  1.
     999900   -1    0    0    0    0 -0.00000000000E+00 -0.00000000000E+00 -0.74505805969E-08  0.93827000000E+00  0.93827000000E+00 0. -1.
     999902    2    1    2    0    0  0.42024980080E-02 -0.22936441990E-01 -0.33541826923E-02  0.10203717339E+01  0.10200997419E+01 0.  0.
     999903    2    3    3    0    0  0.39012912511E-01 -0.75718501766E-01  0.98893748598E-01  0.13219813022E+00  0.21001744468E-01 0.  0.
         14    1    1    2    0    0 -0.42024980080E-02  0.22936441990E-01  0.33541826923E-02  0.23558266112E-01  0.00000000000E+00 0.  1.
     999901    1    3    3    0    0 -0.34810414503E-01  0.52782059776E-01 -0.10224793129E+00  0.88817360366E+00  0.88000000000E+00 0. -1.
        -11    1    4    4    0    0  0.36762194407E-01 -0.55788527812E-01  0.67764823372E-01  0.95163812349E-01  0.51100000000E-03 0.  1.
         11    1    4    4    0    0  0.22507181036E-02 -0.19929973954E-01  0.31128925225E-01  0.37034317875E-01  0.51100000000E-03 0. -1.
</event>
<event>
 8    1  0.1114333E+005  0.1043930E+01  0.7957747E-01            NaN
         13   -1    0    0    0    0  0.00000000000E+00  0.00000000000E+00  0.74505805969E-08  0.10566000000E+00  0.10566000000E+00 0. -1.
     999900   -1    0    0    0    0 -0.00000000000E+00 -0.00000000000E+00 -0.74505805969E-08  0.93827000000E+00  0.93827000000E+00 0. -1.
     999902    2    1    2    0    0 -0.87813552060E-02  0.30530437521E-03  0.22141873496E-01  0.10201084137E+01  0.10198302348E+01 0.  0.
     999903    2    3    3    0    0  0.10249243935E+00 -0.23318939680E-01 -0.71654697077E-01  0.12784289333E+00  0.12686082496E-01 0.  0.
         14    1    1    2    0    0  0.87813552060E-02 -0.30530437521E-03 -0.22141873496E-01  0.23821586260E-01  0.00000000000E+00 0.  1.
     999901    1    3    3    0    0 -0.11127379456E+00  0.23624244055E-01  0.93796570573E-01  0.89226552041E+00  0.88000000000E+00 0.  1.
        -11    1    4    4    0    0  0.44245883258E-01 -0.16137067081E-01 -0.34455490729E-01  0.58357048260E-01  0.51100000000E-03 0.  1.
         11    1    4    4    0    0  0.58246556096E-01 -0.71818725987E-02 -0.37199206348E-01  0.69485845069E-01  0.51100000000E-03 0. -1.
</event>
<event>
 8    1  0.1114333E+005  0.1043930E+01  0.7957747E-01            NaN
         13   -1    0    0    0    0  0.00000000000E+00  0.00000000000E+00  0.74505805969E-08  0.10566000000E+00  0.10566000000E+00 0.  1.
     999900   -1    0    0    0    0 -0.00000000000E+00 -0.00000000000E+00 -0.74505805969E-08  0.93827000000E+00  0.93827000000E+00 0. -1.
     999902    2    1    2    0    0  0.14173308873E-01  0.17336870775E-01 -0.85646863941E-02  0.10199549374E+01  0.10196731196E+01 0.  0.
     999903    2    3    3    0    0 -0.12216994079E+00  0.23445617307E-01 -0.28103461405E-01  0.12922009346E+00  0.20804725628E-01 0.  0.
         14    1    1    2    0    0 -0.14173308873E-01 -0.17336870775E-01  0.85646863941E-02  0.23975062580E-01  0.00000000000E+00 0.  1.
     999901    1    3    3    0    0  0.13634324966E+00 -0.61087465320E-02  0.19538775011E-01  0.89073484396E+00  0.88000000000E+00 0.  1.
        -11    1    4    4    0    0 -0.59780197148E-01  0.13113977978E-02 -0.10426100769E-01  0.60698899771E-01  0.51100000000E-03 0. -1.
         11    1    4    4    0    0 -0.62389743639E-01  0.22134219509E-01 -0.17677360637E-01  0.68521193690E-01  0.51100000000E-03 0.  1.
</event>
<event>
 8    1  0.1114333E+005  0.1043930E+01  0.7957747E-01            NaN
         13   -1    0    0    0    0  0.00000000000E+00  0.00000000000E+00  0.74505805969E-08  0.10566000000E+00  0.10566000000E+00 0. -1.
     999900   -1    0    0    0    0 -0.00000000000E+00 -0.00000000000E+00 -0.74505805969E-08  0.93827000000E+00  0.93827000000E+00 0. -1.
     999902    2    1    2    0    0 -0.21367215482E-02 -0.22676732912E-01 -0.60762593611E-02  0.10203562705E+01  0.10200839172E+01 0.  0.
     999903    2    3    3    0    0  0.50845030282E-01 -0.12112711836E+00  0.83186102319E-02  0.13316589821E+00  0.20173280922E-01 0.  0.
         14    1    1    2    0    0  0.21367215482E-02  0.22676732912E-01  0.60762593611E-02  0.23573729496E-01  0.00000000000E+00 0.  1.
     999901    1    3    3    0    0 -0.52981751830E-01  0.98450385449E-01 -0.14394869593E-01  0.88719037229E+00  0.88000000000E+00 0. -1.
        -11    1    4    4    0    0  0.16985430818E-02 -0.20881409118E-01 -0.19580272152E-02  0.21047880818E-01  0.51100000000E-03 0. -1.
         11    1    4    4    0    0  0.49146487200E-01 -0.10024570924E+00  0.10276637447E-01  0.11211801739E+00  0.51100000000E-03 0.  1.
</event>
<event>
 8    1  0.1114333E+005  0.1043930E+01  0.7957747E-01            NaN
         13   -1    0    0    0    0  0.00000000000E+00  0.00000000000E+00  0.74505805969E-08  0.10566000000E+00  0.10566000000E+00 0.  1.
     999900   -1    0    0    0    0 -0.00000000000E+00 -0.00000000000E+00 -0.74505805969E-08  0.93827000000E+00  0.93827000000E+00 0.  1.
     999902    2    1    2    0    0 -0.18850328788E-01 -0.13613272859E-01  0.46050024379E-02  0.10202263686E+01  0.10199509699E+01 0.  0.
     999903    2    3    3    0    0 -0.46833974641E-01  0.40035434237E-01 -0.11316850760E+00  0.13032082988E+00  0.19497446340E-01 0.  0.
         14    1    1    2    0    0  0.18850328788E-01  0.13613272859E-01 -0.46050024379E-02  0.23703631384E-01  0.00000000000E+00 0. -1.
     999901    1    3    3    0    0  0.27983645853E-01 -0.53648707097E-01  0.11777351003E+00  0.88990553874E+00  0.88000000000E+00 0. -1.
        -11    1    4    4    0    0 -0.28732038587E-01  0.12767434848E-01 -0.63108163054E-01  0.70508430695E-01  0.51100000000E-03 0.  1.
         11    1    4    4    0    0 -0.18101936053E-01  0.27267999389E-01 -0.50060344541E-01  0.59812399184E-01  0.51100000000E-03 0. -1.
</event>
<event>
 8    1  0.1114333E+005  0.1043930E+01  0.7957747E-01            NaN
         13   -1    0    0    0    0  0.00000000000E+00  0.00000000000E+00  0.74505805969E-08  0.10566000000E+00  0.10566000000E+00 0.  1.
     999900   -1    0    0    0    0 -0.00000000000E+00 -0.00000000000E+00 -0.74505805969E-08  0.93827000000E+00  0.93827000000E+00 0.  1.
     999902    2    1    2    0    0  0.13032635469E-01 -0.82390262251E-02 -0.17200142890E-01  0.10208307347E+01  0.10205693572E+01 0.  0.
     999903    2    3    3    0    0 -0.43076765835E-01  0.72239172996E-01 -0.99201376844E-01  0.13158993054E+00  0.20022257196E-01 0.  0.
         14    1    1    2    0    0 -0.13032635469E-01  0.82390262251E-02  0.17200142890E-01  0.23099265266E-01  0.00000000000E+00 0.  1.
     999901    1    3    3    0    0  0.56109401304E-01 -0.80478199221E-01  0.82001233954E-01  0.88924080419E+00  0.88000000000E+00 0. -1.
        -11    1    4    4    0    0 -0.24381771214E-01  0.37068629154E-01 -0.67037616991E-01  0.80391897898E-01  0.51100000000E-03 0.  1.
         11    1    4    4    0    0 -0.18694994621E-01  0.35170543842E-01 -0.32163759853E-01  0.51198032647E-01  0.51100000000E-03 0. -1.
</event>
<event>
 8    1  0.1114333E+005  0.1043930E+01  0.7957747E-01            NaN
         13   -1    0    0    0    0  0.00000000000E+00  0.00000000000E+00  0.74505805969E-08  0.10566000000E+00  0.10566000000E+00 0. -1.
     999900   -1    0    0    0    0 -0.00000000000E+00 -0.00000000000E+00 -0.74505805969E-08  0.93827000000E+00  0.93827000000E+00 0.  1.
     999902    2    1    2    0    0 -0.13686595442E-01  0.18684996577E-01 -0.15424776092E-03  0.10207680531E+01  0.10205052388E+01 0.  0.
     999903    2    3    3    0    0  0.94884263001E-01 -0.71019761092E-01 -0.47126768234E-01  0.12833262545E+00  0.14195092067E-01 0.  0.
         14    1    1    2    0    0  0.13686595442E-01 -0.18684996577E-01  0.15424776092E-03  0.23161946901E-01  0.00000000000E+00 0. -1.
     999901    1    3    3    0    0 -0.10857085844E+00  0.89704757669E-01  0.46972520473E-01  0.89243542765E+00  0.88000000000E+00 0. -1.
        -11    1    4    4    0    0  0.44556837632E-01 -0.39142784152E-01 -0.29261721049E-01  0.66136062558E-01  0.51100000000E-03 0. -1.
         11    1    4    4    0    0  0.50327425369E-01 -0.31876976940E-01 -0.17865047186E-01  0.62196562888E-01  0.51100000000E-03 0.  1.
</event>
<event>
 8    1  0.1114333E+005  0.1043930E+01  0.7957747E-01            NaN
         13   -1    0    0    0    0  0.00000000000E+00  0.00000000000E+00  0.74505805969E-08  0.10566000000E+00  0.10566000000E+00 0.  1.
     999900   -1    0    0    0    0 -0.00000000000E+00 -0.00000000000E+00 -0.74505805969E-08  0.93827000000E+00  0.93827000000E+00 0. -1.
     999902    2    1    2    0    0 -0.12546102710E-01  0.64793549444E-02  0.16185031596E-01  0.10224511271E+01  0.10222254963E+01 0.  0.
     999903    2    3    3    0    0  0.96108103510E-01  0.39888889312E-02 -0.85115614982E-01  0.12999734120E+00  0.20048990267E-01 0.  0.
         14    1    1    2    0    0  0.12546102710E-01 -0.64793549444E-02 -0.16185031596E-01  0.21478872909E-01  0.00000000000E+00 0. -1.
     999901    1    3    3    0    0 -0.10865420622E+00  0.24904660133E-02  0.10130064658E+00  0.89245378589E+00  0.88000000000E+00 0.  1.
        -11    1    4    4    0    0  0.58797326497E-01  0.28308731091E-04 -0.39061229391E-01  0.70591551670E-01  0.51100000000E-03 0. -1.
         11    1    4    4    0    0  0.37310777012E-01  0.39605802001E-02 -0.46054385591E-01  0.59405789532E-01  0.51100000000E-03 0.  1.
</event>
<event>
 8    1  0.1114333E+005  0.1043930E+01  0.7957747E-01            NaN
         13   -1    0    0    0    0  0.00000000000E+00  0.00000000000E+00  0.74505805969E-08  0.10566000000E+00  0.10566000000E+00 0. -1.
     999900   -1    0    0    0    0 -0.00000000000E+00 -0.00000000000E+00 -0.74505805969E-08  0.93827000000E+00  0.93827000000E+00 0.  1.
     999902    2    1    2    0    0  0.91257019599E-03  0.28381727202E-02 -0.25541757724E-01  0.10182148411E+01  0.10178900693E+01 0.  0.
     999903    2    3    3    0    0  0.62466476619E-01  0.15289877049E-02  0.10773392453E+00  0.12605285760E+00  0.19450601761E-01 0.  0.
         14    1    1    2    0    0 -0.91257019599E-03 -0.28381727202E-02  0.25541757724E-01  0.25715158883E-01  0.00000000000E+00 0. -1.
     999901    1    3    3    0    0 -0.61553906423E-01  0.13091850153E-02 -0.13327568225E+00  0.89216198352E+00  0.88000000000E+00 0.  1.
        -11    1    4    4    0    0  0.56491506954E-02 -0.24859488508E-03  0.20252528056E-02  0.60280571433E-02  0.51100000000E-03 0.  1.
         11    1    4    4    0    0  0.56817325924E-01  0.17775825900E-02  0.10570867172E+00  0.12002480045E+00  0.51100000000E-03 0. -1.
</event>
<event>
 8    1  0.1114333E+005  0.1043930E+01  0.7957747E-01            NaN
         13   -1    0    0    0    0  0.00000000000E+00  0.00000000000E+00  0.74505805969E-08  0.10566000000E+00  0.10566000000E+00 0.  1.
     999900   -1    0    0    0    0 -0.00000000000E+00 -0.00000000000E+00 -0.74505805969E-08  0.93827000000E+00  0.93827000000E+00 0.  1.
     999902    2    1    2    0    0 -0.13475814110E-02 -0.19842925419E-01 -0.12417439211E-01  0.10204832420E+01  0.10202138485E+01 0.  0.
     999903    2    3    3    0    0 -0.42323258880E-01 -0.12004020119E+00 -0.35952690676E-01  0.13353769220E+00  0.18406822901E-01 0.  0.
         14    1    1    2    0    0  0.13475814110E-02  0.19842925419E-01  0.12417439211E-01  0.23446758014E-01  0.00000000000E+00 0.  1.
     999901    1    3    3    0    0  0.40975677469E-01  0.10019727577E+00  0.23535251465E-01  0.88694554978E+00  0.88000000000E+00 0.  1.
        -11    1    4    4    0    0 -0.40322213975E-01 -0.91674155798E-01 -0.28826970339E-01  0.10421749911E+00  0.51100000000E-03 0.  1.
         11    1    4    4    0    0 -0.20010449053E-02 -0.28366045388E-01 -0.71257203367E-02  0.29320193093E-01  0.51100000000E-03 0. -1.
</event>
<event>
 8    1  0.1114333E+005  0.1043930E+01  0.7957747E-01            NaN
         13   -1    0    0    0    0  0.00000000000E+00  0.00000000000E+00  0.74505805969E-08  0.10566000000E+00  0.10566000000E+00 0. -1.
     999900   -1    0    0    0    0 -0.00000000000E+00 -0.00000000000E+00 -0.74505805969E-08  0.93827000000E+00  0.93827000000E+00 0. -1.
     999902    2    1    2    0    0  0.13160884386E-01  0.20608979720E-01 -0.96362074804E-02  0.10176470128E+01  0.10173075480E+01 0.  0.
     999903    2    3    3    0    0  0.12129714649E+00 -0.37097681766E-01 -0.14527519795E-01  0.12913846757E+00  0.19402557458E-01 0.  0.
         14    1    1    2    0    0 -0.13160884386E-01 -0.20608979720E-01  0.96362074804E-02  0.26282987226E-01  0.00000000000E+00 0. -1.
     999901    1    3    3    0    0 -0.10813626211E+00  0.57706661486E-01  0.48913123148E-02  0.88850854520E+00  0.88000000000E+00 0. -1.
        -11    1    4    4    0    0  0.44496791614E-01 -0.23085623928E-01 -0.83786641808E-02  0.50826898690E-01  0.51100000000E-03 0.  1.
         11    1    4    4    0    0  0.76800354878E-01 -0.14012057838E-01 -0.61488556143E-02  0.78311568881E-01  0.51100000000E-03 0. -1.
</event>
<event>
 8    1  0.1114333E+005  0.1043930E+01  0.7957747E-01            NaN
         13   -1    0    0    0    0  0.00000000000E+00  0.00000000000E+00  0.74505805969E-08  0.10566000000E+00  0.10566000000E+00 0.  1.
     999900   -1    0    0    0    0 -0.00000000000E+00 -0.00000000000E+00 -0.74505805969E-08  0.93827000000E+00  0.93827000000E+00 0.  1.
     999902    2    1    2    0    0 -0.21795826252E-02  0.22148384484E-01  0.63558542033E-02  0.10207848407E+01  0.10205224116E+01 0.  0.
     999903    2    3    3    0    0  0.13218023981E-01 -0.84787228602E-01 -0.92575120925E-01  0.12867517847E+00  0.24971148300E-01 0.  0.
         14    1    1    2    0    0  0.21795826252E-02 -0.22148384484E-01 -0.63558542033E-02  0.23145159285E-01  0.00000000000E+00 0.  1.
     999901    1    3    3    0    0 -0.15397606607E-01  0.10693561309E+00  0.98930975128E-01  0.89210966225E+00  0.88000000000E+00 0. -1.
        -11    1    4    4    0    0  0.19628951229E-01 -0.45472257285E-01 -0.51804900255E-01  0.71673082258E-01  0.51100000000E-03 0.  1.
         11    1    4    4    0    0 -0.64109272471E-02 -0.39314971317E-01 -0.40770220670E-01  0.57002096210E-01  0.51100000000E-03 0. -1.
</event>
<event>
 7    1  0.1114333E+005  0.1043930E+01  0.7957747E-01            NaN
         13   -1    0    0    0    0  0.00000000000E+00  0.00000000000E+00  0.74505805969E-08  0.10566000000E+00  0.10566000000E+00 0.  1.
     999900   -1    0    0    0    0 -0.00000000000E+00 -0.00000000000E+00 -0.74505805969E-08  0.93827000000E+00  0.93827000000E+00 0.  1.
     999902    2    1    2    0    0  0.49062965119E-02  0.12588531790E-02 -0.25433663694E-01  0.10179968609E+01  0.10176664881E+01 0.  0.
         14    1    1    2    0    0 -0.49062965119E-02 -0.12588531790E-02  0.25433663694E-01  0.25933139141E-01  0.00000000000E+00 0.  1.
     999901    1    3    3    0    0 -0.60659841143E-01 -0.29050562100E-02  0.80091256392E-01  0.88572155051E+00  0.88000000000E+00 0.  1.
        -11    1    3    3    0    0  0.18527767938E-01 -0.67618441656E-02 -0.68887901770E-01  0.71657552655E-01  0.51100000000E-03 0.  1.
         11    1    3    3    0    0  0.47038369717E-01  0.10925753555E-01 -0.36637018316E-01  0.60617757699E-01  0.51100000000E-03 0. -1.
</event>
<event>
 8    1  0.1114333E+005  0.1043930E+01  0.7957747E-01            NaN
         13   -1    0    0    0    0  0.00000000000E+00  0.00000000000E+00  0.74505805969E-08  0.10566000000E+00  0.10566000000E+00 0. -1.
     999900   -1    0    0    0    0 -0.00000000000E+00 -0.00000000000E+00 -0.74505805969E-08  0.93827000000E+00  0.93827000000E+00 0. -1.
     999902    2    1    2    0    0  0.86169650696E-02  0.20683374154E-01 -0.80358545819E-02  0.10201260295E+01  0.10198482667E+01 0.  0.
     999903    2    3    3    0    0  0.10290012112E+00  0.80787276660E-01  0.10352437388E-01  0.13286061153E+00  0.20730415830E-01 0.  0.
         14    1    1    2    0    0 -0.86169650696E-02 -0.20683374154E-01  0.80358545819E-02  0.23803970515E-01  0.00000000000E+00 0.  1.
     999901    1    3    3    0    0 -0.94283156051E-01 -0.60103902506E-01 -0.18388291970E-01  0.88726541795E+00  0.88000000000E+00 0. -1.
        -11    1    4    4    0    0  0.61031505421E-01  0.60097399068E-01  0.42677955788E-02  0.85761397078E-01  0.51100000000E-03 0.  1.
         11    1    4    4    0    0  0.41868615700E-01  0.20689877591E-01  0.60846418090E-02  0.47099214456E-01  0.51100000000E-03 0. -1.
</event>
<event>
 8    1  0.1114333E+005  0.1043930E+01  0.7957747E-01            NaN
         13   -1    0    0    0    0  0.00000000000E+00  0.00000000000E+00  0.74505805969E-08  0.10566000000E+00  0.10566000000E+00 0. -1.
     999900   -1    0    0    0    0 -0.00000000000E+00 -0.00000000000E+00 -0.74505805969E-08  0.93827000000E+00  0.93827000000E+00 0.  1.
     999902    2    1    2    0    0  0.63613676461E-02  0.19674336179E-01  0.11043676218E-01  0.10204883856E+01  0.10202191117E+01 0.  0.
     999903    2    3    3    0    0  0.69335869987E-01  0.10555627722E+00  0.38764886320E-01  0.13363441720E+00  0.20145732091E-01 0.  0.
         14    1    1    2    0    0 -0.63613676461E-02 -0.19674336179E-01 -0.11043676218E-01  0.23441614425E-01  0.00000000000E+00 0.  1.
     999901    1    3    3    0    0 -0.62974502341E-01 -0.85881941036E-01 -0.27721210102E-01  0.88685396838E+00  0.88000000000E+00 0.  1.
        -11    1    4    4    0    0  0.90689766209E-02  0.29307227813E-01  0.84637270764E-02  0.31828536505E-01  0.51100000000E-03 0. -1.
         11    1    4    4    0    0  0.60266893366E-01  0.76249049403E-01  0.30301159244E-01  0.10180588069E+00  0.51100000000E-03 0.  1.
</event>
<event>
 8    1  0.1114333E+005  0.1043930E+01  0.7957747E-01            NaN
         13   -1    0    0    0    0  0.00000000000E+00  0.00000000000E+00  0.74505805969E-08  0.10566000000E+00  0.10566000000E+00 0.  1.
     999900   -1    0    0    0    0 -0.00000000000E+00 -0.00000000000E+00 -0.74505805969E-08  0.93827000000E+00  0.93827000000E+00 0.  1.
     999902    2    1    2    0    0  0.63240481292E-02  0.26975177302E-02  0.22148815843E-01  0.10207386173E+01  0.10204751269E+01 0.  0.
     999903    2    3    3    0    0 -0.30195420675E-01 -0.52349388602E-01  0.11713870225E+00  0.13316500798E+00  0.18953149353E-01 0.  0.
         14    1    1    2    0    0 -0.63240481292E-02 -0.26975177302E-02 -0.22148815843E-01  0.23191382665E-01  0.00000000000E+00 0. -1.
     999901    1    3    3    0    0  0.36519468804E-01  0.55046906332E-01 -0.94989886404E-01  0.88757360935E+00  0.88000000000E+00 0.  1.
        -11    1    4    4    0    0 -0.31030073985E-01 -0.51720031060E-01  0.10594959639E+00  0.12191556587E+00  0.51100000000E-03 0. -1.
         11    1    4    4    0    0  0.83465330978E-03 -0.62935754203E-03  0.11189105858E-01  0.11249442118E-01  0.51100000000E-03 0.  1.
</event>
<event>
 8    1  0.1114333E+005  0.1043930E+01  0.7957747E-01            NaN
         13   -1    0    0    0    0  0.00000000000E+00  0.00000000000E+00  0.74505805969E-08  0.10566000000E+00  0.10566000000E+00 0. -1.
     999900   -1    0    0    0    0 -0.00000000000E+00 -0.00000000000E+00 -0.74505805969E-08  0.93827000000E+00  0.93827000000E+00 0.  1.
     999902    2    1    2    0    0  0.50615890423E-02 -0.20494181623E-01  0.81979707461E-02  0.10212840757E+01  0.10210329698E+01 0.  0.
     999903    2    3    3    0    0 -0.43084807532E-01 -0.12488587313E+00  0.29927512926E-02  0.13379165595E+00  0.20939644092E-01 0.  0.
         14    1    1    2    0    0 -0.50615890423E-02  0.20494181623E-01 -0.81979707461E-02  0.22645924321E-01  0.00000000000E+00 0.  1.
     999901    1    3    3    0    0  0.48146396574E-01  0.10439169151E+00  0.52052194535E-02  0.88749241972E+00  0.88000000000E+00 0.  1.
        -11    1    4    4    0    0 -0.12134097370E-01 -0.24802592062E-01  0.84741959636E-02  0.28887333041E-01  0.51100000000E-03 0. -1.
         11    1    4    4    0    0 -0.30950710162E-01 -0.10008328107E+00 -0.54814446710E-02  0.10490432291E+00  0.51100000000E-03 0.  1.
</event>
<event>
 8    1  0.1114333E+005  0.1043930E+01  0.7957747E-01            NaN
         13   -1    0    0    0    0  0.00000000000E+00  0.00000000000E+00  0.74505805969E-08  0.10566000000E+00  0.10566000000E+00 0. -1.
     999900   -1    0    0    0    0 -0.00000000000E+00 -0.00000000000E+00 -0.74505805969E-08  0.93827000000E+00  0.93827000000E+00 0.  1.
     999902    2    1    2    0    0 -0.58036504386E-02 -0.40701247491E-02 -0.23041513587E-01  0.10198227475E+01  0.10195377760E+01 0.  0.
     999903    2    3    3    0    0 -0.40776478271E-01  0.41971841495E-01 -0.11759044241E+00  0.13287153055E+00  0.20074232892E-01 0.  0.
         14    1    1    2    0    0  0.58036504386E-02  0.40701247491E-02  0.23041513587E-01  0.24107252483E-01  0.00000000000E+00 0. -1.
     999901    1    3    3    0    0  0.34972827832E-01 -0.46041966244E-01  0.94548928819E-01  0.88695121697E+00  0.88000000000E+00 0. -1.
        -11    1    4    4    0    0 -0.17742359200E-01  0.32148535185E-01 -0.73505623708E-01  0.82168470000E-01  0.51100000000E-03 0. -1.
         11    1    4    4    0    0 -0.23034119071E-01  0.98233063107E-02 -0.44084818698E-01  0.50703060548E-01  0.51100000000E-03 0.  1.
</event>
<event>
 8    1  0.1114333E+005  0.1043930E+01  0.7957747E-01            NaN
         13   -1    0    0    0    0  0.00000000000E+00  0.00000000000E+00  0.74505805969E-08  0.10566000000E+00  0.10566000000E+00 0. -1.
     999900   -1    0    0    0    0 -0.00000000000E+00 -0.00000000000E+00 -0.74505805969E-08  0.93827000000E+00  0.93827000000E+00 0.  1.
     999902    2    1    2    0    0 -0.17172267618E-02  0.14941810476E-02 -0.23359808789E-01  0.10204595481E+01  0.10201896036E+01 0.  0.
     999903    2    3    3    0    0 -0.72407394081E-01 -0.62589010400E-01  0.83771296009E-01  0.12884257386E+00  0.20556358192E-01 0.  0.
         14    1    1    2    0    0  0.17172267618E-02 -0.14941810476E-02  0.23359808789E-01  0.23470451880E-01  0.00000000000E+00 0. -1.
     999901    1    3    3    0    0  0.70690167319E-01  0.64083191448E-01 -0.10713110480E+00  0.89161697426E+00  0.88000000000E+00 0.  1.
        -11    1    4    4    0    0 -0.38302014445E-01 -0.24628368069E-01  0.29046638058E-01  0.54014527007E-01  0.51100000000E-03 0. -1.
         11    1    4    4    0    0 -0.34105379636E-01 -0.37960642331E-01  0.54724657951E-01  0.74828046849E-01  0.51100000000E-03 0.  1.
</event>
<event>
 8    1  0.1114333E+005  0.1043930E+01  0.7957747E-01            NaN
         13   -1    0    0    0    0  0.00000000000E+00  0.00000000000E+00  0.74505805969E-08  0.10566000000E+00  0.10566000000E+00 0. -1.
     999900   -1    0    0    0    0 -0.00000000000E+00 -0.00000000000E+00 -0.74505805969E-08  0.93827000000E+00  0.93827000000E+00 0.  1.
     999902    2    1    2    0    0  0.50275656256E-02  0.52745799117E-02 -0.22711176621E-01  0.10200784769E+01  0.10197995901E+01 0.  0.
     999903    2    3    3    0    0  0.70130459784E-01  0.61873078650E-01  0.86725293332E-01  0.12911376503E+00  0.20063114564E-01 0.  0.
         14    1    1    2    0    0 -0.50275656256E-02 -0.52745799117E-02  0.22711176621E-01  0.23851523073E-01  0.00000000000E+00 0. -1.
     999901    1    3    3    0    0 -0.65102894159E-01 -0.56598498738E-01 -0.10943646995E+00  0.89096471190E+00  0.88000000000E+00 0.  1.
        -11    1    4    4    0    0  0.59583876386E-01  0.59580778493E-01  0.71906759417E-01  0.11077432312E+00  0.51100000000E-03 0.  1.
         11    1    4    4    0    0  0.10546583399E-01  0.22923001573E-02  0.14818533915E-01  0.18339441916E-01  0.51100000000E-03 0. -1.
</event>
<event>
 8    1  0.1114333E+005  0.1043930E+01  0.7957747E-01            NaN
         13   -1    0    0    0    0  0.00000000000E+00  0.00000000000E+00  0.74505805969E-08  0.10566000000E+00  0.10566000000E+00 0. -1.
     999900   -1    0    0    0    0 -0.00000000000E+00 -0.00000000000E+00 -0.74505805969E-08  0.93827000000E+00  0.93827000000E+00 0. -1.
     999902    2    1    2    0    0 -0.17270133719E-03  0.10131930243E-01 -0.20360497043E-01  0.10211871841E+01  0.10209339005E+01 0.  0.
     999903    2    3    3    0    0  0.36635212485E-01 -0.10306302222E+00 -0.70708715810E-01  0.13174754986E+00  0.19838575024E-01 0.  0.
         14    1    1    2    0    0  0.17270133719E-03 -0.10131930243E-01  0.20360497043E-01  0.22742815922E-01  0.00000000000E+00 0. -1.
     999901    1    3    3    0    0 -0.36807913822E-01  0.11319495247E+00  0.50348218766E-01  0.88943963422E+00  0.88000000000E+00 0. -1.
        -11    1    4    4    0    0  0.17217101775E-01 -0.51289581790E-01 -0.46665778984E-01  0.71449323600E-01  0.51100000000E-03 0. -1.
         11    1    4    4    0    0  0.19418110710E-01 -0.51773440434E-01 -0.24042936825E-01  0.60298226260E-01  0.51100000000E-03 0.  1.
</event>
<event>
 8    1  0.1114333E+005  0.1043930E+01  0.7957747E-01            NaN
         13   -1    0    0    0    0  0.00000000000E+00  0.00000000000E+00  0.74505805969E-08  0.10566000000E+00  0.10566000000E+00 0. -1.
     999900   -1    0    0    0    0 -0.00000000000E+00 -0.00000000000E+00 -0.74505805969E-08  0.93827000000E+00  0.93827000000E+00 0. -1.
     999902    2    1    2    0    0  0.66648062114E-02 -0.19805224603E-01  0.11446307889E-01  0.10201038688E+01  0.10198255825E+01 0.  0.
     999903    2    3    3    0    0 -0.43901361023E-02 -0.70307278722E-01  0.11107853153E+00  0.13297408731E+00  0.19526417847E-01 0.  0.
         14    1    1    2    0    0 -0.66648062114E-02  0.19805224603E-01 -0.11446307889E-01  0.23826131194E-01  0.00000000000E+00 0.  1.
     999901    1    3    3    0    0  0.11054942314E-01  0.50502054119E-01 -0.99632223641E-01  0.88712978149E+00  0.88000000000E+00 0. -1.
        -11    1    4    4    0    0 -0.73554337338E-02 -0.18693233762E-01  0.20680932267E-01  0.28835767274E-01  0.51100000000E-03 0.  1.
         11    1    4    4    0    0  0.29652976315E-02 -0.51614044961E-01  0.90397599264E-01  0.10413832004E+00  0.51100000000E-03 0. -1.
</event>
<event>
 8    1  0.1114333E+005  0.1043930E+01  0.7957747E-01            NaN
         13   -1    0    0    0    0  0.00000000000E+00  0.00000000000E+00  0.74505805969E-08  0.10566000000E+00  0.10566000000E+00 0.  1.
     999900   -1    0    0    0    0 -0.00000000000E+00 -0.00000000000E+00 -0.74505805969E-08  0.93827000000E+00  0.93827000000E+00 0.  1.
     999902    2    1    2    0    0  0.22035607186E-01  0.18620505766E-02 -0.75971174153E-02  0.10205472840E+01  0.10202793771E+01 0.  0.
     999903    2    3    3    0    0 -0.10859558820E+00  0.65913976147E-01  0.51178808874E-03  0.12856470973E+00  0.19772926802E-01 0.  0.
         14    1    1    2    0    0 -0.22035607186E-01 -0.18620505766E-02  0.75971174153E-02  0.23382716040E-01  0.00000000000E+00 0.  1.
     999901    1    3    3    0    0  0.13063119538E+00 -0.64051925570E-01 -0.81089055040E-02  0.89198257423E+00  0.88000000000E+00 0. -1.
        -11    1    4    4    0    0 -0.16120796891E-01  0.16213767349E-01  0.52784575900E-02  0.23471037037E-01  0.51100000000E-03 0. -1.
         11    1    4    4    0    0 -0.92474791306E-01  0.49700208798E-01 -0.47666695012E-02  0.10509367270E+00  0.51100000000E-03 0.  1.
</event>
<event>
 8    1  0.1114333E+005  0.1043930E+01  0.7957747E-01            NaN
         13   -1    0    0    0    0  0.00000000000E+00  0.00000000000E+00  0.74505805969E-08  0.10566000000E+00  0.10566000000E+00 0.  1.
     999900   -1    0    0    0    0 -0.00000000000E+00 -0.00000000000E+00 -0.74505805969E-08  0.93827000000E+00  0.93827000000E+00 0. -1.
     999902    2    1    2    0    0 -0.10106343755E-01 -0.12940175658E-02  0.21962122858E-01  0.10197195166E+01  0.10194320699E+01 0.  0.
     999903    2    3    3    0    0  0.85421852035E-01  0.20276396637E-01  0.95014322075E-01  0.13127844216E+00  0.22322251472E-01 0.  0.
         14    1    1    2    0    0  0.10106343755E-01  0.12940175658E-02 -0.21962122858E-01  0.24210483390E-01  0.00000000000E+00 0. -1.
     999901    1    3    3    0    0 -0.95528195790E-01 -0.21570414203E-01 -0.73052199217E-01  0.88844107445E+00  0.88000000000E+00 0. -1.
        -11    1    4    4    0    0  0.39177796916E-01 -0.16516981408E-02  0.37026815075E-01  0.53933978469E-01  0.51100000000E-03 0. -1.
         11    1    4    4    0    0  0.46244055119E-01  0.21928094778E-01  0.57987507000E-01  0.77344463691E-01  0.51100000000E-03 0.  1.
</event>
<event>
 8    1  0.1114333E+005  0.1043930E+01  0.7957747E-01            NaN
         13   -1    0    0    0    0  0.00000000000E+00  0.00000000000E+00  0.74505805969E-08  0.10566000000E+00  0.10566000000E+00 0.  1.
     999900   -1    0    0    0    0 -0.00000000000E+00 -0.00000000000E+00 -0.74505805969E-08  0.93827000000E+00  0.93827000000E+00 0.  1.
     999902    2    1    2    0    0 -0.11107930497E-01 -0.34199875630E-02 -0.21102653923E-01  0.10198384156E+01  0.10195538189E+01 0.  0.
     999903    2    3    3    0    0 -0.10781842463E+00 -0.28503717006E-01  0.64125477223E-01  0.13009353787E+00  0.19364327899E-01 0.  0.
         14    1    1    2    0    0  0.11107930497E-01  0.34199875630E-02  0.21102653923E-01  0.24091584370E-01  0.00000000000E+00 0.  1.
     999901    1    3    3    0    0  0.96710494129E-01  0.25083729443E-01 -0.85228131146E-01  0.88974487776E+00  0.88000000000E+00 0. -1.
        -11    1    4    4    0    0 -0.31921454566E-01 -0.10186947758E-01  0.95928007244E-02  0.34857368131E-01  0.51100000000E-03 0. -1.
         11    1    4    4    0    0 -0.75896970060E-01 -0.18316769248E-01  0.54532676498E-01  0.95236169741E-01  0.51100000000E-03 0.  1.
</event>
<event>
 8    1  0.1114333E+005  0.1043930E+01  0.7957747E-01            NaN
         13   -1    0    0    0    0  0.00000000000E+00  0.00000000000E+00  0.74505805969E-08  0.10566000000E+00  0.10566000000E+00 0. -1.
     999900   -1    0    0    0    0 -0.00000000000E+00 -0.00000000000E+00 -0.74505805969E-08  0.93827000000E+00  0.93827000000E+00 0.  1.
     999902    2    1    2    0    0  0.18739590325E-01 -0.44275483250E-02 -0.79029429256E-02  0.10231157756E+01  0.10229040319E+01 0.  0.
     999903    2    3    3    0    0  0.71666459352E-02 -0.12084411932E+00 -0.54254940233E-01  0.13416400038E+00  0.20042915739E-01 0.  0.
         14    1    1    2    0    0 -0.18739590325E-01  0.44275483250E-02  0.79029429256E-02  0.20814224381E-01  0.00000000000E+00 0. -1.
     999901    1    3    3    0    0  0.11572944390E-01  0.11641657099E+00  0.46351997307E-01  0.88895177524E+00  0.88000000000E+00 0. -1.
        -11    1    4    4    0    0  0.12621580153E-01 -0.85486290771E-01 -0.32709292558E-01  0.92397884911E-01  0.51100000000E-03 0. -1.
         11    1    4    4    0    0 -0.54549342176E-02 -0.35357828545E-01 -0.21545647675E-01  0.41766115470E-01  0.51100000000E-03 0.  1.
</event>
<event>
 8    1  0.1114333E+005  0.1043930E+01  0.7957747E-01            NaN
         13   -1    0    0    0    0  0.00000000000E+00  0.00000000000E+00  0.74505805969E-08  0.10566000000E+00  0.10566000000E+00 0. -1.
     999900   -1    0    0    0    0 -0.00000000000E+00 -0.00000000000E+00 -0.74505805969E-08  0.93827000000E+00  0.93827000000E+00 0. -1.
     999902    2    1    2    0    0  0.19368403786E-01  0.75417916116E-02  0.12402291580E-01  0.10197260639E+01  0.10194387745E+01 0.  0.
     999903    2    3    3    0    0  0.33728083494E-01 -0.10810287885E-01 -0.12259647588E+00  0.12912645329E+00  0.19730663978E-01 0.  0.
         14    1    1    2    0    0 -0.19368403786E-01 -0.75417916116E-02 -0.12402291580E-01  0.24203936092E-01  0.00000000000E+00 0.  1.
     999901    1    3    3    0    0 -0.14359679708E-01  0.18352079497E-01  0.13499876746E+00  0.89059961062E+00  0.88000000000E+00 0.  1.
        -11    1    4    4    0    0  0.20755750495E-01  0.36786253508E-02 -0.62931231140E-01  0.66369680102E-01  0.51100000000E-03 0.  1.
         11    1    4    4    0    0  0.12972332998E-01 -0.14488913236E-01 -0.59665244736E-01  0.62756773185E-01  0.51100000000E-03 0. -1.
</event>
<event>
 8    1  0.1114333E+005  0.1043930E+01  0.7957747E-01            NaN
         13   -1    0    0    0    0  0.00000000000E+00  0.00000000000E+00  0.74505805969E-08  0.10566000000E+00  0.10566000000E+00 0. -1.
     999900   -1    0    0    0    0 -0.00000000000E+00 -0.00000000000E+00 -0.74505805969E-08  0.93827000000E+00  0.93827000000E+00 0. -1.
     999902    2    1    2    0    0  0.10077477036E-01  0.21182693582E-01  0.53759861820E-02  0.10198641886E+01  0.10195802077E+01 0.  0.
     999903    2    3    3    0    0 -0.92546255474E-01 -0.21239799292E-01  0.85319658755E-01  0.12929005403E+00  0.20506960425E-01 0.  0.
         14    1    1    2    0    0 -0.10077477036E-01 -0.21182693582E-01 -0.53759861820E-02  0.24065811398E-01  0.00000000000E+00 0.  1.
     999901    1    3    3    0    0  0.10262373251E+00  0.42422492875E-01 -0.79943672573E-01  0.89057413457E+00  0.88000000000E+00 0. -1.
        -11    1    4    4    0    0 -0.77545614356E-01 -0.24429126021E-01  0.76253931869E-01  0.11146760853E+00  0.51100000000E-03 0. -1.
         11    1    4    4    0    0 -0.15000641118E-01  0.31893267285E-02  0.90657268863E-02  0.17822445509E-01  0.51100000000E-03 0.  1.
</event>
<event>
 8    1  0.1114333E+005  0.1043930E+01  0.7957747E-01            NaN
         13   -1    0    0    0    0  0.00000000000E+00  0.00000000000E+00  0.74505805969E-08  0.10566000000E+00  0.10566000000E+00 0. -1.
     999900   -1    0    0    0    0 -0.00000000000E+00 -0.00000000000E+00 -0.74505805969E-08  0.93827000000E+00  0.93827000000E+00 0. -1.
     999902    2    1    2    0    0 -0.10110820492E-01  0.20511859492E-01  0.44041451167E-02  0.10206413426E+01  0.10203756115E+01 0.  0.
     999903    2    3    3    0    0  0.11471321055E+00 -0.22913964266E-01  0.47929488841E-01  0.12970851881E+00  0.29032628529E-01 0.  0.
         14    1    1    2    0    0  0.10110820492E-01 -0.20511859492E-01 -0.44041451167E-02  0.23288657434E-01  0.00000000000E+00 0.  1.
     999901    1    3    3    0    0 -0.12482403104E+00  0.43425823758E-01 -0.43525343724E-01  0.89093282375E+00  0.88000000000E+00 0.  1.
        -11    1    4    4    0    0  0.92510944903E-01 -0.20420288584E-01  0.50249766149E-01  0.10724067900E+00  0.51100000000E-03 0.  1.
         11    1    4    4    0    0  0.22202265646E-01 -0.24936756817E-02 -0.23202773079E-02  0.22467839816E-01  0.51100000000E-03 0. -1.
</event>
<event>
 8    1  0.1114333E+005  0.1043930E+01  0.7957747E-01            NaN
         13   -1    0    0    0    0  0.00000000000E+00  0.00000000000E+00  0.74505805969E-08  0.10566000000E+00  0.10566000000E+00 0.  1.
     999900   -1    0    0    0    0 -0.00000000000E+00 -0.00000000000E+00 -0.74505805969E-08  0.93827000000E+00  0.93827000000E+00 0.  1.
     999902    2    1    2    0    0 -0.20453631497E-01  0.91502420745E-02 -0.86681615295E-02  0.10199047009E+01  0.10196216867E+01 0.  0.
     999903    2    3    3    0    0  0.11491025001E+00  0.29724247561E-01  0.43214801725E-01  0.12780688566E+00  0.19472659937E-01 0.  0.
         14    1    1    2    0    0  0.20453631497E-01 -0.91502420745E-02  0.86681615295E-02  0.24025299077E-01  0.00000000000E+00 0. -1.
     999901    1    3    3    0    0 -0.13536388150E+00 -0.20574005486E-01 -0.51882963254E-01  0.89209781526E+00  0.88000000000E+00 0. -1.
        -11    1    4    4    0    0  0.49232395608E-01  0.10339212479E-01  0.84729484341E-02  0.51017448663E-01  0.51100000000E-03 0. -1.
         11    1    4    4    0    0  0.65677854398E-01  0.19385035082E-01  0.34741853291E-01  0.76789436999E-01  0.51100000000E-03 0.  1.
</event>
<event>
 8    1  0.1114333E+005  0.1043930E+01  0.7957747E-01            NaN
         13   -1    0    0    0    0  0.00000000000E+00  0.00000000000E+00  0.74505805969E-08  0.10566000000E+00  0.10566000000E+00 0. -1.
     999900   -1    0    0    0    0 -0.00000000000E+00 -0.00000000000E+00 -0.74505805969E-08  0.93827000000E+00  0.93827000000E+00 0.  1.
     999902    2    1    2    0    0  0.21029617313E-01 -0.81904108710E-02  0.85127846549E-02  0.10198095701E+01  0.10195242833E+01 0.  0.
     999903    2    3    3    0    0  0.10536283651E+00 -0.16006474401E-01  0.77060234635E-01  0.13308980853E+00  0.20422605935E-01 0.  0.
         14    1    1    2    0    0 -0.21029617313E-01  0.81904108710E-02 -0.85127846549E-02  0.24120429871E-01  0.00000000000E+00 0.  1.
     999901    1    3    3    0    0 -0.84333219195E-01  0.78160635299E-02 -0.68547449980E-01  0.88671976160E+00  0.88000000000E+00 0.  1.
        -11    1    4    4    0    0  0.62266606643E-01  0.71489914667E-03  0.45063446969E-01  0.76867527327E-01  0.51100000000E-03 0.  1.
         11    1    4    4    0    0  0.43096229865E-01 -0.16721373548E-01  0.31996787666E-01  0.56222281205E-01  0.51100000000E-03 0. -1.
</event>
<event>
 8    1  0.1114333E+005  0.1043930E+01  0.7957747E-01            NaN
         13   -1    0    0    0    0  0.00000000000E+00  0.00000000000E+00  0.74505805969E-08  0.10566000000E+00  0.10566000000E+00 0. -1.
     999900   -1    0    0    0    0 -0.00000000000E+00 -0.00000000000E+00 -0.74505805969E-08  0.93827000000E+00  0.93827000000E+00 0. -1.
     999902    2    1    2    0    0  0.13363408093E-01 -0.13955629683E-02 -0.19006170405E-01  0.10206542017E+01  0.10203887674E+01 0.  0.
     999903    2    3    3    0    0  0.11705368094E+00 -0.10740034153E-01 -0.61446495790E-01  0.13350135523E+00  0.15166655828E-01 0.  0.
         14    1    1    2    0    0 -0.13363408093E-01  0.13955629683E-02  0.19006170405E-01  0.23275798275E-01  0.00000000000E+00 0. -1.
     999901    1    3    3    0    0 -0.10369027284E+00  0.93444711846E-02  0.42440325385E-01  0.88715284649E+00  0.88000000000E+00 0.  1.
        -11    1    4    4    0    0  0.31922281727E-01 -0.58586894596E-02 -0.24001146786E-01  0.40369202133E-01  0.51100000000E-03 0. -1.
         11    1    4    4    0    0  0.85131399210E-01 -0.48813446933E-02 -0.37445349004E-01  0.93132153097E-01  0.51100000000E-03 0.  1.
</event>
<event>
 8    1  0.1114333E+005  0.1043930E+01  0.7957747E-01            NaN
         13   -1    0    0    0    0  0.00000000000E+00  0.00000000000E+00  0.74505805969E-08  0.10566000000E+00  0.10566000000E+00 0.  1.
     999900   -1    0    0    0    0 -0.00000000000E+00 -0.00000000000E+00 -0.74505805969E-08  0.93827000000E+00  0.93827000000E+00 0.  1.
     999902    2    1    2    0    0  0.17991830887E-01 -0.13794075704E-01 -0.26044317413E-02  0.10211097115E+01  0.10208546798E+01 0.  0.
     999903    2    3    3    0    0  0.81434156333E-01  0.83750011178E-01 -0.57416069228E-01  0.13175933444E+00  0.20453141982E-01 0.  0.
         14    1    1    2    0    0 -0.17991830887E-01  0.13794075704E-01  0.26044317413E-02  0.22820288515E-01  0.00000000000E+00 0.  1.
     999901    1    3    3    0    0 -0.63442325446E-01 -0.97544086882E-01  0.54811637487E-01  0.88935037704E+00  0.88000000000E+00 0.  1.
        -11    1    4    4    0    0  0.23435566612E-01  0.12016577580E-01 -0.12506940538E-01  0.29160051471E-01  0.51100000000E-03 0. -1.
         11    1    4    4    0    0  0.57998589721E-01  0.71733433598E-01 -0.44909128690E-01  0.10259928297E+00  0.51100000000E-03 0.  1.
</event>
<event>
 8    1  0.1114333E+005  0.1043930E+01  0.7957747E-01            NaN
         13   -1    0    0    0    0  0.00000000000E+00  0.00000000000E+00  0.74505805969E-08  0.10566000000E+00  0.10566000000E+00 0.  1.
     999900   -1    0    0    0    0 -0.00000000000E+00 -0.00000000000E+00 -0.74505805969E-08  0.93827000000E+00  0.93827000000E+00 0. -1.
     999902    2    1    2    0    0  0.49603723111E-02  0.15910777459E-01 -0.15860295272E-01  0.10209233249E+01  0.10206640624E+01 0.  0.
     999903    2    3    3    0    0  0.99988412142E-01  0.85132108545E-01  0.48785342843E-02  0.13286250487E+00  0.19582814796E-01 0.  0.
         14    1    1    2    0    0 -0.49603723111E-02 -0.15910777459E-01  0.15860295272E-01  0.23006675095E-01  0.00000000000E+00 0. -1.
     999901    1    3    3    0    0 -0.95028039831E-01 -0.69221331086E-01 -0.20738829557E-01  0.88806082004E+00  0.88000000000E+00 0.  1.
        -11    1    4    4    0    0  0.76376261017E-01  0.54174762905E-01  0.16465450436E-03  0.93640410159E-01  0.51100000000E-03 0. -1.
         11    1    4    4    0    0  0.23612151125E-01  0.30957345640E-01  0.47138797800E-02  0.39222094709E-01  0.51100000000E-03 0.  1.
</event>
<event>
 8    1  0.1114333E+005  0.1043930E+01  0.7957747E-01            NaN
         13   -1    0    0    0    0  0.00000000000E+00  0.00000000000E+00  0.74505805969E-08  0.10566000000E+00  0.10566000000E+00 0.  1.
     999900   -1    0    0    0    0 -0.00000000000E+00 -0.00000000000E+00 -0.74505805969E-08  0.93827000000E+00  0.93827000000E+00 0. -1.
     999902    2    1    2    0    0 -0.19128605043E-01  0.12773846793E-01  0.64148450087E-02  0.10200506171E+01  0.10197710706E+01 0.  0.
     999903    2    3    3    0    0  0.32595648297E-01  0.94245695466E-01  0.83171280813E-01  0.13145362689E+00  0.20441787333E-01 0.  0.
         14    1    1    2    0    0  0.19128605043E-01 -0.12773846793E-01 -0.64148450087E-02  0.23879382933E-01  0.00000000000E+00 0. -1.
     999901    1    3    3    0    0 -0.51724253340E-01 -0.81471848672E-01 -0.76756435804E-01  0.88859699017E+00  0.88000000000E+00 0. -1.
        -11    1    4    4    0    0  0.23735808297E-01  0.55544943657E-01  0.38239928533E-01  0.71492535391E-01  0.51100000000E-03 0.  1.
         11    1    4    4    0    0  0.88598400002E-02  0.38700751809E-01  0.44931352279E-01  0.59961091502E-01  0.51100000000E-03 0. -1.
</event>
<event>
 8    1  0.1114333E+005  0.1043930E+01  0.7957747E-01            NaN
         13   -1    0    0    0    0  0.00000000000E+00  0.00000000000E+00  0.74505805969E-08  0.10566000000E+00  0.10566000000E+00 0.  1.
     999900   -1    0    0    0    0 -0.00000000000E+00 -0.00000000000E+00 -0.74505805969E-08  0.93827000000E+00  0.93827000000E+00 0. -1.
     999902    2    1    2    0    0  0.14684610677E-01 -0.12234094710E-01 -0.13879731255E-01  0.10203088695E+01  0.10200354070E+01 0.  0.
     999903    2    3    3    0    0 -0.10433724369E+00  0.22074084392E-02  0.71427040275E-01  0.12809140497E+00  0.20358115613E-01 0.  0.
         14    1    1    2    0    0 -0.14684610677E-01  0.12234094710E-01  0.13879731255E-01  0.23621130452E-01  0.00000000000E+00 0.  1.
     999901    1    3    3    0    0  0.11902185437E+00 -0.14441503150E-01 -0.85306771530E-01  0.89221746458E+00  0.88000000000E+00 0. -1.
        -11    1    4    4    0    0 -0.71649553567E-01 -0.47138096300E-02  0.39885173408E-01  0.82139921514E-01  0.51100000000E-03 0.  1.
         11    1    4    4    0    0 -0.32687690125E-01  0.69212180692E-02  0.31541866867E-01  0.45951483455E-01  0.51100000000E-03 0. -1.
</event>
<event>
 8    1  0.1114333E+005  0.1043930E+01  0.7957747E-01            NaN
         13   -1    0    0    0    0  0.00000000000E+00  0.00000000000E+00  0.74505805969E-08  0.10566000000E+00  0.10566000000E+00 0. -1.
     999900   -1    0    0    0    0 -0.00000000000E+00 -0.00000000000E+00 -0.74505805969E-08  0.93827000000E+00  0.93827000000E+00 0. -1.
     999902    2    1    2    0    0 -0.23298371018E-01  0.23329189965E-02 -0.49593421997E-03  0.10205098686E+01  0.10202410938E+01 0.  0.
     999903    2    3    3    0    0 -0.27108592083E-01  0.10136583752E+00  0.76980691950E-01  0.13156405231E+00  0.19317457026E-01 0.  0.
         14    1    1    2    0    0  0.23298371018E-01 -0.23329189965E-02  0.49593421997E-03  0.23420131381E-01  0.00000000000E+00 0. -1.
     999901    1    3    3    0    0  0.38102210646E-02 -0.99032918522E-01 -0.77476626170E-01  0.88894581631E+00  0.88000000000E+00 0. -1.
        -11    1    4    4    0    0 -0.12277623863E-01  0.17082434465E-01  0.17100507272E-01  0.27115274015E-01  0.51100000000E-03 0.  1.
         11    1    4    4    0    0 -0.14830968219E-01  0.84283403054E-01  0.59880184678E-01  0.10444877829E+00  0.51100000000E-03 0. -1.
</event>
<event>
 8    1  0.1114333E+005  0.1043930E+01  0.7957747E-01            NaN
         13   -1    0    0    0    0  0.00000000000E+00  0.00000000000E+00  0.74505805969E-08  0.10566000000E+00  0.10566000000E+00 0. -1.
     999900   -1    0    0    0    0 -0.00000000000E+00 -0.00000000000E+00 -0.74505805969E-08  0.93827000000E+00  0.93827000000E+00 0.  1.
     999902    2    1    2    0    0  0.16581443405E-01  0.21135334476E-02  0.16407838159E-01  0.10205071812E+01  0.10202383439E+01 0.  0.
     999903    2    3    3    0    0 -0.67005001986E-01  0.10626275974E+00 -0.24375701683E-01  0.12949817318E+00  0.19853403402E-01 0.  0.
         14    1    1    2    0    0 -0.16581443405E-01 -0.21135334476E-02 -0.16407838159E-01  0.23422818833E-01  0.00000000000E+00 0.  1.
     999901    1    3    3    0    0  0.83586445391E-01 -0.10414922629E+00  0.40783539842E-01  0.89100900799E+00  0.88000000000E+00 0. -1.
        -11    1    4    4    0    0 -0.19749421690E-01  0.49529008119E-01 -0.90487808378E-02  0.54086078227E-01  0.51100000000E-03 0.  1.
         11    1    4    4    0    0 -0.47255580295E-01  0.56733751619E-01 -0.15326920845E-01  0.75412094954E-01  0.51100000000E-03 0. -1.
</event>
<event>
 8    1  0.1114333E+005  0.1043930E+01  0.7957747E-01            NaN
         13   -1    0    0    0    0  0.00000000000E+00  0.00000000000E+00  0.74505805969E-08  0.10566000000E+00  0.10566000000E+00 0. -1.
     999900   -1    0    0    0    0 -0.00000000000E+00 -0.00000000000E+00 -0.74505805969E-08  0.93827000000E+00  0.93827000000E+00 0. -1.
     999902    2    1    2    0    0 -0.22165622673E-01 -0.16598279172E-02 -0.93290311427E-02  0.10198239701E+01  0.10195390278E+01 0.  0.
     999903    2    3    3    0    0 -0.48299039540E-01  0.89120724155E-01 -0.81897417516E-01  0.13179793733E+00  0.19703009784E-01 0.  0.
         14    1    1    2    0    0  0.22165622673E-01  0.16598279172E-02  0.93290311427E-02  0.24106029935E-01  0.00000000000E+00 0. -1.
     999901    1    3    3    0    0  0.26133416867E-01 -0.90780552072E-01  0.72568386373E-01  0.88802603273E+00  0.88000000000E+00 0.  1.
        -11    1    4    4    0    0 -0.44390472579E-01  0.83020198444E-01 -0.68057047031E-01  0.11616750913E+00  0.51100000000E-03 0.  1.
         11    1    4    4    0    0 -0.39085669614E-02  0.61005257105E-02 -0.13840370485E-01  0.15630428203E-01  0.51100000000E-03 0. -1.
</event>
<event>
 8    1  0.1114333E+005  0.1043930E+01  0.7957747E-01            NaN
         13   -1    0    0    0    0  0.00000000000E+00  0.00000000000E+00  0.74505805969E-08  0.10566000000E+00  0.10566000000E+00 0.  1.
     999900   -1    0    0    0    0 -0.00000000000E+00 -0.00000000000E+00 -0.74505805969E-08  0.93827000000E+00  0.93827000000E+00 0. -1.
     999902    2    1    2    0    0  0.11575273672E-01 -0.17471636399E-01  0.12679954223E-01  0.10194345662E+01  0.10191402300E+01 0.  0.
     999903    2    3    3    0    0  0.27345252573E-01  0.12292001765E+00 -0.93427541264E-02  0.12789460160E+00  0.20313751139E-01 0.  0.
         14    1    1    2    0    0 -0.11575273672E-01  0.17471636399E-01 -0.12679954223E-01  0.24495433822E-01  0.00000000000E+00 0. -1.
     999901    1    3    3    0    0 -0.15769978901E-01 -0.14039165405E+00  0.22022708349E-01  0.89153996458E+00  0.88000000000E+00 0. -1.
        -11    1    4    4    0    0  0.14815102534E-01  0.45133092249E-01  0.51428707636E-02  0.47782774299E-01  0.51100000000E-03 0.  1.
         11    1    4    4    0    0  0.12530150039E-01  0.77786925402E-01 -0.14485624890E-01  0.80111827298E-01  0.51100000000E-03 0. -1.
</event>
<event>
 8    1  0.1114333E+005  0.1043930E+01  0.7957747E-01            NaN
         13   -1    0    0    0    0  0.00000000000E+00  0.00000000000E+00  0.74505805969E-08  0.10566000000E+00  0.10566000000E+00 0. -1.
     999900   -1    0    0    0    0 -0.00000000000E+00 -0.00000000000E+00 -0.74505805969E-08  0.93827000000E+00  0.93827000000E+00 0.  1.
     999902    2    1    2    0    0  0.59011787801E-02  0.11626568109E-01 -0.20783083945E-01  0.10193955839E+01  0.10191002987E+01 0.  0.
     999903    2    3    3    0    0  0.80318248521E-01  0.42709749438E-01  0.89256522287E-01  0.12888293411E+00  0.19207815887E-01 0.  0.
         14    1    1    2    0    0 -0.59011787801E-02 -0.11626568109E-01  0.20783083945E-01  0.24534416138E-01  0.00000000000E+00 0. -1.
     999901    1    3    3    0    0 -0.74417069741E-01 -0.31083181329E-01 -0.11003960623E+00  0.89051264975E+00  0.88000000000E+00 0.  1.
        -11    1    4    4    0    0  0.70508892277E-01  0.39861100196E-01  0.86026413952E-01  0.11815759060E+00  0.51100000000E-03 0.  1.
         11    1    4    4    0    0  0.98093562448E-02  0.28486492423E-02  0.32301083348E-02  0.10725343505E-01  0.51100000000E-03 0. -1.
</event>
<event>
 8    1  0.1114333E+005  0.1043930E+01  0.7957747E-01            NaN
         13   -1    0    0    0    0  0.00000000000E+00  0.00000000000E+00  0.74505805969E-08  0.10566000000E+00  0.10566000000E+00 0.  1.
     999900   -1    0    0    0    0 -0.00000000000E+00 -0.00000000000E+00 -0.74505805969E-08  0.93827000000E+00  0.93827000000E+00 0. -1.
     999902    2    1    2    0    0 -0.11196365458E-01  0.11930672641E-01  0.20642561477E-01  0.10175896338E+01  0.10172486657E+01 0.  0.
     999903    2    3    3    0    0 -0.60026324512E-01 -0.43337031643E-01 -0.10030205974E+00  0.12626113908E+00  0.20002852468E-01 0.  0.
         14    1    1    2    0    0  0.11196365458E-01 -0.11930672641E-01 -0.20642561477E-01  0.26340366236E-01  0.00000000000E+00 0. -1.
     999901    1    3    3    0    0  0.48829959054E-01  0.55267704284E-01  0.12094462122E+00  0.89132849469E+00  0.88000000000E+00 0.  1.
        -11    1    4    4    0    0 -0.36176451528E-01 -0.14356207619E-01 -0.55937265759E-01  0.68147451632E-01  0.51100000000E-03 0. -1.
         11    1    4    4    0    0 -0.23849872983E-01 -0.28980824024E-01 -0.44364793983E-01  0.58113687446E-01  0.51100000000E-03 0.  1.
</event>
<event>
 8    1  0.1114333E+005  0.1043930E+01  0.7957747E-01            NaN
         13   -1    0    0    0    0  0.00000000000E+00  0.00000000000E+00  0.74505805969E-08  0.10566000000E+00  0.10566000000E+00 0.  1.
     999900   -1    0    0    0    0 -0.00000000000E+00 -0.00000000000E+00 -0.74505805969E-08  0.93827000000E+00  0.93827000000E+00 0.  1.
     999902    2    1    2    0    0 -0.10797512188E-01 -0.21590144033E-01  0.32440590822E-02  0.10195733888E+01  0.10192824195E+01 0.  0.
     999903    2    3    3    0    0  0.28657143533E-01 -0.15127209862E-01 -0.12291370876E+00  0.12967776474E+00  0.25660836146E-01 0.  0.
         14    1    1    2    0    0  0.10797512188E-01  0.21590144033E-01 -0.32440590822E-02  0.24356611179E-01  0.00000000000E+00 0.  1.
     999901    1    3    3    0    0 -0.39454655720E-01 -0.64629341707E-02  0.12615776784E+00  0.88989562408E+00  0.88000000000E+00 0. -1.
        -11    1    4    4    0    0  0.21383885297E-01  0.18232691961E-02 -0.49012531553E-01  0.53507795986E-01  0.51100000000E-03 0. -1.
         11    1    4    4    0    0  0.72732582354E-02 -0.16950479058E-01 -0.73901177209E-01  0.76169968751E-01  0.51100000000E-03 0.  1.
</event>
<event>
 8    1  0.1114333E+005  0.1043930E+01  0.7957747E-01            NaN
         13   -1    0    0    0    0  0.00000000000E+00  0.00000000000E+00  0.74505805969E-08  0.10566000000E+00  0.10566000000E+00 0.  1.
     999900   -1    0    0    0    0 -0.00000000000E+00 -0.00000000000E+00 -0.74505805969E-08  0.93827000000E+00  0.93827000000E+00 0.  1.
     999902    2    1    2    0    0  0.35776290774E-02  0.19356012387E-02  0.24008398461E-01  0.10195794522E+01  0.10192886295E+01 0.  0.
     999903    2    3    3    0    0  0.34123720920E-01 -0.12345552172E+00 -0.53786960251E-02  0.12968080697E+00  0.19557278752E-01 0.  0.
         14    1    1    2    0    0 -0.35776290774E-02 -0.19356012387E-02 -0.24008398461E-01  0.24350547810E-01  0.00000000000E+00 0. -1.
     999901    1    3    3    0    0 -0.30546091843E-01  0.12539112296E+00  0.29387094486E-01  0.88989864522E+00  0.88000000000E+00 0. -1.
        -11    1    4    4    0    0  0.19204210886E-01 -0.35845897525E-01 -0.29300900058E-02  0.40774705806E-01  0.51100000000E-03 0.  1.
         11    1    4    4    0    0  0.14919510034E-01 -0.87609624197E-01 -0.24486060193E-02  0.88906101163E-01  0.51100000000E-03 0. -1.
</event>
<event>
 8    1  0.1114333E+005  0.1043930E+01  0.7957747E-01            NaN
         13   -1    0    0    0    0  0.00000000000E+00  0.00000000000E+00  0.74505805969E-08  0.10566000000E+00  0.10566000000E+00 0. -1.
     999900   -1    0    0    0    0 -0.00000000000E+00 -0.00000000000E+00 -0.74505805969E-08  0.93827000000E+00  0.93827000000E+00 0. -1.
     999902    2    1    2    0    0  0.10010284405E-01  0.22472986412E-01  0.25174085490E-03  0.10193270675E+01  0.10190301106E+01 0.  0.
     999903    2    3    3    0    0 -0.77724093853E-01 -0.91288299169E-01 -0.36732361675E-01  0.12691081093E+00  0.19557586914E-01 0.  0.
         14    1    1    2    0    0 -0.10010284405E-01 -0.22472986412E-01 -0.25174085490E-03  0.24602932459E-01  0.00000000000E+00 0. -1.
     999901    1    3    3    0    0  0.87734378259E-01  0.11376128558E+00  0.36984102530E-01  0.89241625661E+00  0.88000000000E+00 0.  1.
        -11    1    4    4    0    0 -0.19884634723E-01 -0.14813225435E-01 -0.18233380140E-02  0.24867971940E-01  0.51100000000E-03 0.  1.
         11    1    4    4    0    0 -0.57839459130E-01 -0.76475073733E-01 -0.34909023661E-01  0.10204283899E+00  0.51100000000E-03 0. -1.
</event>
<event>
 8    1  0.1114333E+005  0.1043930E+01  0.7957747E-01            NaN
         13   -1    0    0    0    0  0.00000000000E+00  0.00000000000E+00  0.74505805969E-08  0.10566000000E+00  0.10566000000E+00 0.  1.
     999900   -1    0    0    0    0 -0.00000000000E+00 -0.00000000000E+00 -0.74505805969E-08  0.93827000000E+00  0.93827000000E+00 0.  1.
     999902    2    1    2    0    0  0.18908739893E-02  0.86536339070E-02 -0.21607281078E-01  0.10205775830E+01  0.10203103780E+01 0.  0.
     999903    2    3    3    0    0 -0.11382702986E+00  0.57893341661E-01 -0.25086962104E-01  0.13163028970E+00  0.19721707914E-01 0.  0.
         14    1    1    2    0    0 -0.18908739893E-02 -0.86536339070E-02  0.21607281078E-01  0.23352417002E-01  0.00000000000E+00 0.  1.
     999901    1    3    3    0    0  0.11571790385E+00 -0.49239707754E-01  0.34796810258E-02  0.88894729330E+00  0.88000000000E+00 0. -1.
        -11    1    4    4    0    0 -0.65554626182E-01  0.25346977305E-01 -0.20567285293E-01  0.73233548444E-01  0.51100000000E-03 0. -1.
         11    1    4    4    0    0 -0.48272403674E-01  0.32546364357E-01 -0.45196768115E-02  0.58396741251E-01  0.51100000000E-03 0.  1.
</event>
<event>
 8    1  0.1114333E+005  0.1043930E+01  0.7957747E-01            NaN
         13   -1    0    0    0    0  0.00000000000E+00  0.00000000000E+00  0.74505805969E-08  0.10566000000E+00  0.10566000000E+00 0. -1.
     999900   -1    0    0    0    0 -0.00000000000E+00 -0.00000000000E+00 -0.74505805969E-08  0.93827000000E+00  0.93827000000E+00 0. -1.
     999902    2    1    2    0    0 -0.91130165234E-02 -0.31416962284E-02 -0.24751810078E-01  0.10173674431E+01  0.10170206217E+01 0.  0.
     999903    2    3    3    0    0 -0.31065808122E-01 -0.10861104344E+00 -0.61240276805E-01  0.13004725489E+00  0.20011841749E-01 0.  0.
         14    1    1    2    0    0  0.91130165234E-02  0.31416962284E-02  0.24751810078E-01  0.26562556870E-01  0.00000000000E+00 0. -1.
     999901    1    3    3    0    0  0.21952791599E-01  0.10546934721E+00  0.36488466727E-01  0.88732018824E+00  0.88000000000E+00 0.  1.
        -11    1    4    4    0    0 -0.25244310430E-01 -0.51934208663E-01 -0.30523833295E-01  0.65317706317E-01  0.51100000000E-03 0.  1.
         11    1    4    4    0    0 -0.58214976927E-02 -0.56676834772E-01 -0.30716443510E-01  0.64729548570E-01  0.51100000000E-03 0. -1.
</event>
<event>
 8    1  0.1114333E+005  0.1043930E+01  0.7957747E-01            NaN
         13   -1    0    0    0    0  0.00000000000E+00  0.00000000000E+00  0.74505805969E-08  0.10566000000E+00  0.10566000000E+00 0.  1.
     999900   -1    0    0    0    0 -0.00000000000E+00 -0.00000000000E+00 -0.74505805969E-08  0.93827000000E+00  0.93827000000E+00 0.  1.
     999902    2    1    2    0    0 -0.13884280938E-01 -0.17012695275E-01  0.89149945874E-02  0.10202301648E+01  0.10199548554E+01 0.  0.
     999903    2    3    3    0    0 -0.90400174226E-01 -0.92314486108E-01 -0.21807054035E-01  0.13317386117E+00  0.23781796552E-01 0.  0.
         14    1    1    2    0    0  0.13884280938E-01  0.17012695275E-01 -0.89149945874E-02  0.23699835151E-01  0.00000000000E+00 0. -1.
     999901    1    3    3    0    0  0.76515893288E-01  0.75301790833E-01  0.30722048623E-01  0.88705630368E+00  0.88000000000E+00 0. -1.
        -11    1    4    4    0    0 -0.29986896645E-01 -0.21155606095E-01  0.22697127096E-02  0.36772086648E-01  0.51100000000E-03 0. -1.
         11    1    4    4    0    0 -0.60413277580E-01 -0.71158880013E-01 -0.24076766745E-01  0.96401774520E-01  0.51100000000E-03 0.  1.
</event>
<event>
 8    1  0.1114333E+005  0.1043930E+01  0.7957747E-01            NaN
         13   -1    0    0    0    0  0.00000000000E+00  0.00000000000E+00  0.74505805969E-08  0.10566000000E+00  0.10566000000E+00 0.  1.
     999900   -1    0    0    0    0 -0.00000000000E+00 -0.00000000000E+00 -0.74505805969E-08  0.93827000000E+00  0.93827000000E+00 0. -1.
     999902    2    1    2    0    0 -0.22695098245E-02 -0.41421420637E-02 -0.20677937138E-01  0.10227195050E+01  0.10224995358E+01 0.  0.
     999903    2    3    3    0    0 -0.69045629481E-01  0.11002910320E+00 -0.18756280745E-01  0.13283309863E+00  0.20472701898E-01 0.  0.
         14    1    1    2    0    0  0.22695098245E-02  0.41421420637E-02  0.20677937138E-01  0.21210495043E-01  0.00000000000E+00 0.  1.
     999901    1    3    3    0    0  0.66776119656E-01 -0.11417124526E+00 -0.19216563923E-02  0.88988640633E+00  0.88000000000E+00 0.  1.
        -11    1    4    4    0    0 -0.29237242067E-01  0.42948508552E-01 -0.17473272928E-01  0.54817580194E-01  0.51100000000E-03 0. -1.
         11    1    4    4    0    0 -0.39808387413E-01  0.67080594648E-01 -0.12830078169E-02  0.78015518436E-01  0.51100000000E-03 0.  1.
</event>
<event>
 8    1  0.1114333E+005  0.1043930E+01  0.7957747E-01            NaN
         13   -1    0    0    0    0  0.00000000000E+00  0.00000000000E+00  0.74505805969E-08  0.10566000000E+00  0.10566000000E+00 0. -1.
     999900   -1    0    0    0    0 -0.00000000000E+00 -0.00000000000E+00 -0.74505805969E-08  0.93827000000E+00  0.93827000000E+00 0.  1.
     999902    2    1    2    0    0  0.20420786239E-01 -0.59261973353E-03  0.11951186874E-01  0.10202616545E+01  0.10199870848E+01 0.  0.
     999903    2    3    3    0    0 -0.40037516065E-01  0.41931111762E-01  0.11445817101E+00  0.13123344585E+00  0.27573965503E-01 0.  0.
         14    1    1    2    0    0 -0.20420786239E-01  0.59261973353E-03 -0.11951186874E-01  0.23668345453E-01  0.00000000000E+00 0.  1.
     999901    1    3    3    0    0  0.60458302304E-01 -0.42523731495E-01 -0.10250698413E+00  0.88902820869E+00  0.88000000000E+00 0.  1.
        -11    1    4    4    0    0 -0.32350652719E-01  0.45281067776E-01  0.10224983505E+00  0.11641404434E+00  0.51100000000E-03 0.  1.
         11    1    4    4    0    0 -0.76868633461E-02 -0.33499560138E-02  0.12208335956E-01  0.14819401513E-01  0.51100000000E-03 0. -1.
</event>
<event>
 7    1  0.1114333E+005  0.1043930E+01  0.7957747E-01            NaN
         13   -1    0    0    0    0  0.00000000000E+00  0.00000000000E+00  0.74505805969E-08  0.10566000000E+00  0.10566000000E+00 0.  1.
     999900   -1    0    0    0    0 -0.00000000000E+00 -0.00000000000E+00 -0.74505805969E-08  0.93827000000E+00  0.93827000000E+00 0. -1.
     999903    2    1    2    0    0  0.22926292613E-01 -0.51155540568E-01  0.94609831780E-01  0.11171293094E+00  0.19653357106E-01 0.  0.
         14    1    1    2    0    0 -0.21024021735E-01 -0.16763984761E-01  0.30628159186E-01  0.40756898927E-01  0.00000000000E+00 0. -1.
     999901    1    1    2    0    0 -0.19022708779E-02  0.67919525330E-01 -0.12523799097E+00  0.89146017013E+00  0.88000000000E+00 0. -1.
        -11    1    3    3    0    0  0.17265707199E-01 -0.15291548186E-01  0.35268611980E-01  0.42143471653E-01  0.51100000000E-03 0.  1.
         11    1    3    3    0    0  0.56605854145E-02 -0.35863992383E-01  0.59341219801E-01  0.69569459286E-01  0.51100000000E-03 0. -1.
</event>
<event>
 8    1  0.1114333E+005  0.1043930E+01  0.7957747E-01            NaN
         13   -1    0    0    0    0  0.00000000000E+00  0.00000000000E+00  0.74505805969E-08  0.10566000000E+00  0.10566000000E+00 0.  1.
     999900   -1    0    0    0    0 -0.00000000000E+00 -0.00000000000E+00 -0.74505805969E-08  0.93827000000E+00  0.93827000000E+00 0.  1.
     999902    2    1    2    0    0  0.32000409649E-03  0.16331128372E-01 -0.14184702666E-01  0.10222963700E+01  0.10220674411E+01 0.  0.
     999903    2    3    3    0    0  0.63232956889E-01  0.11634367286E+00 -0.97817765705E-02  0.13438875408E+00  0.20746012110E-01 0.  0.
         14    1    1    2    0    0 -0.32000409649E-03 -0.16331128372E-01  0.14184702666E-01  0.21633629983E-01  0.00000000000E+00 0.  1.
     999901    1    3    3    0    0 -0.62912952792E-01 -0.10001254449E+00 -0.44029260956E-02  0.88790761594E+00  0.88000000000E+00 0.  1.
        -11    1    4    4    0    0  0.12229070071E-01  0.16600411429E-01  0.54417308693E-02  0.21330667366E-01  0.51100000000E-03 0.  1.
         11    1    4    4    0    0  0.51003886818E-01  0.99743261431E-01 -0.15223507440E-01  0.11305808671E+00  0.51100000000E-03 0. -1.
</event>
<event>
 8    1  0.1114333E+005  0.1043930E+01  0.7957747E-01            NaN
         13   -1    0    0    0    0  0.00000000000E+00  0.00000000000E+00  0.74505805969E-08  0.10566000000E+00  0.10566000000E+00 0.  1.
     999900   -1    0    0    0    0 -0.00000000000E+00 -0.00000000000E+00 -0.74505805969E-08  0.93827000000E+00  0.93827000000E+00 0. -1.
     999902    2    1    2    0    0 -0.97414679380E-02 -0.47237231741E-02  0.21047176802E-01  0.10202615947E+01  0.10199870235E+01 0.  0.
     999903    2    3    3    0    0 -0.89725583012E-01 -0.93940754225E-01  0.11192680305E-01  0.13208692247E+00  0.21121871194E-01 0.  0.
         14    1    1    2    0    0  0.97414679380E-02  0.47237231741E-02 -0.21047176802E-01  0.23668405302E-01  0.00000000000E+00 0. -1.
     999901    1    3    3    0    0  0.79984115074E-01  0.89217031051E-01  0.98544964970E-02  0.88817467223E+00  0.88000000000E+00 0.  1.
        -11    1    4    4    0    0 -0.37996017416E-01 -0.37392936842E-01 -0.56692703603E-02  0.53612785906E-01  0.51100000000E-03 0. -1.
         11    1    4    4    0    0 -0.51729565596E-01 -0.56547817384E-01  0.16861950665E-01  0.78474136560E-01  0.51100000000E-03 0.  1.
</event>
<event>
 8    1  0.1114333E+005  0.1043930E+01  0.7957747E-01            NaN
         13   -1    0    0    0    0  0.00000000000E+00  0.00000000000E+00  0.74505805969E-08  0.10566000000E+00  0.10566000000E+00 0. -1.
     999900   -1    0    0    0    0 -0.00000000000E+00 -0.00000000000E+00 -0.74505805969E-08  0.93827000000E+00  0.93827000000E+00 0.  1.
     999902    2    1    2    0    0 -0.21324902808E-01 -0.85319736517E-02 -0.33189396204E-02  0.10207230740E+01  0.10204592262E+01 0.  0.
     999903    2    3    3    0    0 -0.12680213536E+00 -0.25462920094E-01  0.27802456024E-01  0.13371650987E+00  0.19493245480E-01 0.  0.
         14    1    1    2    0    0  0.21324902808E-01  0.85319736517E-02  0.33189396204E-02  0.23206926000E-01  0.00000000000E+00 0.  1.
     999901    1    3    3    0    0  0.10547723256E+00  0.16930946442E-01 -0.31121395644E-01  0.88700656413E+00  0.88000000000E+00 0.  1.
        -11    1    4    4    0    0 -0.48649675638E-01 -0.13554204758E-01  0.19832639671E-01  0.54259580939E-01  0.51100000000E-03 0.  1.
         11    1    4    4    0    0 -0.78152459726E-01 -0.11908715336E-01  0.79698163534E-02  0.79456928936E-01  0.51100000000E-03 0. -1.
</event>
<event>
 8    1  0.1114333E+005  0.1043930E+01  0.7957747E-01            NaN
         13   -1    0    0    0    0  0.00000000000E+00  0.00000000000E+00  0.74505805969E-08  0.10566000000E+00  0.10566000000E+00 0. -1.
     999900   -1    0    0    0    0 -0.00000000000E+00 -0.00000000000E+00 -0.74505805969E-08  0.93827000000E+00  0.93827000000E+00 0. -1.
     999902    2    1    2    0    0 -0.52420371071E-02  0.17589752405E-01 -0.98321386582E-02  0.10231081535E+01  0.10228962530E+01 0.  0.
     999903    2    3    3    0    0  0.63215482999E-01 -0.29522853299E-01  0.10776741150E+00  0.13140434396E+00  0.28026602967E-01 0.  0.
         14    1    1    2    0    0  0.52420371071E-02 -0.17589752405E-01  0.98321386582E-02  0.20821846539E-01  0.00000000000E+00 0. -1.
     999901    1    3    3    0    0 -0.68457520106E-01  0.47112605704E-01 -0.11759955016E+00  0.89170380950E+00  0.88000000000E+00 0. -1.
        -11    1    4    4    0    0  0.24468375347E-01  0.57634662708E-03  0.49549493549E-01  0.55267051663E-01  0.51100000000E-03 0. -1.
         11    1    4    4    0    0  0.38747107652E-01 -0.30099199926E-01  0.58217917949E-01  0.76137292301E-01  0.51100000000E-03 0.  1.
</event>
<event>
 8    1  0.1114333E+005  0.1043930E+01  0.7957747E-01            NaN
         13   -1    0    0    0    0  0.00000000000E+00  0.00000000000E+00  0.74505805969E-08  0.10566000000E+00  0.10566000000E+00 0.  1.
     999900   -1    0    0    0    0 -0.00000000000E+00 -0.00000000000E+00 -0.74505805969E-08  0.93827000000E+00  0.93827000000E+00 0. -1.
     999902    2    1    2    0    0 -0.19983568411E-01 -0.25147814095E-02  0.12334830000E-01  0.10203118891E+01  0.10200384972E+01 0.  0.
     999903    2    3    3    0    0  0.50109256736E-01 -0.11392921947E+00 -0.29784551538E-01  0.12952559404E+00  0.19973866465E-01 0.  0.
         14    1    1    2    0    0  0.19983568411E-01  0.25147814095E-02 -0.12334830000E-01  0.23618110913E-01  0.00000000000E+00 0. -1.
     999901    1    3    3    0    0 -0.70092825147E-01  0.11141443806E+00  0.42119381538E-01  0.89078629505E+00  0.88000000000E+00 0. -1.
        -11    1    4    4    0    0  0.80044294487E-02 -0.12444844419E-01 -0.10049074807E-01  0.17893855618E-01  0.51100000000E-03 0.  1.
         11    1    4    4    0    0  0.42104827287E-01 -0.10148437505E+00 -0.19735476732E-01  0.11163173842E+00  0.51100000000E-03 0. -1.
</event>
<event>
 8    1  0.1114333E+005  0.1043930E+01  0.7957747E-01            NaN
         13   -1    0    0    0    0  0.00000000000E+00  0.00000000000E+00  0.74505805969E-08  0.10566000000E+00  0.10566000000E+00 0. -1.
     999900   -1    0    0    0    0 -0.00000000000E+00 -0.00000000000E+00 -0.74505805969E-08  0.93827000000E+00  0.93827000000E+00 0.  1.
     999902    2    1    2    0    0 -0.18720407322E-01  0.64576615416E-02  0.13741595823E-01  0.10198263385E+01  0.10195414529E+01 0.  0.
     999903    2    3    3    0    0 -0.74337164543E-01  0.33663605515E-02 -0.10481014556E+00  0.13013128105E+00  0.20288846199E-01 0.  0.
         14    1    1    2    0    0  0.18720407322E-01 -0.64576615416E-02 -0.13741595823E-01  0.24103661520E-01  0.00000000000E+00 0. -1.
     999901    1    3    3    0    0  0.55616757221E-01  0.30913009900E-02  0.11855174138E+00  0.88969505743E+00  0.88000000000E+00 0. -1.
        -11    1    4    4    0    0 -0.40825707265E-01  0.11617350452E-01 -0.62003238575E-01  0.75142291155E-01  0.51100000000E-03 0. -1.
         11    1    4    4    0    0 -0.33511457278E-01 -0.82509899000E-02 -0.42806906987E-01  0.54988989898E-01  0.51100000000E-03 0.  1.
</event>
<event>
 8    1  0.1114333E+005  0.1043930E+01  0.7957747E-01            NaN
         13   -1    0    0    0    0  0.00000000000E+00  0.00000000000E+00  0.74505805969E-08  0.10566000000E+00  0.10566000000E+00 0.  1.
     999900   -1    0    0    0    0 -0.00000000000E+00 -0.00000000000E+00 -0.74505805969E-08  0.93827000000E+00  0.93827000000E+00 0.  1.
     999902    2    1    2    0    0  0.16119265592E-01 -0.16953122225E-01 -0.28295542451E-02  0.10203663531E+01  0.10200942354E+01 0.  0.
     999903    2    3    3    0    0 -0.66340032328E-02 -0.13026218879E+00  0.13579064691E-01  0.13265812484E+00  0.20038444538E-01 0.  0.
         14    1    1    2    0    0 -0.16119265592E-01  0.16953122225E-01  0.28295542451E-02  0.23563646866E-01  0.00000000000E+00 0. -1.
     999901    1    3    3    0    0  0.22753268825E-01  0.11330906657E+00 -0.16408618936E-01  0.88770822830E+00  0.88000000000E+00 0. -1.
        -11    1    4    4    0    0 -0.79701621694E-02 -0.48671425400E-01  0.13183499117E-01  0.51053862787E-01  0.51100000000E-03 0.  1.
         11    1    4    4    0    0  0.13361589366E-02 -0.81590763394E-01  0.39556557404E-03  0.81604262051E-01  0.51100000000E-03 0. -1.
</event>
<event>
 8    1  0.1114333E+005  0.1043930E+01  0.7957747E-01            NaN
         13   -1    0    0    0    0  0.00000000000E+00  0.00000000000E+00  0.74505805969E-08  0.10566000000E+00  0.10566000000E+00 0. -1.
     999900   -1    0    0    0    0 -0.00000000000E+00 -0.00000000000E+00 -0.74505805969E-08  0.93827000000E+00  0.93827000000E+00 0. -1.
     999902    2    1    2    0    0 -0.95281932946E-02  0.14196179582E-01  0.16706666794E-01  0.10200253833E+01  0.10197452388E+01 0.  0.
     999903    2    3    3    0    0 -0.90644394362E-01  0.92462036514E-01 -0.17186905101E-01  0.13218859843E+00  0.20317515130E-01 0.  0.
         14    1    1    2    0    0  0.95281932946E-02 -0.14196179582E-01 -0.16706666794E-01  0.23904616657E-01  0.00000000000E+00 0. -1.
     999901    1    3    3    0    0  0.81116201067E-01 -0.78265856933E-01  0.33893571894E-01  0.88783678492E+00  0.88000000000E+00 0. -1.
        -11    1    4    4    0    0 -0.87334001762E-01  0.86300417607E-01 -0.20416978354E-01  0.12446728112E+00  0.51100000000E-03 0. -1.
         11    1    4    4    0    0 -0.33103925995E-02  0.61616189070E-02  0.32300732538E-02  0.77213173062E-02  0.51100000000E-03 0.  1.
</event>
<event>
 8    1  0.1114333E+005  0.1043930E+01  0.7957747E-01            NaN
         13   -1    0    0    0    0  0.00000000000E+00  0.00000000000E+00  0.74505805969E-08  0.10566000000E+00  0.10566000000E+00 0. -1.
     999900   -1    0    0    0    0 -0.00000000000E+00 -0.00000000000E+00 -0.74505805969E-08  0.93827000000E+00  0.93827000000E+00 0. -1.
     999902    2    1    2    0    0  0.16217266794E-01 -0.94068180078E-03  0.17075239408E-01  0.10203620466E+01  0.10200898283E+01 0.  0.
     999903    2    3    3    0    0  0.79645644679E-01  0.44828166258E-01 -0.90723509494E-01  0.13034040823E+00  0.20121472050E-01 0.  0.
         14    1    1    2    0    0 -0.16217266794E-01  0.94068180078E-03 -0.17075239408E-01  0.23567953355E-01  0.00000000000E+00 0.  1.
     999901    1    3    3    0    0 -0.63428377886E-01 -0.45768848059E-01  0.10779874890E+00  0.89002163841E+00  0.88000000000E+00 0.  1.
        -11    1    4    4    0    0  0.24888525422E-01  0.78220991943E-02 -0.16116397315E-01  0.30669582927E-01  0.51100000000E-03 0. -1.
         11    1    4    4    0    0  0.54757119257E-01  0.37006067064E-01 -0.74607112179E-01  0.99670825308E-01  0.51100000000E-03 0.  1.
</event>
<event>
 8    1  0.1114333E+005  0.1043930E+01  0.7957747E-01            NaN
         13   -1    0    0    0    0  0.00000000000E+00  0.00000000000E+00  0.74505805969E-08  0.10566000000E+00  0.10566000000E+00 0.  1.
     999900   -1    0    0    0    0 -0.00000000000E+00 -0.00000000000E+00 -0.74505805969E-08  0.93827000000E+00  0.93827000000E+00 0.  1.
     999902    2    1    2    0    0  0.72107799181E-02  0.19270078573E-01 -0.31678355879E-04  0.10233549598E+01  0.10231481034E+01 0.  0.
     999903    2    3    3    0    0  0.85171580179E-01  0.10424431200E+00 -0.33833584052E-02  0.13582482484E+00  0.17772486459E-01 0.  0.
         14    1    1    2    0    0 -0.72107799181E-02 -0.19270078573E-01  0.31678355879E-04  0.20575040189E-01  0.00000000000E+00 0.  1.
     999901    1    3    3    0    0 -0.77960800261E-01 -0.84974233423E-01  0.33516800493E-02  0.88753013497E+00  0.88000000000E+00 0. -1.
        -11    1    4    4    0    0  0.77151633570E-01  0.85225703886E-01 -0.53436162379E-02  0.11508523155E+00  0.51100000000E-03 0.  1.
         11    1    4    4    0    0  0.80199466086E-02  0.19018608110E-01  0.19602578327E-02  0.20739593290E-01  0.51100000000E-03 0. -1.
</event>
<event>
 8    1  0.1114333E+005  0.1043930E+01  0.7957747E-01            NaN
         13   -1    0    0    0    0  0.00000000000E+00  0.00000000000E+00  0.74505805969E-08  0.10566000000E+00  0.10566000000E+00 0. -1.
     999900   -1    0    0    0    0 -0.00000000000E+00 -0.00000000000E+00 -0.74505805969E-08  0.93827000000E+00  0.93827000000E+00 0. -1.
     999902    2    1    2    0    0 -0.21016974634E-01  0.83513137468E-02  0.69180138779E-02  0.10202801252E+01  0.10200059888E+01 0.  0.
     999903    2    3    3    0    0  0.10628822264E+00  0.47883340143E-01  0.52042751257E-01  0.12909796853E+00  0.19179076786E-01 0.  0.
         14    1    1    2    0    0  0.21016974634E-01 -0.83513137468E-02 -0.69180138779E-02  0.23649874843E-01  0.00000000000E+00 0. -1.
     999901    1    3    3    0    0 -0.12730519727E+00 -0.39532026397E-01 -0.45124737379E-01  0.89118215662E+00  0.88000000000E+00 0. -1.
        -11    1    4    4    0    0  0.78152538513E-01  0.34588649653E-01  0.28566362176E-01  0.90113773253E-01  0.51100000000E-03 0.  1.
         11    1    4    4    0    0  0.28135684122E-01  0.13294690490E-01  0.23476389082E-01  0.38984195279E-01  0.51100000000E-03 0. -1.
</event>
<event>
 8    1  0.1114333E+005  0.1043930E+01  0.7957747E-01            NaN
         13   -1    0    0    0    0  0.00000000000E+00  0.00000000000E+00  0.74505805969E-08  0.10566000000E+00  0.10566000000E+00 0.  1.
     999900   -1    0    0    0    0 -0.00000000000E+00 -0.00000000000E+00 -0.74505805969E-08  0.93827000000E+00  0.93827000000E+00 0. -1.
     999902    2    1    2    0    0  0.22646910008E-01  0.54442383503E-02  0.44093219815E-02  0.10202242120E+01  0.10199487626E+01 0.  0.
     999903    2    3    3    0    0 -0.15020089767E-01  0.47237934661E-01  0.11959608395E+00  0.13093601010E+00  0.19595659632E-01 0.  0.
         14    1    1    2    0    0 -0.22646910008E-01 -0.54442383503E-02 -0.44093219815E-02  0.23705787995E-01  0.00000000000E+00 0. -1.
     999901    1    3    3    0    0  0.37666999775E-01 -0.41793696311E-01 -0.11518676197E+00  0.88928820191E+00  0.88000000000E+00 0. -1.
        -11    1    4    4    0    0 -0.90591977242E-02  0.38480670528E-01  0.10898003624E+00  0.11592989471E+00  0.51100000000E-03 0.  1.
         11    1    4    4    0    0 -0.59608920431E-02  0.87572641336E-02  0.10616047712E-01  0.15006115390E-01  0.51100000000E-03 0. -1.
</event>
<event>
 8    1  0.1114333E+005  0.1043930E+01  0.7957747E-01            NaN
         13   -1    0    0    0    0  0.00000000000E+00  0.00000000000E+00  0.74505805969E-08  0.10566000000E+00  0.10566000000E+00 0.  1.
     999900   -1    0    0    0    0 -0.00000000000E+00 -0.00000000000E+00 -0.74505805969E-08  0.93827000000E+00  0.93827000000E+00 0. -1.
     999902    2    1    2    0    0 -0.91773265634E-02 -0.19488898951E-01 -0.95507458701E-02  0.10203661028E+01  0.10200939792E+01 0.  0.
     999903    2    3    3    0    0  0.10417482867E-01 -0.79143420236E-01 -0.10433484185E+00  0.13305181612E+00  0.21090794990E-01 0.  0.
         14    1    1    2    0    0  0.91773265634E-02  0.19488898951E-01  0.95507458701E-02  0.23563897212E-01  0.00000000000E+00 0.  1.
     999901    1    3    3    0    0 -0.19594809431E-01  0.59654521285E-01  0.94784095983E-01  0.88731428666E+00  0.88000000000E+00 0.  1.
        -11    1    4    4    0    0 -0.94342176720E-03 -0.45524610094E-01 -0.45712297212E-01  0.64523293517E-01  0.51100000000E-03 0.  1.
         11    1    4    4    0    0  0.11360904635E-01 -0.33618810142E-01 -0.58622544641E-01  0.68528522607E-01  0.51100000000E-03 0. -1.
</event>
<event>
 8    1  0.1114333E+005  0.1043930E+01  0.7957747E-01            NaN
         13   -1    0    0    0    0  0.00000000000E+00  0.00000000000E+00  0.74505805969E-08  0.10566000000E+00  0.10566000000E+00 0.  1.
     999900   -1    0    0    0    0 -0.00000000000E+00 -0.00000000000E+00 -0.74505805969E-08  0.93827000000E+00  0.93827000000E+00 0. -1.
     999902    2    1    2    0    0  0.18316036027E-02 -0.19589144848E-01  0.14309884202E-01  0.10196017828E+01  0.10193114996E+01 0.  0.
     999903    2    3    3    0    0  0.97078339093E-01  0.42033192623E-01  0.73438148000E-01  0.13035187151E+00  0.20185530007E-01 0.  0.
         14    1    1    2    0    0 -0.18316036027E-02  0.19589144848E-01 -0.14309884202E-01  0.24328217228E-01  0.00000000000E+00 0. -1.
     999901    1    3    3    0    0 -0.95246735491E-01 -0.61622337471E-01 -0.59128263798E-01  0.88924991126E+00  0.88000000000E+00 0. -1.
        -11    1    4    4    0    0  0.77688389542E-01  0.39521857051E-01  0.66364262263E-01  0.10955336362E+00  0.51100000000E-03 0.  1.
         11    1    4    4    0    0  0.19389949551E-01  0.25113355718E-02  0.70738857364E-02  0.20798507888E-01  0.51100000000E-03 0. -1.
</event>
<event>
 8    1  0.1114333E+005  0.1043930E+01  0.7957747E-01            NaN
         13   -1    0    0    0    0  0.00000000000E+00  0.00000000000E+00  0.74505805969E-08  0.10566000000E+00  0.10566000000E+00 0. -1.
     999900   -1    0    0    0    0 -0.00000000000E+00 -0.00000000000E+00 -0.74505805969E-08  0.93827000000E+00  0.93827000000E+00 0. -1.
     999902    2    1    2    0    0  0.18771187917E-01  0.84702581233E-02  0.11742881072E-01  0.10202235025E+01  0.10199480364E+01 0.  0.
     999903    2    3    3    0    0  0.45046244501E-01 -0.11118585068E+00  0.48587641741E-01  0.13097353799E+00  0.20046226268E-01 0.  0.
         14    1    1    2    0    0 -0.18771187917E-01 -0.84702581233E-02 -0.11742881072E-01  0.23706497514E-01  0.00000000000E+00 0.  1.
     999901    1    3    3    0    0 -0.26275056584E-01  0.11965610880E+00 -0.36844760669E-01  0.88924996450E+00  0.88000000000E+00 0. -1.
        -11    1    4    4    0    0  0.41838618102E-01 -0.81301638483E-01  0.33919199923E-01  0.97525379410E-01  0.51100000000E-03 0.  1.
         11    1    4    4    0    0  0.32076263994E-02 -0.29884212199E-01  0.14668441818E-01  0.33448158577E-01  0.51100000000E-03 0. -1.
</event>
<event>
 8    1  0.1114333E+005  0.1043930E+01  0.7957747E-01            NaN
         13   -1    0    0    0    0  0.00000000000E+00  0.00000000000E+00  0.74505805969E-08  0.10566000000E+00  0.10566000000E+00 0.  1.
     999900   -1    0    0    0    0 -0.00000000000E+00 -0.00000000000E+00 -0.74505805969E-08  0.93827000000E+00  0.93827000000E+00 0. -1.
     999902    2    1    2    0    0 -0.66428772498E-02  0.23025968547E-01 -0.60844228918E-03  0.10199572395E+01  0.10196754764E+01 0.  0.
     999903    2    3    3    0    0 -0.65128952221E-02  0.12303355763E+00 -0.45789712448E-01  0.13314109057E+00  0.21217401427E-01 0.  0.
         14    1    1    2    0    0  0.66428772498E-02 -0.23025968547E-01  0.60844228918E-03  0.23972760536E-01  0.00000000000E+00 0.  1.
     999901    1    3    3    0    0 -0.12998202774E-03 -0.10000758909E+00  0.45181270159E-01  0.88681614890E+00  0.88000000000E+00 0. -1.
        -11    1    4    4    0    0  0.53304376638E-02  0.78782785008E-01 -0.32960647907E-01  0.85567553493E-01  0.51100000000E-03 0. -1.
         11    1    4    4    0    0 -0.11843332886E-01  0.44250772626E-01 -0.12829064541E-01  0.47573537075E-01  0.51100000000E-03 0.  1.
</event>
<event>
 8    1  0.1114333E+005  0.1043930E+01  0.7957747E-01            NaN
         13   -1    0    0    0    0  0.00000000000E+00  0.00000000000E+00  0.74505805969E-08  0.10566000000E+00  0.10566000000E+00 0. -1.
     999900   -1    0    0    0    0 -0.00000000000E+00 -0.00000000000E+00 -0.74505805969E-08  0.93827000000E+00  0.93827000000E+00 0. -1.
     999902    2    1    2    0    0  0.21718973278E-01  0.87005936916E-02 -0.27316947893E-02  0.10203741878E+01  0.10201022532E+01 0.  0.
     999903    2    3    3    0    0  0.76305791884E-01 -0.67778324255E-01  0.81124448872E-01  0.13140816008E+00  0.16445461886E-01 0.  0.
         14    1    1    2    0    0 -0.21718973278E-01 -0.87005936916E-02  0.27316947893E-02  0.23555812176E-01  0.00000000000E+00 0. -1.
     999901    1    3    3    0    0 -0.54586818606E-01  0.76478917947E-01 -0.83856143662E-01  0.88896602775E+00  0.88000000000E+00 0.  1.
        -11    1    4    4    0    0  0.23456638226E-01 -0.11793264624E-01  0.23519715962E-01  0.35252420162E-01  0.51100000000E-03 0. -1.
         11    1    4    4    0    0  0.52849153657E-01 -0.55985059631E-01  0.57604732911E-01  0.96155739917E-01  0.51100000000E-03 0.  1.
</event>
<event>
 8    1  0.1114333E+005  0.1043930E+01  0.7957747E-01            NaN
         13   -1    0    0    0    0  0.00000000000E+00  0.00000000000E+00  0.74505805969E-08  0.10566000000E+00  0.10566000000E+00 0.  1.
     999900   -1    0    0    0    0 -0.00000000000E+00 -0.00000000000E+00 -0.74505805969E-08  0.93827000000E+00  0.93827000000E+00 0. -1.
     999902    2    1    2    0    0 -0.55709122546E-03 -0.18721922959E-01  0.14700672164E-01  0.10201196974E+01  0.10198417850E+01 0.  0.
     999903    2    3    3    0    0  0.12817022491E+00  0.12293218713E-01 -0.10471661332E-01  0.12985776550E+00  0.13215664607E-01 0.  0.
         14    1    1    2    0    0  0.55709122546E-03  0.18721922959E-01 -0.14700672164E-01  0.23810302644E-01  0.00000000000E+00 0. -1.
     999901    1    3    3    0    0 -0.12872731613E+00 -0.31015141672E-01  0.25172333496E-01  0.89026193185E+00  0.88000000000E+00 0.  1.
        -11    1    4    4    0    0  0.73895467769E-01  0.89174461102E-03 -0.81024270217E-02  0.74345449154E-01  0.51100000000E-03 0.  1.
         11    1    4    4    0    0  0.54274757140E-01  0.11401474102E-01 -0.23692343105E-02  0.55512316350E-01  0.51100000000E-03 0. -1.
</event>
<event>
 8    1  0.1114333E+005  0.1043930E+01  0.7957747E-01            NaN
         13   -1    0    0    0    0  0.00000000000E+00  0.00000000000E+00  0.74505805969E-08  0.10566000000E+00  0.10566000000E+00 0. -1.
     999900   -1    0    0    0    0 -0.00000000000E+00 -0.00000000000E+00 -0.74505805969E-08  0.93827000000E+00  0.93827000000E+00 0. -1.
     999902    2    1    2    0    0 -0.90281001224E-02 -0.22464558064E-01  0.16626149079E-02  0.10196621767E+01  0.10193733503E+01 0.  0.
     999903    2    3    3    0    0  0.11127811344E+00  0.52939415071E-01  0.27947885241E-01  0.12789412408E+00  0.19759111436E-01 0.  0.
         14    1    1    2    0    0  0.90281001224E-02  0.22464558064E-01 -0.16626149079E-02  0.24267823330E-01  0.00000000000E+00 0.  1.
     999901    1    3    3    0    0 -0.12030621357E+00 -0.75403973134E-01 -0.26285270333E-01  0.89176805259E+00  0.88000000000E+00 0. -1.
        -11    1    4    4    0    0  0.66944282801E-01  0.21011023156E-01  0.15541470582E-01  0.71866532702E-01  0.51100000000E-03 0. -1.
         11    1    4    4    0    0  0.44333830643E-01  0.31928391915E-01  0.12406414659E-01  0.56027591376E-01  0.51100000000E-03 0.  1.
</event>
<event>
 8    1  0.1114333E+005  0.1043930E+01  0.7957747E-01            NaN
         13   -1    0    0    0    0  0.00000000000E+00  0.00000000000E+00  0.74505805969E-08  0.10566000000E+00  0.10566000000E+00 0. -1.
     999900   -1    0    0    0    0 -0.00000000000E+00 -0.00000000000E+00 -0.74505805969E-08  0.93827000000E+00  0.93827000000E+00 0.  1.
     999902    2    1    2    0    0 -0.11304137107E-02 -0.44393587015E-02  0.22331523696E-01  0.10211334500E+01  0.10208789546E+01 0.  0.
     999903    2    3    3    0    0  0.45414320741E-02 -0.11950485218E+00 -0.48958032926E-01  0.13076586384E+00  0.20019686737E-01 0.  0.
         14    1    1    2    0    0  0.11304137107E-02  0.44393587015E-02 -0.22331523696E-01  0.22796549990E-01  0.00000000000E+00 0.  1.
     999901    1    3    3    0    0 -0.56718457847E-02  0.11506549348E+00  0.71289556622E-01  0.89036758617E+00  0.88000000000E+00 0.  1.
        -11    1    4    4    0    0  0.38248275165E-04 -0.11450662449E+00 -0.46312513793E-01  0.12351873772E+00  0.51100000000E-03 0.  1.
         11    1    4    4    0    0  0.45031837989E-02 -0.49982276945E-02 -0.26455191324E-02  0.72471261127E-02  0.51100000000E-03 0. -1.
</event>
<event>
 8    1  0.1114333E+005  0.1043930E+01  0.7957747E-01            NaN
         13   -1    0    0    0    0  0.00000000000E+00  0.00000000000E+00  0.74505805969E-08  0.10566000000E+00  0.10566000000E+00 0.  1.
     999900   -1    0    0    0    0 -0.00000000000E+00 -0.00000000000E+00 -0.74505805969E-08  0.93827000000E+00  0.93827000000E+00 0.  1.
     999902    2    1    2    0    0  0.19661021988E-01 -0.13361539451E-01 -0.25083961544E-02  0.10200264736E+01  0.10197463549E+01 0.  0.
     999903    2    3    3    0    0  0.86082978759E-01  0.96229583688E-01  0.50984575067E-02  0.13071215639E+00  0.19729712359E-01 0.  0.
         14    1    1    2    0    0 -0.19661021988E-01  0.13361539451E-01  0.25083961544E-02  0.23903526380E-01  0.00000000000E+00 0. -1.
     999901    1    3    3    0    0 -0.66421956771E-01 -0.10959112314E+00 -0.76068536611E-02  0.88931431723E+00  0.88000000000E+00 0. -1.
        -11    1    4    4    0    0  0.73307329844E-01  0.75362704680E-01  0.10470422633E-01  0.10565695782E+00  0.51100000000E-03 0. -1.
         11    1    4    4    0    0  0.12775648915E-01  0.20866879008E-01 -0.53719651266E-02  0.25055198563E-01  0.51100000000E-03 0.  1.
</event>
<event>
 8    1  0.1114333E+005  0.1043930E+01  0.7957747E-01            NaN
         13   -1    0    0    0    0  0.00000000000E+00  0.00000000000E+00  0.74505805969E-08  0.10566000000E+00  0.10566000000E+00 0.  1.
     999900   -1    0    0    0    0 -0.00000000000E+00 -0.00000000000E+00 -0.74505805969E-08  0.93827000000E+00  0.93827000000E+00 0. -1.
     999902    2    1    2    0    0 -0.47722660267E-02 -0.20428924525E-01 -0.10050261984E-01  0.10206679441E+01  0.10204028267E+01 0.  0.
     999903    2    3    3    0    0  0.18330334811E-01  0.87694905303E-01  0.89668856883E-01  0.12816113994E+00  0.18930829512E-01 0.  0.
         14    1    1    2    0    0  0.47722660267E-02  0.20428924525E-01  0.10050261984E-01  0.23262055933E-01  0.00000000000E+00 0.  1.
     999901    1    3    3    0    0 -0.23102600838E-01 -0.10812382983E+00 -0.99719118867E-01  0.89250680413E+00  0.88000000000E+00 0. -1.
        -11    1    4    4    0    0  0.21517238050E-01  0.66590656897E-01  0.64688157016E-01  0.95300188344E-01  0.51100000000E-03 0.  1.
         11    1    4    4    0    0 -0.31869032392E-02  0.21104248406E-01  0.24980699867E-01  0.32860951598E-01  0.51100000000E-03 0. -1.
</event>
<event>
 8    1  0.1114333E+005  0.1043930E+01  0.7957747E-01            NaN
         13   -1    0    0    0    0  0.00000000000E+00  0.00000000000E+00  0.74505805969E-08  0.10566000000E+00  0.10566000000E+00 0.  1.
     999900   -1    0    0    0    0 -0.00000000000E+00 -0.00000000000E+00 -0.74505805969E-08  0.93827000000E+00  0.93827000000E+00 0.  1.
     999902    2    1    2    0    0 -0.51455639448E-02  0.19112433445E-01 -0.13641249082E-01  0.10198915804E+01  0.10196082533E+01 0.  0.
     999903    2    3    3    0    0 -0.10068399612E+00  0.70155054645E-01 -0.46185790803E-01  0.13265311843E+00  0.20117748118E-01 0.  0.
         14    1    1    2    0    0  0.51455639448E-02 -0.19112433445E-01  0.13641249082E-01  0.24038419604E-01  0.00000000000E+00 0.  1.
     999901    1    3    3    0    0  0.95538432175E-01 -0.51042621200E-01  0.32544541721E-01  0.88723846197E+00  0.88000000000E+00 0. -1.
        -11    1    4    4    0    0 -0.14504199341E-01  0.27285852071E-02 -0.77329829715E-02  0.16669646738E-01  0.51100000000E-03 0. -1.
         11    1    4    4    0    0 -0.86179796780E-01  0.67426469438E-01 -0.38452807832E-01  0.11598347169E+00  0.51100000000E-03 0.  1.
</event>
<event>
 8    1  0.1114333E+005  0.1043930E+01  0.7957747E-01            NaN
         13   -1    0    0    0    0  0.00000000000E+00  0.00000000000E+00  0.74505805969E-08  0.10566000000E+00  0.10566000000E+00 0.  1.
     999900   -1    0    0    0    0 -0.00000000000E+00 -0.00000000000E+00 -0.74505805969E-08  0.93827000000E+00  0.93827000000E+00 0.  1.
     999902    2    1    2    0    0  0.30506414052E-04 -0.94327403831E-02  0.22451424152E-01  0.10195775059E+01  0.10192866361E+01 0.  0.
     999903    2    3    3    0    0 -0.11602046698E+00 -0.41047734362E-02 -0.51425438350E-01  0.12887328651E+00  0.22048817229E-01 0.  0.
         14    1    1    2    0    0 -0.30506414052E-04  0.94327403831E-02 -0.22451424152E-01  0.24352494086E-01  0.00000000000E+00 0. -1.
     999901    1    3    3    0    0  0.11605097340E+00 -0.53279669469E-02  0.73876862501E-01  0.89070421941E+00  0.88000000000E+00 0.  1.
        -11    1    4    4    0    0 -0.69499443737E-01  0.26267086584E-02 -0.20148237866E-01  0.72410530230E-01  0.51100000000E-03 0. -1.
         11    1    4    4    0    0 -0.46521023247E-01 -0.67314820946E-02 -0.31277200483E-01  0.56462756276E-01  0.51100000000E-03 0.  1.
</event>
<event>
 8    1  0.1114333E+005  0.1043930E+01  0.7957747E-01            NaN
         13   -1    0    0    0    0  0.00000000000E+00  0.00000000000E+00  0.74505805969E-08  0.10566000000E+00  0.10566000000E+00 0. -1.
     999900   -1    0    0    0    0 -0.00000000000E+00 -0.00000000000E+00 -0.74505805969E-08  0.93827000000E+00  0.93827000000E+00 0.  1.
     999902    2    1    2    0    0 -0.67396528376E-03 -0.20143410079E-01  0.11900576394E-01  0.10205241264E+01  0.10202556825E+01 0.  0.
     999903    2    3    3    0    0  0.28581833424E-01  0.10457576789E+00  0.67756635526E-01  0.12949625120E+00  0.20622923734E-01 0.  0.
         14    1    1    2    0    0  0.67396528376E-03  0.20143410079E-01 -0.11900576394E-01  0.23405873565E-01  0.00000000000E+00 0.  1.
     999901    1    3    3    0    0 -0.29255798708E-01 -0.12471917797E+00 -0.55856059132E-01  0.89102787524E+00  0.88000000000E+00 0.  1.
        -11    1    4    4    0    0  0.27399648506E-01  0.64839102743E-01  0.47058340833E-01  0.84673481951E-01  0.51100000000E-03 0. -1.
         11    1    4    4    0    0  0.11821849180E-02  0.39736665152E-01  0.20698294692E-01  0.44822769245E-01  0.51100000000E-03 0.  1.
</event>
<event>
 8    1  0.1114333E+005  0.1043930E+01  0.7957747E-01            NaN
         13   -1    0    0    0    0  0.00000000000E+00  0.00000000000E+00  0.74505805969E-08  0.10566000000E+00  0.10566000000E+00 0. -1.
     999900   -1    0    0    0    0 -0.00000000000E+00 -0.00000000000E+00 -0.74505805969E-08  0.93827000000E+00  0.93827000000E+00 0.  1.
     999902    2    1    2    0    0  0.15690635308E-01 -0.69544006870E-02  0.16120169953E-01  0.10203838834E+01  0.10201121752E+01 0.  0.
     999903    2    3    3    0    0 -0.11735925336E-03 -0.10188128265E+00  0.84008599883E-01  0.13253826369E+00  0.11363844408E-01 0.  0.
         14    1    1    2    0    0 -0.15690635308E-01  0.69544006870E-02 -0.16120169953E-01  0.23546116550E-01  0.00000000000E+00 0. -1.
     999901    1    3    3    0    0  0.15807994562E-01  0.94926881962E-01 -0.67888429930E-01  0.88784561976E+00  0.88000000000E+00 0. -1.
        -11    1    4    4    0    0 -0.29063158688E-02 -0.77781210628E-01  0.58820684092E-01  0.97562786947E-01  0.51100000000E-03 0.  1.
         11    1    4    4    0    0  0.27889566155E-02 -0.24100072022E-01  0.25187915790E-01  0.34975476742E-01  0.51100000000E-03 0. -1.
</event>
<event>
 8    1  0.1114333E+005  0.1043930E+01  0.7957747E-01            NaN
         13   -1    0    0    0    0  0.00000000000E+00  0.00000000000E+00  0.74505805969E-08  0.10566000000E+00  0.10566000000E+00 0.  1.
     999900   -1    0    0    0    0 -0.00000000000E+00 -0.00000000000E+00 -0.74505805969E-08  0.93827000000E+00  0.93827000000E+00 0. -1.
     999902    2    1    2    0    0  0.80019831942E-02  0.99785163980E-02 -0.20334247909E-01  0.10199074239E+01  0.10196244746E+01 0.  0.
     999903    2    3    3    0    0  0.86467477546E-01  0.92953376229E-01  0.27041276855E-01  0.13126458141E+00  0.19550060151E-01 0.  0.
         14    1    1    2    0    0 -0.80019831942E-02 -0.99785163980E-02  0.20334247909E-01  0.24022576102E-01  0.00000000000E+00 0. -1.
     999901    1    3    3    0    0 -0.78465494352E-01 -0.82974859831E-01 -0.47375524764E-01  0.88864284249E+00  0.88000000000E+00 0.  1.
        -11    1    4    4    0    0  0.21616945289E-01  0.30003146470E-01  0.15692700513E-01  0.40174657337E-01  0.51100000000E-03 0.  1.
         11    1    4    4    0    0  0.64850532257E-01  0.62950229759E-01  0.11348576342E-01  0.91089924068E-01  0.51100000000E-03 0. -1.
</event>
<event>
 7    1  0.1184091E+005  0.1043930E+01  0.7957747E-01            NaN
         13   -1    0    0    0    0  0.00000000000E+00  0.00000000000E+00  0.74505805969E-08  0.10566000000E+00  0.10566000000E+00 0. -1.
     999900   -1    0    0    0    0 -0.00000000000E+00 -0.00000000000E+00 -0.74505805969E-08  0.93827000000E+00  0.93827000000E+00 0. -1.
     999903    2    1    2    0    0 -0.73248773785E-01 -0.52143711483E-02  0.84653695966E-01  0.11388717151E+00  0.20284651017E-01 0.  0.
         14    1    1    2    0    0 -0.26060325989E-01 -0.30197789602E-01 -0.38703872266E-02  0.40075266497E-01  0.00000000000E+00 0.  1.
     999901    1    1    2    0    0  0.99309099773E-01  0.35412160750E-01 -0.80783308739E-01  0.88996756199E+00  0.88000000000E+00 0.  1.
        -11    1    3    3    0    0 -0.37809072251E-01 -0.12831666892E-01  0.44681893210E-01  0.59924204806E-01  0.51100000000E-03 0. -1.
         11    1    3    3    0    0 -0.35439701533E-01  0.76172957437E-02  0.39971802755E-01  0.53962966706E-01  0.51100000000E-03 0.  1.
</event>
<event>
 8    1  0.1114333E+005  0.1043930E+01  0.7957747E-01            NaN
         13   -1    0    0    0    0  0.00000000000E+00  0.00000000000E+00  0.74505805969E-08  0.10566000000E+00  0.10566000000E+00 0.  1.
     999900   -1    0    0    0    0 -0.00000000000E+00 -0.00000000000E+00 -0.74505805969E-08  0.93827000000E+00  0.93827000000E+00 0.  1.
     999902    2    1    2    0    0  0.17072970154E-01  0.11618375092E-01 -0.15908486099E-01  0.10178617649E+01  0.10175278962E+01 0.  0.
     999903    2    3    3    0    0  0.75393944812E-01  0.10093498828E+00  0.27030349913E-01  0.13038075831E+00  0.19909383412E-01 0.  0.
         14    1    1    2    0    0 -0.17072970154E-01 -0.11618375092E-01  0.15908486099E-01  0.26068235069E-01  0.00000000000E+00 0.  1.
     999901    1    3    3    0    0 -0.58320974658E-01 -0.89316613187E-01 -0.42938836012E-01  0.88748100662E+00  0.88000000000E+00 0. -1.
        -11    1    4    4    0    0  0.37050652315E-01  0.60472285338E-01  0.75242015912E-02  0.71319863023E-01  0.51100000000E-03 0. -1.
         11    1    4    4    0    0  0.38343292496E-01  0.40462702940E-01  0.19506148322E-01  0.59060895287E-01  0.51100000000E-03 0.  1.
</event>
<event>
 8    1  0.1114333E+005  0.1043930E+01  0.7957747E-01            NaN
         13   -1    0    0    0    0  0.00000000000E+00  0.00000000000E+00  0.74505805969E-08  0.10566000000E+00  0.10566000000E+00 0.  1.
     999900   -1    0    0    0    0 -0.00000000000E+00 -0.00000000000E+00 -0.74505805969E-08  0.93827000000E+00  0.93827000000E+00 0. -1.
     999902    2    1    2    0    0  0.29659789515E-02  0.23400167879E-01 -0.64311105071E-02  0.10194816039E+01  0.10191884108E+01 0.  0.
     999903    2    3    3    0    0  0.75149475823E-01  0.30579642191E-01 -0.10139380558E+00  0.13140507822E+00  0.20100560643E-01 0.  0.
         14    1    1    2    0    0 -0.29659789515E-02 -0.23400167879E-01  0.64311105071E-02  0.24448396068E-01  0.00000000000E+00 0. -1.
     999901    1    3    3    0    0 -0.72183496872E-01 -0.71794743121E-02  0.94962695072E-01  0.88807652572E+00  0.88000000000E+00 0.  1.
        -11    1    4    4    0    0  0.23999549492E-01  0.18983674258E-01 -0.30392358246E-01  0.43131367065E-01  0.51100000000E-03 0.  1.
         11    1    4    4    0    0  0.51149926332E-01  0.11595967933E-01 -0.71001447334E-01  0.88273711152E-01  0.51100000000E-03 0. -1.
</event>
<event>
 8    1  0.1114333E+005  0.1043930E+01  0.7957747E-01            NaN
         13   -1    0    0    0    0  0.00000000000E+00  0.00000000000E+00  0.74505805969E-08  0.10566000000E+00  0.10566000000E+00 0.  1.
     999900   -1    0    0    0    0 -0.00000000000E+00 -0.00000000000E+00 -0.74505805969E-08  0.93827000000E+00  0.93827000000E+00 0. -1.
     999902    2    1    2    0    0 -0.87148381469E-02  0.22227452264E-01  0.24789343128E-02  0.10199268095E+01  0.10196443221E+01 0.  0.
     999903    2    3    3    0    0 -0.92132307154E-01  0.10527210643E-01  0.90953738812E-01  0.13148820116E+00  0.20429886310E-01 0.  0.
         14    1    1    2    0    0  0.87148381469E-02 -0.22227452264E-01 -0.24789343128E-02  0.24003190484E-01  0.00000000000E+00 0. -1.
     999901    1    3    3    0    0  0.83417469007E-01  0.11700241621E-01 -0.88474804499E-01  0.88843860836E+00  0.88000000000E+00 0. -1.
        -11    1    4    4    0    0 -0.35402307946E-01  0.60448045164E-02  0.49147753332E-01  0.60873851925E-01  0.51100000000E-03 0.  1.
         11    1    4    4    0    0 -0.56729999208E-01  0.44824061264E-02  0.41805985480E-01  0.70614349234E-01  0.51100000000E-03 0. -1.
</event>
<event>
 8    1  0.1114333E+005  0.1043930E+01  0.7957747E-01            NaN
         13   -1    0    0    0    0  0.00000000000E+00  0.00000000000E+00  0.74505805969E-08  0.10566000000E+00  0.10566000000E+00 0.  1.
     999900   -1    0    0    0    0 -0.00000000000E+00 -0.00000000000E+00 -0.74505805969E-08  0.93827000000E+00  0.93827000000E+00 0.  1.
     999902    2    1    2    0    0 -0.18810953878E-01 -0.67937931958E-02  0.12266006766E-01  0.10204680620E+01  0.10201983156E+01 0.  0.
     999903    2    3    3    0    0 -0.66120411745E-01 -0.11109571013E+00  0.23874357084E-01  0.13297055302E+00  0.19925295109E-01 0.  0.
         14    1    1    2    0    0  0.18810953878E-01  0.67937931958E-02 -0.12266006766E-01  0.23461937980E-01  0.00000000000E+00 0. -1.
     999901    1    3    3    0    0  0.47309457866E-01  0.10430191694E+00 -0.11608350319E-01  0.88749750900E+00  0.88000000000E+00 0. -1.
        -11    1    4    4    0    0 -0.43624828801E-01 -0.77420799283E-01  0.71557630003E-02  0.89154763836E-01  0.51100000000E-03 0.  1.
         11    1    4    4    0    0 -0.22495582943E-01 -0.33674910852E-01  0.16718594084E-01  0.43815789186E-01  0.51100000000E-03 0. -1.
</event>
<event>
 8    1  0.1114333E+005  0.1043930E+01  0.7957747E-01            NaN
         13   -1    0    0    0    0  0.00000000000E+00  0.00000000000E+00  0.74505805969E-08  0.10566000000E+00  0.10566000000E+00 0.  1.
     999900   -1    0    0    0    0 -0.00000000000E+00 -0.00000000000E+00 -0.74505805969E-08  0.93827000000E+00  0.93827000000E+00 0. -1.
     999902    2    1    2    0    0 -0.26850680531E-01  0.35108889290E-02  0.31130910474E-03  0.10168489679E+01  0.10164882888E+01 0.  0.
     999903    2    3    3    0    0  0.83315295235E-01 -0.27896759153E-01 -0.87243303960E-01  0.12511537941E+00  0.17966538016E-01 0.  0.
         14    1    1    2    0    0  0.26850680531E-01 -0.35108889290E-02 -0.31130910474E-03  0.27081032097E-01  0.00000000000E+00 0.  1.
     999901    1    3    3    0    0 -0.11016597577E+00  0.31407648082E-01  0.87554613065E-01  0.89173358849E+00  0.88000000000E+00 0.  1.
        -11    1    4    4    0    0  0.57777875583E-01 -0.16887863887E-01 -0.47880591314E-01  0.76917455750E-01  0.51100000000E-03 0.  1.
         11    1    4    4    0    0  0.25537419652E-01 -0.11008895266E-01 -0.39362712646E-01  0.48197923662E-01  0.51100000000E-03 0. -1.
</event>
<event>
 8    1  0.1114333E+005  0.1043930E+01  0.7957747E-01            NaN
         13   -1    0    0    0    0  0.00000000000E+00  0.00000000000E+00  0.74505805969E-08  0.10566000000E+00  0.10566000000E+00 0.  1.
     999900   -1    0    0    0    0 -0.00000000000E+00 -0.00000000000E+00 -0.74505805969E-08  0.93827000000E+00  0.93827000000E+00 0.  1.
     999902    2    1    2    0    0  0.91975563554E-02 -0.18497005154E-01 -0.60304754589E-02  0.10224102213E+01  0.10221837211E+01 0.  0.
     999903    2    3    3    0    0 -0.97874393073E-01 -0.31356001588E-01  0.79709003741E-01  0.13169084097E+00  0.20648405803E-01 0.  0.
         14    1    1    2    0    0 -0.91975563554E-02  0.18497005154E-01  0.60304754589E-02  0.21519778736E-01  0.00000000000E+00 0. -1.
     999901    1    3    3    0    0  0.10707194943E+00  0.12858996434E-01 -0.85739479200E-01  0.89071938030E+00  0.88000000000E+00 0.  1.
        -11    1    4    4    0    0 -0.64766758053E-01 -0.10354996471E-01  0.48436620705E-01  0.81537269067E-01  0.51100000000E-03 0. -1.
         11    1    4    4    0    0 -0.33107635020E-01 -0.21001005117E-01  0.31272383037E-01  0.50153571900E-01  0.51100000000E-03 0.  1.
</event>
<event>
 8    1  0.1114333E+005  0.1043930E+01  0.7957747E-01            NaN
         13   -1    0    0    0    0  0.00000000000E+00  0.00000000000E+00  0.74505805969E-08  0.10566000000E+00  0.10566000000E+00 0.  1.
     999900   -1    0    0    0    0 -0.00000000000E+00 -0.00000000000E+00 -0.74505805969E-08  0.93827000000E+00  0.93827000000E+00 0.  1.
     999902    2    1    2    0    0 -0.91950028550E-02 -0.18584915381E-01  0.11879047783E-01  0.10200331606E+01  0.10197532004E+01 0.  0.
     999903    2    3    3    0    0  0.99166299866E-01  0.74181137805E-01 -0.24571544720E-01  0.12780204802E+00  0.19819344932E-01 0.  0.
         14    1    1    2    0    0  0.91950028550E-02  0.18584915381E-01 -0.11879047783E-01  0.23896839403E-01  0.00000000000E+00 0.  1.
     999901    1    3    3    0    0 -0.10836130272E+00 -0.92766053187E-01  0.36450592503E-01  0.89223111257E+00  0.88000000000E+00 0. -1.
        -11    1    4    4    0    0  0.15955024060E-01  0.14710204690E-01 -0.11857834382E-01  0.24735041379E-01  0.51100000000E-03 0.  1.
         11    1    4    4    0    0  0.83211275806E-01  0.59470933116E-01 -0.12713710338E-01  0.10306700664E+00  0.51100000000E-03 0. -1.
</event>
<event>
 8    1  0.1114333E+005  0.1043930E+01  0.7957747E-01            NaN
         13   -1    0    0    0    0  0.00000000000E+00  0.00000000000E+00  0.74505805969E-08  0.10566000000E+00  0.10566000000E+00 0. -1.
     999900   -1    0    0    0    0 -0.00000000000E+00 -0.00000000000E+00 -0.74505805969E-08  0.93827000000E+00  0.93827000000E+00 0.  1.
     999902    2    1    2    0    0 -0.28841350414E-02  0.24244945316E-01  0.17745442151E-02  0.10194497097E+01  0.10191557417E+01 0.  0.
     999903    2    3    3    0    0 -0.19395535338E-01 -0.10375910511E+00  0.68851814051E-01  0.12750967613E+00  0.19390887691E-01 0.  0.
         14    1    1    2    0    0  0.28841350414E-02 -0.24244945316E-01 -0.17745442151E-02  0.24480290347E-01  0.00000000000E+00 0. -1.
     999901    1    3    3    0    0  0.16511400297E-01  0.12800405043E+00 -0.67077269836E-01  0.89194003352E+00  0.88000000000E+00 0. -1.
        -11    1    4    4    0    0 -0.53973312128E-02 -0.15237101442E-01  0.19012121163E-01  0.24960414995E-01  0.51100000000E-03 0. -1.
         11    1    4    4    0    0 -0.13998204126E-01 -0.88522003667E-01  0.49839692888E-01  0.10254926114E+00  0.51100000000E-03 0.  1.
</event>
<event>
 8    1  0.1114333E+005  0.1043930E+01  0.7957747E-01            NaN
         13   -1    0    0    0    0  0.00000000000E+00  0.00000000000E+00  0.74505805969E-08  0.10566000000E+00  0.10566000000E+00 0. -1.
     999900   -1    0    0    0    0 -0.00000000000E+00 -0.00000000000E+00 -0.74505805969E-08  0.93827000000E+00  0.93827000000E+00 0. -1.
     999902    2    1    2    0    0  0.71033440389E-02  0.66189164790E-02  0.21413551169E-01  0.10204181365E+01  0.10201472274E+01 0.  0.
     999903    2    3    3    0    0 -0.40561796406E-01 -0.10936171361E+00 -0.50517476964E-01  0.12862357216E+00  0.19666319019E-01 0.  0.
         14    1    1    2    0    0 -0.71033440389E-02 -0.66189164790E-02 -0.21413551169E-01  0.23511863507E-01  0.00000000000E+00 0.  1.
     999901    1    3    3    0    0  0.47665140445E-01  0.11598063009E+00  0.71931028133E-01  0.89179456434E+00  0.88000000000E+00 0. -1.
        -11    1    4    4    0    0 -0.17404616097E-01 -0.23258233913E-01 -0.14326873864E-01  0.32394236246E-01  0.51100000000E-03 0.  1.
         11    1    4    4    0    0 -0.23157180309E-01 -0.86103479700E-01 -0.36190603100E-01  0.96229335912E-01  0.51100000000E-03 0. -1.
</event>
<event>
 8    1  0.1114333E+005  0.1043930E+01  0.7957747E-01            NaN
         13   -1    0    0    0    0  0.00000000000E+00  0.00000000000E+00  0.74505805969E-08  0.10566000000E+00  0.10566000000E+00 0. -1.
     999900   -1    0    0    0    0 -0.00000000000E+00 -0.00000000000E+00 -0.74505805969E-08  0.93827000000E+00  0.93827000000E+00 0. -1.
     999902    2    1    2    0    0 -0.13029484184E-01 -0.14133782015E-01  0.13230401022E-01  0.10205938743E+01  0.10203270463E+01 0.  0.
     999903    2    3    3    0    0 -0.26541123282E-01 -0.83877164028E-01  0.98503525557E-01  0.13362250525E+00  0.20303189185E-01 0.  0.
         14    1    1    2    0    0  0.13029484184E-01  0.14133782015E-01 -0.13230401022E-01  0.23336125714E-01  0.00000000000E+00 0.  1.
     999901    1    3    3    0    0  0.13511639097E-01  0.69743382013E-01 -0.85273124535E-01  0.88697136904E+00  0.88000000000E+00 0. -1.
        -11    1    4    4    0    0 -0.20873490119E-01 -0.43736946218E-01  0.64686967195E-01  0.80828756641E-01  0.51100000000E-03 0. -1.
         11    1    4    4    0    0 -0.56676331623E-02 -0.40140217810E-01  0.33816558361E-01  0.52793748606E-01  0.51100000000E-03 0.  1.
</event>
<event>
 8    1  0.1114333E+005  0.1043930E+01  0.7957747E-01            NaN
         13   -1    0    0    0    0  0.00000000000E+00  0.00000000000E+00  0.74505805969E-08  0.10566000000E+00  0.10566000000E+00 0.  1.
     999900   -1    0    0    0    0 -0.00000000000E+00 -0.00000000000E+00 -0.74505805969E-08  0.93827000000E+00  0.93827000000E+00 0.  1.
     999902    2    1    2    0    0 -0.43090230020E-02  0.17443663565E-01  0.16898387229E-01  0.10192641416E+01  0.10189656451E+01 0.  0.
     999903    2    3    3    0    0  0.17097763476E-01  0.74115474740E-01 -0.10243303432E+00  0.12914620964E+00  0.20019486364E-01 0.  0.
         14    1    1    2    0    0  0.43090230020E-02 -0.17443663565E-01 -0.16898387229E-01  0.24665858362E-01  0.00000000000E+00 0. -1.
     999901    1    3    3    0    0 -0.21406786478E-01 -0.56671811175E-01  0.11933142155E+00  0.89011793199E+00  0.88000000000E+00 0. -1.
        -11    1    4    4    0    0  0.61557163465E-02  0.62040097128E-01 -0.81586799929E-01  0.10268170986E+00  0.51100000000E-03 0. -1.
         11    1    4    4    0    0  0.10942047130E-01  0.12075377612E-01 -0.20846234387E-01  0.26464499787E-01  0.51100000000E-03 0.  1.
</event>
<event>
 8    1  0.1114333E+005  0.1043930E+01  0.7957747E-01            NaN
         13   -1    0    0    0    0  0.00000000000E+00  0.00000000000E+00  0.74505805969E-08  0.10566000000E+00  0.10566000000E+00 0. -1.
     999900   -1    0    0    0    0 -0.00000000000E+00 -0.00000000000E+00 -0.74505805969E-08  0.93827000000E+00  0.93827000000E+00 0. -1.
     999902    2    1    2    0    0 -0.26005463231E-02 -0.21175934419E-01 -0.84763139384E-02  0.10209728456E+01  0.10207147106E+01 0.  0.
     999903    2    3    3    0    0  0.36983749649E-01  0.87858501816E-01 -0.86195880402E-01  0.12996456519E+00  0.19342810717E-01 0.  0.
         14    1    1    2    0    0  0.26005463231E-02  0.21175934419E-01  0.84763139384E-02  0.22957154390E-01  0.00000000000E+00 0.  1.
     999901    1    3    3    0    0 -0.39584295973E-01 -0.10903443623E+00  0.77719566463E-01  0.89100828042E+00  0.88000000000E+00 0. -1.
        -11    1    4    4    0    0  0.38024224261E-02  0.20325867286E-01 -0.28145729292E-01  0.34929106711E-01  0.51100000000E-03 0. -1.
         11    1    4    4    0    0  0.33181327223E-01  0.67532634530E-01 -0.58050151110E-01  0.95035458476E-01  0.51100000000E-03 0.  1.
</event>
<event>
 7    1  0.1114333E+005  0.1043930E+01  0.7957747E-01            NaN
         13   -1    0    0    0    0  0.00000000000E+00  0.00000000000E+00  0.74505805969E-08  0.10566000000E+00  0.10566000000E+00 0.  1.
     999900   -1    0    0    0    0 -0.00000000000E+00 -0.00000000000E+00 -0.74505805969E-08  0.93827000000E+00  0.93827000000E+00 0. -1.
     999903    2    1    2    0    0 -0.53177867595E-01  0.69515737292E-01 -0.73491310308E-01  0.11600804806E+00  0.19914095284E-01 0.  0.
         14    1    1    2    0    0 -0.13526908264E-02  0.15388779918E-01  0.38478473478E-01  0.41463685811E-01  0.00000000000E+00 0.  1.
     999901    1    1    2    0    0  0.54530558422E-01 -0.84904517210E-01  0.35012836830E-01  0.88645826613E+00  0.88000000000E+00 0.  1.
        -11    1    3    3    0    0 -0.42122117264E-01  0.39672218601E-01 -0.45283647146E-01  0.73478075039E-01  0.51100000000E-03 0. -1.
         11    1    3    3    0    0 -0.11055750331E-01  0.29843518691E-01 -0.28207663162E-01  0.42529973022E-01  0.51100000000E-03 0.  1.
</event>
<event>
 8    1  0.1114333E+005  0.1043930E+01  0.7957747E-01            NaN
         13   -1    0    0    0    0  0.00000000000E+00  0.00000000000E+00  0.74505805969E-08  0.10566000000E+00  0.10566000000E+00 0.  1.
     999900   -1    0    0    0    0 -0.00000000000E+00 -0.00000000000E+00 -0.74505805969E-08  0.93827000000E+00  0.93827000000E+00 0.  1.
     999902    2    1    2    0    0 -0.45297225107E-02  0.17822355716E-01 -0.14408940116E-01  0.10205682298E+01  0.10203008083E+01 0.  0.
     999903    2    3    3    0    0  0.12688890159E+00  0.19356538011E-01 -0.10950177088E-01  0.13080131008E+00  0.22662908647E-01 0.  0.
         14    1    1    2    0    0  0.45297225107E-02 -0.17822355716E-01  0.14408940116E-01  0.23361770150E-01  0.00000000000E+00 0.  1.
     999901    1    3    3    0    0 -0.13141862411E+00 -0.15341822948E-02 -0.34587630283E-02  0.88976691977E+00  0.88000000000E+00 0.  1.
        -11    1    4    4    0    0  0.99366154324E-01  0.69995681380E-02 -0.32789492163E-02  0.99667643738E-01  0.51100000000E-03 0. -1.
         11    1    4    4    0    0  0.27522747271E-01  0.12356969873E-01 -0.76712278718E-02  0.31133666341E-01  0.51100000000E-03 0.  1.
</event>
<event>
 8    1  0.1114333E+005  0.1043930E+01  0.7957747E-01            NaN
         13   -1    0    0    0    0  0.00000000000E+00  0.00000000000E+00  0.74505805969E-08  0.10566000000E+00  0.10566000000E+00 0.  1.
     999900   -1    0    0    0    0 -0.00000000000E+00 -0.00000000000E+00 -0.74505805969E-08  0.93827000000E+00  0.93827000000E+00 0.  1.
     999902    2    1    2    0    0 -0.27432771692E-02  0.14129488806E-01  0.17605116080E-01  0.10211899882E+01  0.10209367678E+01 0.  0.
     999903    2    3    3    0    0  0.90108551176E-01 -0.32083610030E-01  0.90635741664E-01  0.13209461381E+00  0.92325674782E-02 0.  0.
         14    1    1    2    0    0  0.27432771692E-02 -0.14129488806E-01 -0.17605116080E-01  0.22740011779E-01  0.00000000000E+00 0. -1.
     999901    1    3    3    0    0 -0.92851828345E-01  0.46213098836E-01 -0.73030625584E-01  0.88909537441E+00  0.88000000000E+00 0.  1.
        -11    1    4    4    0    0  0.14070487684E-01 -0.67890782928E-02  0.19035154043E-01  0.24630639825E-01  0.51100000000E-03 0.  1.
         11    1    4    4    0    0  0.76038063491E-01 -0.25294531737E-01  0.71600587621E-01  0.10746397398E+00  0.51100000000E-03 0. -1.
</event>
<event>
 8    1  0.1114333E+005  0.1043930E+01  0.7957747E-01            NaN
         13   -1    0    0    0    0  0.00000000000E+00  0.00000000000E+00  0.74505805969E-08  0.10566000000E+00  0.10566000000E+00 0. -1.
     999900   -1    0    0    0    0 -0.00000000000E+00 -0.00000000000E+00 -0.74505805969E-08  0.93827000000E+00  0.93827000000E+00 0.  1.
     999902    2    1    2    0    0 -0.19111213666E-01  0.66628378972E-02  0.14146639580E-01  0.10192366951E+01  0.10189375257E+01 0.  0.
     999903    2    3    3    0    0  0.16505544531E-02 -0.75224523352E-01  0.10476405391E+00  0.13055896568E+00  0.20215916622E-01 0.  0.
         14    1    1    2    0    0  0.19111213666E-01 -0.66628378972E-02 -0.14146639580E-01  0.24693304923E-01  0.00000000000E+00 0.  1.
     999901    1    3    3    0    0 -0.20761768119E-01  0.81887361250E-01 -0.90617414326E-01  0.88867772940E+00  0.88000000000E+00 0.  1.
        -11    1    4    4    0    0  0.10500141780E-01 -0.43262594443E-01  0.55130530528E-01  0.70862836329E-01  0.51100000000E-03 0. -1.
         11    1    4    4    0    0 -0.88495873268E-02 -0.31961928910E-01  0.49633523378E-01  0.59696129350E-01  0.51100000000E-03 0.  1.
</event>
<event>
 8    1  0.1114333E+005  0.1043930E+01  0.7957747E-01            NaN
         13   -1    0    0    0    0  0.00000000000E+00  0.00000000000E+00  0.74505805969E-08  0.10566000000E+00  0.10566000000E+00 0.  1.
     999900   -1    0    0    0    0 -0.00000000000E+00 -0.00000000000E+00 -0.74505805969E-08  0.93827000000E+00  0.93827000000E+00 0.  1.
     999902    2    1    2    0    0 -0.22269295935E-01  0.24966652022E-02  0.12758890765E-01  0.10181434886E+01  0.10178168888E+01 0.  0.
     999903    2    3    3    0    0 -0.91961061517E-01  0.25185982561E-01  0.88859745912E-01  0.13182351955E+00  0.19753868246E-01 0.  0.
         14    1    1    2    0    0  0.22269295935E-01 -0.24966652022E-02 -0.12758890765E-01  0.25786511437E-01  0.00000000000E+00 0. -1.
     999901    1    3    3    0    0  0.69691765582E-01 -0.22689317359E-01 -0.76100855148E-01  0.88631996901E+00  0.88000000000E+00 0.  1.
        -11    1    4    4    0    0 -0.78684302462E-01  0.15466560251E-01  0.79337801055E-01  0.11280594726E+00  0.51100000000E-03 0.  1.
         11    1    4    4    0    0 -0.13276759055E-01  0.97194223093E-02  0.95219448569E-02  0.19017572292E-01  0.51100000000E-03 0. -1.
</event>
<event>
 8    1  0.1114333E+005  0.1043930E+01  0.7957747E-01            NaN
         13   -1    0    0    0    0  0.00000000000E+00  0.00000000000E+00  0.74505805969E-08  0.10566000000E+00  0.10566000000E+00 0.  1.
     999900   -1    0    0    0    0 -0.00000000000E+00 -0.00000000000E+00 -0.74505805969E-08  0.93827000000E+00  0.93827000000E+00 0. -1.
     999902    2    1    2    0    0  0.69522854307E-02  0.15566541276E-02  0.22982535115E-01  0.10198685294E+01  0.10195846522E+01 0.  0.
     999903    2    3    3    0    0  0.74596528104E-01  0.66986768071E-01 -0.78790827067E-01  0.12901800291E+00  0.19641322361E-01 0.  0.
         14    1    1    2    0    0 -0.69522854307E-02 -0.15566541276E-02 -0.22982535115E-01  0.24061470551E-01  0.00000000000E+00 0. -1.
     999901    1    3    3    0    0 -0.67644242674E-01 -0.65430113944E-01  0.10177336218E+00  0.89085052653E+00  0.88000000000E+00 0.  1.
        -11    1    4    4    0    0  0.58408087230E-01  0.40385395597E-01 -0.54008220107E-01  0.89216779764E-01  0.51100000000E-03 0. -1.
         11    1    4    4    0    0  0.16188440875E-01  0.26601372474E-01 -0.24782606960E-01  0.39801223150E-01  0.51100000000E-03 0.  1.
</event>
<event>
 8    1  0.1114333E+005  0.1043930E+01  0.7957747E-01            NaN
         13   -1    0    0    0    0  0.00000000000E+00  0.00000000000E+00  0.74505805969E-08  0.10566000000E+00  0.10566000000E+00 0.  1.
     999900   -1    0    0    0    0 -0.00000000000E+00 -0.00000000000E+00 -0.74505805969E-08  0.93827000000E+00  0.93827000000E+00 0. -1.
     999902    2    1    2    0    0  0.42143642146E-02  0.65333656725E-02 -0.22630327493E-01  0.10200014093E+01  0.10197206958E+01 0.  0.
     999903    2    3    3    0    0  0.49665566439E-01  0.10855159666E+00 -0.53777102943E-01  0.13239583646E+00  0.19661207590E-01 0.  0.
         14    1    1    2    0    0 -0.42143642146E-02 -0.65333656725E-02  0.22630327493E-01  0.23928590748E-01  0.00000000000E+00 0.  1.
     999901    1    3    3    0    0 -0.45451202225E-01 -0.10201823098E+00  0.31146775450E-01  0.88760557280E+00  0.88000000000E+00 0.  1.
        -11    1    4    4    0    0  0.26803767358E-01  0.50046825308E-01 -0.35562841383E-01  0.66993309190E-01  0.51100000000E-03 0. -1.
         11    1    4    4    0    0  0.22861799081E-01  0.58504771348E-01 -0.18214261559E-01  0.65402527267E-01  0.51100000000E-03 0.  1.
</event>
<event>
 8    1  0.1114333E+005  0.1043930E+01  0.7957747E-01            NaN
         13   -1    0    0    0    0  0.00000000000E+00  0.00000000000E+00  0.74505805969E-08  0.10566000000E+00  0.10566000000E+00 0. -1.
     999900   -1    0    0    0    0 -0.00000000000E+00 -0.00000000000E+00 -0.74505805969E-08  0.93827000000E+00  0.93827000000E+00 0. -1.
     999902    2    1    2    0    0  0.49519452758E-02 -0.18447418369E-01  0.13960069105E-01  0.10202717554E+01  0.10199974227E+01 0.  0.
     999903    2    3    3    0    0  0.61244584839E-01  0.29527298713E-01 -0.10762991022E+00  0.12883776583E+00  0.19804337649E-01 0.  0.
         14    1    1    2    0    0 -0.49519452758E-02  0.18447418369E-01 -0.13960069105E-01  0.23658244565E-01  0.00000000000E+00 0.  1.
     999901    1    3    3    0    0 -0.56292639563E-01 -0.47974717082E-01  0.12158997932E+00  0.89143398960E+00  0.88000000000E+00 0.  1.
        -11    1    4    4    0    0  0.23644626618E-01  0.15897440357E-01 -0.61506972285E-01  0.67787651814E-01  0.51100000000E-03 0.  1.
         11    1    4    4    0    0  0.37599958221E-01  0.13629858356E-01 -0.46122937932E-01  0.61050114018E-01  0.51100000000E-03 0. -1.
</event>
<event>
 8    1  0.1114333E+005  0.1043930E+01  0.7957747E-01            NaN
         13   -1    0    0    0    0  0.00000000000E+00  0.00000000000E+00  0.74505805969E-08  0.10566000000E+00  0.10566000000E+00 0.  1.
     999900   -1    0    0    0    0 -0.00000000000E+00 -0.00000000000E+00 -0.74505805969E-08  0.93827000000E+00  0.93827000000E+00 0. -1.
     999902    2    1    2    0    0 -0.20655675758E-01 -0.65435530620E-02  0.97835394878E-02  0.10201562188E+01  0.10198791684E+01 0.  0.
     999903    2    3    3    0    0  0.78573181743E-01 -0.33897194491E-01 -0.93334624048E-01  0.12817643006E+00  0.19876631861E-01 0.  0.
         14    1    1    2    0    0  0.20655675758E-01  0.65435530620E-02 -0.97835394878E-02  0.23773781201E-01  0.00000000000E+00 0. -1.
     999901    1    3    3    0    0 -0.99228857501E-01  0.27353641429E-01  0.10311816354E+00  0.89197978873E+00  0.88000000000E+00 0.  1.
        -11    1    4    4    0    0  0.37162767262E-01 -0.26346864734E-01 -0.44210101640E-01  0.63482460254E-01  0.51100000000E-03 0.  1.
         11    1    4    4    0    0  0.41410414481E-01 -0.75503297569E-02 -0.49124522408E-01  0.64693969810E-01  0.51100000000E-03 0. -1.
</event>
<event>
 8    1  0.1114333E+005  0.1043930E+01  0.7957747E-01            NaN
         13   -1    0    0    0    0  0.00000000000E+00  0.00000000000E+00  0.74505805969E-08  0.10566000000E+00  0.10566000000E+00 0.  1.
     999900   -1    0    0    0    0 -0.00000000000E+00 -0.00000000000E+00 -0.74505805969E-08  0.93827000000E+00  0.93827000000E+00 0. -1.
     999902    2    1    2    0    0 -0.14051356660E-01 -0.98938543932E-02  0.14579000817E-01  0.10213938902E+01  0.10211452408E+01 0.  0.
     999903    2    3    3    0    0  0.16392739231E-01 -0.27973900459E-01 -0.12400313026E+00  0.12984538449E+00  0.20779474312E-01 0.  0.
         14    1    1    2    0    0  0.14051356660E-01  0.98938543932E-02 -0.14579000817E-01  0.22536109770E-01  0.00000000000E+00 0. -1.
     999901    1    3    3    0    0 -0.30444095891E-01  0.18080046066E-01  0.13858213107E+00  0.89154850574E+00  0.88000000000E+00 0.  1.
        -11    1    4    4    0    0  0.10267958065E-01 -0.46714086678E-02 -0.67189121830E-01  0.68131433531E-01  0.51100000000E-03 0.  1.
         11    1    4    4    0    0  0.61247811662E-02 -0.23302491791E-01 -0.56814008427E-01  0.61713950956E-01  0.51100000000E-03 0. -1.
</event>
<event>
 8    1  0.1114333E+005  0.1043930E+01  0.7957747E-01            NaN
         13   -1    0    0    0    0  0.00000000000E+00  0.00000000000E+00  0.74505805969E-08  0.10566000000E+00  0.10566000000E+00 0.  1.
     999900   -1    0    0    0    0 -0.00000000000E+00 -0.00000000000E+00 -0.74505805969E-08  0.93827000000E+00  0.93827000000E+00 0. -1.
     999902    2    1    2    0    0  0.15547563118E-01 -0.61857287312E-03  0.18271015300E-01  0.10199312635E+01  0.10196488822E+01 0.  0.
     999903    2    3    3    0    0  0.10109685431E+00  0.77718187587E-01 -0.24334427315E-01  0.13129716955E+00  0.19649217493E-01 0.  0.
         14    1    1    2    0    0 -0.15547563118E-01  0.61857287312E-03 -0.18271015300E-01  0.23998736455E-01  0.00000000000E+00 0. -1.
     999901    1    3    3    0    0 -0.85549291187E-01 -0.78336760461E-01  0.42605442615E-01  0.88863409399E+00  0.88000000000E+00 0. -1.
        -11    1    4    4    0    0  0.23463026814E-01  0.16077391693E-01  0.26188082763E-02  0.28567734049E-01  0.51100000000E-03 0.  1.
         11    1    4    4    0    0  0.77633827491E-01  0.61640795895E-01 -0.26953235591E-01  0.10272943551E+00  0.51100000000E-03 0. -1.
</event>
<event>
 8    1  0.1114333E+005  0.1043930E+01  0.7957747E-01            NaN
         13   -1    0    0    0    0  0.00000000000E+00  0.00000000000E+00  0.74505805969E-08  0.10566000000E+00  0.10566000000E+00 0.  1.
     999900   -1    0    0    0    0 -0.00000000000E+00 -0.00000000000E+00 -0.74505805969E-08  0.93827000000E+00  0.93827000000E+00 0.  1.
     999902    2    1    2    0    0 -0.65967485362E-03 -0.22245124088E-01  0.68864362361E-02  0.10206339978E+01  0.10203680971E+01 0.  0.
     999903    2    3    3    0    0  0.53548781430E-01  0.10925597352E+00 -0.36274315712E-01  0.12816890269E+00  0.17524322918E-01 0.  0.
         14    1    1    2    0    0  0.65967485362E-03  0.22245124088E-01 -0.68864362361E-02  0.23296002246E-01  0.00000000000E+00 0. -1.
     999901    1    3    3    0    0 -0.54208456284E-01 -0.13150109761E+00  0.43160751948E-01  0.89246509507E+00  0.88000000000E+00 0. -1.
        -11    1    4    4    0    0  0.38064559434E-01  0.84233711822E-01 -0.20135422895E-01  0.94604044672E-01  0.51100000000E-03 0.  1.
         11    1    4    4    0    0  0.15484221997E-01  0.25022261695E-01 -0.16138892817E-01  0.33564858015E-01  0.51100000000E-03 0. -1.
</event>
<event>
 8    1  0.1114333E+005  0.1043930E+01  0.7957747E-01            NaN
         13   -1    0    0    0    0  0.00000000000E+00  0.00000000000E+00  0.74505805969E-08  0.10566000000E+00  0.10566000000E+00 0. -1.
     999900   -1    0    0    0    0 -0.00000000000E+00 -0.00000000000E+00 -0.74505805969E-08  0.93827000000E+00  0.93827000000E+00 0. -1.
     999902    2    1    2    0    0  0.19647881844E-01 -0.55612300647E-02 -0.11396633789E-01  0.10205451801E+01  0.10202772245E+01 0.  0.
     999903    2    3    3    0    0  0.69867322249E-02 -0.78158488191E-01  0.10225719561E+00  0.13018128845E+00  0.18250208347E-01 0.  0.
         14    1    1    2    0    0 -0.19647881844E-01  0.55612300647E-02  0.11396633789E-01  0.23384819916E-01  0.00000000000E+00 0. -1.
     999901    1    3    3    0    0  0.12661149619E-01  0.72597258126E-01 -0.11365382940E+00  0.89036389164E+00  0.88000000000E+00 0. -1.
        -11    1    4    4    0    0 -0.32794787419E-02 -0.34996656253E-02  0.96150023613E-02  0.10756952715E-01  0.51100000000E-03 0. -1.
         11    1    4    4    0    0  0.10266210967E-01 -0.74658822565E-01  0.92642193245E-01  0.11942433573E+00  0.51100000000E-03 0.  1.
</event>
<event>
 8    1  0.1114333E+005  0.1043930E+01  0.7957747E-01            NaN
         13   -1    0    0    0    0  0.00000000000E+00  0.00000000000E+00  0.74505805969E-08  0.10566000000E+00  0.10566000000E+00 0.  1.
     999900   -1    0    0    0    0 -0.00000000000E+00 -0.00000000000E+00 -0.74505805969E-08  0.93827000000E+00  0.93827000000E+00 0. -1.
     999902    2    1    2    0    0  0.96550044011E-04 -0.20525420950E-01  0.95298682606E-02  0.10212999179E+01  0.10210491671E+01 0.  0.
     999903    2    3    3    0    0 -0.41600426056E-01  0.24972484850E-01  0.12151755125E+00  0.13205870293E+00  0.17853999817E-01 0.  0.
         14    1    1    2    0    0 -0.96550044011E-04  0.20525420950E-01 -0.95298682606E-02  0.22630082107E-01  0.00000000000E+00 0. -1.
     999901    1    3    3    0    0  0.41696976100E-01 -0.45497905800E-01 -0.11198768299E+00  0.88924121496E+00  0.88000000000E+00 0. -1.
        -11    1    4    4    0    0 -0.15619545317E-01  0.71564208738E-04  0.33444480739E-01  0.36915711157E-01  0.51100000000E-03 0. -1.
         11    1    4    4    0    0 -0.25980880739E-01  0.24900920641E-01  0.88073070513E-01  0.95142991772E-01  0.51100000000E-03 0.  1.
</event>
<event>
 8    1  0.1114333E+005  0.1043930E+01  0.7957747E-01            NaN
         13   -1    0    0    0    0  0.00000000000E+00  0.00000000000E+00  0.74505805969E-08  0.10566000000E+00  0.10566000000E+00 0.  1.
     999900   -1    0    0    0    0 -0.00000000000E+00 -0.00000000000E+00 -0.74505805969E-08  0.93827000000E+00  0.93827000000E+00 0. -1.
     999902    2    1    2    0    0 -0.11993915523E-01  0.10250805684E-01  0.15886693006E-01  0.10215398227E+01  0.10212944185E+01 0.  0.
     999903    2    3    3    0    0 -0.10227254237E-01  0.26575472011E-01  0.12917616897E+00  0.13412553317E+00  0.22188365775E-01 0.  0.
         14    1    1    2    0    0  0.11993915523E-01 -0.10250805684E-01 -0.15886693006E-01  0.22390177342E-01  0.00000000000E+00 0. -1.
     999901    1    3    3    0    0 -0.17666612867E-02 -0.16324666327E-01 -0.11328947597E+00  0.88741428949E+00  0.88000000000E+00 0. -1.
        -11    1    4    4    0    0  0.25673705464E-02  0.19906407684E-01  0.93644599325E-01  0.95772796566E-01  0.51100000000E-03 0. -1.
         11    1    4    4    0    0 -0.12794624783E-01  0.66690643272E-02  0.35531569647E-01  0.38352736603E-01  0.51100000000E-03 0.  1.
</event>
<event>
 8    1  0.1114333E+005  0.1043930E+01  0.7957747E-01            NaN
         13   -1    0    0    0    0  0.00000000000E+00  0.00000000000E+00  0.74505805969E-08  0.10566000000E+00  0.10566000000E+00 0. -1.
     999900   -1    0    0    0    0 -0.00000000000E+00 -0.00000000000E+00 -0.74505805969E-08  0.93827000000E+00  0.93827000000E+00 0.  1.
     999902    2    1    2    0    0  0.83918185495E-02 -0.21426815818E-01 -0.19352905039E-02  0.10208372218E+01  0.10205759928E+01 0.  0.
     999903    2    3    3    0    0 -0.12054317378E+00 -0.16789854838E-01  0.42141221428E-01  0.13033821982E+00  0.19990323488E-01 0.  0.
         14    1    1    2    0    0 -0.83918185495E-02  0.21426815818E-01  0.19352905039E-02  0.23092778179E-01  0.00000000000E+00 0. -1.
     999901    1    3    3    0    0  0.12893499233E+00 -0.46369609806E-02 -0.44076511932E-01  0.89049900200E+00  0.88000000000E+00 0. -1.
        -11    1    4    4    0    0 -0.29446936432E-01 -0.37641480660E-02  0.14706650946E-02  0.29727341837E-01  0.51100000000E-03 0. -1.
         11    1    4    4    0    0 -0.91096237347E-01 -0.13025706772E-01  0.40670556334E-01  0.10061087799E+00  0.51100000000E-03 0.  1.
</event>
<event>
 8    1  0.1114333E+005  0.1043930E+01  0.7957747E-01            NaN
         13   -1    0    0    0    0  0.00000000000E+00  0.00000000000E+00  0.74505805969E-08  0.10566000000E+00  0.10566000000E+00 0.  1.
     999900   -1    0    0    0    0 -0.00000000000E+00 -0.00000000000E+00 -0.74505805969E-08  0.93827000000E+00  0.93827000000E+00 0. -1.
     999902    2    1    2    0    0  0.10425703499E-01 -0.21018814011E-01 -0.15164951130E-02  0.10204186072E+01  0.10201477090E+01 0.  0.
     999903    2    3    3    0    0  0.65182444752E-02  0.77193575500E-01 -0.10142123911E+00  0.12932832017E+00  0.20933491052E-01 0.  0.
         14    1    1    2    0    0 -0.10425703499E-01  0.21018814011E-01  0.15164951130E-02  0.23511392841E-01  0.00000000000E+00 0.  1.
     999901    1    3    3    0    0  0.39074590235E-02 -0.98212389511E-01  0.99904743992E-01  0.89109028699E+00  0.88000000000E+00 0.  1.
        -11    1    4    4    0    0  0.26031739764E-02  0.64562726417E-01 -0.70165499636E-01  0.95386480265E-01  0.51100000000E-03 0. -1.
         11    1    4    4    0    0  0.39150704987E-02  0.12630849082E-01 -0.31255739470E-01  0.33941839908E-01  0.51100000000E-03 0.  1.
</event>
<event>
 8    1  0.1114333E+005  0.1043930E+01  0.7957747E-01            NaN
         13   -1    0    0    0    0  0.00000000000E+00  0.00000000000E+00  0.74505805969E-08  0.10566000000E+00  0.10566000000E+00 0. -1.
     999900   -1    0    0    0    0 -0.00000000000E+00 -0.00000000000E+00 -0.74505805969E-08  0.93827000000E+00  0.93827000000E+00 0. -1.
     999902    2    1    2    0    0 -0.90307968548E-02  0.67921055421E-03 -0.21831994504E-01  0.10202941670E+01  0.10200203599E+01 0.  0.
     999903    2    3    3    0    0  0.24403300877E-01  0.11370795433E+00 -0.58682475769E-01  0.13167090947E+00  0.19198319380E-01 0.  0.
         14    1    1    2    0    0  0.90307968548E-02 -0.67921055421E-03  0.21831994504E-01  0.23635833026E-01  0.00000000000E+00 0. -1.
     999901    1    3    3    0    0 -0.33434097732E-01 -0.11302874377E+00  0.36850481265E-01  0.88862325751E+00  0.88000000000E+00 0.  1.
        -11    1    4    4    0    0  0.13931395339E-01  0.57447443195E-01 -0.40366945054E-01  0.71582427171E-01  0.51100000000E-03 0.  1.
         11    1    4    4    0    0  0.10471905538E-01  0.56260511132E-01 -0.18315530715E-01  0.60088482298E-01  0.51100000000E-03 0. -1.
</event>
<event>
 8    1  0.1114333E+005  0.1043930E+01  0.7957747E-01            NaN
         13   -1    0    0    0    0  0.00000000000E+00  0.00000000000E+00  0.74505805969E-08  0.10566000000E+00  0.10566000000E+00 0.  1.
     999900   -1    0    0    0    0 -0.00000000000E+00 -0.00000000000E+00 -0.74505805969E-08  0.93827000000E+00  0.93827000000E+00 0.  1.
     999902    2    1    2    0    0 -0.13150586453E-01  0.15036125428E-01 -0.44495565946E-02  0.10234648700E+01  0.10232602399E+01 0.  0.
     999903    2    3    3    0    0 -0.84487027094E-01  0.54805008221E-01 -0.88793020346E-01  0.13566744284E+00  0.19488661081E-01 0.  0.
         14    1    1    2    0    0  0.13150586453E-01 -0.15036125428E-01  0.44495565946E-02  0.20465129998E-01  0.00000000000E+00 0.  1.
     999901    1    3    3    0    0  0.71336440640E-01 -0.39768882793E-01  0.84343463751E-01  0.88779742716E+00  0.88000000000E+00 0. -1.
        -11    1    4    4    0    0 -0.34376817413E-01  0.15240183776E-01 -0.42819102858E-01  0.56989169739E-01  0.51100000000E-03 0.  1.
         11    1    4    4    0    0 -0.50110209680E-01  0.39564824445E-01 -0.45973917488E-01  0.78678273098E-01  0.51100000000E-03 0. -1.
</event>
<event>
 8    1  0.1114333E+005  0.1043930E+01  0.7957747E-01            NaN
         13   -1    0    0    0    0  0.00000000000E+00  0.00000000000E+00  0.74505805969E-08  0.10566000000E+00  0.10566000000E+00 0.  1.
     999900   -1    0    0    0    0 -0.00000000000E+00 -0.00000000000E+00 -0.74505805969E-08  0.93827000000E+00  0.93827000000E+00 0. -1.
     999902    2    1    2    0    0 -0.20662178261E-01  0.45183758133E-02  0.96399411377E-02  0.10206862956E+01  0.10204216012E+01 0.  0.
     999903    2    3    3    0    0  0.11506020423E+00  0.43785068047E-01 -0.30946624534E-01  0.12849253436E+00  0.19916200298E-01 0.  0.
         14    1    1    2    0    0  0.20662178261E-01 -0.45183758133E-02 -0.96399411377E-02  0.23243704430E-01  0.00000000000E+00 0.  1.
     999901    1    3    3    0    0 -0.13572238249E+00 -0.39266692234E-01  0.40586565672E-01  0.89219376121E+00  0.88000000000E+00 0.  1.
        -11    1    4    4    0    0  0.96047763749E-01  0.28468818253E-01 -0.22710697892E-01  0.10272138752E+00  0.51100000000E-03 0.  1.
         11    1    4    4    0    0  0.19012440484E-01  0.15316249794E-01 -0.82359266425E-02  0.25771146842E-01  0.51100000000E-03 0. -1.
</event>
<event>
 8    1  0.1114333E+005  0.1043930E+01  0.7957747E-01            NaN
         13   -1    0    0    0    0  0.00000000000E+00  0.00000000000E+00  0.74505805969E-08  0.10566000000E+00  0.10566000000E+00 0.  1.
     999900   -1    0    0    0    0 -0.00000000000E+00 -0.00000000000E+00 -0.74505805969E-08  0.93827000000E+00  0.93827000000E+00 0.  1.
     999902    2    1    2    0    0  0.23115730236E-01  0.24694372144E-02 -0.42248680571E-02  0.10203019528E+01  0.10200283282E+01 0.  0.
     999903    2    3    3    0    0  0.14351267540E-01 -0.12831406614E+00 -0.63290552861E-02  0.13059100639E+00  0.18533633203E-01 0.  0.
         14    1    1    2    0    0 -0.23115730236E-01 -0.24694372144E-02  0.42248680571E-02  0.23628047202E-01  0.00000000000E+00 0.  1.
     999901    1    3    3    0    0  0.87644626957E-02  0.13078350335E+00  0.21041872290E-02  0.88971094641E+00  0.88000000000E+00 0.  1.
        -11    1    4    4    0    0  0.87191012891E-02 -0.79745862575E-01 -0.12906265169E-01  0.81254280667E-01  0.51100000000E-03 0.  1.
         11    1    4    4    0    0  0.56321662509E-02 -0.48568203564E-01  0.65772098825E-02  0.49336725722E-01  0.51100000000E-03 0. -1.
</event>
<event>
 8    1  0.1114333E+005  0.1043930E+01  0.7957747E-01            NaN
         13   -1    0    0    0    0  0.00000000000E+00  0.00000000000E+00  0.74505805969E-08  0.10566000000E+00  0.10566000000E+00 0. -1.
     999900   -1    0    0    0    0 -0.00000000000E+00 -0.00000000000E+00 -0.74505805969E-08  0.93827000000E+00  0.93827000000E+00 0.  1.
     999902    2    1    2    0    0  0.49879918233E-02  0.21959691116E-01  0.85404242121E-02  0.10198458363E+01  0.10195614169E+01 0.  0.
     999903    2    3    3    0    0 -0.75522532482E-01  0.84467243746E-01  0.65096897255E-01  0.13215908224E+00  0.19749653347E-01 0.  0.
         14    1    1    2    0    0 -0.49879918233E-02 -0.21959691116E-01 -0.85404242121E-02  0.24084163719E-01  0.00000000000E+00 0.  1.
     999901    1    3    3    0    0  0.80510524305E-01 -0.62507552630E-01 -0.56556473043E-01  0.88768675404E+00  0.88000000000E+00 0.  1.
        -11    1    4    4    0    0 -0.15653368450E-01  0.72881612404E-02  0.11350394111E-01  0.20669731629E-01  0.51100000000E-03 0.  1.
         11    1    4    4    0    0 -0.59869164031E-01  0.77179082505E-01  0.53746503144E-01  0.11148935061E+00  0.51100000000E-03 0. -1.
</event>
<event>
 8    1  0.1114333E+005  0.1043930E+01  0.7957747E-01            NaN
         13   -1    0    0    0    0  0.00000000000E+00  0.00000000000E+00  0.74505805969E-08  0.10566000000E+00  0.10566000000E+00 0. -1.
     999900   -1    0    0    0    0 -0.00000000000E+00 -0.00000000000E+00 -0.74505805969E-08  0.93827000000E+00  0.93827000000E+00 0. -1.
     999902    2    1    2    0    0  0.76179894354E-02 -0.20920117609E-01 -0.24200851472E-02  0.10215348689E+01  0.10212893549E+01 0.  0.
     999903    2    3    3    0    0  0.11517880654E+00  0.52544314167E-01  0.29033120784E-01  0.13139125339E+00  0.19841293771E-01 0.  0.
         14    1    1    2    0    0 -0.76179894354E-02  0.20920117609E-01  0.24200851472E-02  0.22395131076E-01  0.00000000000E+00 0. -1.
     999901    1    3    3    0    0 -0.10756081710E+00 -0.73464431776E-01 -0.31453205931E-01  0.89014361553E+00  0.88000000000E+00 0.  1.
        -11    1    4    4    0    0  0.43467173753E-01  0.16673635716E-01  0.14007625890E-02  0.46579271987E-01  0.51100000000E-03 0.  1.
         11    1    4    4    0    0  0.71711632784E-01  0.35870678451E-01  0.27632358195E-01  0.84811981403E-01  0.51100000000E-03 0. -1.
</event>
<event>
 8    1  0.1114333E+005  0.1043930E+01  0.7957747E-01            NaN
         13   -1    0    0    0    0  0.00000000000E+00  0.00000000000E+00  0.74505805969E-08  0.10566000000E+00  0.10566000000E+00 0. -1.
     999900   -1    0    0    0    0 -0.00000000000E+00 -0.00000000000E+00 -0.74505805969E-08  0.93827000000E+00  0.93827000000E+00 0.  1.
     999902    2    1    2    0    0 -0.13633759229E-02 -0.22250771282E-01  0.85494917524E-02  0.10200542921E+01  0.10197748327E+01 0.  0.
     999903    2    3    3    0    0  0.12318499008E+00  0.30234113359E-01 -0.60205953428E-02  0.12961662109E+00  0.25991873768E-01 0.  0.
         14    1    1    2    0    0  0.13633759229E-02  0.22250771282E-01 -0.85494917524E-02  0.23875707860E-01  0.00000000000E+00 0.  1.
     999901    1    3    3    0    0 -0.12454836601E+00 -0.52484884641E-01  0.14570087095E-01  0.89043767105E+00  0.88000000000E+00 0.  1.
        -11    1    4    4    0    0  0.71841481886E-01  0.23793176201E-01  0.77242271494E-02  0.76073901959E-01  0.51100000000E-03 0.  1.
         11    1    4    4    0    0  0.51343508197E-01  0.64409371580E-02 -0.13744822492E-01  0.53542719129E-01  0.51100000000E-03 0. -1.
</event>
<event>
 8    1  0.1114333E+005  0.1043930E+01  0.7957747E-01            NaN
         13   -1    0    0    0    0  0.00000000000E+00  0.00000000000E+00  0.74505805969E-08  0.10566000000E+00  0.10566000000E+00 0.  1.
     999900   -1    0    0    0    0 -0.00000000000E+00 -0.00000000000E+00 -0.74505805969E-08  0.93827000000E+00  0.93827000000E+00 0. -1.
     999902    2    1    2    0    0  0.17450262381E-01  0.14277095317E-01  0.64967782457E-02  0.10204660865E+01  0.10201962941E+01 0.  0.
     999903    2    3    3    0    0  0.12786898675E-01  0.52444873424E-01 -0.11773984382E+00  0.13090818256E+00  0.18981883785E-01 0.  0.
         14    1    1    2    0    0 -0.17450262381E-01 -0.14277095317E-01 -0.64967782457E-02  0.23463913472E-01  0.00000000000E+00 0. -1.
     999901    1    3    3    0    0  0.46633637053E-02 -0.38167778107E-01  0.12423662207E+00  0.88955790397E+00  0.88000000000E+00 0.  1.
        -11    1    4    4    0    0  0.35833075975E-02  0.40122644361E-01 -0.70179428310E-01  0.80920207382E-01  0.51100000000E-03 0.  1.
         11    1    4    4    0    0  0.92035910780E-02  0.12322229063E-01 -0.47560415512E-01  0.49987975179E-01  0.51100000000E-03 0. -1.
</event>
<event>
 8    1  0.1114333E+005  0.1043930E+01  0.7957747E-01            NaN
         13   -1    0    0    0    0  0.00000000000E+00  0.00000000000E+00  0.74505805969E-08  0.10566000000E+00  0.10566000000E+00 0. -1.
     999900   -1    0    0    0    0 -0.00000000000E+00 -0.00000000000E+00 -0.74505805969E-08  0.93827000000E+00  0.93827000000E+00 0.  1.
     999902    2    1    2    0    0 -0.88613782975E-02  0.16217963937E-01  0.11651638544E-01  0.10220826418E+01  0.10218491178E+01 0.  0.
     999903    2    3    3    0    0  0.43949996480E-02 -0.55424979252E-02 -0.12879653791E+00  0.13058113337E+00  0.20318683741E-01 0.  0.
         14    1    1    2    0    0  0.88613782975E-02 -0.16217963937E-01 -0.11651638544E-01  0.21847358201E-01  0.00000000000E+00 0.  1.
     999901    1    3    3    0    0 -0.13256377945E-01  0.21760461862E-01  0.14044817646E+00  0.89150150843E+00  0.88000000000E+00 0. -1.
        -11    1    4    4    0    0 -0.63556739044E-02  0.89089567929E-03 -0.77789946856E-01  0.78055910979E-01  0.51100000000E-03 0.  1.
         11    1    4    4    0    0  0.10750673552E-01 -0.64333936045E-02 -0.51006591058E-01  0.52525222393E-01  0.51100000000E-03 0. -1.
</event>
<event>
 8    1  0.1114333E+005  0.1043930E+01  0.7957747E-01            NaN
         13   -1    0    0    0    0  0.00000000000E+00  0.00000000000E+00  0.74505805969E-08  0.10566000000E+00  0.10566000000E+00 0. -1.
     999900   -1    0    0    0    0 -0.00000000000E+00 -0.00000000000E+00 -0.74505805969E-08  0.93827000000E+00  0.93827000000E+00 0.  1.
     999902    2    1    2    0    0 -0.10082252090E-01 -0.22404972223E-01  0.80299470015E-03  0.10193479051E+01  0.10190514571E+01 0.  0.
     999903    2    3    3    0    0  0.77881351941E-01  0.22539774197E-01  0.97949007418E-01  0.12850842821E+00  0.18624222528E-01 0.  0.
         14    1    1    2    0    0  0.10082252090E-01  0.22404972223E-01 -0.80299470015E-03  0.24582094866E-01  0.00000000000E+00 0.  1.
     999901    1    3    3    0    0 -0.87963604032E-01 -0.44944746420E-01 -0.97146012718E-01  0.89083947693E+00  0.88000000000E+00 0.  1.
        -11    1    4    4    0    0  0.46206462111E-01  0.15110903172E-01  0.72062163587E-01  0.86928666603E-01  0.51100000000E-03 0. -1.
         11    1    4    4    0    0  0.31674889830E-01  0.74288710251E-02  0.25886843831E-01  0.41579761603E-01  0.51100000000E-03 0.  1.
</event>
<event>
 8    1  0.1114333E+005  0.1043930E+01  0.7957747E-01            NaN
         13   -1    0    0    0    0  0.00000000000E+00  0.00000000000E+00  0.74505805969E-08  0.10566000000E+00  0.10566000000E+00 0.  1.
     999900   -1    0    0    0    0 -0.00000000000E+00 -0.00000000000E+00 -0.74505805969E-08  0.93827000000E+00  0.93827000000E+00 0.  1.
     999902    2    1    2    0    0  0.22384536415E-01  0.28908439562E-02  0.48659277649E-02  0.10208410047E+01  0.10205798623E+01 0.  0.
     999903    2    3    3    0    0  0.12761143633E+00  0.12517122559E-01  0.34288737082E-01  0.13403151707E+00  0.18637946209E-01 0.  0.
         14    1    1    2    0    0 -0.22384536415E-01 -0.28908439562E-02 -0.48659277649E-02  0.23088995264E-01  0.00000000000E+00 0. -1.
     999901    1    3    3    0    0 -0.10522689991E+00 -0.96262786028E-02 -0.29422809318E-01  0.88680948767E+00  0.88000000000E+00 0.  1.
        -11    1    4    4    0    0  0.46792496941E-01  0.12719856544E-01  0.16963086471E-01  0.51374506753E-01  0.51100000000E-03 0. -1.
         11    1    4    4    0    0  0.80818939386E-01 -0.20273398471E-03  0.17325650612E-01  0.82657010318E-01  0.51100000000E-03 0.  1.
</event>
<event>
 8    1  0.1114333E+005  0.1043930E+01  0.7957747E-01            NaN
         13   -1    0    0    0    0  0.00000000000E+00  0.00000000000E+00  0.74505805969E-08  0.10566000000E+00  0.10566000000E+00 0. -1.
     999900   -1    0    0    0    0 -0.00000000000E+00 -0.00000000000E+00 -0.74505805969E-08  0.93827000000E+00  0.93827000000E+00 0. -1.
     999902    2    1    2    0    0 -0.33685522826E-02  0.87137621625E-02  0.21249050388E-01  0.10207179571E+01  0.10204539916E+01 0.  0.
     999903    2    3    3    0    0  0.30352519545E-01  0.35016018532E-01  0.12390436056E+00  0.13371906636E+00  0.19521812052E-01 0.  0.
         14    1    1    2    0    0  0.33685522826E-02 -0.87137621625E-02 -0.21249050388E-01  0.23212042950E-01  0.00000000000E+00 0.  1.
     999901    1    3    3    0    0 -0.33721071828E-01 -0.26302256369E-01 -0.10265531017E+00  0.88699889069E+00  0.88000000000E+00 0. -1.
        -11    1    4    4    0    0  0.18866796674E-01  0.25120651505E-01  0.56700046784E-01  0.64824066326E-01  0.51100000000E-03 0.  1.
         11    1    4    4    0    0  0.11485722871E-01  0.98953670268E-02  0.67204313779E-01  0.68895000036E-01  0.51100000000E-03 0. -1.
</event>
<event>
 8    1  0.1114333E+005  0.1043930E+01  0.7957747E-01            NaN
         13   -1    0    0    0    0  0.00000000000E+00  0.00000000000E+00  0.74505805969E-08  0.10566000000E+00  0.10566000000E+00 0. -1.
     999900   -1    0    0    0    0 -0.00000000000E+00 -0.00000000000E+00 -0.74505805969E-08  0.93827000000E+00  0.93827000000E+00 0.  1.
     999902    2    1    2    0    0  0.23259303802E-01 -0.13529306085E-02  0.39946496274E-02  0.10202914116E+01  0.10200175399E+01 0.  0.
     999903    2    3    3    0    0  0.37406906548E-02  0.10172065967E+00 -0.78868502926E-01  0.13019510036E+00  0.19220770920E-01 0.  0.
         14    1    1    2    0    0 -0.23259303802E-01  0.13529306085E-02 -0.39946496274E-02  0.23638588373E-01  0.00000000000E+00 0.  1.
     999901    1    3    3    0    0  0.19518613148E-01 -0.10307359028E+00  0.82863152553E-01  0.89009631126E+00  0.88000000000E+00 0. -1.
        -11    1    4    4    0    0  0.32495507097E-02  0.68886065202E-01 -0.64215193027E-01  0.94232169111E-01  0.51100000000E-03 0. -1.
         11    1    4    4    0    0  0.49113994503E-03  0.32834594469E-01 -0.14653309899E-01  0.35962931254E-01  0.51100000000E-03 0.  1.
</event>
<event>
 8    1  0.1114333E+005  0.1043930E+01  0.7957747E-01            NaN
         13   -1    0    0    0    0  0.00000000000E+00  0.00000000000E+00  0.74505805969E-08  0.10566000000E+00  0.10566000000E+00 0. -1.
     999900   -1    0    0    0    0 -0.00000000000E+00 -0.00000000000E+00 -0.74505805969E-08  0.93827000000E+00  0.93827000000E+00 0. -1.
     999902    2    1    2    0    0  0.78939400106E-02  0.19973867440E-01  0.58586331120E-02  0.10216680762E+01  0.10214255062E+01 0.  0.
     999903    2    3    3    0    0 -0.61449279556E-02 -0.29077075579E-02 -0.12889046119E+00  0.13100653852E+00  0.22444314356E-01 0.  0.
         14    1    1    2    0    0 -0.78939400106E-02 -0.19973867440E-01 -0.58586331120E-02  0.22261923801E-01  0.00000000000E+00 0.  1.
     999901    1    3    3    0    0  0.14038867966E-01  0.22881574998E-01  0.13474909430E+00  0.89066153768E+00  0.88000000000E+00 0.  1.
        -11    1    4    4    0    0  0.68735554262E-02 -0.33920289739E-02 -0.81313841408E-01  0.81675905568E-01  0.51100000000E-03 0.  1.
         11    1    4    4    0    0 -0.13018483382E-01  0.48432141596E-03 -0.47576619778E-01  0.49330632951E-01  0.51100000000E-03 0. -1.
</event>
<event>
 8    1  0.1114333E+005  0.1043930E+01  0.7957747E-01            NaN
         13   -1    0    0    0    0  0.00000000000E+00  0.00000000000E+00  0.74505805969E-08  0.10566000000E+00  0.10566000000E+00 0.  1.
     999900   -1    0    0    0    0 -0.00000000000E+00 -0.00000000000E+00 -0.74505805969E-08  0.93827000000E+00  0.93827000000E+00 0.  1.
     999902    2    1    2    0    0  0.16927177471E-01 -0.57113644933E-02  0.17939612993E-01  0.10186124421E+01  0.10182977603E+01 0.  0.
     999903    2    3    3    0    0  0.88491842247E-01  0.92691116060E-01  0.13655571724E-01  0.13023025950E+00  0.18734906201E-01 0.  0.
         14    1    1    2    0    0 -0.16927177471E-01  0.57113644933E-02 -0.17939612993E-01  0.25317557857E-01  0.00000000000E+00 0. -1.
     999901    1    3    3    0    0 -0.71564664776E-01 -0.98402480553E-01  0.42840412686E-02  0.88838218264E+00  0.88000000000E+00 0.  1.
        -11    1    4    4    0    0  0.32818589546E-01  0.39480419659E-01 -0.30224084064E-02  0.51431113441E-01  0.51100000000E-03 0.  1.
         11    1    4    4    0    0  0.55673252701E-01  0.53210696401E-01  0.16677980131E-01  0.78799146061E-01  0.51100000000E-03 0. -1.
</event>
<event>
 8    1  0.1114333E+005  0.1043930E+01  0.7957747E-01            NaN
         13   -1    0    0    0    0  0.00000000000E+00  0.00000000000E+00  0.74505805969E-08  0.10566000000E+00  0.10566000000E+00 0. -1.
     999900   -1    0    0    0    0 -0.00000000000E+00 -0.00000000000E+00 -0.74505805969E-08  0.93827000000E+00  0.93827000000E+00 0.  1.
     999902    2    1    2    0    0  0.13764008984E-01 -0.50640826327E-02 -0.18511325687E-01  0.10203130134E+01  0.10200396479E+01 0.  0.
     999903    2    3    3    0    0  0.12555637394E+00  0.31681321224E-01  0.13055777899E-01  0.13191882186E+00  0.21540962674E-01 0.  0.
         14    1    1    2    0    0 -0.13764008984E-01  0.50640826327E-02  0.18511325687E-01  0.23616986576E-01  0.00000000000E+00 0. -1.
     999901    1    3    3    0    0 -0.11179236496E+00 -0.36745403857E-01 -0.31567103586E-01  0.88839419156E+00  0.88000000000E+00 0.  1.
        -11    1    4    4    0    0  0.10583576489E+00  0.27650864609E-01  0.18771922203E-01  0.11098840312E+00  0.51100000000E-03 0. -1.
         11    1    4    4    0    0  0.19720609059E-01  0.40304566150E-02 -0.57161443041E-02  0.20930418746E-01  0.51100000000E-03 0.  1.
</event>
<event>
 8    1  0.1114333E+005  0.1043930E+01  0.7957747E-01            NaN
         13   -1    0    0    0    0  0.00000000000E+00  0.00000000000E+00  0.74505805969E-08  0.10566000000E+00  0.10566000000E+00 0.  1.
     999900   -1    0    0    0    0 -0.00000000000E+00 -0.00000000000E+00 -0.74505805969E-08  0.93827000000E+00  0.93827000000E+00 0.  1.
     999902    2    1    2    0    0  0.68113818955E-02  0.91056472744E-02  0.21116607423E-01  0.10199462796E+01  0.10196642557E+01 0.  0.
     999903    2    3    3    0    0  0.42998658982E-01  0.27328681978E-01 -0.11614633093E+00  0.12838432871E+00  0.19920445206E-01 0.  0.
         14    1    1    2    0    0 -0.68113818955E-02 -0.91056472744E-02 -0.21116607423E-01  0.23983720409E-01  0.00000000000E+00 0. -1.
     999901    1    3    3    0    0 -0.36187277087E-01 -0.18223034704E-01  0.13726293835E+00  0.89156195088E+00  0.88000000000E+00 0. -1.
        -11    1    4    4    0    0  0.16189145652E-01  0.13149616219E-01 -0.26386546292E-01  0.33637951630E-01  0.51100000000E-03 0. -1.
         11    1    4    4    0    0  0.26809513331E-01  0.14179065760E-01 -0.89759784635E-01  0.94746377079E-01  0.51100000000E-03 0.  1.
</event>
<event>
 8    1  0.1114333E+005  0.1043930E+01  0.7957747E-01            NaN
         13   -1    0    0    0    0  0.00000000000E+00  0.00000000000E+00  0.74505805969E-08  0.10566000000E+00  0.10566000000E+00 0.  1.
     999900   -1    0    0    0    0 -0.00000000000E+00 -0.00000000000E+00 -0.74505805969E-08  0.93827000000E+00  0.93827000000E+00 0.  1.
     999902    2    1    2    0    0  0.75220579766E-03  0.21333691969E-01 -0.10488781945E-01  0.10201454089E+01  0.10198681035E+01 0.  0.
     999903    2    3    3    0    0 -0.44485464703E-01 -0.11727982417E+00  0.13811947109E-01  0.12781661350E+00  0.20317555829E-01 0.  0.
         14    1    1    2    0    0 -0.75220579766E-03 -0.21333691969E-01  0.10488781945E-01  0.23784591089E-01  0.00000000000E+00 0.  1.
     999901    1    3    3    0    0  0.45237670501E-01  0.13861351614E+00 -0.24300729054E-01  0.89232879541E+00  0.88000000000E+00 0.  1.
        -11    1    4    4    0    0 -0.40288775608E-01 -0.80353329439E-01  0.90045926921E-02  0.90339287148E-01  0.51100000000E-03 0.  1.
         11    1    4    4    0    0 -0.41966890949E-02 -0.36926494736E-01  0.48073544166E-02  0.37477326350E-01  0.51100000000E-03 0. -1.
</event>
<event>
 8    1  0.1114333E+005  0.1043930E+01  0.7957747E-01            NaN
         13   -1    0    0    0    0  0.00000000000E+00  0.00000000000E+00  0.74505805969E-08  0.10566000000E+00  0.10566000000E+00 0. -1.
     999900   -1    0    0    0    0 -0.00000000000E+00 -0.00000000000E+00 -0.74505805969E-08  0.93827000000E+00  0.93827000000E+00 0. -1.
     999902    2    1    2    0    0  0.16912704399E-01 -0.16193576022E-01 -0.33323762505E-02  0.10202788646E+01  0.10200046987E+01 0.  0.
     999903    2    3    3    0    0  0.14804968994E-01  0.97582598320E-01 -0.81469552848E-01  0.12951802196E+00  0.19901742901E-01 0.  0.
         14    1    1    2    0    0 -0.16912704399E-01  0.16193576022E-01  0.33323762505E-02  0.23651135405E-01  0.00000000000E+00 0. -1.
     999901    1    3    3    0    0  0.21077354054E-02 -0.11377617434E+00  0.78137176598E-01  0.89076084263E+00  0.88000000000E+00 0.  1.
        -11    1    4    4    0    0  0.94845851205E-02  0.62174506443E-01 -0.39166995648E-01  0.74094137929E-01  0.51100000000E-03 0.  1.
         11    1    4    4    0    0  0.53203838734E-02  0.35408091878E-01 -0.42302557200E-01  0.55423884036E-01  0.51100000000E-03 0. -1.
</event>
<event>
 8    1  0.1114333E+005  0.1043930E+01  0.7957747E-01            NaN
         13   -1    0    0    0    0  0.00000000000E+00  0.00000000000E+00  0.74505805969E-08  0.10566000000E+00  0.10566000000E+00 0. -1.
     999900   -1    0    0    0    0 -0.00000000000E+00 -0.00000000000E+00 -0.74505805969E-08  0.93827000000E+00  0.93827000000E+00 0.  1.
     999902    2    1    2    0    0 -0.22202865846E-01  0.68519690782E-02  0.42771508340E-02  0.10203035159E+01  0.10200299279E+01 0.  0.
     999903    2    3    3    0    0  0.83277233816E-01 -0.70845881077E-01  0.65306306740E-01  0.12851454690E+00  0.17229002516E-01 0.  0.
         14    1    1    2    0    0  0.22202865846E-01 -0.68519690782E-02 -0.42771508340E-02  0.23626484108E-01  0.00000000000E+00 0. -1.
     999901    1    3    3    0    0 -0.10548009966E+00  0.77697850155E-01 -0.61029155906E-01  0.89178896899E+00  0.88000000000E+00 0.  1.
        -11    1    4    4    0    0  0.48979537949E-01 -0.44219465672E-01  0.29724216404E-01  0.72375040199E-01  0.51100000000E-03 0.  1.
         11    1    4    4    0    0  0.34297695867E-01 -0.26626415405E-01  0.35582090336E-01  0.56139506702E-01  0.51100000000E-03 0. -1.
</event>
<event>
 8    1  0.1114333E+005  0.1043930E+01  0.7957747E-01            NaN
         13   -1    0    0    0    0  0.00000000000E+00  0.00000000000E+00  0.74505805969E-08  0.10566000000E+00  0.10566000000E+00 0. -1.
     999900   -1    0    0    0    0 -0.00000000000E+00 -0.00000000000E+00 -0.74505805969E-08  0.93827000000E+00  0.93827000000E+00 0.  1.
     999902    2    1    2    0    0  0.42861093068E-02  0.10910021700E-01 -0.20413379603E-01  0.10203905571E+01  0.10201190046E+01 0.  0.
     999903    2    3    3    0    0 -0.12805372019E+00 -0.99832546454E-02  0.46720337039E-03  0.13000504607E+00  0.20091617542E-01 0.  0.
         14    1    1    2    0    0 -0.42861093068E-02 -0.10910021700E-01  0.20413379603E-01  0.23539442926E-01  0.00000000000E+00 0. -1.
     999901    1    3    3    0    0  0.13233982950E+00  0.20893276345E-01 -0.20880582973E-01  0.89038551101E+00  0.88000000000E+00 0.  1.
        -11    1    4    4    0    0 -0.90819676870E-01  0.18133843689E-02  0.27059181297E-02  0.90879509151E-01  0.51100000000E-03 0. -1.
         11    1    4    4    0    0 -0.37234043321E-01 -0.11796639014E-01 -0.22387147593E-02  0.39125536914E-01  0.51100000000E-03 0.  1.
</event>
<event>
 8    1  0.1114333E+005  0.1043930E+01  0.7957747E-01            NaN
         13   -1    0    0    0    0  0.00000000000E+00  0.00000000000E+00  0.74505805969E-08  0.10566000000E+00  0.10566000000E+00 0.  1.
     999900   -1    0    0    0    0 -0.00000000000E+00 -0.00000000000E+00 -0.74505805969E-08  0.93827000000E+00  0.93827000000E+00 0.  1.
     999902    2    1    2    0    0 -0.28575334533E-02 -0.41648896834E-02  0.24869530634E-01  0.10185527394E+01  0.10182365528E+01 0.  0.
     999903    2    3    3    0    0 -0.95866921705E-02  0.10248332068E+00 -0.71878516238E-01  0.12682446970E+00  0.17977467383E-01 0.  0.
         14    1    1    2    0    0  0.28575334533E-02  0.41648896834E-02 -0.24869530634E-01  0.25377260637E-01  0.00000000000E+00 0. -1.
     999901    1    3    3    0    0  0.67291587171E-02 -0.10664821036E+00  0.96748046872E-01  0.89172826967E+00  0.88000000000E+00 0.  1.
        -11    1    4    4    0    0 -0.13324545871E-01  0.77427119794E-01 -0.48387262276E-01  0.92271830337E-01  0.51100000000E-03 0. -1.
         11    1    4    4    0    0  0.37378537001E-02  0.25056200882E-01 -0.23491253962E-01  0.34552639358E-01  0.51100000000E-03 0.  1.
</event>
<event>
 8    1  0.1114333E+005  0.1043930E+01  0.7957747E-01            NaN
         13   -1    0    0    0    0  0.00000000000E+00  0.00000000000E+00  0.74505805969E-08  0.10566000000E+00  0.10566000000E+00 0. -1.
     999900   -1    0    0    0    0 -0.00000000000E+00 -0.00000000000E+00 -0.74505805969E-08  0.93827000000E+00  0.93827000000E+00 0.  1.
     999902    2    1    2    0    0 -0.11666545421E-01 -0.19957770897E-01 -0.28909311368E-02  0.10206323953E+01  0.10203664577E+01 0.  0.
     999903    2    3    3    0    0 -0.88229487884E-01  0.69391467449E-01  0.62753965342E-01  0.13037713811E+00  0.21459722459E-01 0.  0.
         14    1    1    2    0    0  0.11666545421E-01  0.19957770897E-01  0.28909311368E-02  0.23297604685E-01  0.00000000000E+00 0.  1.
     999901    1    3    3    0    0  0.76562942463E-01 -0.89349238346E-01 -0.65644896479E-01  0.89025525721E+00  0.88000000000E+00 0. -1.
        -11    1    4    4    0    0 -0.81456366988E-01  0.61584634646E-01  0.49276887622E-01  0.11338553577E+00  0.51100000000E-03 0.  1.
         11    1    4    4    0    0 -0.67731208955E-02  0.78068328024E-02  0.13477077720E-01  0.16991602336E-01  0.51100000000E-03 0. -1.
</event>
<event>
 8    1  0.1114333E+005  0.1043930E+01  0.7957747E-01            NaN
         13   -1    0    0    0    0  0.00000000000E+00  0.00000000000E+00  0.74505805969E-08  0.10566000000E+00  0.10566000000E+00 0.  1.
     999900   -1    0    0    0    0 -0.00000000000E+00 -0.00000000000E+00 -0.74505805969E-08  0.93827000000E+00  0.93827000000E+00 0.  1.
     999902    2    1    2    0    0 -0.21102415433E-02  0.71551050805E-02  0.19343727557E-01  0.10231976956E+01  0.10229876323E+01 0.  0.
     999903    2    3    3    0    0  0.31485785202E-01  0.60525656605E-01  0.11549022757E+00  0.13571740953E+00  0.20652186512E-01 0.  0.
         14    1    1    2    0    0  0.21102415433E-02 -0.71551050805E-02 -0.19343727557E-01  0.20732304355E-01  0.00000000000E+00 0. -1.
     999901    1    3    3    0    0 -0.33596026745E-01 -0.53370551524E-01 -0.96146500012E-01  0.88748028612E+00  0.88000000000E+00 0.  1.
        -11    1    4    4    0    0  0.83894337483E-02  0.28458967939E-01  0.66143713459E-01  0.72495154361E-01  0.51100000000E-03 0.  1.
         11    1    4    4    0    0  0.23096351453E-01  0.32066688666E-01  0.49346514110E-01  0.63222255166E-01  0.51100000000E-03 0. -1.
</event>
<event>
 8    1  0.1114333E+005  0.1043930E+01  0.7957747E-01            NaN
         13   -1    0    0    0    0  0.00000000000E+00  0.00000000000E+00  0.74505805969E-08  0.10566000000E+00  0.10566000000E+00 0.  1.
     999900   -1    0    0    0    0 -0.00000000000E+00 -0.00000000000E+00 -0.74505805969E-08  0.93827000000E+00  0.93827000000E+00 0. -1.
     999902    2    1    2    0    0 -0.18128005613E-01 -0.13933190873E-01 -0.50806650140E-02  0.10205083956E+01  0.10202395865E+01 0.  0.
     999903    2    3    3    0    0  0.55631600102E-01 -0.29373206931E-01  0.11155456699E+00  0.12961970959E+00  0.19979676749E-01 0.  0.
         14    1    1    2    0    0  0.18128005613E-01  0.13933190873E-01  0.50806650140E-02  0.23421604394E-01  0.00000000000E+00 0.  1.
     999901    1    3    3    0    0 -0.73759605715E-01  0.15440016058E-01 -0.11663523200E+00  0.89088868602E+00  0.88000000000E+00 0. -1.
        -11    1    4    4    0    0  0.18495400188E-01 -0.62103830848E-02  0.53247641963E-01  0.56711737602E-01  0.51100000000E-03 0. -1.
         11    1    4    4    0    0  0.37136199914E-01 -0.23162823846E-01  0.58306925023E-01  0.72907971986E-01  0.51100000000E-03 0.  1.
</event>
<event>
 8    1  0.1114333E+005  0.1043930E+01  0.7957747E-01            NaN
         13   -1    0    0    0    0  0.00000000000E+00  0.00000000000E+00  0.74505805969E-08  0.10566000000E+00  0.10566000000E+00 0.  1.
     999900   -1    0    0    0    0 -0.00000000000E+00 -0.00000000000E+00 -0.74505805969E-08  0.93827000000E+00  0.93827000000E+00 0. -1.
     999902    2    1    2    0    0 -0.53284104772E-02  0.22503237859E-01 -0.26890649008E-02  0.10206487040E+01  0.10203831429E+01 0.  0.
     999903    2    3    3    0    0  0.11627274675E+00 -0.49645882187E-01 -0.19126790542E-01  0.12921023964E+00  0.18584581131E-01 0.  0.
         14    1    1    2    0    0  0.53284104772E-02 -0.22503237859E-01  0.26890649008E-02  0.23281295978E-01  0.00000000000E+00 0. -1.
     999901    1    3    3    0    0 -0.12160115723E+00  0.72149120046E-01  0.16437725642E-01  0.89143846439E+00  0.88000000000E+00 0. -1.
        -11    1    4    4    0    0  0.34906075111E-01 -0.24345333610E-01 -0.54290853673E-02  0.42905307797E-01  0.51100000000E-03 0. -1.
         11    1    4    4    0    0  0.81366671638E-01 -0.25300548577E-01 -0.13697705175E-01  0.86304931840E-01  0.51100000000E-03 0.  1.
</event>
<event>
 8    1  0.1114333E+005  0.1043930E+01  0.7957747E-01            NaN
         13   -1    0    0    0    0  0.00000000000E+00  0.00000000000E+00  0.74505805969E-08  0.10566000000E+00  0.10566000000E+00 0. -1.
     999900   -1    0    0    0    0 -0.00000000000E+00 -0.00000000000E+00 -0.74505805969E-08  0.93827000000E+00  0.93827000000E+00 0.  1.
     999902    2    1    2    0    0  0.12498166728E-01 -0.23476346797E-03 -0.21661689774E-01  0.10189202401E+01  0.10186132571E+01 0.  0.
     999903    2    3    3    0    0  0.81494246168E-01 -0.83164860854E-01  0.53048633202E-01  0.12919022917E+00  0.17839607286E-01 0.  0.
         14    1    1    2    0    0 -0.12498166728E-01  0.23476346797E-03  0.21661689774E-01  0.25009759881E-01  0.00000000000E+00 0. -1.
     999901    1    3    3    0    0 -0.68996079440E-01  0.82930097386E-01 -0.74710322976E-01  0.88973001095E+00  0.88000000000E+00 0.  1.
        -11    1    4    4    0    0  0.29763515066E-01 -0.20940046977E-01  0.21930772518E-01  0.42492026319E-01  0.51100000000E-03 0. -1.
         11    1    4    4    0    0  0.51730731103E-01 -0.62224813877E-01  0.31117860684E-01  0.86698202847E-01  0.51100000000E-03 0.  1.
</event>
<event>
 7    1  0.1114333E+005  0.1043930E+01  0.7957747E-01            NaN
         13   -1    0    0    0    0  0.00000000000E+00  0.00000000000E+00  0.74505805969E-08  0.10566000000E+00  0.10566000000E+00 0. -1.
     999900   -1    0    0    0    0 -0.00000000000E+00 -0.00000000000E+00 -0.74505805969E-08  0.93827000000E+00  0.93827000000E+00 0. -1.
     999903    2    1    2    0    0  0.35188165392E-01  0.98641467986E-01 -0.23680983588E-01  0.10851978216E+00  0.15729206783E-01 0.  0.
         14    1    1    2    0    0  0.21339144827E-01  0.35278523138E-01 -0.11460376434E-01  0.42793381787E-01  0.00000000000E+00 0.  1.
     999901    1    1    2    0    0 -0.56527310220E-01 -0.13391999112E+00  0.35141360023E-01  0.89261683605E+00  0.88000000000E+00 0.  1.
        -11    1    3    3    0    0  0.25277682566E-01  0.85875575051E-01 -0.17531466780E-01  0.91220551822E-01  0.51100000000E-03 0. -1.
         11    1    3    3    0    0  0.99104828266E-02  0.12765892935E-01 -0.61495168080E-02  0.17299230337E-01  0.51100000000E-03 0.  1.
</event>
<event>
 8    1  0.1114333E+005  0.1043930E+01  0.7957747E-01            NaN
         13   -1    0    0    0    0  0.00000000000E+00  0.00000000000E+00  0.74505805969E-08  0.10566000000E+00  0.10566000000E+00 0. -1.
     999900   -1    0    0    0    0 -0.00000000000E+00 -0.00000000000E+00 -0.74505805969E-08  0.93827000000E+00  0.93827000000E+00 0. -1.
     999902    2    1    2    0    0 -0.15289335077E-01  0.10626100247E-01  0.15841526101E-01  0.10194834926E+01  0.10191903453E+01 0.  0.
     999903    2    3    3    0    0  0.71568748310E-01 -0.70695034517E-01  0.78842585647E-01  0.12924386920E+00  0.19182043041E-01 0.  0.
         14    1    1    2    0    0  0.15289335077E-01 -0.10626100247E-01 -0.15841526101E-01  0.24446507373E-01  0.00000000000E+00 0.  1.
     999901    1    3    3    0    0 -0.86858083387E-01  0.81321134764E-01 -0.63001059546E-01  0.89023962342E+00  0.88000000000E+00 0.  1.
        -11    1    4    4    0    0  0.24311958705E-01 -0.12504179886E-01  0.18556598733E-01  0.33045942690E-01  0.51100000000E-03 0. -1.
         11    1    4    4    0    0  0.47256789605E-01 -0.58190854631E-01  0.60285986914E-01  0.96197926514E-01  0.51100000000E-03 0.  1.
</event>
<event>
 8    1  0.1114333E+005  0.1043930E+01  0.7957747E-01            NaN
         13   -1    0    0    0    0  0.00000000000E+00  0.00000000000E+00  0.74505805969E-08  0.10566000000E+00  0.10566000000E+00 0.  1.
     999900   -1    0    0    0    0 -0.00000000000E+00 -0.00000000000E+00 -0.74505805969E-08  0.93827000000E+00  0.93827000000E+00 0. -1.
     999902    2    1    2    0    0  0.22637021282E-01 -0.57225920367E-02  0.30000655182E-02  0.10203889043E+01  0.10201173133E+01 0.  0.
     999903    2    3    3    0    0 -0.68803372658E-01  0.99098162441E-01  0.40177075466E-01  0.12868779618E+00  0.19799030381E-01 0.  0.
         14    1    1    2    0    0 -0.22637021282E-01  0.57225920367E-02 -0.30000655182E-02  0.23541095668E-01  0.00000000000E+00 0.  1.
     999901    1    3    3    0    0  0.91440393940E-01 -0.10482075448E+00 -0.37177009948E-01  0.89170110815E+00  0.88000000000E+00 0. -1.
        -11    1    4    4    0    0 -0.41764146298E-01  0.70413340843E-01  0.19449857246E-01  0.84147730525E-01  0.51100000000E-03 0.  1.
         11    1    4    4    0    0 -0.27039226360E-01  0.28684821598E-01  0.20727218220E-01  0.44540065653E-01  0.51100000000E-03 0. -1.
</event>
<event>
 8    1  0.1114333E+005  0.1043930E+01  0.7957747E-01            NaN
         13   -1    0    0    0    0  0.00000000000E+00  0.00000000000E+00  0.74505805969E-08  0.10566000000E+00  0.10566000000E+00 0. -1.
     999900   -1    0    0    0    0 -0.00000000000E+00 -0.00000000000E+00 -0.74505805969E-08  0.93827000000E+00  0.93827000000E+00 0.  1.
     999902    2    1    2    0    0  0.27472052748E-02 -0.43209445463E-02 -0.17947477116E-01  0.10252664089E+01  0.10250965221E+01 0.  0.
     999903    2    3    3    0    0  0.20698848594E-01 -0.21387426028E-01 -0.13271747737E+00  0.13746818899E+00  0.19942664327E-01 0.  0.
         14    1    1    2    0    0 -0.27472052748E-02  0.43209445463E-02  0.17947477116E-01  0.18663591118E-01  0.00000000000E+00 0. -1.
     999901    1    3    3    0    0 -0.17951643320E-01  0.17066481481E-01  0.11477000025E+00  0.88779821989E+00  0.88000000000E+00 0. -1.
        -11    1    4    4    0    0  0.14590794677E-01 -0.21677666400E-01 -0.74958971284E-01  0.79384639615E-01  0.51100000000E-03 0. -1.
         11    1    4    4    0    0  0.61080539175E-02  0.29024037225E-03 -0.57758506081E-01  0.58083549374E-01  0.51100000000E-03 0.  1.
</event>
<event>
 8    1  0.1114333E+005  0.1043930E+01  0.7957747E-01            NaN
         13   -1    0    0    0    0  0.00000000000E+00  0.00000000000E+00  0.74505805969E-08  0.10566000000E+00  0.10566000000E+00 0.  1.
     999900   -1    0    0    0    0 -0.00000000000E+00 -0.00000000000E+00 -0.74505805969E-08  0.93827000000E+00  0.93827000000E+00 0.  1.
     999902    2    1    2    0    0  0.19750794483E-01 -0.59953172715E-02 -0.10865481722E-01  0.10206041258E+01  0.10203375350E+01 0.  0.
     999903    2    3    3    0    0  0.12559395982E+00  0.26724465003E-01  0.27571992633E-01  0.13282555028E+00  0.19858808019E-01 0.  0.
         14    1    1    2    0    0 -0.19750794483E-01  0.59953172715E-02  0.10865481722E-01  0.23325874151E-01  0.00000000000E+00 0.  1.
     999901    1    3    3    0    0 -0.10584316534E+00 -0.32719782274E-01 -0.38437474355E-01  0.88777857557E+00  0.88000000000E+00 0. -1.
        -11    1    4    4    0    0  0.11280904068E-01  0.17911721568E-03 -0.27332886939E-02  0.11619934064E-01  0.51100000000E-03 0.  1.
         11    1    4    4    0    0  0.11431305576E+00  0.26545347787E-01  0.30305281327E-01  0.12120561622E+00  0.51100000000E-03 0. -1.
</event>
<event>
 8    1  0.1114333E+005  0.1043930E+01  0.7957747E-01            NaN
         13   -1    0    0    0    0  0.00000000000E+00  0.00000000000E+00  0.74505805969E-08  0.10566000000E+00  0.10566000000E+00 0. -1.
     999900   -1    0    0    0    0 -0.00000000000E+00 -0.00000000000E+00 -0.74505805969E-08  0.93827000000E+00  0.93827000000E+00 0. -1.
     999902    2    1    2    0    0 -0.54828189859E-02 -0.73720479849E-02 -0.22111863292E-01  0.10199854204E+01  0.10197043272E+01 0.  0.
     999903    2    3    3    0    0 -0.41708015119E-01 -0.11975170871E+00 -0.30858397687E-01  0.13205639458E+00  0.20164830177E-01 0.  0.
         14    1    1    2    0    0  0.54828189859E-02  0.73720479849E-02  0.22111863292E-01  0.23944579632E-01  0.00000000000E+00 0. -1.
     999901    1    3    3    0    0  0.36225196133E-01  0.11237966073E+00  0.87465343952E-02  0.88792902579E+00  0.88000000000E+00 0.  1.
        -11    1    4    4    0    0 -0.28159689549E-01 -0.69863709085E-01 -0.27713447497E-01  0.80263330705E-01  0.51100000000E-03 0.  1.
         11    1    4    4    0    0 -0.13548325570E-01 -0.49887999627E-01 -0.31449501897E-02  0.51793063872E-01  0.51100000000E-03 0. -1.
</event>
<event>
 8    1  0.1114333E+005  0.1043930E+01  0.7957747E-01            NaN
         13   -1    0    0    0    0  0.00000000000E+00  0.00000000000E+00  0.74505805969E-08  0.10566000000E+00  0.10566000000E+00 0. -1.
     999900   -1    0    0    0    0 -0.00000000000E+00 -0.00000000000E+00 -0.74505805969E-08  0.93827000000E+00  0.93827000000E+00 0. -1.
     999902    2    1    2    0    0 -0.13209497770E-01 -0.16481418039E-01 -0.15407895122E-01  0.10177855703E+01  0.10174497216E+01 0.  0.
     999903    2    3    3    0    0  0.11835284242E+00  0.30939978138E-01  0.14641918127E-01  0.12623611601E+00  0.27504429880E-01 0.  0.
         14    1    1    2    0    0  0.13209497770E-01  0.16481418039E-01  0.15407895122E-01  0.26144429694E-01  0.00000000000E+00 0.  1.
     999901    1    3    3    0    0 -0.13156234019E+00 -0.47421396177E-01 -0.30049813249E-01  0.89154945429E+00  0.88000000000E+00 0.  1.
        -11    1    4    4    0    0  0.81985399533E-01  0.26359474779E-01  0.21911455136E-01  0.88863944513E-01  0.51100000000E-03 0. -1.
         11    1    4    4    0    0  0.36367442890E-01  0.45805033594E-02 -0.72695370088E-02  0.37372171501E-01  0.51100000000E-03 0.  1.
</event>
<event>
 8    1  0.1114333E+005  0.1043930E+01  0.7957747E-01            NaN
         13   -1    0    0    0    0  0.00000000000E+00  0.00000000000E+00  0.74505805969E-08  0.10566000000E+00  0.10566000000E+00 0.  1.
     999900   -1    0    0    0    0 -0.00000000000E+00 -0.00000000000E+00 -0.74505805969E-08  0.93827000000E+00  0.93827000000E+00 0. -1.
     999902    2    1    2    0    0  0.21341575939E-01  0.12354914220E-01 -0.27363235513E-01  0.10070945086E+01  0.10064206356E+01 0.  0.
     999903    2    3    3    0    0 -0.94183914038E-01 -0.62602289024E-01 -0.21988811195E-01  0.11636806036E+00  0.16381739837E-01 0.  0.
         14    1    1    2    0    0 -0.21341575939E-01 -0.12354914220E-01  0.27363235513E-01  0.36835491400E-01  0.00000000000E+00 0. -1.
     999901    1    3    3    0    0  0.11552548998E+00  0.74957203244E-01 -0.53744243178E-02  0.89072644824E+00  0.88000000000E+00 0.  1.
        -11    1    4    4    0    0 -0.69622699102E-01 -0.42516577897E-01 -0.22520795240E-01  0.84631122913E-01  0.51100000000E-03 0. -1.
         11    1    4    4    0    0 -0.24561214937E-01 -0.20085711127E-01  0.53198404450E-03  0.31736937450E-01  0.51100000000E-03 0.  1.
</event>
<event>
 8    1  0.1114333E+005  0.1043930E+01  0.7957747E-01            NaN
         13   -1    0    0    0    0  0.00000000000E+00  0.00000000000E+00  0.74505805969E-08  0.10566000000E+00  0.10566000000E+00 0. -1.
     999900   -1    0    0    0    0 -0.00000000000E+00 -0.00000000000E+00 -0.74505805969E-08  0.93827000000E+00  0.93827000000E+00 0.  1.
     999902    2    1    2    0    0 -0.11255668538E-01 -0.19301273761E-01  0.75685042211E-02  0.10203395040E+01  0.10200667586E+01 0.  0.
     999903    2    3    3    0    0  0.47023580059E-01  0.60247982918E-01 -0.10105395046E+00  0.12819411639E+00  0.19513944956E-01 0.  0.
         14    1    1    2    0    0  0.11255668538E-01  0.19301273761E-01 -0.75685042211E-02  0.23590495950E-01  0.00000000000E+00 0. -1.
     999901    1    3    3    0    0 -0.58279248597E-01 -0.79549256679E-01  0.10862245468E+00  0.89214538766E+00  0.88000000000E+00 0. -1.
        -11    1    4    4    0    0  0.28754972148E-03  0.58729208574E-02 -0.15387609594E-01  0.16480701874E-01  0.51100000000E-03 0.  1.
         11    1    4    4    0    0  0.46736030338E-01  0.54375062060E-01 -0.85666340863E-01  0.11171341452E+00  0.51100000000E-03 0. -1.
</event>
<event>
 8    1  0.1114333E+005  0.1043930E+01  0.7957747E-01            NaN
         13   -1    0    0    0    0  0.00000000000E+00  0.00000000000E+00  0.74505805969E-08  0.10566000000E+00  0.10566000000E+00 0. -1.
     999900   -1    0    0    0    0 -0.00000000000E+00 -0.00000000000E+00 -0.74505805969E-08  0.93827000000E+00  0.93827000000E+00 0.  1.
     999902    2    1    2    0    0 -0.10497686580E-01  0.16550761358E-01 -0.11532025565E-01  0.10211897991E+01  0.10209365744E+01 0.  0.
     999903    2    3    3    0    0 -0.74936830771E-01  0.10540018077E+00  0.26202569444E-01  0.13356909049E+00  0.20721982909E-01 0.  0.
         14    1    1    2    0    0  0.10497686580E-01 -0.16550761358E-01  0.11532025565E-01  0.22740200938E-01  0.00000000000E+00 0. -1.
     999901    1    3    3    0    0  0.64439144190E-01 -0.88849419410E-01 -0.37734595009E-01  0.88762070858E+00  0.88000000000E+00 0. -1.
        -11    1    4    4    0    0 -0.58585986628E-01  0.79172650566E-01  0.28610523594E-01  0.10256436812E+00  0.51100000000E-03 0.  1.
         11    1    4    4    0    0 -0.16350844143E-01  0.26227530201E-01 -0.24079541497E-02  0.31004722364E-01  0.51100000000E-03 0. -1.
</event>
<event>
 8    1  0.1114333E+005  0.1043930E+01  0.7957747E-01            NaN
         13   -1    0    0    0    0  0.00000000000E+00  0.00000000000E+00  0.74505805969E-08  0.10566000000E+00  0.10566000000E+00 0. -1.
     999900   -1    0    0    0    0 -0.00000000000E+00 -0.00000000000E+00 -0.74505805969E-08  0.93827000000E+00  0.93827000000E+00 0. -1.
     999902    2    1    2    0    0 -0.13848573155E-01 -0.16121995517E-01 -0.11537692916E-01  0.10197469465E+01  0.10194601585E+01 0.  0.
     999903    2    3    3    0    0 -0.11682478362E+00  0.47007177604E-01 -0.29919887213E-01  0.13130601011E+00  0.22098955333E-01 0.  0.
         14    1    1    2    0    0  0.13848573155E-01  0.16121995517E-01  0.11537692916E-01  0.24183053482E-01  0.00000000000E+00 0.  1.
     999901    1    3    3    0    0  0.10297621046E+00 -0.63129173121E-01  0.18382194297E-01  0.88844093641E+00  0.88000000000E+00 0. -1.
        -11    1    4    4    0    0 -0.55033282675E-01  0.18293885033E-01 -0.31011387284E-02  0.58079313133E-01  0.51100000000E-03 0.  1.
         11    1    4    4    0    0 -0.61791500941E-01  0.28713292570E-01 -0.26818748485E-01  0.73226696976E-01  0.51100000000E-03 0. -1.
</event>
<event>
 8    1  0.1114333E+005  0.1043930E+01  0.7957747E-01            NaN
         13   -1    0    0    0    0  0.00000000000E+00  0.00000000000E+00  0.74505805969E-08  0.10566000000E+00  0.10566000000E+00 0. -1.
     999900   -1    0    0    0    0 -0.00000000000E+00 -0.00000000000E+00 -0.74505805969E-08  0.93827000000E+00  0.93827000000E+00 0.  1.
     999902    2    1    2    0    0  0.24712980225E-02 -0.45761003256E-02 -0.22213204942E-01  0.10211160902E+01  0.10208612027E+01 0.  0.
     999903    2    3    3    0    0  0.89207660026E-01  0.20738335906E-01  0.89400958387E-01  0.12947617482E+00  0.19582219055E-01 0.  0.
         14    1    1    2    0    0 -0.24712980225E-02  0.45761003256E-02  0.22213204942E-01  0.22813909834E-01  0.00000000000E+00 0. -1.
     999901    1    3    3    0    0 -0.86736362004E-01 -0.25314436231E-01 -0.11161416333E+00  0.89163991534E+00  0.88000000000E+00 0.  1.
        -11    1    4    4    0    0  0.55459028106E-01  0.20157003939E-01  0.48073462085E-01  0.76113911239E-01  0.51100000000E-03 0.  1.
         11    1    4    4    0    0  0.33748631920E-01  0.58133196605E-03  0.41327496301E-01  0.53362263585E-01  0.51100000000E-03 0. -1.
</event>
<event>
 8    1  0.1114333E+005  0.1043930E+01  0.7957747E-01            NaN
         13   -1    0    0    0    0  0.00000000000E+00  0.00000000000E+00  0.74505805969E-08  0.10566000000E+00  0.10566000000E+00 0. -1.
     999900   -1    0    0    0    0 -0.00000000000E+00 -0.00000000000E+00 -0.74505805969E-08  0.93827000000E+00  0.93827000000E+00 0. -1.
     999902    2    1    2    0    0 -0.21759753385E-01 -0.10156624154E-01  0.32836773774E-02  0.10196931186E+01  0.10194050371E+01 0.  0.
     999903    2    3    3    0    0 -0.43634186181E-01  0.79160045671E-01 -0.90912377925E-01  0.12990165140E+00  0.20955274792E-01 0.  0.
         14    1    1    2    0    0  0.21759753385E-01  0.10156624154E-01 -0.32836773774E-02  0.24236881373E-01  0.00000000000E+00 0. -1.
     999901    1    3    3    0    0  0.21874432796E-01 -0.89316669825E-01  0.94196055303E-01  0.88979146723E+00  0.88000000000E+00 0.  1.
        -11    1    4    4    0    0 -0.20548265682E-01  0.44841306604E-01 -0.35596996142E-01  0.60830759126E-01  0.51100000000E-03 0. -1.
         11    1    4    4    0    0 -0.23085920499E-01  0.34318739067E-01 -0.55315381784E-01  0.69070892272E-01  0.51100000000E-03 0.  1.
</event>
<event>
 8    1  0.1114333E+005  0.1043930E+01  0.7957747E-01            NaN
         13   -1    0    0    0    0  0.00000000000E+00  0.00000000000E+00  0.74505805969E-08  0.10566000000E+00  0.10566000000E+00 0.  1.
     999900   -1    0    0    0    0 -0.00000000000E+00 -0.00000000000E+00 -0.74505805969E-08  0.93827000000E+00  0.93827000000E+00 0.  1.
     999902    2    1    2    0    0 -0.78286610381E-03 -0.21575562478E-01 -0.96881090302E-02  0.10202661619E+01  0.10199916980E+01 0.  0.
     999903    2    3    3    0    0 -0.68529844257E-01  0.81672504042E-01  0.68573545567E-01  0.12820411091E+00  0.19163126900E-01 0.  0.
         14    1    1    2    0    0  0.78286610381E-03  0.21575562478E-01  0.96881090302E-02  0.23663838069E-01  0.00000000000E+00 0.  1.
     999901    1    3    3    0    0  0.67746978153E-01 -0.10324806652E+00 -0.78261654597E-01  0.89206205102E+00  0.88000000000E+00 0. -1.
        -11    1    4    4    0    0 -0.10387376818E-01  0.20031336312E-01  0.21965975037E-01  0.31494717206E-01  0.51100000000E-03 0. -1.
         11    1    4    4    0    0 -0.58142467439E-01  0.61641167730E-01  0.46607570530E-01  0.96709393705E-01  0.51100000000E-03 0.  1.
</event>
<event>
 8    1  0.1114333E+005  0.1043930E+01  0.7957747E-01            NaN
         13   -1    0    0    0    0  0.00000000000E+00  0.00000000000E+00  0.74505805969E-08  0.10566000000E+00  0.10566000000E+00 0.  1.
     999900   -1    0    0    0    0 -0.00000000000E+00 -0.00000000000E+00 -0.74505805969E-08  0.93827000000E+00  0.93827000000E+00 0.  1.
     999902    2    1    2    0    0 -0.23645719437E-02 -0.38198260148E-02 -0.23295934763E-01  0.10202048478E+01  0.10199289429E+01 0.  0.
     999903    2    3    3    0    0 -0.76052270779E-01 -0.89347255872E-01 -0.57858858952E-01  0.13232005011E+00  0.19851148036E-01 0.  0.
         14    1    1    2    0    0  0.23645719437E-02  0.38198260148E-02  0.23295934763E-01  0.23725152217E-01  0.00000000000E+00 0.  1.
     999901    1    3    3    0    0  0.73687698835E-01  0.85527429857E-01  0.34562924189E-01  0.88788479768E+00  0.88000000000E+00 0. -1.
        -11    1    4    4    0    0 -0.52586054375E-01 -0.47311412219E-01 -0.37289085625E-01  0.79964991519E-01  0.51100000000E-03 0.  1.
         11    1    4    4    0    0 -0.23466216404E-01 -0.42035843652E-01 -0.20569773327E-01  0.52355058586E-01  0.51100000000E-03 0. -1.
</event>
<event>
 8    1  0.1114333E+005  0.1043930E+01  0.7957747E-01            NaN
         13   -1    0    0    0    0  0.00000000000E+00  0.00000000000E+00  0.74505805969E-08  0.10566000000E+00  0.10566000000E+00 0.  1.
     999900   -1    0    0    0    0 -0.00000000000E+00 -0.00000000000E+00 -0.74505805969E-08  0.93827000000E+00  0.93827000000E+00 0. -1.
     999902    2    1    2    0    0  0.80429074638E-02  0.10205744485E-01  0.19534664939E-01  0.10204683565E+01  0.10201986169E+01 0.  0.
     999903    2    3    3    0    0 -0.32706026922E-02 -0.36459068995E-01  0.12600084119E+00  0.13275182123E+00  0.20171105707E-01 0.  0.
         14    1    1    2    0    0 -0.80429074638E-02 -0.10205744485E-01 -0.19534664939E-01  0.23461643490E-01  0.00000000000E+00 0. -1.
     999901    1    3    3    0    0  0.11313510156E-01  0.46664813480E-01 -0.10646617625E+00  0.88771653528E+00  0.88000000000E+00 0. -1.
        -11    1    4    4    0    0  0.60745333886E-02 -0.24603726637E-01  0.61761971720E-01  0.66761108380E-01  0.51100000000E-03 0.  1.
         11    1    4    4    0    0 -0.93451360808E-02 -0.11855342358E-01  0.64238869467E-01  0.65990712848E-01  0.51100000000E-03 0. -1.
</event>
<event>
 8    1  0.1114333E+005  0.1043930E+01  0.7957747E-01            NaN
         13   -1    0    0    0    0  0.00000000000E+00  0.00000000000E+00  0.74505805969E-08  0.10566000000E+00  0.10566000000E+00 0. -1.
     999900   -1    0    0    0    0 -0.00000000000E+00 -0.00000000000E+00 -0.74505805969E-08  0.93827000000E+00  0.93827000000E+00 0.  1.
     999902    2    1    2    0    0 -0.90082827618E-02 -0.13910910766E-01 -0.16485117102E-01  0.10205543357E+01  0.10202865923E+01 0.  0.
     999903    2    3    3    0    0 -0.51947882863E-01 -0.59228652147E-01  0.10233678246E+00  0.13037674061E+00  0.17851097409E-01 0.  0.
         14    1    1    2    0    0  0.90082827618E-02  0.13910910766E-01  0.16485117102E-01  0.23375664322E-01  0.00000000000E+00 0. -1.
     999901    1    3    3    0    0  0.42939600101E-01  0.45317741381E-01 -0.11882189956E+00  0.89017759507E+00  0.88000000000E+00 0.  1.
        -11    1    4    4    0    0 -0.35290569284E-01 -0.49233050249E-01  0.69259061600E-01  0.92013022187E-01  0.51100000000E-03 0. -1.
         11    1    4    4    0    0 -0.16657313579E-01 -0.99956018988E-02  0.33077720862E-01  0.38363718426E-01  0.51100000000E-03 0.  1.
</event>
<event>
 8    1  0.1114333E+005  0.1043930E+01  0.7957747E-01            NaN
         13   -1    0    0    0    0  0.00000000000E+00  0.00000000000E+00  0.74505805969E-08  0.10566000000E+00  0.10566000000E+00 0.  1.
     999900   -1    0    0    0    0 -0.00000000000E+00 -0.00000000000E+00 -0.74505805969E-08  0.93827000000E+00  0.93827000000E+00 0.  1.
     999902    2    1    2    0    0  0.18221384699E-01  0.12631508706E-01 -0.38233831686E-02  0.10214312860E+01  0.10211834702E+01 0.  0.
     999903    2    3    3    0    0 -0.53341793182E-01 -0.94886983905E-01 -0.67675139226E-01  0.12971464860E+00  0.19926840609E-01 0.  0.
         14    1    1    2    0    0 -0.18221384699E-01 -0.12631508706E-01  0.38233831686E-02  0.22498713994E-01  0.00000000000E+00 0.  1.
     999901    1    3    3    0    0  0.71563177881E-01  0.10751849261E+00  0.63851756058E-01  0.89171663741E+00  0.88000000000E+00 0. -1.
        -11    1    4    4    0    0 -0.95801979618E-02 -0.26769724490E-01 -0.26547657553E-01  0.38902925145E-01  0.51100000000E-03 0. -1.
         11    1    4    4    0    0 -0.43761595220E-01 -0.68117259415E-01 -0.41127481673E-01  0.90811723451E-01  0.51100000000E-03 0.  1.
</event>
<event>
 8    1  0.1114333E+005  0.1043930E+01  0.7957747E-01            NaN
         13   -1    0    0    0    0  0.00000000000E+00  0.00000000000E+00  0.74505805969E-08  0.10566000000E+00  0.10566000000E+00 0. -1.
     999900   -1    0    0    0    0 -0.00000000000E+00 -0.00000000000E+00 -0.74505805969E-08  0.93827000000E+00  0.93827000000E+00 0.  1.
     999902    2    1    2    0    0 -0.21477483537E-01 -0.91260974104E-03  0.11297772346E-01  0.10196451320E+01  0.10193558948E+01 0.  0.
     999903    2    3    3    0    0  0.64756705377E-01  0.78992707884E-01 -0.74149159695E-01  0.12772452265E+00  0.19549348132E-01 0.  0.
         14    1    1    2    0    0  0.21477483537E-01  0.91260974104E-03 -0.11297772346E-01  0.24284868037E-01  0.00000000000E+00 0.  1.
     999901    1    3    3    0    0 -0.86234188914E-01 -0.79905317625E-01  0.85446932041E-01  0.89192060931E+00  0.88000000000E+00 0. -1.
        -11    1    4    4    0    0  0.34800930260E-01  0.30907626618E-01 -0.41343616605E-01  0.62257062933E-01  0.51100000000E-03 0.  1.
         11    1    4    4    0    0  0.29955775117E-01  0.48085081266E-01 -0.32805543090E-01  0.65467459716E-01  0.51100000000E-03 0. -1.
</event>
<event>
 8    1  0.1114333E+005  0.1043930E+01  0.7957747E-01            NaN
         13   -1    0    0    0    0  0.00000000000E+00  0.00000000000E+00  0.74505805969E-08  0.10566000000E+00  0.10566000000E+00 0. -1.
     999900   -1    0    0    0    0 -0.00000000000E+00 -0.00000000000E+00 -0.74505805969E-08  0.93827000000E+00  0.93827000000E+00 0.  1.
     999902    2    1    2    0    0  0.11688423242E-01  0.30842484047E-02  0.20403065453E-01  0.10202146694E+01  0.10199389956E+01 0.  0.
     999903    2    3    3    0    0 -0.61119219487E-01  0.29830902185E-01  0.11150126763E+00  0.13211826766E+00  0.19931438708E-01 0.  0.
         14    1    1    2    0    0 -0.11688423242E-01 -0.30842484047E-02 -0.20403065453E-01  0.23715330611E-01  0.00000000000E+00 0.  1.
     999901    1    3    3    0    0  0.72807642730E-01 -0.26746653780E-01 -0.91098202180E-01  0.88809640173E+00  0.88000000000E+00 0.  1.
        -11    1    4    4    0    0 -0.28963417252E-01  0.22454623535E-01  0.46367927310E-01  0.59104445357E-01  0.51100000000E-03 0. -1.
         11    1    4    4    0    0 -0.32155802235E-01  0.73762786501E-02  0.65133340323E-01  0.73013822300E-01  0.51100000000E-03 0.  1.
</event>
<event>
 8    1  0.1114333E+005  0.1043930E+01  0.7957747E-01            NaN
         13   -1    0    0    0    0  0.00000000000E+00  0.00000000000E+00  0.74505805969E-08  0.10566000000E+00  0.10566000000E+00 0. -1.
     999900   -1    0    0    0    0 -0.00000000000E+00 -0.00000000000E+00 -0.74505805969E-08  0.93827000000E+00  0.93827000000E+00 0.  1.
     999902    2    1    2    0    0  0.19964815300E-01  0.57435019459E-02  0.10729306088E-01  0.10205483903E+01  0.10202805091E+01 0.  0.
     999903    2    3    3    0    0 -0.12538085556E+00  0.68325555018E-02 -0.70439910623E-02  0.12844837336E+00  0.26121333294E-01 0.  0.
         14    1    1    2    0    0 -0.19964815300E-01 -0.57435019459E-02 -0.10729306088E-01  0.23381609733E-01  0.00000000000E+00 0.  1.
     999901    1    3    3    0    0  0.14534567086E+00 -0.10890535559E-02  0.17773297150E-01  0.89210001691E+00  0.88000000000E+00 0. -1.
        -11    1    4    4    0    0 -0.65671133219E-01  0.16626519529E-01 -0.36098229654E-02  0.67841217801E-01  0.51100000000E-03 0. -1.
         11    1    4    4    0    0 -0.59709722340E-01 -0.97939640270E-02 -0.34341680969E-02  0.60607155558E-01  0.51100000000E-03 0.  1.
</event>
<event>
 8    1  0.1114333E+005  0.1043930E+01  0.7957747E-01            NaN
         13   -1    0    0    0    0  0.00000000000E+00  0.00000000000E+00  0.74505805969E-08  0.10566000000E+00  0.10566000000E+00 0. -1.
     999900   -1    0    0    0    0 -0.00000000000E+00 -0.00000000000E+00 -0.74505805969E-08  0.93827000000E+00  0.93827000000E+00 0.  1.
     999902    2    1    2    0    0 -0.18173880009E-01  0.17263337841E-01  0.23095981695E-02  0.10187576542E+01  0.10184466167E+01 0.  0.
     999903    2    3    3    0    0  0.48906622569E-01  0.11565768298E+00  0.29292428575E-01  0.13032683862E+00  0.18933597939E-01 0.  0.
         14    1    1    2    0    0  0.18173880009E-01 -0.17263337841E-01 -0.23095981695E-02  0.25172345773E-01  0.00000000000E+00 0. -1.
     999901    1    3    3    0    0 -0.67080502579E-01 -0.98394345134E-01 -0.26982830406E-01  0.88843081561E+00  0.88000000000E+00 0.  1.
        -11    1    4    4    0    0  0.25179011475E-01  0.45946299771E-01  0.20082707734E-01  0.56112577489E-01  0.51100000000E-03 0.  1.
         11    1    4    4    0    0  0.23727611094E-01  0.69711383204E-01  0.92097208411E-02  0.74214261133E-01  0.51100000000E-03 0. -1.
</event>
<event>
 8    1  0.1114333E+005  0.1043930E+01  0.7957747E-01            NaN
         13   -1    0    0    0    0  0.00000000000E+00  0.00000000000E+00  0.74505805969E-08  0.10566000000E+00  0.10566000000E+00 0.  1.
     999900   -1    0    0    0    0 -0.00000000000E+00 -0.00000000000E+00 -0.74505805969E-08  0.93827000000E+00  0.93827000000E+00 0. -1.
     999902    2    1    2    0    0 -0.15462373179E-01  0.12182257271E-01  0.13380796675E-01  0.10201279392E+01  0.10198502215E+01 0.  0.
     999903    2    3    3    0    0 -0.82386769645E-01 -0.86048815717E-01  0.51627999837E-01  0.13131352268E+00  0.19642107137E-01 0.  0.
         14    1    1    2    0    0  0.15462373179E-01 -0.12182257271E-01 -0.13380796675E-01  0.23802060755E-01  0.00000000000E+00 0. -1.
     999901    1    3    3    0    0  0.66924396466E-01  0.98231072988E-01 -0.38247203162E-01  0.88881441656E+00  0.88000000000E+00 0. -1.
        -11    1    4    4    0    0 -0.62397513811E-01 -0.74683057873E-01  0.37347745263E-01  0.10424070251E+00  0.51100000000E-03 0.  1.
         11    1    4    4    0    0 -0.19989255834E-01 -0.11365757844E-01  0.14280254574E-01  0.27072820168E-01  0.51100000000E-03 0. -1.
</event>
<event>
 8    1  0.1114333E+005  0.1043930E+01  0.7957747E-01            NaN
         13   -1    0    0    0    0  0.00000000000E+00  0.00000000000E+00  0.74505805969E-08  0.10566000000E+00  0.10566000000E+00 0.  1.
     999900   -1    0    0    0    0 -0.00000000000E+00 -0.00000000000E+00 -0.74505805969E-08  0.93827000000E+00  0.93827000000E+00 0. -1.
     999902    2    1    2    0    0  0.23469648744E-02  0.22919333403E-01  0.45218174968E-02  0.10204512666E+01  0.10201811293E+01 0.  0.
     999903    2    3    3    0    0 -0.10395818396E+00  0.12809517279E-01  0.76216927102E-01  0.13110140194E+00  0.20178450611E-01 0.  0.
         14    1    1    2    0    0 -0.23469648744E-02 -0.22919333403E-01 -0.45218174968E-02  0.23478733383E-01  0.00000000000E+00 0. -1.
     999901    1    3    3    0    0  0.10630514884E+00  0.10109816125E-01 -0.71695109605E-01  0.88934986467E+00  0.88000000000E+00 0. -1.
        -11    1    4    4    0    0 -0.97195240274E-01  0.16161206273E-01  0.73978683074E-01  0.12321203671E+00  0.51100000000E-03 0.  1.
         11    1    4    4    0    0 -0.67629436898E-02 -0.33516889940E-02  0.22382440281E-02  0.78893652339E-02  0.51100000000E-03 0. -1.
</event>
<event>
 8    1  0.1114333E+005  0.1043930E+01  0.7957747E-01            NaN
         13   -1    0    0    0    0  0.00000000000E+00  0.00000000000E+00  0.74505805969E-08  0.10566000000E+00  0.10566000000E+00 0.  1.
     999900   -1    0    0    0    0 -0.00000000000E+00 -0.00000000000E+00 -0.74505805969E-08  0.93827000000E+00  0.93827000000E+00 0. -1.
     999902    2    1    2    0    0 -0.18049698571E-01  0.92600115496E-02  0.14091963449E-02  0.10235946793E+01  0.10233926628E+01 0.  0.
     999903    2    3    3    0    0 -0.23075706195E-01 -0.12895169070E+00 -0.12213035154E-01  0.13268879172E+00  0.17208441788E-01 0.  0.
         14    1    1    2    0    0  0.18049698571E-01 -0.92600115496E-02 -0.14091963449E-02  0.20335320670E-01  0.00000000000E+00 0.  1.
     999901    1    3    3    0    0  0.50260076240E-02  0.13821170225E+00  0.13622231499E-01  0.89090588761E+00  0.88000000000E+00 0.  1.
        -11    1    4    4    0    0 -0.13403817677E-01 -0.63808870388E-01  0.23228246426E-02  0.65244853466E-01  0.51100000000E-03 0. -1.
         11    1    4    4    0    0 -0.96718885184E-02 -0.65142820313E-01 -0.14535859797E-01  0.67443938251E-01  0.51100000000E-03 0.  1.
</event>
<event>
 8    1  0.1114333E+005  0.1043930E+01  0.7957747E-01            NaN
         13   -1    0    0    0    0  0.00000000000E+00  0.00000000000E+00  0.74505805969E-08  0.10566000000E+00  0.10566000000E+00 0. -1.
     999900   -1    0    0    0    0 -0.00000000000E+00 -0.00000000000E+00 -0.74505805969E-08  0.93827000000E+00  0.93827000000E+00 0.  1.
     999902    2    1    2    0    0  0.18058628867E-01  0.16203170537E-01 -0.96047410699E-02  0.10178357887E+01  0.10175012457E+01 0.  0.
     999903    2    3    3    0    0 -0.12380306089E+00 -0.39918403156E-03 -0.14068175930E-01  0.12630884046E+00  0.20703921607E-01 0.  0.
         14    1    1    2    0    0 -0.18058628867E-01 -0.16203170537E-01  0.96047410699E-02  0.26094211293E-01  0.00000000000E+00 0.  1.
     999901    1    3    3    0    0  0.14186168976E+00  0.16602354569E-01  0.44634348606E-02  0.89152694825E+00  0.88000000000E+00 0.  1.
        -11    1    4    4    0    0 -0.88767993392E-01  0.76918696846E-02 -0.14894992415E-01  0.90338493624E-01  0.51100000000E-03 0. -1.
         11    1    4    4    0    0 -0.35035067501E-01 -0.80910537162E-02  0.82681648406E-03  0.35970346837E-01  0.51100000000E-03 0.  1.
</event>
<event>
 8    1  0.1114333E+005  0.1043930E+01  0.7957747E-01            NaN
         13   -1    0    0    0    0  0.00000000000E+00  0.00000000000E+00  0.74505805969E-08  0.10566000000E+00  0.10566000000E+00 0. -1.
     999900   -1    0    0    0    0 -0.00000000000E+00 -0.00000000000E+00 -0.74505805969E-08  0.93827000000E+00  0.93827000000E+00 0. -1.
     999902    2    1    2    0    0  0.75139728501E-02  0.22279083544E-01  0.45753160245E-02  0.10199769027E+01  0.10196956072E+01 0.  0.
     999903    2    3    3    0    0  0.18402735806E-01 -0.11745029935E+00  0.43029393841E-01  0.12805673720E+00  0.20341231623E-01 0.  0.
         14    1    1    2    0    0 -0.75139728501E-02 -0.22279083544E-01 -0.45753160245E-02  0.23953097259E-01  0.00000000000E+00 0.  1.
     999901    1    3    3    0    0 -0.10888762955E-01  0.13972938290E+00 -0.38454077817E-01  0.89192016554E+00  0.88000000000E+00 0. -1.
        -11    1    4    4    0    0  0.20933548967E-01 -0.99158426819E-01  0.41524396389E-01  0.10952234337E+00  0.51100000000E-03 0. -1.
         11    1    4    4    0    0 -0.25308131619E-02 -0.18291872534E-01  0.15049974519E-02  0.18534393823E-01  0.51100000000E-03 0.  1.
</event>
<event>
 8    1  0.1114333E+005  0.1043930E+01  0.7957747E-01            NaN
         13   -1    0    0    0    0  0.00000000000E+00  0.00000000000E+00  0.74505805969E-08  0.10566000000E+00  0.10566000000E+00 0.  1.
     999900   -1    0    0    0    0 -0.00000000000E+00 -0.00000000000E+00 -0.74505805969E-08  0.93827000000E+00  0.93827000000E+00 0.  1.
     999902    2    1    2    0    0  0.37430873863E-02 -0.96677010565E-03  0.23358031353E-01  0.10202542112E+01  0.10199794667E+01 0.  0.
     999903    2    3    3    0    0  0.25733808041E-01  0.27268412374E-01  0.12659586406E+00  0.13349670914E+00  0.19724689221E-01 0.  0.
         14    1    1    2    0    0 -0.37430873863E-02  0.96677010565E-03 -0.23358031353E-01  0.23675788821E-01  0.00000000000E+00 0. -1.
     999901    1    3    3    0    0 -0.21990720655E-01 -0.28235182480E-01 -0.10323783270E+00  0.88675750204E+00  0.88000000000E+00 0.  1.
        -11    1    4    4    0    0  0.21177716040E-01  0.12400353637E-01  0.97031856337E-01  0.10008849430E+00  0.51100000000E-03 0. -1.
         11    1    4    4    0    0  0.45560920017E-02  0.14868058737E-01  0.29564007720E-01  0.33408214834E-01  0.51100000000E-03 0.  1.
</event>
<event>
 8    1  0.1114333E+005  0.1043930E+01  0.7957747E-01            NaN
         13   -1    0    0    0    0  0.00000000000E+00  0.00000000000E+00  0.74505805969E-08  0.10566000000E+00  0.10566000000E+00 0.  1.
     999900   -1    0    0    0    0 -0.00000000000E+00 -0.00000000000E+00 -0.74505805969E-08  0.93827000000E+00  0.93827000000E+00 0.  1.
     999902    2    1    2    0    0  0.11631267015E-01  0.93725521359E-02 -0.18231203315E-01  0.10203607853E+01  0.10200885375E+01 0.  0.
     999903    2    3    3    0    0  0.70731782108E-03  0.13062887188E+00 -0.26740925926E-02  0.13184266428E+00  0.17633345869E-01 0.  0.
         14    1    1    2    0    0 -0.11631267015E-01 -0.93725521359E-02  0.18231203315E-01  0.23569214672E-01  0.00000000000E+00 0.  1.
     999901    1    3    3    0    0  0.10923949194E-01 -0.12125631974E+00 -0.15557110723E-01  0.88851812105E+00  0.88000000000E+00 0.  1.
        -11    1    4    4    0    0 -0.82871622690E-02  0.50621577187E-01 -0.50044999565E-03  0.51300416242E-01  0.51100000000E-03 0. -1.
         11    1    4    4    0    0  0.89944800900E-02  0.80007294688E-01 -0.21736425970E-02  0.80542248035E-01  0.51100000000E-03 0.  1.
</event>
<event>
 8    1  0.1114333E+005  0.1043930E+01  0.7957747E-01            NaN
         13   -1    0    0    0    0  0.00000000000E+00  0.00000000000E+00  0.74505805969E-08  0.10566000000E+00  0.10566000000E+00 0. -1.
     999900   -1    0    0    0    0 -0.00000000000E+00 -0.00000000000E+00 -0.74505805969E-08  0.93827000000E+00  0.93827000000E+00 0.  1.
     999902    2    1    2    0    0  0.23797737389E-01 -0.20795955745E-02  0.29355431456E-02  0.10198618793E+01  0.10195778432E+01 0.  0.
     999903    2    3    3    0    0  0.12213690446E+00  0.32271483621E-01  0.36812260446E-01  0.13307091156E+00  0.19845727432E-01 0.  0.
         14    1    1    2    0    0 -0.23797737389E-01  0.20795955745E-02 -0.29355431456E-02  0.24068120744E-01  0.00000000000E+00 0.  1.
     999901    1    3    3    0    0 -0.98339167069E-01 -0.34351079196E-01 -0.33876717300E-01  0.88679096770E+00  0.88000000000E+00 0. -1.
        -11    1    4    4    0    0  0.39939423362E-01  0.19615902509E-01  0.92103958444E-02  0.45442641674E-01  0.51100000000E-03 0. -1.
         11    1    4    4    0    0  0.82197481096E-01  0.12655581112E-01  0.27601864601E-01  0.87628269881E-01  0.51100000000E-03 0.  1.
</event>
<event>
 8    1  0.1114333E+005  0.1043930E+01  0.7957747E-01            NaN
         13   -1    0    0    0    0  0.00000000000E+00  0.00000000000E+00  0.74505805969E-08  0.10566000000E+00  0.10566000000E+00 0.  1.
     999900   -1    0    0    0    0 -0.00000000000E+00 -0.00000000000E+00 -0.74505805969E-08  0.93827000000E+00  0.93827000000E+00 0.  1.
     999902    2    1    2    0    0 -0.18374256578E-01 -0.39900644295E-02  0.15592081253E-01  0.10195036430E+01  0.10192109846E+01 0.  0.
     999903    2    3    3    0    0 -0.10204715248E+00 -0.80538268867E-01 -0.52935404923E-02  0.13198069100E+00  0.22155070406E-01 0.  0.
         14    1    1    2    0    0  0.18374256578E-01  0.39900644295E-02 -0.15592081253E-01  0.24426357010E-01  0.00000000000E+00 0. -1.
     999901    1    3    3    0    0  0.83672895903E-01  0.76548204437E-01  0.20885621746E-01  0.88752295199E+00  0.88000000000E+00 0. -1.
        -11    1    4    4    0    0 -0.72007608445E-01 -0.43314400383E-01 -0.27618971048E-02  0.84078071761E-01  0.51100000000E-03 0.  1.
         11    1    4    4    0    0 -0.30039544036E-01 -0.37223868484E-01 -0.25316433875E-02  0.47902619240E-01  0.51100000000E-03 0. -1.
</event>
<event>
 8    1  0.1114333E+005  0.1043930E+01  0.7957747E-01            NaN
         13   -1    0    0    0    0  0.00000000000E+00  0.00000000000E+00  0.74505805969E-08  0.10566000000E+00  0.10566000000E+00 0.  1.
     999900   -1    0    0    0    0 -0.00000000000E+00 -0.00000000000E+00 -0.74505805969E-08  0.93827000000E+00  0.93827000000E+00 0.  1.
     999902    2    1    2    0    0 -0.17094711211E-01  0.81422490767E-03 -0.15352071405E-01  0.10209391712E+01  0.10206802697E+01 0.  0.
     999903    2    3    3    0    0  0.11496504538E+00 -0.10734785709E-01 -0.56349604426E-01  0.13006658956E+00  0.20244567633E-01 0.  0.
         14    1    1    2    0    0  0.17094711211E-01 -0.81422490767E-03  0.15352071405E-01  0.22990828823E-01  0.00000000000E+00 0.  1.
     999901    1    3    3    0    0 -0.13205975659E+00  0.11549010617E-01  0.40997533021E-01  0.89087258161E+00  0.88000000000E+00 0. -1.
        -11    1    4    4    0    0  0.86017563170E-01 -0.42204777548E-02 -0.32706572827E-01  0.92123909130E-01  0.51100000000E-03 0.  1.
         11    1    4    4    0    0  0.28947482208E-01 -0.65143079544E-02 -0.23643031599E-01  0.37942680434E-01  0.51100000000E-03 0. -1.
</event>
<event>
 8    1  0.1114333E+005  0.1043930E+01  0.7957747E-01            NaN
         13   -1    0    0    0    0  0.00000000000E+00  0.00000000000E+00  0.74505805969E-08  0.10566000000E+00  0.10566000000E+00 0.  1.
     999900   -1    0    0    0    0 -0.00000000000E+00 -0.00000000000E+00 -0.74505805969E-08  0.93827000000E+00  0.93827000000E+00 0. -1.
     999902    2    1    2    0    0 -0.65419287199E-02  0.11817037486E-02 -0.22996071515E-01  0.10199923192E+01  0.10197113899E+01 0.  0.
     999903    2    3    3    0    0  0.66454275789E-01  0.62347972859E-02 -0.11258232938E+00  0.13242278550E+00  0.20148691357E-01 0.  0.
         14    1    1    2    0    0  0.65419287199E-02 -0.11817037486E-02  0.22996071515E-01  0.23937680762E-01  0.00000000000E+00 0.  1.
     999901    1    3    3    0    0 -0.72996204509E-01 -0.50530935373E-02  0.89586257860E-01  0.88756953374E+00  0.88000000000E+00 0.  1.
        -11    1    4    4    0    0  0.65813397288E-02  0.71948347870E-02 -0.13750870050E-01  0.16864970453E-01  0.51100000000E-03 0. -1.
         11    1    4    4    0    0  0.59872936060E-01 -0.96003750111E-03 -0.98831459325E-01  0.11555781504E+00  0.51100000000E-03 0.  1.
</event>
<event>
 8    1  0.1114333E+005  0.1043930E+01  0.7957747E-01            NaN
         13   -1    0    0    0    0  0.00000000000E+00  0.00000000000E+00  0.74505805969E-08  0.10566000000E+00  0.10566000000E+00 0. -1.
     999900   -1    0    0    0    0 -0.00000000000E+00 -0.00000000000E+00 -0.74505805969E-08  0.93827000000E+00  0.93827000000E+00 0.  1.
     999902    2    1    2    0    0 -0.20432680626E-01  0.63364577221E-02  0.87632246761E-02  0.10208120580E+01  0.10205502528E+01 0.  0.
     999903    2    3    3    0    0 -0.43556312784E-01 -0.96462691256E-01 -0.73997166975E-01  0.13067069296E+00  0.19926015403E-01 0.  0.
         14    1    1    2    0    0  0.20432680626E-01 -0.63364577221E-02 -0.87632246761E-02  0.23117941966E-01  0.00000000000E+00 0. -1.
     999901    1    3    3    0    0  0.23123632158E-01  0.10279914898E+00  0.82760391651E-01  0.89014136508E+00  0.88000000000E+00 0.  1.
        -11    1    4    4    0    0 -0.49322252696E-02 -0.30860758125E-01 -0.26158501478E-01  0.40758331157E-01  0.51100000000E-03 0. -1.
         11    1    4    4    0    0 -0.38624087515E-01 -0.65601933131E-01 -0.47838665497E-01  0.89912361800E-01  0.51100000000E-03 0.  1.
</event>
<event>
 8    1  0.1114333E+005  0.1043930E+01  0.7957747E-01            NaN
         13   -1    0    0    0    0  0.00000000000E+00  0.00000000000E+00  0.74505805969E-08  0.10566000000E+00  0.10566000000E+00 0. -1.
     999900   -1    0    0    0    0 -0.00000000000E+00 -0.00000000000E+00 -0.74505805969E-08  0.93827000000E+00  0.93827000000E+00 0. -1.
     999902    2    1    2    0    0 -0.22873204418E-01  0.70533831496E-02 -0.30696711645E-02  0.10197979347E+01  0.10195123693E+01 0.  0.
     999903    2    3    3    0    0 -0.34408147082E-01  0.46223062023E-01  0.11568346394E+00  0.13088307616E+00  0.20669391568E-01 0.  0.
         14    1    1    2    0    0  0.22873204418E-01 -0.70533831496E-02  0.30696711645E-02  0.24132065292E-01  0.00000000000E+00 0.  1.
     999901    1    3    3    0    0  0.11534942664E-01 -0.39169678873E-01 -0.11875313511E+00  0.88891485855E+00  0.88000000000E+00 0. -1.
        -11    1    4    4    0    0 -0.34988316234E-01  0.33691046157E-01  0.88992959617E-01  0.10138676860E+00  0.51100000000E-03 0. -1.
         11    1    4    4    0    0  0.58016915245E-03  0.12532015866E-01  0.26690504325E-01  0.29496307566E-01  0.51100000000E-03 0.  1.
</event>
<event>
 8    1  0.1114333E+005  0.1043930E+01  0.7957747E-01            NaN
         13   -1    0    0    0    0  0.00000000000E+00  0.00000000000E+00  0.74505805969E-08  0.10566000000E+00  0.10566000000E+00 0. -1.
     999900   -1    0    0    0    0 -0.00000000000E+00 -0.00000000000E+00 -0.74505805969E-08  0.93827000000E+00  0.93827000000E+00 0.  1.
     999902    2    1    2    0    0 -0.70766026892E-02  0.23569020281E-01 -0.75882406483E-03  0.10193098287E+01  0.10190124504E+01 0.  0.
     999903    2    3    3    0    0  0.14103140749E-01  0.12864863275E+00 -0.21315366335E-01  0.13256698098E+00  0.19242928976E-01 0.  0.
         14    1    1    2    0    0  0.70766026892E-02 -0.23569020281E-01  0.75882406483E-03  0.24620171336E-01  0.00000000000E+00 0. -1.
     999901    1    3    3    0    0 -0.21179743438E-01 -0.10507961247E+00  0.20556542270E-01  0.88674284768E+00  0.88000000000E+00 0.  1.
        -11    1    4    4    0    0 -0.32717061171E-02  0.56374428967E-01 -0.10730767752E-01  0.57482091123E-01  0.51100000000E-03 0.  1.
         11    1    4    4    0    0  0.17374846866E-01  0.72274203787E-01 -0.10584598583E-01  0.75084889857E-01  0.51100000000E-03 0. -1.
</event>
<event>
 8    1  0.1114333E+005  0.1043930E+01  0.7957747E-01            NaN
         13   -1    0    0    0    0  0.00000000000E+00  0.00000000000E+00  0.74505805969E-08  0.10566000000E+00  0.10566000000E+00 0.  1.
     999900   -1    0    0    0    0 -0.00000000000E+00 -0.00000000000E+00 -0.74505805969E-08  0.93827000000E+00  0.93827000000E+00 0. -1.
     999902    2    1    2    0    0 -0.36353120912E-02  0.15195320410E-01  0.18202826894E-01  0.10199413326E+01  0.10196591910E+01 0.  0.
     999903    2    3    3    0    0 -0.59201852136E-01  0.11588700964E+00  0.16359803781E-01  0.13245620406E+00  0.18502554289E-01 0.  0.
         14    1    1    2    0    0  0.36353120912E-02 -0.15195320410E-01 -0.18202826894E-01  0.23988667393E-01  0.00000000000E+00 0. -1.
     999901    1    3    3    0    0  0.55566540045E-01 -0.10069168923E+00  0.18430231132E-02  0.88748512854E+00  0.88000000000E+00 0.  1.
        -11    1    4    4    0    0 -0.52498950168E-01  0.86677990817E-01  0.10134339080E-01  0.10184389923E+00  0.51100000000E-03 0.  1.
         11    1    4    4    0    0 -0.67029019679E-02  0.29209018824E-01  0.62254647005E-02  0.30612304833E-01  0.51100000000E-03 0. -1.
</event>
<event>
 8    1  0.1114333E+005  0.1043930E+01  0.7957747E-01            NaN
         13   -1    0    0    0    0  0.00000000000E+00  0.00000000000E+00  0.74505805969E-08  0.10566000000E+00  0.10566000000E+00 0.  1.
     999900   -1    0    0    0    0 -0.00000000000E+00 -0.00000000000E+00 -0.74505805969E-08  0.93827000000E+00  0.93827000000E+00 0. -1.
     999902    2    1    2    0    0 -0.22305527012E-01  0.68080511747E-02 -0.34449819691E-02  0.10203555648E+01  0.10200831949E+01 0.  0.
     999903    2    3    3    0    0  0.67171453614E-01  0.32408480063E-02  0.10783842312E+00  0.12883840214E+00  0.21158948184E-01 0.  0.
         14    1    1    2    0    0  0.22305527012E-01 -0.68080511747E-02  0.34449819691E-02  0.23574435239E-01  0.00000000000E+00 0.  1.
     999901    1    3    3    0    0 -0.89476980626E-01  0.35672031685E-02 -0.11128340509E+00  0.89151716262E+00  0.88000000000E+00 0. -1.
        -11    1    4    4    0    0  0.16430642783E-02 -0.37599237739E-02  0.10534295693E-01  0.11316766046E-01  0.51100000000E-03 0.  1.
         11    1    4    4    0    0  0.65528389336E-01  0.70007717802E-02  0.97304127428E-01  0.11752163609E+00  0.51100000000E-03 0. -1.
</event>
<event>
 8    1  0.1114333E+005  0.1043930E+01  0.7957747E-01            NaN
         13   -1    0    0    0    0  0.00000000000E+00  0.00000000000E+00  0.74505805969E-08  0.10566000000E+00  0.10566000000E+00 0. -1.
     999900   -1    0    0    0    0 -0.00000000000E+00 -0.00000000000E+00 -0.74505805969E-08  0.93827000000E+00  0.93827000000E+00 0. -1.
     999902    2    1    2    0    0 -0.45366793804E-02  0.12096107622E-01 -0.22167714186E-01  0.10182725482E+01  0.10179492510E+01 0.  0.
     999903    2    3    3    0    0 -0.97268095172E-01 -0.64015069086E-01 -0.53428798693E-01  0.12958290493E+00  0.19444313092E-01 0.  0.
         14    1    1    2    0    0  0.45366793804E-02 -0.12096107622E-01  0.22167714186E-01  0.25657451777E-01  0.00000000000E+00 0. -1.
     999901    1    3    3    0    0  0.92731415791E-01  0.76111176708E-01  0.31261084506E-01  0.88868964329E+00  0.88000000000E+00 0. -1.
        -11    1    4    4    0    0 -0.35280863187E-01 -0.16052393366E-01 -0.10243039205E-01  0.40094882630E-01  0.51100000000E-03 0.  1.
         11    1    4    4    0    0 -0.61987231985E-01 -0.47962675720E-01 -0.43185759488E-01  0.89488022299E-01  0.51100000000E-03 0. -1.
</event>
<event>
 8    1  0.1114333E+005  0.1043930E+01  0.7957747E-01            NaN
         13   -1    0    0    0    0  0.00000000000E+00  0.00000000000E+00  0.74505805969E-08  0.10566000000E+00  0.10566000000E+00 0.  1.
     999900   -1    0    0    0    0 -0.00000000000E+00 -0.00000000000E+00 -0.74505805969E-08  0.93827000000E+00  0.93827000000E+00 0.  1.
     999902    2    1    2    0    0 -0.29379252110E-02 -0.74276627148E-02  0.22168707105E-01  0.10203661898E+01  0.10200940682E+01 0.  0.
     999903    2    3    3    0    0 -0.40548275224E-01  0.26422690552E-02 -0.11968764152E+00  0.12815591993E+00  0.21158073452E-01 0.  0.
         14    1    1    2    0    0  0.29379252110E-02  0.74276627148E-02 -0.22168707105E-01  0.23563810232E-01  0.00000000000E+00 0. -1.
     999901    1    3    3    0    0  0.37610350013E-01 -0.10069931770E-01  0.14185634862E+00  0.89221026983E+00  0.88000000000E+00 0. -1.
        -11    1    4    4    0    0  0.27303778430E-03  0.42967351784E-02 -0.19118607264E-01  0.19604049264E-01  0.51100000000E-03 0. -1.
         11    1    4    4    0    0 -0.40821313008E-01 -0.16544661232E-02 -0.10056903425E+00  0.10855187067E+00  0.51100000000E-03 0.  1.
</event>
<event>
 8    1  0.1114333E+005  0.1043930E+01  0.7957747E-01            NaN
         13   -1    0    0    0    0  0.00000000000E+00  0.00000000000E+00  0.74505805969E-08  0.10566000000E+00  0.10566000000E+00 0. -1.
     999900   -1    0    0    0    0 -0.00000000000E+00 -0.00000000000E+00 -0.74505805969E-08  0.93827000000E+00  0.93827000000E+00 0.  1.
     999902    2    1    2    0    0  0.20152641557E-01  0.64548613831E-02 -0.11586027644E-01  0.10198046972E+01  0.10195192937E+01 0.  0.
     999903    2    3    3    0    0  0.77861429644E-01 -0.44074218348E-01  0.92970227010E-01  0.13030174473E+00  0.18169827176E-01 0.  0.
         14    1    1    2    0    0 -0.20152641557E-01 -0.64548613831E-02  0.11586027644E-01  0.24125302771E-01  0.00000000000E+00 0. -1.
     999901    1    3    3    0    0 -0.57708788087E-01  0.50529079731E-01 -0.10455625465E+00  0.88950295250E+00  0.88000000000E+00 0.  1.
        -11    1    4    4    0    0  0.25246708315E-02 -0.45835595969E-02  0.16681553216E-02  0.55160533503E-02  0.51100000000E-03 0.  1.
         11    1    4    4    0    0  0.75336758813E-01 -0.39490658751E-01  0.91302071689E-01  0.12478569138E+00  0.51100000000E-03 0. -1.
</event>
<event>
 8    1  0.1114333E+005  0.1043930E+01  0.7957747E-01            NaN
         13   -1    0    0    0    0  0.00000000000E+00  0.00000000000E+00  0.74505805969E-08  0.10566000000E+00  0.10566000000E+00 0. -1.
     999900   -1    0    0    0    0 -0.00000000000E+00 -0.00000000000E+00 -0.74505805969E-08  0.93827000000E+00  0.93827000000E+00 0.  1.
     999902    2    1    2    0    0 -0.16687826802E-01  0.91319831904E-02 -0.14983151357E-01  0.10197148910E+01  0.10194273331E+01 0.  0.
     999903    2    3    3    0    0  0.95528661661E-01  0.19067363582E-01 -0.83647879376E-01  0.12988002038E+00  0.19559202846E-01 0.  0.
         14    1    1    2    0    0  0.16687826802E-01 -0.91319831904E-02  0.14983151357E-01  0.24215109022E-01  0.00000000000E+00 0. -1.
     999901    1    3    3    0    0 -0.11221648846E+00 -0.99353803914E-02  0.68664728019E-01  0.88983487060E+00  0.88000000000E+00 0.  1.
        -11    1    4    4    0    0  0.41347836987E-01  0.15585582080E-01 -0.46145939773E-01  0.63892588544E-01  0.51100000000E-03 0.  1.
         11    1    4    4    0    0  0.54180824674E-01  0.34817815016E-02 -0.37501939603E-01  0.65987431832E-01  0.51100000000E-03 0. -1.
</event>
<event>
 8    1  0.1114333E+005  0.1043930E+01  0.7957747E-01            NaN
         13   -1    0    0    0    0  0.00000000000E+00  0.00000000000E+00  0.74505805969E-08  0.10566000000E+00  0.10566000000E+00 0. -1.
     999900   -1    0    0    0    0 -0.00000000000E+00 -0.00000000000E+00 -0.74505805969E-08  0.93827000000E+00  0.93827000000E+00 0.  1.
     999902    2    1    2    0    0  0.19614401885E-01 -0.68143575678E-02  0.80418836730E-02  0.10216627118E+01  0.10214200236E+01 0.  0.
     999903    2    3    3    0    0 -0.11671935648E+00  0.33669669423E-01 -0.38322836712E-01  0.12903987017E+00  0.20629916719E-01 0.  0.
         14    1    1    2    0    0 -0.19614401885E-01  0.68143575678E-02 -0.80418836730E-02  0.22267288191E-01  0.00000000000E+00 0. -1.
     999901    1    3    3    0    0  0.13633375837E+00 -0.40484026991E-01  0.46364720385E-01  0.89262284164E+00  0.88000000000E+00 0. -1.
        -11    1    4    4    0    0 -0.79771932416E-01  0.26402743803E-01 -0.35673175048E-01  0.91288020138E-01  0.51100000000E-03 0.  1.
         11    1    4    4    0    0 -0.36947424067E-01  0.72669256202E-02 -0.26496616637E-02  0.37751850035E-01  0.51100000000E-03 0. -1.
</event>
<event>
 8    1  0.1114333E+005  0.1043930E+01  0.7957747E-01            NaN
         13   -1    0    0    0    0  0.00000000000E+00  0.00000000000E+00  0.74505805969E-08  0.10566000000E+00  0.10566000000E+00 0.  1.
     999900   -1    0    0    0    0 -0.00000000000E+00 -0.00000000000E+00 -0.74505805969E-08  0.93827000000E+00  0.93827000000E+00 0. -1.
     999902    2    1    2    0    0 -0.23724716017E-01  0.51478045259E-02  0.40716168300E-02  0.10193141493E+01  0.10190168766E+01 0.  0.
     999903    2    3    3    0    0 -0.33979097024E-01  0.12934342656E-01 -0.12319480513E+00  0.13006585740E+00  0.20452163612E-01 0.  0.
         14    1    1    2    0    0  0.23724716017E-01 -0.51478045259E-02 -0.40716168300E-02  0.24615850688E-01  0.00000000000E+00 0. -1.
     999901    1    3    3    0    0  0.10254381008E-01 -0.77865381305E-02  0.12726642196E+00  0.88924829191E+00  0.88000000000E+00 0.  1.
        -11    1    4    4    0    0 -0.27092105411E-02  0.44599101845E-02 -0.46674525922E-01  0.46968107388E-01  0.51100000000E-03 0.  1.
         11    1    4    4    0    0 -0.31269886483E-01  0.84744324719E-02 -0.76520279207E-01  0.83097750014E-01  0.51100000000E-03 0. -1.
</event>
<event>
 8    1  0.1114333E+005  0.1043930E+01  0.7957747E-01            NaN
         13   -1    0    0    0    0  0.00000000000E+00  0.00000000000E+00  0.74505805969E-08  0.10566000000E+00  0.10566000000E+00 0. -1.
     999900   -1    0    0    0    0 -0.00000000000E+00 -0.00000000000E+00 -0.74505805969E-08  0.93827000000E+00  0.93827000000E+00 0.  1.
     999902    2    1    2    0    0 -0.11466919406E-02 -0.19422969004E-01 -0.12088483250E-01  0.10210237115E+01  0.10207667321E+01 0.  0.
     999903    2    3    3    0    0  0.90373417000E-02 -0.87929238423E-01 -0.99223478786E-01  0.13401225103E+00  0.17342438381E-01 0.  0.
         14    1    1    2    0    0  0.11466919406E-02  0.19422969004E-01  0.12088483250E-01  0.22906288539E-01  0.00000000000E+00 0.  1.
     999901    1    3    3    0    0 -0.10184033641E-01  0.68506269419E-01  0.87134995535E-01  0.88701146043E+00  0.88000000000E+00 0. -1.
        -11    1    4    4    0    0  0.13064362745E-01 -0.55094879324E-01 -0.56680723998E-01  0.80119216769E-01  0.51100000000E-03 0.  1.
         11    1    4    4    0    0 -0.40270210445E-02 -0.32834359099E-01 -0.42542754787E-01  0.53893034260E-01  0.51100000000E-03 0. -1.
</event>
<event>
 8    1  0.1114333E+005  0.1043930E+01  0.7957747E-01            NaN
         13   -1    0    0    0    0  0.00000000000E+00  0.00000000000E+00  0.74505805969E-08  0.10566000000E+00  0.10566000000E+00 0. -1.
     999900   -1    0    0    0    0 -0.00000000000E+00 -0.00000000000E+00 -0.74505805969E-08  0.93827000000E+00  0.93827000000E+00 0. -1.
     999902    2    1    2    0    0  0.58305864639E-02  0.93874919887E-02  0.20353138297E-01  0.10207703156E+01  0.10205075532E+01 0.  0.
     999903    2    3    3    0    0  0.11162780037E+00 -0.28187265527E-01  0.64059293911E-01  0.13256136442E+00  0.14616239142E-01 0.  0.
         14    1    1    2    0    0 -0.58305864639E-02 -0.93874919887E-02 -0.20353138297E-01  0.23159684430E-01  0.00000000000E+00 0.  1.
     999901    1    3    3    0    0 -0.10579721390E+00  0.37574757516E-01 -0.43706155614E-01  0.88820895115E+00  0.88000000000E+00 0. -1.
        -11    1    4    4    0    0  0.40933950932E-01 -0.61102487850E-02  0.29531146007E-01  0.50845581761E-01  0.51100000000E-03 0. -1.
         11    1    4    4    0    0  0.70693849436E-01 -0.22077016742E-01  0.34528147904E-01  0.81715782656E-01  0.51100000000E-03 0.  1.
</event>
<event>
 8    1  0.1114333E+005  0.1043930E+01  0.7957747E-01            NaN
         13   -1    0    0    0    0  0.00000000000E+00  0.00000000000E+00  0.74505805969E-08  0.10566000000E+00  0.10566000000E+00 0. -1.
     999900   -1    0    0    0    0 -0.00000000000E+00 -0.00000000000E+00 -0.74505805969E-08  0.93827000000E+00  0.93827000000E+00 0. -1.
     999902    2    1    2    0    0 -0.24389882183E-01 -0.93281974894E-02 -0.72329514596E-02  0.10168339263E+01  0.10164728410E+01 0.  0.
     999903    2    3    3    0    0 -0.37854716441E-01 -0.11387637229E+00 -0.44985617388E-01  0.12973929418E+00  0.20193339498E-01 0.  0.
         14    1    1    2    0    0  0.24389882183E-01  0.93281974894E-02  0.72329514596E-02  0.27096073666E-01  0.00000000000E+00 0. -1.
     999901    1    3    3    0    0  0.13464834259E-01  0.10454817480E+00  0.37752665929E-01  0.88709463216E+00  0.88000000000E+00 0.  1.
        -11    1    4    4    0    0 -0.32623733981E-01 -0.67161651348E-01 -0.26666959081E-01  0.79286715522E-01  0.51100000000E-03 0. -1.
         11    1    4    4    0    0 -0.52309824599E-02 -0.46714720938E-01 -0.18318658308E-01  0.50452578656E-01  0.51100000000E-03 0.  1.
</event>
<event>
 8    1  0.1114333E+005  0.1043930E+01  0.7957747E-01            NaN
         13   -1    0    0    0    0  0.00000000000E+00  0.00000000000E+00  0.74505805969E-08  0.10566000000E+00  0.10566000000E+00 0. -1.
     999900   -1    0    0    0    0 -0.00000000000E+00 -0.00000000000E+00 -0.74505805969E-08  0.93827000000E+00  0.93827000000E+00 0. -1.
     999902    2    1    2    0    0 -0.95250306516E-02  0.45425200995E-02  0.19493796302E-01  0.10217631601E+01  0.10215226804E+01 0.  0.
     999903    2    3    3    0    0 -0.78052958727E-01  0.10509028213E+00 -0.10534905104E-01  0.13288316127E+00  0.20266192517E-01 0.  0.
         14    1    1    2    0    0  0.95250306516E-02 -0.45425200995E-02 -0.19493796302E-01  0.22166839919E-01  0.00000000000E+00 0.  1.
     999901    1    3    3    0    0  0.68527928075E-01 -0.10054776203E+00  0.30028701406E-01  0.88887999881E+00  0.88000000000E+00 0. -1.
        -11    1    4    4    0    0 -0.15359038682E-01  0.32168144639E-01  0.29560759303E-02  0.35772742481E-01  0.51100000000E-03 0. -1.
         11    1    4    4    0    0 -0.62693920044E-01  0.72922137493E-01 -0.13490981035E-01  0.97110418789E-01  0.51100000000E-03 0.  1.
</event>
<event>
 8    1  0.1114333E+005  0.1043930E+01  0.7957747E-01            NaN
         13   -1    0    0    0    0  0.00000000000E+00  0.00000000000E+00  0.74505805969E-08  0.10566000000E+00  0.10566000000E+00 0. -1.
     999900   -1    0    0    0    0 -0.00000000000E+00 -0.00000000000E+00 -0.74505805969E-08  0.93827000000E+00  0.93827000000E+00 0.  1.
     999902    2    1    2    0    0 -0.94024518542E-02 -0.60684923426E-02  0.20350036116E-01  0.10207059463E+01  0.10204417044E+01 0.  0.
     999903    2    3    3    0    0  0.80555336298E-01  0.99292346206E-01  0.98511765529E-02  0.12980553885E+00  0.20107213020E-01 0.  0.
         14    1    1    2    0    0  0.94024518542E-02  0.60684923426E-02 -0.20350036116E-01  0.23224053697E-01  0.00000000000E+00 0.  1.
     999901    1    3    3    0    0 -0.89957788152E-01 -0.10536083855E+00  0.10498859563E-01  0.89090040745E+00  0.88000000000E+00 0. -1.
        -11    1    4    4    0    0  0.38436274715E-01  0.34260257688E-01  0.92827012675E-02  0.52321526493E-01  0.51100000000E-03 0. -1.
         11    1    4    4    0    0  0.42119061584E-01  0.65032088518E-01  0.56847528546E-03  0.77484012357E-01  0.51100000000E-03 0.  1.
</event>
<event>
 8    1  0.1114333E+005  0.1043930E+01  0.7957747E-01            NaN
         13   -1    0    0    0    0  0.00000000000E+00  0.00000000000E+00  0.74505805969E-08  0.10566000000E+00  0.10566000000E+00 0.  1.
     999900   -1    0    0    0    0 -0.00000000000E+00 -0.00000000000E+00 -0.74505805969E-08  0.93827000000E+00  0.93827000000E+00 0. -1.
     999902    2    1    2    0    0  0.11619296274E-01  0.10698729023E-02 -0.19947011231E-01  0.10208207826E+01  0.10205591772E+01 0.  0.
     999903    2    3    3    0    0  0.10589073890E+00  0.48971278276E-01  0.56707972254E-01  0.13118173439E+00  0.19540180131E-01 0.  0.
         14    1    1    2    0    0 -0.11619296274E-01 -0.10698729023E-02  0.19947011231E-01  0.23109217446E-01  0.00000000000E+00 0.  1.
     999901    1    3    3    0    0 -0.94271442622E-01 -0.47901405374E-01 -0.76654983485E-01  0.88963904817E+00  0.88000000000E+00 0. -1.
        -11    1    4    4    0    0  0.25266239908E-01  0.14803699661E-01  0.23421668094E-01  0.37501574101E-01  0.51100000000E-03 0. -1.
         11    1    4    4    0    0  0.80624498988E-01  0.34167578615E-01  0.33286304160E-01  0.93680160286E-01  0.51100000000E-03 0.  1.
</event>
<event>
 8    1  0.1114333E+005  0.1043930E+01  0.7957747E-01            NaN
         13   -1    0    0    0    0  0.00000000000E+00  0.00000000000E+00  0.74505805969E-08  0.10566000000E+00  0.10566000000E+00 0. -1.
     999900   -1    0    0    0    0 -0.00000000000E+00 -0.00000000000E+00 -0.74505805969E-08  0.93827000000E+00  0.93827000000E+00 0. -1.
     999902    2    1    2    0    0 -0.49428312123E-02  0.10652339800E-01 -0.19498495363E-01  0.10211682943E+01  0.10209145851E+01 0.  0.
     999903    2    3    3    0    0  0.90872552658E-01 -0.68010283947E-01 -0.63347057121E-01  0.13139804728E+00  0.19219199642E-01 0.  0.
         14    1    1    2    0    0  0.49428312123E-02 -0.10652339800E-01  0.19498495363E-01  0.22761705670E-01  0.00000000000E+00 0. -1.
     999901    1    3    3    0    0 -0.95815383870E-01  0.78662623747E-01  0.43848561758E-01  0.88977024705E+00  0.88000000000E+00 0.  1.
        -11    1    4    4    0    0  0.73101887762E-01 -0.44280171446E-01 -0.47187939298E-01  0.97629822871E-01  0.51100000000E-03 0.  1.
         11    1    4    4    0    0  0.17770664896E-01 -0.23730112501E-01 -0.16159117822E-01  0.33768224412E-01  0.51100000000E-03 0. -1.
</event>
<event>
 8    1  0.1114333E+005  0.1043930E+01  0.7957747E-01            NaN
         13   -1    0    0    0    0  0.00000000000E+00  0.00000000000E+00  0.74505805969E-08  0.10566000000E+00  0.10566000000E+00 0.  1.
     999900   -1    0    0    0    0 -0.00000000000E+00 -0.00000000000E+00 -0.74505805969E-08  0.93827000000E+00  0.93827000000E+00 0.  1.
     999902    2    1    2    0    0  0.77527321002E-03 -0.23912387967E-01 -0.96023036599E-02  0.10181500159E+01  0.10178235835E+01 0.  0.
     999903    2    3    3    0    0  0.11120850158E+00 -0.63050389145E-01 -0.15566509525E-01  0.13036465170E+00  0.20247068868E-01 0.  0.
         14    1    1    2    0    0 -0.77527321002E-03  0.23912387967E-01  0.96023036599E-02  0.25779984143E-01  0.00000000000E+00 0.  1.
     999901    1    3    3    0    0 -0.11043322837E+00  0.39138001178E-01  0.59642058648E-02  0.88778536416E+00  0.88000000000E+00 0.  1.
        -11    1    4    4    0    0  0.55425178689E-01 -0.33249583374E-01 -0.17922216354E-01  0.67074228935E-01  0.51100000000E-03 0. -1.
         11    1    4    4    0    0  0.55783322894E-01 -0.29800805771E-01  0.23557068297E-02  0.63290422762E-01  0.51100000000E-03 0.  1.
</event>
<event>
 8    1  0.1155656E+005  0.1043930E+01  0.7957747E-01            NaN
         13   -1    0    0    0    0  0.00000000000E+00  0.00000000000E+00  0.74505805969E-08  0.10566000000E+00  0.10566000000E+00 0. -1.
     999900   -1    0    0    0    0 -0.00000000000E+00 -0.00000000000E+00 -0.74505805969E-08  0.93827000000E+00  0.93827000000E+00 0.  1.
     999902    2    1    2    0    0 -0.49551900064E-02  0.16548274710E-01  0.18022690386E-01  0.10189656920E+01  0.10186598377E+01 0.  0.
     999903    2    3    3    0    0 -0.10507275316E+00 -0.69374319077E-01 -0.15943760645E-01  0.12848271163E+00  0.20013097743E-01 0.  0.
         14    1    1    2    0    0  0.49551900064E-02 -0.16548274710E-01 -0.18022690386E-01  0.24964307974E-01  0.00000000000E+00 0.  1.
     999901    1    3    3    0    0  0.10011756315E+00  0.85922593787E-01  0.33966451031E-01  0.89048298039E+00  0.88000000000E+00 0.  1.
        -11    1    4    4    0    0 -0.63614388409E-01 -0.47976971252E-01 -0.16930283908E-02  0.79697601277E-01  0.51100000000E-03 0. -1.
         11    1    4    4    0    0 -0.41458364750E-01 -0.21397347825E-01 -0.14250732254E-01  0.48785110356E-01  0.51100000000E-03 0.  1.
</event>
<event>
 8    1  0.1114333E+005  0.1043930E+01  0.7957747E-01            NaN
         13   -1    0    0    0    0  0.00000000000E+00  0.00000000000E+00  0.74505805969E-08  0.10566000000E+00  0.10566000000E+00 0. -1.
     999900   -1    0    0    0    0 -0.00000000000E+00 -0.00000000000E+00 -0.74505805969E-08  0.93827000000E+00  0.93827000000E+00 0. -1.
     999902    2    1    2    0    0 -0.10351103134E-01  0.16656770653E-01 -0.12466174548E-01  0.10206921246E+01  0.10204275645E+01 0.  0.
     999903    2    3    3    0    0 -0.62075598096E-01  0.71029092200E-01 -0.92842691017E-01  0.13384819408E+00  0.19926413737E-01 0.  0.
         14    1    1    2    0    0  0.10351103134E-01 -0.16656770653E-01  0.12466174548E-01  0.23237875388E-01  0.00000000000E+00 0. -1.
     999901    1    3    3    0    0  0.51724494962E-01 -0.54372321547E-01  0.80376516469E-01  0.88684393054E+00  0.88000000000E+00 0. -1.
        -11    1    4    4    0    0 -0.37104926505E-01  0.28227579094E-01 -0.40360684604E-01  0.61666990969E-01  0.51100000000E-03 0. -1.
         11    1    4    4    0    0 -0.24970671591E-01  0.42801513106E-01 -0.52482006413E-01  0.72181203107E-01  0.51100000000E-03 0.  1.
</event>
<event>
 8    1  0.1114333E+005  0.1043930E+01  0.7957747E-01            NaN
         13   -1    0    0    0    0  0.00000000000E+00  0.00000000000E+00  0.74505805969E-08  0.10566000000E+00  0.10566000000E+00 0.  1.
     999900   -1    0    0    0    0 -0.00000000000E+00 -0.00000000000E+00 -0.74505805969E-08  0.93827000000E+00  0.93827000000E+00 0. -1.
     999902    2    1    2    0    0  0.34625384323E-02 -0.61663769211E-02  0.23325647639E-01  0.10195558495E+01  0.10192644558E+01 0.  0.
     999903    2    3    3    0    0  0.73754556602E-01 -0.26715675632E-01 -0.99278110654E-01  0.12804313332E+00  0.19632595116E-01 0.  0.
         14    1    1    2    0    0 -0.34625384323E-02  0.61663769211E-02 -0.23325647639E-01  0.24374150539E-01  0.00000000000E+00 0. -1.
     999901    1    3    3    0    0 -0.70292018169E-01  0.20549298711E-01  0.12260375829E+00  0.89151271614E+00  0.88000000000E+00 0.  1.
        -11    1    4    4    0    0  0.64322702831E-01 -0.15485594130E-01 -0.82502831010E-01  0.10575534015E+00  0.51100000000E-03 0. -1.
         11    1    4    4    0    0  0.94318537708E-02 -0.11230081502E-01 -0.16775279644E-01  0.22287793166E-01  0.51100000000E-03 0.  1.
</event>
<event>
 8    1  0.1114333E+005  0.1043930E+01  0.7957747E-01            NaN
         13   -1    0    0    0    0  0.00000000000E+00  0.00000000000E+00  0.74505805969E-08  0.10566000000E+00  0.10566000000E+00 0.  1.
     999900   -1    0    0    0    0 -0.00000000000E+00 -0.00000000000E+00 -0.74505805969E-08  0.93827000000E+00  0.93827000000E+00 0.  1.
     999902    2    1    2    0    0  0.19520239933E-01 -0.27619252734E-02  0.13095345977E-01  0.10202623832E+01  0.10199878306E+01 0.  0.
     999903    2    3    3    0    0 -0.26903390600E-01 -0.11217553934E+00  0.58947400456E-01  0.13108922611E+00  0.20061035064E-01 0.  0.
         14    1    1    2    0    0 -0.19520239933E-01  0.27619252734E-02 -0.13095345977E-01  0.23667616790E-01  0.00000000000E+00 0. -1.
     999901    1    3    3    0    0  0.46423630534E-01  0.10941361407E+00 -0.45852054479E-01  0.88917315710E+00  0.88000000000E+00 0. -1.
        -11    1    4    4    0    0 -0.54051859725E-02 -0.55953718746E-01  0.35514293644E-01  0.66494818226E-01  0.51100000000E-03 0. -1.
         11    1    4    4    0    0 -0.21498204628E-01 -0.56221820596E-01  0.23433106811E-01  0.64594407879E-01  0.51100000000E-03 0.  1.
</event>
<event>
 8    1  0.1114333E+005  0.1043930E+01  0.7957747E-01            NaN
         13   -1    0    0    0    0  0.00000000000E+00  0.00000000000E+00  0.74505805969E-08  0.10566000000E+00  0.10566000000E+00 0. -1.
     999900   -1    0    0    0    0 -0.00000000000E+00 -0.00000000000E+00 -0.74505805969E-08  0.93827000000E+00  0.93827000000E+00 0.  1.
     999902    2    1    2    0    0  0.63291874250E-03 -0.17083251390E-01  0.16159408545E-01  0.10204062982E+01  0.10201351130E+01 0.  0.
     999903    2    3    3    0    0 -0.22448187551E-01 -0.12326284680E+00  0.41794633548E-01  0.13335274356E+00  0.18398703677E-01 0.  0.
         14    1    1    2    0    0 -0.63291874250E-03  0.17083251390E-01 -0.16159408545E-01  0.23523701850E-01  0.00000000000E+00 0.  1.
     999901    1    3    3    0    0  0.23081106293E-01  0.10617959541E+00 -0.25635225003E-01  0.88705355459E+00  0.88000000000E+00 0.  1.
        -11    1    4    4    0    0 -0.17040666413E-01 -0.46790032498E-01  0.19838725063E-01  0.53605294385E-01  0.51100000000E-03 0. -1.
         11    1    4    4    0    0 -0.54075211376E-02 -0.76472814299E-01  0.21955908485E-01  0.79747449176E-01  0.51100000000E-03 0.  1.
</event>
<event>
 8    1  0.1114333E+005  0.1043930E+01  0.7957747E-01            NaN
         13   -1    0    0    0    0  0.00000000000E+00  0.00000000000E+00  0.74505805969E-08  0.10566000000E+00  0.10566000000E+00 0. -1.
     999900   -1    0    0    0    0 -0.00000000000E+00 -0.00000000000E+00 -0.74505805969E-08  0.93827000000E+00  0.93827000000E+00 0.  1.
     999902    2    1    2    0    0 -0.20261911248E-01  0.35250861746E-02 -0.12475936021E-01  0.10198754732E+01  0.10195917617E+01 0.  0.
     999903    2    3    3    0    0 -0.19711234335E-02 -0.80173050483E-01  0.98688417197E-01  0.12875401996E+00  0.20164092235E-01 0.  0.
         14    1    1    2    0    0  0.20261911248E-01 -0.35250861746E-02  0.12475936021E-01  0.24054526800E-01  0.00000000000E+00 0. -1.
     999901    1    3    3    0    0 -0.18290787815E-01  0.83698136657E-01 -0.11116435322E+00  0.89112145324E+00  0.88000000000E+00 0.  1.
        -11    1    4    4    0    0 -0.91409975783E-02 -0.48394412003E-01  0.50123183618E-01  0.70272125390E-01  0.51100000000E-03 0.  1.
         11    1    4    4    0    0  0.71698741448E-02 -0.31778638480E-01  0.48565233579E-01  0.58481894570E-01  0.51100000000E-03 0. -1.
</event>
<event>
 8    1  0.1114333E+005  0.1043930E+01  0.7957747E-01            NaN
         13   -1    0    0    0    0  0.00000000000E+00  0.00000000000E+00  0.74505805969E-08  0.10566000000E+00  0.10566000000E+00 0.  1.
     999900   -1    0    0    0    0 -0.00000000000E+00 -0.00000000000E+00 -0.74505805969E-08  0.93827000000E+00  0.93827000000E+00 0.  1.
     999902    2    1    2    0    0  0.70070816435E-02 -0.22456065191E-01  0.22035702841E-02  0.10203031132E+01  0.10200295158E+01 0.  0.
     999903    2    3    3    0    0  0.88618913421E-01 -0.57088648796E-01  0.78334727087E-01  0.13257800939E+00  0.18115558737E-01 0.  0.
         14    1    1    2    0    0 -0.70070816435E-02  0.22456065191E-01 -0.22035702841E-02  0.23626886782E-01  0.00000000000E+00 0. -1.
     999901    1    3    3    0    0 -0.81611831777E-01  0.34632583606E-01 -0.76131156803E-01  0.88772510383E+00  0.88000000000E+00 0.  1.
        -11    1    4    4    0    0  0.49388491384E-01 -0.31270713710E-01  0.54444590418E-01  0.79884636594E-01  0.51100000000E-03 0.  1.
         11    1    4    4    0    0  0.39230422037E-01 -0.25817935087E-01  0.23890136670E-01  0.52693372794E-01  0.51100000000E-03 0. -1.
</event>
<event>
 8    1  0.1114333E+005  0.1043930E+01  0.7957747E-01            NaN
         13   -1    0    0    0    0  0.00000000000E+00  0.00000000000E+00  0.74505805969E-08  0.10566000000E+00  0.10566000000E+00 0. -1.
     999900   -1    0    0    0    0 -0.00000000000E+00 -0.00000000000E+00 -0.74505805969E-08  0.93827000000E+00  0.93827000000E+00 0.  1.
     999902    2    1    2    0    0 -0.94421016598E-02 -0.10726384171E-01 -0.20040252248E-01  0.10193165827E+01  0.10190193695E+01 0.  0.
     999903    2    3    3    0    0  0.11788888567E-01  0.11876494650E+00 -0.44975191643E-01  0.12923764751E+00  0.20868906503E-01 0.  0.
         14    1    1    2    0    0  0.94421016598E-02  0.10726384171E-01  0.20040252248E-01  0.24613417303E-01  0.00000000000E+00 0. -1.
     999901    1    3    3    0    0 -0.21230990227E-01 -0.12949133067E+00  0.24934939394E-01  0.89007893519E+00  0.88000000000E+00 0. -1.
        -11    1    4    4    0    0  0.17642083472E-01  0.97243242996E-01 -0.35820752499E-01  0.10512316038E+00  0.51100000000E-03 0.  1.
         11    1    4    4    0    0 -0.58531949045E-02  0.21521703507E-01 -0.91544391437E-02  0.24114487128E-01  0.51100000000E-03 0. -1.
</event>
<event>
 8    1  0.1114333E+005  0.1043930E+01  0.7957747E-01            NaN
         13   -1    0    0    0    0  0.00000000000E+00  0.00000000000E+00  0.74505805969E-08  0.10566000000E+00  0.10566000000E+00 0.  1.
     999900   -1    0    0    0    0 -0.00000000000E+00 -0.00000000000E+00 -0.74505805969E-08  0.93827000000E+00  0.93827000000E+00 0.  1.
     999902    2    1    2    0    0  0.23240808128E-01 -0.39671272996E-02  0.75298692186E-03  0.10203410142E+01  0.10200683041E+01 0.  0.
     999903    2    3    3    0    0 -0.11306097090E+00  0.16789870103E-02  0.56981053803E-01  0.12805650292E+00  0.19131787978E-01 0.  0.
         14    1    1    2    0    0 -0.23240808128E-01  0.39671272996E-02 -0.75298692186E-03  0.23588985793E-01  0.00000000000E+00 0.  1.
     999901    1    3    3    0    0  0.13630177902E+00 -0.56461143099E-02 -0.56228066881E-01  0.89228451128E+00  0.88000000000E+00 0.  1.
        -11    1    4    4    0    0 -0.31679690569E-01  0.69573372920E-02  0.10033710806E-01  0.33955026289E-01  0.51100000000E-03 0. -1.
         11    1    4    4    0    0 -0.81381280326E-01 -0.52783502817E-02  0.46947342997E-01  0.94101476634E-01  0.51100000000E-03 0.  1.
</event>
<event>
 8    1  0.1114333E+005  0.1043930E+01  0.7957747E-01            NaN
         13   -1    0    0    0    0  0.00000000000E+00  0.00000000000E+00  0.74505805969E-08  0.10566000000E+00  0.10566000000E+00 0.  1.
     999900   -1    0    0    0    0 -0.00000000000E+00 -0.00000000000E+00 -0.74505805969E-08  0.93827000000E+00  0.93827000000E+00 0. -1.
     999902    2    1    2    0    0  0.22195556084E-01 -0.50779885225E-02 -0.26063804848E-02  0.10210122799E+01  0.10207550410E+01 0.  0.
     999903    2    3    3    0    0 -0.97029388923E-01  0.40551844847E-01 -0.72038552015E-01  0.12909440491E+00  0.20412201442E-01 0.  0.
         14    1    1    2    0    0 -0.22195556084E-01  0.50779885225E-02  0.26063804848E-02  0.22917720143E-01  0.00000000000E+00 0. -1.
     999901    1    3    3    0    0  0.11922494501E+00 -0.45629833369E-01  0.69432171530E-01  0.89191787495E+00  0.88000000000E+00 0. -1.
        -11    1    4    4    0    0 -0.19949740425E-01  0.94953218006E-03 -0.88901058130E-02  0.21867529736E-01  0.51100000000E-03 0.  1.
         11    1    4    4    0    0 -0.77079648497E-01  0.39602312666E-01 -0.63148446202E-01  0.10722687517E+00  0.51100000000E-03 0. -1.
</event>
<event>
 8    1  0.1114333E+005  0.1043930E+01  0.7957747E-01            NaN
         13   -1    0    0    0    0  0.00000000000E+00  0.00000000000E+00  0.74505805969E-08  0.10566000000E+00  0.10566000000E+00 0. -1.
     999900   -1    0    0    0    0 -0.00000000000E+00 -0.00000000000E+00 -0.74505805969E-08  0.93827000000E+00  0.93827000000E+00 0.  1.
     999902    2    1    2    0    0 -0.16404974621E-01  0.12770456803E-01  0.14842003809E-01  0.10183860607E+01  0.10180656539E+01 0.  0.
     999903    2    3    3    0    0 -0.12134922320E+00  0.41474691311E-01 -0.18047134279E-01  0.13107612396E+00  0.20235296560E-01 0.  0.
         14    1    1    2    0    0  0.16404974621E-01 -0.12770456803E-01 -0.14842003809E-01  0.25543939327E-01  0.00000000000E+00 0.  1.
     999901    1    3    3    0    0  0.10494424857E+00 -0.28704234508E-01  0.32889138088E-01  0.88730993671E+00  0.88000000000E+00 0. -1.
        -11    1    4    4    0    0 -0.68062281641E-01  0.16605989104E-01 -0.17727665851E-01  0.72268695254E-01  0.51100000000E-03 0.  1.
         11    1    4    4    0    0 -0.53286941555E-01  0.24868702207E-01 -0.31946842755E-03  0.58807428704E-01  0.51100000000E-03 0. -1.
</event>
<event>
 8    1  0.1114333E+005  0.1043930E+01  0.7957747E-01            NaN
         13   -1    0    0    0    0  0.00000000000E+00  0.00000000000E+00  0.74505805969E-08  0.10566000000E+00  0.10566000000E+00 0.  1.
     999900   -1    0    0    0    0 -0.00000000000E+00 -0.00000000000E+00 -0.74505805969E-08  0.93827000000E+00  0.93827000000E+00 0.  1.
     999902    2    1    2    0    0 -0.65386988675E-02  0.22927580423E-01  0.19850243726E-02  0.10200057686E+01  0.10197251586E+01 0.  0.
     999903    2    3    3    0    0 -0.71635358888E-01 -0.10094533283E+00  0.28717564003E-01  0.12854814062E+00  0.19450992557E-01 0.  0.
         14    1    1    2    0    0  0.65386988675E-02 -0.22927580423E-01 -0.19850243726E-02  0.23924231413E-01  0.00000000000E+00 0. -1.
     999901    1    3    3    0    0  0.65096660021E-01  0.12387291325E+00 -0.26732539630E-01  0.89145762797E+00  0.88000000000E+00 0. -1.
        -11    1    4    4    0    0 -0.41969637861E-01 -0.55893913787E-01  0.64733862582E-02  0.70197905605E-01  0.51100000000E-03 0.  1.
         11    1    4    4    0    0 -0.29665721027E-01 -0.45051419044E-01  0.22244177745E-01  0.58350235017E-01  0.51100000000E-03 0. -1.
</event>
<event>
 8    1  0.1114333E+005  0.1043930E+01  0.7957747E-01            NaN
         13   -1    0    0    0    0  0.00000000000E+00  0.00000000000E+00  0.74505805969E-08  0.10566000000E+00  0.10566000000E+00 0.  1.
     999900   -1    0    0    0    0 -0.00000000000E+00 -0.00000000000E+00 -0.74505805969E-08  0.93827000000E+00  0.93827000000E+00 0.  1.
     999902    2    1    2    0    0 -0.74105598566E-02 -0.11677808307E-01 -0.19292836397E-01  0.10201918210E+01  0.10199156095E+01 0.  0.
     999903    2    3    3    0    0 -0.23040925405E-01  0.91978240822E-01 -0.88467930416E-01  0.13127445790E+00  0.20384493057E-01 0.  0.
         14    1    1    2    0    0  0.74105598566E-02  0.11677808307E-01  0.19292836397E-01  0.23738178963E-01  0.00000000000E+00 0.  1.
     999901    1    3    3    0    0  0.15630365549E-01 -0.10365604913E+00  0.69175094019E-01  0.88891736313E+00  0.88000000000E+00 0. -1.
        -11    1    4    4    0    0 -0.77122647836E-02  0.48599030337E-01 -0.33204187406E-01  0.59364332389E-01  0.51100000000E-03 0. -1.
         11    1    4    4    0    0 -0.15328660622E-01  0.43379210486E-01 -0.55263743011E-01  0.71910125513E-01  0.51100000000E-03 0.  1.
</event>
<event>
 8    1  0.1114333E+005  0.1043930E+01  0.7957747E-01            NaN
         13   -1    0    0    0    0  0.00000000000E+00  0.00000000000E+00  0.74505805969E-08  0.10566000000E+00  0.10566000000E+00 0.  1.
     999900   -1    0    0    0    0 -0.00000000000E+00 -0.00000000000E+00 -0.74505805969E-08  0.93827000000E+00  0.93827000000E+00 0.  1.
     999902    2    1    2    0    0  0.14648924283E-01  0.17316485443E-01  0.60864605270E-02  0.10204460341E+01  0.10201757750E+01 0.  0.
     999903    2    3    3    0    0  0.64810091083E-01 -0.82529198474E-02 -0.11152832355E+00  0.13083759523E+00  0.20284249593E-01 0.  0.
         14    1    1    2    0    0 -0.14648924283E-01 -0.17316485443E-01 -0.60864605270E-02  0.23483965860E-01  0.00000000000E+00 0.  1.
     999901    1    3    3    0    0 -0.50161166800E-01  0.25569405290E-01  0.11761478407E+00  0.88960843891E+00  0.88000000000E+00 0.  1.
        -11    1    4    4    0    0  0.15817314383E-01 -0.10848848337E-02 -0.12782856489E-01  0.20372210249E-01  0.51100000000E-03 0. -1.
         11    1    4    4    0    0  0.48992776700E-01 -0.71680350136E-02 -0.98745467056E-01  0.11046538499E+00  0.51100000000E-03 0.  1.
</event>
<event>
 8    1  0.1114333E+005  0.1043930E+01  0.7957747E-01            NaN
         13   -1    0    0    0    0  0.00000000000E+00  0.00000000000E+00  0.74505805969E-08  0.10566000000E+00  0.10566000000E+00 0.  1.
     999900   -1    0    0    0    0 -0.00000000000E+00 -0.00000000000E+00 -0.74505805969E-08  0.93827000000E+00  0.93827000000E+00 0.  1.
     999902    2    1    2    0    0 -0.52598338053E-02  0.18077690697E-01  0.11338946597E-01  0.10219518185E+01  0.10217154588E+01 0.  0.
     999903    2    3    3    0    0  0.59484592787E-01  0.10313275156E+00  0.56828917442E-01  0.13431701656E+00  0.25233982153E-01 0.  0.
         14    1    1    2    0    0  0.52598338053E-02 -0.18077690697E-01 -0.11338946597E-01  0.21978181511E-01  0.00000000000E+00 0.  1.
     999901    1    3    3    0    0 -0.64744426593E-01 -0.85055060864E-01 -0.45489970846E-01  0.88763480193E+00  0.88000000000E+00 0.  1.
        -11    1    4    4    0    0  0.21840650884E-01  0.48953138423E-01  0.13159739530E-01  0.55198402676E-01  0.51100000000E-03 0. -1.
         11    1    4    4    0    0  0.37643941903E-01  0.54179613139E-01  0.43669177912E-01  0.79118613881E-01  0.51100000000E-03 0.  1.
</event>
<event>
 8    1  0.1114333E+005  0.1043930E+01  0.7957747E-01            NaN
         13   -1    0    0    0    0  0.00000000000E+00  0.00000000000E+00  0.74505805969E-08  0.10566000000E+00  0.10566000000E+00 0.  1.
     999900   -1    0    0    0    0 -0.00000000000E+00 -0.00000000000E+00 -0.74505805969E-08  0.93827000000E+00  0.93827000000E+00 0.  1.
     999902    2    1    2    0    0 -0.10087302902E-01 -0.98613127923E-02  0.18802953269E-01  0.10204236132E+01  0.10201528317E+01 0.  0.
     999903    2    3    3    0    0 -0.92035118780E-01 -0.59025698630E-01 -0.69172956986E-01  0.13088871102E+00  0.19810616040E-01 0.  0.
         14    1    1    2    0    0  0.10087302902E-01  0.98613127923E-02 -0.18802953269E-01  0.23506386823E-01  0.00000000000E+00 0. -1.
     999901    1    3    3    0    0  0.81947815878E-01  0.49164385837E-01  0.87975910255E-01  0.88953490215E+00  0.88000000000E+00 0. -1.
        -11    1    4    4    0    0 -0.54584741458E-02 -0.40366701413E-02 -0.11107421661E-01  0.13027877141E-01  0.51100000000E-03 0.  1.
         11    1    4    4    0    0 -0.86576644635E-01 -0.54989028488E-01 -0.58065535324E-01  0.11786083388E+00  0.51100000000E-03 0. -1.
</event>
<event>
 8    1  0.1114333E+005  0.1043930E+01  0.7957747E-01            NaN
         13   -1    0    0    0    0  0.00000000000E+00  0.00000000000E+00  0.74505805969E-08  0.10566000000E+00  0.10566000000E+00 0. -1.
     999900   -1    0    0    0    0 -0.00000000000E+00 -0.00000000000E+00 -0.74505805969E-08  0.93827000000E+00  0.93827000000E+00 0. -1.
     999902    2    1    2    0    0 -0.12516982508E-01 -0.17090479305E-01  0.10516934220E-01  0.10202790964E+01  0.10200049360E+01 0.  0.
     999903    2    3    3    0    0  0.10406381765E+00 -0.75708794132E-01 -0.69554731607E-02  0.13048559521E+00  0.20420879014E-01 0.  0.
         14    1    1    2    0    0  0.12516982508E-01  0.17090479305E-01 -0.10516934220E-01  0.23650903564E-01  0.00000000000E+00 0.  1.
     999901    1    3    3    0    0 -0.11658080015E+00  0.58618314827E-01  0.17472407381E-01  0.88979350122E+00  0.88000000000E+00 0. -1.
        -11    1    4    4    0    0  0.87381568441E-01 -0.61234587404E-01 -0.13229828570E-01  0.10751977810E+00  0.51100000000E-03 0. -1.
         11    1    4    4    0    0  0.16682249204E-01 -0.14474206728E-01  0.62743554088E-02  0.22965817114E-01  0.51100000000E-03 0.  1.
</event>
<event>
 8    1  0.1114333E+005  0.1043930E+01  0.7957747E-01            NaN
         13   -1    0    0    0    0  0.00000000000E+00  0.00000000000E+00  0.74505805969E-08  0.10566000000E+00  0.10566000000E+00 0. -1.
     999900   -1    0    0    0    0 -0.00000000000E+00 -0.00000000000E+00 -0.74505805969E-08  0.93827000000E+00  0.93827000000E+00 0. -1.
     999902    2    1    2    0    0  0.22817592152E-01  0.68536100053E-02  0.24744524712E-02  0.10199771839E+01  0.10196958950E+01 0.  0.
     999903    2    3    3    0    0 -0.34331846352E-01 -0.11921946975E+00 -0.28134754963E-01  0.12863134571E+00  0.19039459609E-01 0.  0.
         14    1    1    2    0    0 -0.22817592152E-01 -0.68536100053E-02 -0.24744524712E-02  0.23952816051E-01  0.00000000000E+00 0. -1.
     999901    1    3    3    0    0  0.57149438504E-01  0.12607307975E+00  0.30609207434E-01  0.89134583824E+00  0.88000000000E+00 0. -1.
        -11    1    4    4    0    0 -0.11494952206E-01 -0.33611477137E-01 -0.16825665772E-01  0.39309406905E-01  0.51100000000E-03 0.  1.
         11    1    4    4    0    0 -0.22836894146E-01 -0.85607992612E-01 -0.11309089191E-01  0.89321938809E-01  0.51100000000E-03 0. -1.
</event>
<event>
 8    1  0.1114333E+005  0.1043930E+01  0.7957747E-01            NaN
         13   -1    0    0    0    0  0.00000000000E+00  0.00000000000E+00  0.74505805969E-08  0.10566000000E+00  0.10566000000E+00 0. -1.
     999900   -1    0    0    0    0 -0.00000000000E+00 -0.00000000000E+00 -0.74505805969E-08  0.93827000000E+00  0.93827000000E+00 0. -1.
     999902    2    1    2    0    0 -0.22234962723E-02  0.94785614892E-02 -0.22027909946E-01  0.10198464812E+01  0.10195620772E+01 0.  0.
     999903    2    3    3    0    0  0.97158551974E-01  0.84526730522E-01  0.12531129626E-01  0.13040657514E+00  0.16257098003E-01 0.  0.
         14    1    1    2    0    0  0.22234962723E-02 -0.94785614892E-02  0.22027909946E-01  0.24083518849E-01  0.00000000000E+00 0. -1.
     999901    1    3    3    0    0 -0.99382048247E-01 -0.75048169032E-01 -0.34559039572E-01  0.88943990601E+00  0.88000000000E+00 0.  1.
        -11    1    4    4    0    0  0.34837128045E-01  0.38664370136E-01  0.99188900695E-02  0.52983058705E-01  0.51100000000E-03 0.  1.
         11    1    4    4    0    0  0.62321423929E-01  0.45862360385E-01  0.26122395565E-02  0.77423516435E-01  0.51100000000E-03 0. -1.
</event>
<event>
 8    1  0.1114333E+005  0.1043930E+01  0.7957747E-01            NaN
         13   -1    0    0    0    0  0.00000000000E+00  0.00000000000E+00  0.74505805969E-08  0.10566000000E+00  0.10566000000E+00 0.  1.
     999900   -1    0    0    0    0 -0.00000000000E+00 -0.00000000000E+00 -0.74505805969E-08  0.93827000000E+00  0.93827000000E+00 0. -1.
     999902    2    1    2    0    0  0.23430457207E-01  0.34277039797E-02 -0.55058009414E-02  0.10196184940E+01  0.10193286143E+01 0.  0.
     999903    2    3    3    0    0  0.29333588501E-01  0.12413803417E+00  0.21064497811E-01  0.13096118574E+00  0.20890384402E-01 0.  0.
         14    1    1    2    0    0 -0.23430457207E-01 -0.34277039797E-02  0.55058009414E-02  0.24311505990E-01  0.00000000000E+00 0.  1.
     999901    1    3    3    0    0 -0.59031312946E-02 -0.12071033019E+00 -0.26570298752E-01  0.88865730827E+00  0.88000000000E+00 0.  1.
        -11    1    4    4    0    0  0.25970249605E-01  0.80015050692E-01  0.65178439612E-02  0.84377755438E-01  0.51100000000E-03 0. -1.
         11    1    4    4    0    0  0.33633388967E-02  0.44122983473E-01  0.14546653850E-01  0.46583430298E-01  0.51100000000E-03 0.  1.
</event>
<event>
 8    1  0.1144259E+005  0.1043930E+01  0.7957747E-01            NaN
         13   -1    0    0    0    0  0.00000000000E+00  0.00000000000E+00  0.74505805969E-08  0.10566000000E+00  0.10566000000E+00 0. -1.
     999900   -1    0    0    0    0 -0.00000000000E+00 -0.00000000000E+00 -0.74505805969E-08  0.93827000000E+00  0.93827000000E+00 0. -1.
     999902    2    1    2    0    0  0.18548327165E-01  0.29379827014E-02  0.13086713164E-01  0.10210403900E+01  0.10207837890E+01 0.  0.
     999903    2    3    3    0    0 -0.11919185803E+00  0.35690093419E-01 -0.15236051233E-01  0.12927403142E+00  0.31609431417E-01 0.  0.
         14    1    1    2    0    0 -0.18548327165E-01 -0.29379827014E-02 -0.13086713164E-01  0.22889609966E-01  0.00000000000E+00 0.  1.
     999901    1    3    3    0    0  0.13774018519E+00 -0.32752110718E-01  0.28322764397E-01  0.89176635861E+00  0.88000000000E+00 0.  1.
        -11    1    4    4    0    0 -0.40476873664E-01  0.14771071070E-01  0.95516837697E-02  0.44136805798E-01  0.51100000000E-03 0.  1.
         11    1    4    4    0    0 -0.78714984361E-01  0.20919022349E-01 -0.24787735003E-01  0.85137225622E-01  0.51100000000E-03 0. -1.
</event>
<event>
 8    1  0.1114333E+005  0.1043930E+01  0.7957747E-01            NaN
         13   -1    0    0    0    0  0.00000000000E+00  0.00000000000E+00  0.74505805969E-08  0.10566000000E+00  0.10566000000E+00 0. -1.
     999900   -1    0    0    0    0 -0.00000000000E+00 -0.00000000000E+00 -0.74505805969E-08  0.93827000000E+00  0.93827000000E+00 0. -1.
     999902    2    1    2    0    0  0.42340379246E-03 -0.22916084428E-01  0.48659787952E-02  0.10204991668E+01  0.10202301434E+01 0.  0.
     999903    2    3    3    0    0 -0.25916106807E-01  0.72316463233E-01 -0.98127429694E-01  0.12900006405E+00  0.33327295426E-01 0.  0.
         14    1    1    2    0    0 -0.42340379246E-03  0.22916084428E-01 -0.48659787952E-02  0.23430833231E-01  0.00000000000E+00 0. -1.
     999901    1    3    3    0    0  0.26339510600E-01 -0.95232547661E-01  0.10299340849E+00  0.89149910272E+00  0.88000000000E+00 0.  1.
        -11    1    4    4    0    0 -0.31383709798E-01  0.40725408650E-01 -0.65267296803E-01  0.83087768675E-01  0.51100000000E-03 0.  1.
         11    1    4    4    0    0  0.54676029913E-02  0.31591054583E-01 -0.32860132891E-01  0.45912295377E-01  0.51100000000E-03 0. -1.
</event>
<event>
 8    1  0.1114333E+005  0.1043930E+01  0.7957747E-01            NaN
         13   -1    0    0    0    0  0.00000000000E+00  0.00000000000E+00  0.74505805969E-08  0.10566000000E+00  0.10566000000E+00 0. -1.
     999900   -1    0    0    0    0 -0.00000000000E+00 -0.00000000000E+00 -0.74505805969E-08  0.93827000000E+00  0.93827000000E+00 0. -1.
     999902    2    1    2    0    0  0.62575505862E-02  0.24206563666E-01  0.40080434121E-02  0.10186084859E+01  0.10182937044E+01 0.  0.
     999903    2    3    3    0    0  0.99341718346E-01  0.36631958979E-01 -0.73238033359E-01  0.13024706784E+00  0.19743650332E-01 0.  0.
         14    1    1    2    0    0 -0.62575505862E-02 -0.24206563666E-01 -0.40080434121E-02  0.25321514090E-01  0.00000000000E+00 0.  1.
     999901    1    3    3    0    0 -0.93084167760E-01 -0.12425395314E-01  0.77246076771E-01  0.88836141807E+00  0.88000000000E+00 0. -1.
        -11    1    4    4    0    0  0.79969395378E-01  0.28745762843E-01 -0.48494959472E-01  0.97843984454E-01  0.51100000000E-03 0.  1.
         11    1    4    4    0    0  0.19372322967E-01  0.78861961367E-02 -0.24743073886E-01  0.32403083387E-01  0.51100000000E-03 0. -1.
</event>
<event>
 8    1  0.1114333E+005  0.1043930E+01  0.7957747E-01            NaN
         13   -1    0    0    0    0  0.00000000000E+00  0.00000000000E+00  0.74505805969E-08  0.10566000000E+00  0.10566000000E+00 0.  1.
     999900   -1    0    0    0    0 -0.00000000000E+00 -0.00000000000E+00 -0.74505805969E-08  0.93827000000E+00  0.93827000000E+00 0.  1.
     999902    2    1    2    0    0  0.12368166224E-01  0.16951360459E-01 -0.10923537151E-01  0.10202732077E+01  0.10199989091E+01 0.  0.
     999903    2    3    3    0    0  0.10877101585E+00  0.15053645424E-01 -0.70234027924E-01  0.13302192141E+00  0.26538024924E-01 0.  0.
         14    1    1    2    0    0 -0.12368166224E-01 -0.16951360459E-01  0.10923537151E-01  0.23656792281E-01  0.00000000000E+00 0.  1.
     999901    1    3    3    0    0 -0.96402849631E-01  0.18977150349E-02  0.59310490773E-01  0.88725128631E+00  0.88000000000E+00 0. -1.
        -11    1    4    4    0    0  0.39767739146E-01 -0.45520163990E-02 -0.16077936282E-01  0.43138788649E-01  0.51100000000E-03 0. -1.
         11    1    4    4    0    0  0.69003276709E-01  0.19605661823E-01 -0.54156091643E-01  0.89883132762E-01  0.51100000000E-03 0.  1.
</event>
<event>
 8    1  0.1114333E+005  0.1043930E+01  0.7957747E-01            NaN
         13   -1    0    0    0    0  0.00000000000E+00  0.00000000000E+00  0.74505805969E-08  0.10566000000E+00  0.10566000000E+00 0. -1.
     999900   -1    0    0    0    0 -0.00000000000E+00 -0.00000000000E+00 -0.74505805969E-08  0.93827000000E+00  0.93827000000E+00 0. -1.
     999902    2    1    2    0    0 -0.85107124947E-02 -0.14218311501E-01 -0.19154413337E-01  0.10186024624E+01  0.10182875293E+01 0.  0.
     999903    2    3    3    0    0 -0.11607511260E+00 -0.26683366683E-01 -0.51512813121E-01  0.13137501481E+00  0.20503433328E-01 0.  0.
         14    1    1    2    0    0  0.85107124947E-02  0.14218311501E-01  0.19154413337E-01  0.25327537571E-01  0.00000000000E+00 0. -1.
     999901    1    3    3    0    0  0.10756440011E+00  0.12465055181E-01  0.32358399783E-01  0.88722744762E+00  0.88000000000E+00 0. -1.
        -11    1    4    4    0    0 -0.54385456661E-01 -0.22075851422E-01 -0.29657554865E-01  0.65764373287E-01  0.51100000000E-03 0.  1.
         11    1    4    4    0    0 -0.61689655939E-01 -0.46075152609E-02 -0.21855258255E-01  0.65610641524E-01  0.51100000000E-03 0. -1.
</event>
<event>
 8    1  0.1114333E+005  0.1043930E+01  0.7957747E-01            NaN
         13   -1    0    0    0    0  0.00000000000E+00  0.00000000000E+00  0.74505805969E-08  0.10566000000E+00  0.10566000000E+00 0.  1.
     999900   -1    0    0    0    0 -0.00000000000E+00 -0.00000000000E+00 -0.74505805969E-08  0.93827000000E+00  0.93827000000E+00 0. -1.
     999902    2    1    2    0    0  0.61775220797E-02 -0.63513026937E-02  0.17993814219E-01  0.10238731265E+01  0.10236766584E+01 0.  0.
     999903    2    3    3    0    0  0.16468633130E-01 -0.74062302049E-01  0.11145377382E+00  0.13627780741E+00  0.19830699241E-01 0.  0.
         14    1    1    2    0    0 -0.61775220797E-02  0.63513026937E-02 -0.17993814219E-01  0.20056873513E-01  0.00000000000E+00 0. -1.
     999901    1    3    3    0    0 -0.10291111051E-01  0.67710999355E-01 -0.93459959598E-01  0.88759531908E+00  0.88000000000E+00 0. -1.
        -11    1    4    4    0    0 -0.21014701088E-02 -0.32415899333E-01  0.52604999007E-01  0.61828421844E-01  0.51100000000E-03 0. -1.
         11    1    4    4    0    0  0.18570103239E-01 -0.41646402716E-01  0.58848774810E-01  0.74449385566E-01  0.51100000000E-03 0.  1.
</event>
<event>
 8    1  0.1114333E+005  0.1043930E+01  0.7957747E-01            NaN
         13   -1    0    0    0    0  0.00000000000E+00  0.00000000000E+00  0.74505805969E-08  0.10566000000E+00  0.10566000000E+00 0. -1.
     999900   -1    0    0    0    0 -0.00000000000E+00 -0.00000000000E+00 -0.74505805969E-08  0.93827000000E+00  0.93827000000E+00 0.  1.
     999902    2    1    2    0    0  0.15797903998E-01 -0.83006697643E-02  0.15261944456E-01  0.10204480529E+01  0.10201778408E+01 0.  0.
     999903    2    3    3    0    0 -0.64818615928E-01 -0.48939599515E-01  0.10161485874E+00  0.13162446431E+00  0.20071938515E-01 0.  0.
         14    1    1    2    0    0 -0.15797903998E-01  0.83006697643E-02 -0.15261944456E-01  0.23481947062E-01  0.00000000000E+00 0.  1.
     999901    1    3    3    0    0  0.80616519926E-01  0.40638929751E-01 -0.86352914287E-01  0.88882358863E+00  0.88000000000E+00 0.  1.
        -11    1    4    4    0    0 -0.25878848359E-01 -0.26559834122E-01  0.59136609429E-01  0.69803576389E-01  0.51100000000E-03 0.  1.
         11    1    4    4    0    0 -0.38939767570E-01 -0.22379765393E-01  0.42478249314E-01  0.61820887920E-01  0.51100000000E-03 0. -1.
</event>
<event>
 8    1  0.1114333E+005  0.1043930E+01  0.7957747E-01            NaN
         13   -1    0    0    0    0  0.00000000000E+00  0.00000000000E+00  0.74505805969E-08  0.10566000000E+00  0.10566000000E+00 0. -1.
     999900   -1    0    0    0    0 -0.00000000000E+00 -0.00000000000E+00 -0.74505805969E-08  0.93827000000E+00  0.93827000000E+00 0. -1.
     999902    2    1    2    0    0 -0.13788538073E-01  0.17286238478E-01  0.86533260028E-02  0.10201851506E+01  0.10199087820E+01 0.  0.
     999903    2    3    3    0    0  0.40056849564E-01  0.53603413639E-01  0.11167305884E+00  0.13179822568E+00  0.20543200107E-01 0.  0.
         14    1    1    2    0    0  0.13788538073E-01 -0.17286238478E-01 -0.86533260028E-02  0.23744849417E-01  0.00000000000E+00 0. -1.
     999901    1    3    3    0    0 -0.53845387637E-01 -0.36317175160E-01 -0.10301973284E+00  0.88838692490E+00  0.88000000000E+00 0. -1.
        -11    1    4    4    0    0  0.97171609084E-02  0.14237277390E-01  0.48122579571E-01  0.51119145818E-01  0.51100000000E-03 0.  1.
         11    1    4    4    0    0  0.30339688656E-01  0.39366136248E-01  0.63550479273E-01  0.80679079864E-01  0.51100000000E-03 0. -1.
</event>
<event>
 8    1  0.1114333E+005  0.1043930E+01  0.7957747E-01            NaN
         13   -1    0    0    0    0  0.00000000000E+00  0.00000000000E+00  0.74505805969E-08  0.10566000000E+00  0.10566000000E+00 0.  1.
     999900   -1    0    0    0    0 -0.00000000000E+00 -0.00000000000E+00 -0.74505805969E-08  0.93827000000E+00  0.93827000000E+00 0. -1.
     999902    2    1    2    0    0  0.16005861585E-01 -0.35443929472E-03  0.17895448115E-01  0.10199183300E+01  0.10196356406E+01 0.  0.
     999903    2    3    3    0    0  0.99543625327E-01 -0.70591594552E-01  0.47958885093E-01  0.13266660350E+00  0.20205604705E-01 0.  0.
         14    1    1    2    0    0 -0.16005861585E-01  0.35443929472E-03 -0.17895448115E-01  0.24011669987E-01  0.00000000000E+00 0.  1.
     999901    1    3    3    0    0 -0.83537763742E-01  0.70237155257E-01 -0.30063436977E-01  0.88725172651E+00  0.88000000000E+00 0. -1.
        -11    1    4    4    0    0  0.33637409520E-01 -0.31287842743E-01  0.98451282261E-02  0.46985019884E-01  0.51100000000E-03 0. -1.
         11    1    4    4    0    0  0.65906215807E-01 -0.39303751809E-01  0.38113756866E-01  0.85681583621E-01  0.51100000000E-03 0.  1.
</event>
<event>
 8    1  0.1114333E+005  0.1043930E+01  0.7957747E-01            NaN
         13   -1    0    0    0    0  0.00000000000E+00  0.00000000000E+00  0.74505805969E-08  0.10566000000E+00  0.10566000000E+00 0.  1.
     999900   -1    0    0    0    0 -0.00000000000E+00 -0.00000000000E+00 -0.74505805969E-08  0.93827000000E+00  0.93827000000E+00 0.  1.
     999902    2    1    2    0    0  0.40555202925E-02 -0.15388034476E-01 -0.14446807434E-01  0.10224369989E+01  0.10222110681E+01 0.  0.
     999903    2    3    3    0    0 -0.76274635917E-01 -0.96591814129E-01 -0.48851221543E-01  0.13438820999E+00  0.22933610657E-01 0.  0.
         14    1    1    2    0    0 -0.40555202925E-02  0.15388034476E-01  0.14446807434E-01  0.21493001068E-01  0.00000000000E+00 0.  1.
     999901    1    3    3    0    0  0.80330156210E-01  0.81203779653E-01  0.34404414109E-01  0.88804878894E+00  0.88000000000E+00 0. -1.
        -11    1    4    4    0    0 -0.37928105453E-01 -0.65769155938E-01 -0.31833451943E-01  0.82327108777E-01  0.51100000000E-03 0.  1.
         11    1    4    4    0    0 -0.38346530464E-01 -0.30822658191E-01 -0.17017769600E-01  0.52061101216E-01  0.51100000000E-03 0. -1.
</event>
<event>
 8    1  0.1114333E+005  0.1043930E+01  0.7957747E-01            NaN
         13   -1    0    0    0    0  0.00000000000E+00  0.00000000000E+00  0.74505805969E-08  0.10566000000E+00  0.10566000000E+00 0.  1.
     999900   -1    0    0    0    0 -0.00000000000E+00 -0.00000000000E+00 -0.74505805969E-08  0.93827000000E+00  0.93827000000E+00 0. -1.
     999902    2    1    2    0    0  0.14654258934E-01  0.20832292783E-01  0.27049669741E-02  0.10183165548E+01  0.10179943798E+01 0.  0.
     999903    2    3    3    0    0  0.87781674892E-01  0.94696474784E-01 -0.18264651146E-01  0.13195135851E+00  0.20112651448E-01 0.  0.
         14    1    1    2    0    0 -0.14654258934E-01 -0.20832292783E-01 -0.27049669741E-02  0.25613445177E-01  0.00000000000E+00 0. -1.
     999901    1    3    3    0    0 -0.73127415958E-01 -0.73864182001E-01  0.20969618120E-01  0.88636519631E+00  0.88000000000E+00 0.  1.
        -11    1    4    4    0    0  0.27937059617E-01  0.21647425911E-01 -0.11929349780E-01  0.37304970925E-01  0.51100000000E-03 0.  1.
         11    1    4    4    0    0  0.59844615275E-01  0.73049048874E-01 -0.63353013665E-02  0.94646387587E-01  0.51100000000E-03 0. -1.
</event>
<event>
 8    1  0.1114333E+005  0.1043930E+01  0.7957747E-01            NaN
         13   -1    0    0    0    0  0.00000000000E+00  0.00000000000E+00  0.74505805969E-08  0.10566000000E+00  0.10566000000E+00 0.  1.
     999900   -1    0    0    0    0 -0.00000000000E+00 -0.00000000000E+00 -0.74505805969E-08  0.93827000000E+00  0.93827000000E+00 0.  1.
     999902    2    1    2    0    0  0.74003932615E-02  0.18538554309E-01  0.21097693663E-02  0.10238577569E+01  0.10236609846E+01 0.  0.
     999903    2    3    3    0    0 -0.24736041921E-01 -0.11844961190E+00  0.47512259990E-01  0.13152379795E+00  0.19972787710E-01 0.  0.
         14    1    1    2    0    0 -0.74003932615E-02 -0.18538554309E-01 -0.21097693663E-02  0.20072243100E-01  0.00000000000E+00 0.  1.
     999901    1    3    3    0    0  0.32136435183E-01  0.13698816620E+00 -0.45402490624E-01  0.89233395895E+00  0.88000000000E+00 0.  1.
        -11    1    4    4    0    0 -0.18645898767E-01 -0.69676777869E-01  0.18572528206E-01  0.74483037263E-01  0.51100000000E-03 0.  1.
         11    1    4    4    0    0 -0.60901431546E-02 -0.48772834027E-01  0.28939731784E-01  0.57040760684E-01  0.51100000000E-03 0. -1.
</event>
<event>
 8    1  0.1114333E+005  0.1043930E+01  0.7957747E-01            NaN
         13   -1    0    0    0    0  0.00000000000E+00  0.00000000000E+00  0.74505805969E-08  0.10566000000E+00  0.10566000000E+00 0. -1.
     999900   -1    0    0    0    0 -0.00000000000E+00 -0.00000000000E+00 -0.74505805969E-08  0.93827000000E+00  0.93827000000E+00 0. -1.
     999902    2    1    2    0    0 -0.16926771216E-02 -0.12145501364E-02  0.23562901443E-01  0.10202751778E+01  0.10200009254E+01 0.  0.
     999903    2    3    3    0    0 -0.24823585318E-01  0.92061027190E-01 -0.83979893529E-01  0.12853484286E+00  0.19420097777E-01 0.  0.
         14    1    1    2    0    0  0.16926771216E-02  0.12145501364E-02 -0.23562901443E-01  0.23654822179E-01  0.00000000000E+00 0.  1.
     999901    1    3    3    0    0  0.23130908196E-01 -0.93275577327E-01  0.10754279497E+00  0.89174033496E+00  0.88000000000E+00 0.  1.
        -11    1    4    4    0    0 -0.10741493374E-01  0.15212768431E-01 -0.11072815856E-01  0.21672018255E-01  0.51100000000E-03 0.  1.
         11    1    4    4    0    0 -0.14082091944E-01  0.76848258759E-01 -0.72907077672E-01  0.10686282461E+00  0.51100000000E-03 0. -1.
</event>
<event>
 8    1  0.1114333E+005  0.1043930E+01  0.7957747E-01            NaN
         13   -1    0    0    0    0  0.00000000000E+00  0.00000000000E+00  0.74505805969E-08  0.10566000000E+00  0.10566000000E+00 0.  1.
     999900   -1    0    0    0    0 -0.00000000000E+00 -0.00000000000E+00 -0.74505805969E-08  0.93827000000E+00  0.93827000000E+00 0.  1.
     999902    2    1    2    0    0 -0.19956326159E-02 -0.15729610374E-01 -0.17102009889E-01  0.10206087236E+01  0.10203422390E+01 0.  0.
     999903    2    3    3    0    0  0.12334006865E+00 -0.84327920622E-02  0.35568036754E-01  0.13013895127E+00  0.19676810784E-01 0.  0.
         14    1    1    2    0    0  0.19956326159E-02  0.15729610374E-01  0.17102009889E-01  0.23321276429E-01  0.00000000000E+00 0. -1.
     999901    1    3    3    0    0 -0.12533570127E+00 -0.72968183113E-02 -0.52670046643E-01  0.89046977230E+00  0.88000000000E+00 0.  1.
        -11    1    4    4    0    0  0.32979424249E-01 -0.53987409995E-02  0.12932477976E-02  0.33447308398E-01  0.51100000000E-03 0. -1.
         11    1    4    4    0    0  0.90360644400E-01 -0.30340510628E-02  0.34274788956E-01  0.96691642872E-01  0.51100000000E-03 0.  1.
</event>
<event>
 8    1  0.1114333E+005  0.1043930E+01  0.7957747E-01            NaN
         13   -1    0    0    0    0  0.00000000000E+00  0.00000000000E+00  0.74505805969E-08  0.10566000000E+00  0.10566000000E+00 0.  1.
     999900   -1    0    0    0    0 -0.00000000000E+00 -0.00000000000E+00 -0.74505805969E-08  0.93827000000E+00  0.93827000000E+00 0. -1.
     999902    2    1    2    0    0  0.40363310475E-02 -0.15751455823E-02  0.20167800488E-01  0.10233020280E+01  0.10230940950E+01 0.  0.
     999903    2    3    3    0    0 -0.11339536920E+00 -0.65169970247E-01  0.10917847856E-02  0.13302207186E+00  0.24249635639E-01 0.  0.
         14    1    1    2    0    0 -0.40363310475E-02  0.15751455823E-02 -0.20167800488E-01  0.20627971991E-01  0.00000000000E+00 0. -1.
     999901    1    3    3    0    0  0.11743170025E+00  0.63594824664E-01  0.19076015702E-01  0.89027995615E+00  0.88000000000E+00 0.  1.
        -11    1    4    4    0    0 -0.42091577213E-01 -0.37921772657E-01 -0.83601641775E-03  0.56663231095E-01  0.51100000000E-03 0. -1.
         11    1    4    4    0    0 -0.71303791992E-01 -0.27248197590E-01  0.19278012034E-02  0.76358840764E-01  0.51100000000E-03 0.  1.
</event>
<event>
 8    1  0.1114333E+005  0.1043930E+01  0.7957747E-01            NaN
         13   -1    0    0    0    0  0.00000000000E+00  0.00000000000E+00  0.74505805969E-08  0.10566000000E+00  0.10566000000E+00 0.  1.
     999900   -1    0    0    0    0 -0.00000000000E+00 -0.00000000000E+00 -0.74505805969E-08  0.93827000000E+00  0.93827000000E+00 0.  1.
     999902    2    1    2    0    0 -0.23279438022E-01  0.74769683305E-02 -0.20653855350E-02  0.10193922106E+01  0.10190968433E+01 0.  0.
     999903    2    3    3    0    0  0.27737338463E-01  0.11779275347E+00 -0.42871647641E-01  0.13010179970E+00  0.21071483071E-01 0.  0.
         14    1    1    2    0    0  0.23279438022E-01 -0.74769683305E-02  0.20653855350E-02  0.24537789376E-01  0.00000000000E+00 0.  1.
     999901    1    3    3    0    0 -0.51016776485E-01 -0.11031578514E+00  0.40806262106E-01  0.88929041092E+00  0.88000000000E+00 0.  1.
        -11    1    4    4    0    0  0.47522515283E-02  0.50720762217E-01 -0.98612015182E-02  0.51891078528E-01  0.51100000000E-03 0.  1.
         11    1    4    4    0    0  0.22985086935E-01  0.67071991253E-01 -0.33010446123E-01  0.78210721172E-01  0.51100000000E-03 0. -1.
</event>
<event>
 8    1  0.1114333E+005  0.1043930E+01  0.7957747E-01            NaN
         13   -1    0    0    0    0  0.00000000000E+00  0.00000000000E+00  0.74505805969E-08  0.10566000000E+00  0.10566000000E+00 0. -1.
     999900   -1    0    0    0    0 -0.00000000000E+00 -0.00000000000E+00 -0.74505805969E-08  0.93827000000E+00  0.93827000000E+00 0. -1.
     999902    2    1    2    0    0  0.44719154513E-02 -0.23136027919E-01  0.95471470609E-02  0.10185051729E+01  0.10181877849E+01 0.  0.
     999903    2    3    3    0    0 -0.88761705379E-01  0.71354482543E-01 -0.51165669393E-01  0.12648106410E+00  0.20234409542E-01 0.  0.
         14    1    1    2    0    0 -0.44719154513E-02  0.23136027919E-01 -0.95471470609E-02  0.25424827093E-01  0.00000000000E+00 0. -1.
     999901    1    3    3    0    0  0.93233620830E-01 -0.94490510462E-01  0.60712816454E-01  0.89202410881E+00  0.88000000000E+00 0.  1.
        -11    1    4    4    0    0 -0.86063422500E-01  0.64568311295E-01 -0.44016101823E-01  0.11624825959E+00  0.51100000000E-03 0.  1.
         11    1    4    4    0    0 -0.26982828785E-02  0.67861712480E-02 -0.71495675696E-02  0.10232804510E-01  0.51100000000E-03 0. -1.
</event>
<event>
 8    1  0.1114333E+005  0.1043930E+01  0.7957747E-01            NaN
         13   -1    0    0    0    0  0.00000000000E+00  0.00000000000E+00  0.74505805969E-08  0.10566000000E+00  0.10566000000E+00 0.  1.
     999900   -1    0    0    0    0 -0.00000000000E+00 -0.00000000000E+00 -0.74505805969E-08  0.93827000000E+00  0.93827000000E+00 0. -1.
     999902    2    1    2    0    0 -0.81308660117E-02 -0.83847218128E-02 -0.20670970649E-01  0.10201875576E+01  0.10199112457E+01 0.  0.
     999903    2    3    3    0    0  0.76502667865E-01 -0.80480925354E-01 -0.63791442403E-01  0.13214472494E+00  0.32604335110E-01 0.  0.
         14    1    1    2    0    0  0.81308660117E-02  0.83847218128E-02  0.20670970649E-01  0.23742442367E-01  0.00000000000E+00 0.  1.
     999901    1    3    3    0    0 -0.84633533877E-01  0.72096203541E-01  0.43120471754E-01  0.88804283270E+00  0.88000000000E+00 0. -1.
        -11    1    4    4    0    0  0.54853613191E-01 -0.51462145329E-01 -0.59051807085E-01  0.95627654593E-01  0.51100000000E-03 0. -1.
         11    1    4    4    0    0  0.21649054674E-01 -0.29018780025E-01 -0.47396353184E-02  0.36517070342E-01  0.51100000000E-03 0.  1.
</event>
<event>
 8    1  0.1114333E+005  0.1043930E+01  0.7957747E-01            NaN
         13   -1    0    0    0    0  0.00000000000E+00  0.00000000000E+00  0.74505805969E-08  0.10566000000E+00  0.10566000000E+00 0.  1.
     999900   -1    0    0    0    0 -0.00000000000E+00 -0.00000000000E+00 -0.74505805969E-08  0.93827000000E+00  0.93827000000E+00 0. -1.
     999902    2    1    2    0    0 -0.22912597935E-02 -0.12603257031E-01 -0.19137911615E-01  0.10209006357E+01  0.10206408557E+01 0.  0.
     999903    2    3    3    0    0 -0.11275902172E+00 -0.38634342595E-01 -0.56488476753E-01  0.13282642227E+00  0.15642922992E-01 0.  0.
         14    1    1    2    0    0  0.22912597935E-02  0.12603257031E-01  0.19137911615E-01  0.23029364303E-01  0.00000000000E+00 0.  1.
     999901    1    3    3    0    0  0.11046776193E+00  0.26031085563E-01  0.37350565138E-01  0.88807421343E+00  0.88000000000E+00 0. -1.
        -11    1    4    4    0    0 -0.63508009424E-01 -0.26485507706E-01 -0.25521392374E-01  0.73391770446E-01  0.51100000000E-03 0. -1.
         11    1    4    4    0    0 -0.49251012296E-01 -0.12148834889E-01 -0.30967084379E-01  0.59434651823E-01  0.51100000000E-03 0.  1.
</event>
<event>
 8    1  0.1114333E+005  0.1043930E+01  0.7957747E-01            NaN
         13   -1    0    0    0    0  0.00000000000E+00  0.00000000000E+00  0.74505805969E-08  0.10566000000E+00  0.10566000000E+00 0.  1.
     999900   -1    0    0    0    0 -0.00000000000E+00 -0.00000000000E+00 -0.74505805969E-08  0.93827000000E+00  0.93827000000E+00 0. -1.
     999902    2    1    2    0    0  0.11295805107E-01  0.85214747214E-02  0.19048463463E-01  0.10202012262E+01  0.10199252361E+01 0.  0.
     999903    2    3    3    0    0  0.10206812070E-01  0.11775196061E+00 -0.51906779355E-01  0.13061304542E+00  0.19893482614E-01 0.  0.
         14    1    1    2    0    0 -0.11295805107E-01 -0.85214747214E-02 -0.19048463463E-01  0.23728773772E-01  0.00000000000E+00 0.  1.
     999901    1    3    3    0    0  0.10889930373E-02 -0.10923048589E+00  0.70955242818E-01  0.88958818081E+00  0.88000000000E+00 0.  1.
        -11    1    4    4    0    0 -0.43562050857E-02  0.47409815845E-01 -0.25999181611E-01  0.54248370728E-01  0.51100000000E-03 0. -1.
         11    1    4    4    0    0  0.14563017156E-01  0.70342144763E-01 -0.25907597744E-01  0.76364674690E-01  0.51100000000E-03 0.  1.
</event>
<event>
 8    1  0.1114333E+005  0.1043930E+01  0.7957747E-01            NaN
         13   -1    0    0    0    0  0.00000000000E+00  0.00000000000E+00  0.74505805969E-08  0.10566000000E+00  0.10566000000E+00 0.  1.
     999900   -1    0    0    0    0 -0.00000000000E+00 -0.00000000000E+00 -0.74505805969E-08  0.93827000000E+00  0.93827000000E+00 0.  1.
     999902    2    1    2    0    0 -0.26333263827E-01  0.23284641851E-01  0.78088282911E-02  0.10079217630E+01  0.10072783564E+01 0.  0.
     999903    2    3    3    0    0 -0.42089364162E-01 -0.10764181684E+00 -0.88419962935E-02  0.11794016646E+00  0.21758369856E-01 0.  0.
         14    1    1    2    0    0  0.26333263827E-01 -0.23284641851E-01 -0.78088282911E-02  0.36008236964E-01  0.00000000000E+00 0. -1.
     999901    1    3    3    0    0  0.15756100335E-01  0.13092645869E+00  0.16650824585E-01  0.88998159657E+00  0.88000000000E+00 0.  1.
        -11    1    4    4    0    0 -0.13709578484E-01 -0.20315782147E-01  0.51715519510E-02  0.25053734592E-01  0.51100000000E-03 0.  1.
         11    1    4    4    0    0 -0.28379785678E-01 -0.87326034691E-01 -0.14013548244E-01  0.92886431869E-01  0.51100000000E-03 0. -1.
</event>
<event>
 8    1  0.1114333E+005  0.1043930E+01  0.7957747E-01            NaN
         13   -1    0    0    0    0  0.00000000000E+00  0.00000000000E+00  0.74505805969E-08  0.10566000000E+00  0.10566000000E+00 0. -1.
     999900   -1    0    0    0    0 -0.00000000000E+00 -0.00000000000E+00 -0.74505805969E-08  0.93827000000E+00  0.93827000000E+00 0. -1.
     999902    2    1    2    0    0 -0.35986053732E-02 -0.89459779159E-02  0.21303889201E-01  0.10205454714E+01  0.10202775226E+01 0.  0.
     999903    2    3    3    0    0 -0.15179745007E-01 -0.80277034709E-01  0.10359080587E+00  0.13375723339E+00  0.22025336849E-01 0.  0.
         14    1    1    2    0    0  0.35986053732E-02  0.89459779159E-02 -0.21303889201E-01  0.23384528574E-01  0.00000000000E+00 0.  1.
     999901    1    3    3    0    0  0.11581139634E-01  0.71331056793E-01 -0.82286916672E-01  0.88678823803E+00  0.88000000000E+00 0. -1.
        -11    1    4    4    0    0 -0.74142324023E-02 -0.42307579037E-01  0.36931904269E-01  0.56649172633E-01  0.51100000000E-03 0. -1.
         11    1    4    4    0    0 -0.77655126049E-02 -0.37969455672E-01  0.66658901604E-01  0.77108060760E-01  0.51100000000E-03 0.  1.
</event>
<event>
 8    1  0.1114333E+005  0.1043930E+01  0.7957747E-01            NaN
         13   -1    0    0    0    0  0.00000000000E+00  0.00000000000E+00  0.74505805969E-08  0.10566000000E+00  0.10566000000E+00 0. -1.
     999900   -1    0    0    0    0 -0.00000000000E+00 -0.00000000000E+00 -0.74505805969E-08  0.93827000000E+00  0.93827000000E+00 0. -1.
     999902    2    1    2    0    0  0.18067168704E-01 -0.11261447317E-01 -0.10403450685E-01  0.10202345454E+01  0.10199593390E+01 0.  0.
     999903    2    3    3    0    0 -0.32666903301E-01  0.95693303672E-01 -0.78938967742E-01  0.12966709605E+00  0.18917194030E-01 0.  0.
         14    1    1    2    0    0 -0.18067168704E-01  0.11261447317E-01  0.10403450685E-01  0.23695454560E-01  0.00000000000E+00 0. -1.
     999901    1    3    3    0    0  0.50734072006E-01 -0.10695475099E+00  0.68535517056E-01  0.89056744939E+00  0.88000000000E+00 0.  1.
        -11    1    4    4    0    0 -0.28204086530E-02  0.30523030231E-01 -0.29843385808E-01  0.42784329806E-01  0.51100000000E-03 0.  1.
         11    1    4    4    0    0 -0.29846494648E-01  0.65170273441E-01 -0.49095581934E-01  0.86882766240E-01  0.51100000000E-03 0. -1.
</event>
<event>
 8    1  0.1114333E+005  0.1043930E+01  0.7957747E-01            NaN
         13   -1    0    0    0    0  0.00000000000E+00  0.00000000000E+00  0.74505805969E-08  0.10566000000E+00  0.10566000000E+00 0.  1.
     999900   -1    0    0    0    0 -0.00000000000E+00 -0.00000000000E+00 -0.74505805969E-08  0.93827000000E+00  0.93827000000E+00 0.  1.
     999902    2    1    2    0    0 -0.19366572806E-01 -0.43525288727E-02  0.12567058861E-01  0.10204366048E+01  0.10201661261E+01 0.  0.
     999903    2    3    3    0    0  0.11347284854E+00  0.13973341689E-02  0.58216465602E-01  0.12927823440E+00  0.21110782184E-01 0.  0.
         14    1    1    2    0    0  0.19366572806E-01  0.43525288727E-02 -0.12567058861E-01  0.23493395205E-01  0.00000000000E+00 0. -1.
     999901    1    3    3    0    0 -0.13283942134E+00 -0.57498630416E-02 -0.45649406741E-01  0.89115837039E+00  0.88000000000E+00 0.  1.
        -11    1    4    4    0    0  0.50501154889E-01 -0.42379453363E-02  0.15587292080E-01  0.53024066434E-01  0.51100000000E-03 0.  1.
         11    1    4    4    0    0  0.62971693649E-01  0.56352795052E-02  0.42629173521E-01  0.76254167967E-01  0.51100000000E-03 0. -1.
</event>
<event>
 8    1  0.1114333E+005  0.1043930E+01  0.7957747E-01            NaN
         13   -1    0    0    0    0  0.00000000000E+00  0.00000000000E+00  0.74505805969E-08  0.10566000000E+00  0.10566000000E+00 0. -1.
     999900   -1    0    0    0    0 -0.00000000000E+00 -0.00000000000E+00 -0.74505805969E-08  0.93827000000E+00  0.93827000000E+00 0.  1.
     999902    2    1    2    0    0  0.73102510559E-02 -0.21530986286E-01 -0.56678244902E-02  0.10204961063E+01  0.10202270118E+01 0.  0.
     999903    2    3    3    0    0 -0.43834188562E-01 -0.11428292888E+00  0.45414304823E-01  0.13267401796E+00  0.23620161694E-01 0.  0.
         14    1    1    2    0    0 -0.73102510559E-02  0.21530986286E-01  0.56678244902E-02  0.23433893731E-01  0.00000000000E+00 0.  1.
     999901    1    3    3    0    0  0.51144439618E-01  0.92751942593E-01 -0.51082129313E-01  0.88782208831E+00  0.88000000000E+00 0. -1.
        -11    1    4    4    0    0 -0.33921850265E-01 -0.67974056521E-01  0.37264977747E-01  0.84617397577E-01  0.51100000000E-03 0. -1.
         11    1    4    4    0    0 -0.99123382967E-02 -0.46308872358E-01  0.81493270768E-02  0.48056620380E-01  0.51100000000E-03 0.  1.
</event>
<event>
 8    1  0.1114333E+005  0.1043930E+01  0.7957747E-01            NaN
         13   -1    0    0    0    0  0.00000000000E+00  0.00000000000E+00  0.74505805969E-08  0.10566000000E+00  0.10566000000E+00 0.  1.
     999900   -1    0    0    0    0 -0.00000000000E+00 -0.00000000000E+00 -0.74505805969E-08  0.93827000000E+00  0.93827000000E+00 0.  1.
     999902    2    1    2    0    0 -0.44717384184E-02  0.16520557204E-01  0.14711998105E-01  0.10213608143E+01  0.10211114263E+01 0.  0.
     999903    2    3    3    0    0 -0.55949057439E-01  0.11326489687E+00  0.41051457114E-01  0.13417247537E+00  0.18915526062E-01 0.  0.
         14    1    1    2    0    0  0.44717384184E-02 -0.16520557204E-01 -0.14711998105E-01  0.22569185698E-01  0.00000000000E+00 0. -1.
     999901    1    3    3    0    0  0.51477319021E-01 -0.96744339662E-01 -0.26339459009E-01  0.88718833893E+00  0.88000000000E+00 0.  1.
        -11    1    4    4    0    0 -0.28779318003E-01  0.51381500804E-01  0.28507407155E-01  0.65431194038E-01  0.51100000000E-03 0.  1.
         11    1    4    4    0    0 -0.27169739436E-01  0.61883396062E-01  0.12544049959E-01  0.68741281335E-01  0.51100000000E-03 0. -1.
</event>
<event>
 8    1  0.1135529E+005  0.1043930E+01  0.7957747E-01            NaN
         13   -1    0    0    0    0  0.00000000000E+00  0.00000000000E+00  0.74505805969E-08  0.10566000000E+00  0.10566000000E+00 0.  1.
     999900   -1    0    0    0    0 -0.00000000000E+00 -0.00000000000E+00 -0.74505805969E-08  0.93827000000E+00  0.93827000000E+00 0.  1.
     999902    2    1    2    0    0 -0.14222227650E-02 -0.14705839228E-01  0.18793514274E-01  0.10200243395E+01  0.10197441702E+01 0.  0.
     999903    2    3    3    0    0 -0.24094124267E-01 -0.10632531183E+00 -0.69099405341E-01  0.13062380645E+00  0.20056226790E-01 0.  0.
         14    1    1    2    0    0  0.14222227650E-02  0.14705839228E-01 -0.18793514274E-01  0.23905660496E-01  0.00000000000E+00 0. -1.
     999901    1    3    3    0    0  0.22671901502E-01  0.91619472603E-01  0.87892919614E-01  0.88940053305E+00  0.88000000000E+00 0. -1.
        -11    1    4    4    0    0 -0.23694835769E-01 -0.66091335462E-01 -0.38527465253E-01  0.80088304795E-01  0.51100000000E-03 0. -1.
         11    1    4    4    0    0 -0.39928849847E-03 -0.40233976369E-01 -0.30571940088E-01  0.50535501655E-01  0.51100000000E-03 0.  1.
</event>
<event>
 8    1  0.1114333E+005  0.1043930E+01  0.7957747E-01            NaN
         13   -1    0    0    0    0  0.00000000000E+00  0.00000000000E+00  0.74505805969E-08  0.10566000000E+00  0.10566000000E+00 0. -1.
     999900   -1    0    0    0    0 -0.00000000000E+00 -0.00000000000E+00 -0.74505805969E-08  0.93827000000E+00  0.93827000000E+00 0. -1.
     999902    2    1    2    0    0 -0.19768902914E-01  0.11889886222E-01  0.63143148695E-02  0.10200124439E+01  0.10197319924E+01 0.  0.
     999903    2    3    3    0    0 -0.26933875918E-01 -0.29846785731E-01 -0.12179725709E+00  0.12972829742E+00  0.19457518539E-01 0.  0.
         14    1    1    2    0    0  0.19768902914E-01 -0.11889886222E-01 -0.63143148695E-02  0.23917556085E-01  0.00000000000E+00 0.  1.
     999901    1    3    3    0    0  0.71649730043E-02  0.41736671953E-01  0.12811157196E+00  0.89028414649E+00  0.88000000000E+00 0.  1.
        -11    1    4    4    0    0 -0.19666769572E-01 -0.78823886409E-02 -0.50411141643E-01  0.54685082051E-01  0.51100000000E-03 0.  1.
         11    1    4    4    0    0 -0.72671063458E-02 -0.21964397090E-01 -0.71386115446E-01  0.75043215373E-01  0.51100000000E-03 0. -1.
</event>
<event>
 8    1  0.1114333E+005  0.1043930E+01  0.7957747E-01            NaN
         13   -1    0    0    0    0  0.00000000000E+00  0.00000000000E+00  0.74505805969E-08  0.10566000000E+00  0.10566000000E+00 0. -1.
     999900   -1    0    0    0    0 -0.00000000000E+00 -0.00000000000E+00 -0.74505805969E-08  0.93827000000E+00  0.93827000000E+00 0. -1.
     999902    2    1    2    0    0 -0.22783531255E-01 -0.80150591158E-02  0.45310059268E-02  0.10193564271E+01  0.10190601872E+01 0.  0.
     999903    2    3    3    0    0  0.62143637575E-01 -0.10925303826E+00 -0.21638137053E-01  0.12910557682E+00  0.20049511964E-01 0.  0.
         14    1    1    2    0    0  0.22783531255E-01  0.80150591158E-02 -0.45310059268E-02  0.24573572874E-01  0.00000000000E+00 0. -1.
     999901    1    3    3    0    0 -0.84927168830E-01  0.10123797915E+00  0.26169142980E-01  0.89025085031E+00  0.88000000000E+00 0.  1.
        -11    1    4    4    0    0  0.12833659196E-01 -0.16873864037E-01 -0.10889294480E-01  0.23838371404E-01  0.51100000000E-03 0.  1.
         11    1    4    4    0    0  0.49309978379E-01 -0.92379174226E-01 -0.10748842573E-01  0.10526720542E+00  0.51100000000E-03 0. -1.
</event>
<event>
 8    1  0.1114333E+005  0.1043930E+01  0.7957747E-01            NaN
         13   -1    0    0    0    0  0.00000000000E+00  0.00000000000E+00  0.74505805969E-08  0.10566000000E+00  0.10566000000E+00 0. -1.
     999900   -1    0    0    0    0 -0.00000000000E+00 -0.00000000000E+00 -0.74505805969E-08  0.93827000000E+00  0.93827000000E+00 0.  1.
     999902    2    1    2    0    0 -0.11346870638E-02  0.16004235850E-01  0.17870158921E-01  0.10199140541E+01  0.10196312628E+01 0.  0.
     999903    2    3    3    0    0  0.43676736289E-02 -0.38509306624E-01 -0.11964390093E+00  0.12755083263E+00  0.21272249655E-01 0.  0.
         14    1    1    2    0    0  0.11346870638E-02 -0.16004235850E-01 -0.17870158921E-01  0.24015945947E-01  0.00000000000E+00 0.  1.
     999901    1    3    3    0    0 -0.55023606927E-02  0.54513542474E-01  0.13751405985E+00  0.89236322142E+00  0.88000000000E+00 0. -1.
        -11    1    4    4    0    0  0.11564574078E-01 -0.23294121627E-01 -0.56500951197E-01  0.62201077829E-01  0.51100000000E-03 0.  1.
         11    1    4    4    0    0 -0.71969004490E-02 -0.15215184997E-01 -0.63142949736E-01  0.65349754803E-01  0.51100000000E-03 0. -1.
</event>
<event>
 8    1  0.1114333E+005  0.1043930E+01  0.7957747E-01            NaN
         13   -1    0    0    0    0  0.00000000000E+00  0.00000000000E+00  0.74505805969E-08  0.10566000000E+00  0.10566000000E+00 0.  1.
     999900   -1    0    0    0    0 -0.00000000000E+00 -0.00000000000E+00 -0.74505805969E-08  0.93827000000E+00  0.93827000000E+00 0.  1.
     999902    2    1    2    0    0  0.21163262282E-01 -0.88950617479E-02 -0.76963529170E-02  0.10197176139E+01  0.10194301214E+01 0.  0.
     999903    2    3    3    0    0  0.11139177181E+00  0.44922019180E-01  0.50064227709E-01  0.13158826135E+00  0.19568571601E-01 0.  0.
         14    1    1    2    0    0 -0.21163262282E-01  0.88950617479E-02  0.76963529170E-02  0.24212386130E-01  0.00000000000E+00 0.  1.
     999901    1    3    3    0    0 -0.90228509531E-01 -0.53817080928E-01 -0.57760580626E-01  0.88812935252E+00  0.88000000000E+00 0.  1.
        -11    1    4    4    0    0  0.10180797797E+00  0.39866986471E-01  0.38974399322E-01  0.11607543199E+00  0.51100000000E-03 0. -1.
         11    1    4    4    0    0  0.95837938471E-02  0.50550327089E-02  0.11089828386E-01  0.15512829363E-01  0.51100000000E-03 0.  1.
</event>
<event>
 8    1  0.1114333E+005  0.1043930E+01  0.7957747E-01            NaN
         13   -1    0    0    0    0  0.00000000000E+00  0.00000000000E+00  0.74505805969E-08  0.10566000000E+00  0.10566000000E+00 0.  1.
     999900   -1    0    0    0    0 -0.00000000000E+00 -0.00000000000E+00 -0.74505805969E-08  0.93827000000E+00  0.93827000000E+00 0.  1.
     999902    2    1    2    0    0  0.10554647834E-01  0.23374122202E-01 -0.41066616419E-02  0.10179566512E+01  0.10176252399E+01 0.  0.
     999903    2    3    3    0    0 -0.67969397366E-01  0.52170017792E-01  0.93830267045E-01  0.12858222424E+00  0.19690597802E-01 0.  0.
         14    1    1    2    0    0 -0.10554647834E-01 -0.23374122202E-01  0.41066616419E-02  0.25973348830E-01  0.00000000000E+00 0.  1.
     999901    1    3    3    0    0  0.78524045200E-01 -0.28795895590E-01 -0.97936928687E-01  0.88937442693E+00  0.88000000000E+00 0. -1.
        -11    1    4    4    0    0 -0.56463824491E-01  0.49388271785E-01  0.87113934515E-01  0.11496287911E+00  0.51100000000E-03 0. -1.
         11    1    4    4    0    0 -0.11505572875E-01  0.27817460074E-02  0.67163325296E-02  0.13619345127E-01  0.51100000000E-03 0.  1.
</event>
<event>
 8    1  0.1114333E+005  0.1043930E+01  0.7957747E-01            NaN
         13   -1    0    0    0    0  0.00000000000E+00  0.00000000000E+00  0.74505805969E-08  0.10566000000E+00  0.10566000000E+00 0.  1.
     999900   -1    0    0    0    0 -0.00000000000E+00 -0.00000000000E+00 -0.74505805969E-08  0.93827000000E+00  0.93827000000E+00 0. -1.
     999902    2    1    2    0    0 -0.13162227144E-02 -0.19221707361E-01 -0.12232973899E-01  0.10211078150E+01  0.10208527405E+01 0.  0.
     999903    2    3    3    0    0 -0.11281792484E+00 -0.32915958087E-01  0.55373526214E-01  0.13139392791E+00  0.19667039054E-01 0.  0.
         14    1    1    2    0    0  0.13162227144E-02  0.19221707361E-01  0.12232973899E-01  0.22822184964E-01  0.00000000000E+00 0.  1.
     999901    1    3    3    0    0  0.11150170213E+00  0.13694250726E-01 -0.67606500113E-01  0.88971388712E+00  0.88000000000E+00 0. -1.
        -11    1    4    4    0    0 -0.70417349091E-03 -0.17397553722E-02 -0.88777818730E-03  0.21381955407E-02  0.51100000000E-03 0.  1.
         11    1    4    4    0    0 -0.11211375135E+00 -0.31176202715E-01  0.56261304401E-01  0.12925573237E+00  0.51100000000E-03 0. -1.
</event>
<event>
 8    1  0.1114333E+005  0.1043930E+01  0.7957747E-01            NaN
         13   -1    0    0    0    0  0.00000000000E+00  0.00000000000E+00  0.74505805969E-08  0.10566000000E+00  0.10566000000E+00 0.  1.
     999900   -1    0    0    0    0 -0.00000000000E+00 -0.00000000000E+00 -0.74505805969E-08  0.93827000000E+00  0.93827000000E+00 0.  1.
     999902    2    1    2    0    0  0.14348230542E-01  0.18846062978E-01 -0.34801435907E-02  0.10199892981E+01  0.10197082970E+01 0.  0.
     999903    2    3    3    0    0 -0.10466858208E+00  0.12888356805E-02 -0.72756147414E-01  0.12910635255E+00  0.20440648446E-01 0.  0.
         14    1    1    2    0    0 -0.14348230542E-01 -0.18846062978E-01  0.34801435907E-02  0.23940701929E-01  0.00000000000E+00 0.  1.
     999901    1    3    3    0    0  0.11901681263E+00  0.17557227297E-01  0.69276003823E-01  0.89088294552E+00  0.88000000000E+00 0. -1.
        -11    1    4    4    0    0 -0.67587213090E-01  0.82884288553E-02 -0.54304472537E-01  0.87097452803E-01  0.51100000000E-03 0. -1.
         11    1    4    4    0    0 -0.37081368993E-01 -0.69995931748E-02 -0.18451674877E-01  0.42008899745E-01  0.51100000000E-03 0.  1.
</event>
<event>
 8    1  0.1114333E+005  0.1043930E+01  0.7957747E-01            NaN
         13   -1    0    0    0    0  0.00000000000E+00  0.00000000000E+00  0.74505805969E-08  0.10566000000E+00  0.10566000000E+00 0.  1.
     999900   -1    0    0    0    0 -0.00000000000E+00 -0.00000000000E+00 -0.74505805969E-08  0.93827000000E+00  0.93827000000E+00 0.  1.
     999902    2    1    2    0    0  0.41092999833E-02 -0.22635635048E-01  0.47285433593E-02  0.10204434625E+01  0.10201731435E+01 0.  0.
     999903    2    3    3    0    0  0.29410407040E-01  0.11979146406E+00  0.29412301813E-01  0.12829161866E+00  0.19459933584E-01 0.  0.
         14    1    1    2    0    0 -0.41092999833E-02  0.22635635048E-01 -0.47285433593E-02  0.23486537478E-01  0.00000000000E+00 0.  1.
     999901    1    3    3    0    0 -0.25301107056E-01 -0.14242709911E+00 -0.24683758454E-01  0.89215184386E+00  0.88000000000E+00 0.  1.
        -11    1    4    4    0    0  0.23156693010E-01  0.11019867879E+00  0.30806513965E-01  0.11674452305E+00  0.51100000000E-03 0.  1.
         11    1    4    4    0    0  0.62537140301E-02  0.95927852735E-02 -0.13942121517E-02  0.11547095609E-01  0.51100000000E-03 0. -1.
</event>
<event>
 8    1  0.1114333E+005  0.1043930E+01  0.7957747E-01            NaN
         13   -1    0    0    0    0  0.00000000000E+00  0.00000000000E+00  0.74505805969E-08  0.10566000000E+00  0.10566000000E+00 0. -1.
     999900   -1    0    0    0    0 -0.00000000000E+00 -0.00000000000E+00 -0.74505805969E-08  0.93827000000E+00  0.93827000000E+00 0.  1.
     999902    2    1    2    0    0  0.96043696090E-02  0.16418192144E-01  0.13855729617E-01  0.10203974227E+01  0.10201260305E+01 0.  0.
     999903    2    3    3    0    0 -0.28243955212E-01  0.12665430162E+00  0.18990292889E-01  0.13269766536E+00  0.20223897803E-01 0.  0.
         14    1    1    2    0    0 -0.96043696090E-02 -0.16418192144E-01 -0.13855729617E-01  0.23532577252E-01  0.00000000000E+00 0.  1.
     999901    1    3    3    0    0  0.37848324821E-01 -0.11023610948E+00 -0.51345632714E-02  0.88769975739E+00  0.88000000000E+00 0.  1.
        -11    1    4    4    0    0 -0.22782961141E-01  0.69102752279E-01  0.35070062567E-02  0.72847881951E-01  0.51100000000E-03 0.  1.
         11    1    4    4    0    0 -0.54609940712E-02  0.57551549346E-01  0.15483286632E-01  0.59849783410E-01  0.51100000000E-03 0. -1.
</event>
<event>
 8    1  0.1114333E+005  0.1043930E+01  0.7957747E-01            NaN
         13   -1    0    0    0    0  0.00000000000E+00  0.00000000000E+00  0.74505805969E-08  0.10566000000E+00  0.10566000000E+00 0.  1.
     999900   -1    0    0    0    0 -0.00000000000E+00 -0.00000000000E+00 -0.74505805969E-08  0.93827000000E+00  0.93827000000E+00 0. -1.
     999902    2    1    2    0    0 -0.21158748518E-01 -0.11241297197E-01  0.76371191190E-03  0.10199582946E+01  0.10196765566E+01 0.  0.
     999903    2    3    3    0    0  0.67602203295E-01  0.97081992715E-01  0.44749594445E-01  0.12779956462E+00  0.18309323155E-01 0.  0.
         14    1    1    2    0    0  0.21158748518E-01  0.11241297197E-01 -0.76371191190E-03  0.23971705350E-01  0.00000000000E+00 0.  1.
     999901    1    3    3    0    0 -0.88760951813E-01 -0.10832328991E+00 -0.43985882534E-01  0.89215873003E+00  0.88000000000E+00 0. -1.
        -11    1    4    4    0    0  0.16342633032E-01  0.38662707886E-01  0.16461612710E-01  0.45090270009E-01  0.51100000000E-03 0.  1.
         11    1    4    4    0    0  0.51259570263E-01  0.58419284829E-01  0.28287981736E-01  0.82709294612E-01  0.51100000000E-03 0. -1.
</event>
<event>
 8    1  0.1114333E+005  0.1043930E+01  0.7957747E-01            NaN
         13   -1    0    0    0    0  0.00000000000E+00  0.00000000000E+00  0.74505805969E-08  0.10566000000E+00  0.10566000000E+00 0. -1.
     999900   -1    0    0    0    0 -0.00000000000E+00 -0.00000000000E+00 -0.74505805969E-08  0.93827000000E+00  0.93827000000E+00 0. -1.
     999902    2    1    2    0    0 -0.20399717135E-01  0.90979178730E-02  0.54514602616E-02  0.10209378494E+01  0.10206789179E+01 0.  0.
     999903    2    3    3    0    0 -0.68756350929E-01 -0.89171782614E-01 -0.64493086252E-01  0.13139440605E+00  0.20641927251E-01 0.  0.
         14    1    1    2    0    0  0.20399717135E-01 -0.90979178730E-02 -0.54514602616E-02  0.22992150569E-01  0.00000000000E+00 0. -1.
     999901    1    3    3    0    0  0.48356633793E-01  0.98269700487E-01  0.69944546513E-01  0.88954344338E+00  0.88000000000E+00 0.  1.
        -11    1    4    4    0    0 -0.34895732947E-01 -0.38678334563E-01 -0.18970477318E-01  0.55442455512E-01  0.51100000000E-03 0. -1.
         11    1    4    4    0    0 -0.33860617982E-01 -0.50493448051E-01 -0.45522608934E-01  0.75951950543E-01  0.51100000000E-03 0.  1.
</event>
<event>
 8    1  0.1114333E+005  0.1043930E+01  0.7957747E-01            NaN
         13   -1    0    0    0    0  0.00000000000E+00  0.00000000000E+00  0.74505805969E-08  0.10566000000E+00  0.10566000000E+00 0.  1.
     999900   -1    0    0    0    0 -0.00000000000E+00 -0.00000000000E+00 -0.74505805969E-08  0.93827000000E+00  0.93827000000E+00 0.  1.
     999902    2    1    2    0    0 -0.13270044033E-01 -0.11091267928E-01  0.15987769117E-01  0.10203775255E+01  0.10201056688E+01 0.  0.
     999903    2    3    3    0    0 -0.17853745752E-01  0.57053884318E-01 -0.11204098157E+00  0.12849405045E+00  0.19586666334E-01 0.  0.
         14    1    1    2    0    0  0.13270044033E-01  0.11091267928E-01 -0.15987769117E-01  0.23552474482E-01  0.00000000000E+00 0. -1.
     999901    1    3    3    0    0  0.45837017187E-02 -0.68145152246E-01  0.12802875068E+00  0.89188347507E+00  0.88000000000E+00 0. -1.
        -11    1    4    4    0    0 -0.12224437477E-01  0.12831882943E-01 -0.40322150697E-01  0.44048053866E-01  0.51100000000E-03 0.  1.
         11    1    4    4    0    0 -0.56293082751E-02  0.44222001374E-01 -0.71718830868E-01  0.84445996585E-01  0.51100000000E-03 0. -1.
</event>
<event>
 8    1  0.1114333E+005  0.1043930E+01  0.7957747E-01            NaN
         13   -1    0    0    0    0  0.00000000000E+00  0.00000000000E+00  0.74505805969E-08  0.10566000000E+00  0.10566000000E+00 0. -1.
     999900   -1    0    0    0    0 -0.00000000000E+00 -0.00000000000E+00 -0.74505805969E-08  0.93827000000E+00  0.93827000000E+00 0.  1.
     999902    2    1    2    0    0  0.20874374267E-01 -0.35819290586E-02 -0.11636292080E-01  0.10197644665E+01  0.10194780989E+01 0.  0.
     999903    2    3    3    0    0  0.28639876122E-01  0.33862455073E-01  0.11964881354E+00  0.12920387681E+00  0.20270541007E-01 0.  0.
         14    1    1    2    0    0 -0.20874374267E-01  0.35819290586E-02  0.11636292080E-01  0.24165533517E-01  0.00000000000E+00 0.  1.
     999901    1    3    3    0    0 -0.77655018558E-02 -0.37444384131E-01 -0.13128510562E+00  0.89056058967E+00  0.88000000000E+00 0.  1.
        -11    1    4    4    0    0  0.19018939037E-01  0.11192621312E-01  0.38279789031E-01  0.44188213170E-01  0.51100000000E-03 0. -1.
         11    1    4    4    0    0  0.96209370855E-02  0.22669833761E-01  0.81369024511E-01  0.85015663639E-01  0.51100000000E-03 0.  1.
</event>
<event>
 7    1  0.1114333E+005  0.1043930E+01  0.7957747E-01            NaN
         13   -1    0    0    0    0  0.00000000000E+00  0.00000000000E+00  0.74505805969E-08  0.10566000000E+00  0.10566000000E+00 0. -1.
     999900   -1    0    0    0    0 -0.00000000000E+00 -0.00000000000E+00 -0.74505805969E-08  0.93827000000E+00  0.93827000000E+00 0.  1.
     999903    2    1    2    0    0  0.30628494347E-01 -0.55317108101E-01  0.91870188585E-01  0.11343449150E+00  0.20716302683E-01 0.  0.
         14    1    1    2    0    0 -0.56325537194E-02 -0.20340554649E-01  0.31919496685E-01  0.38266409467E-01  0.00000000000E+00 0. -1.
     999901    1    1    2    0    0 -0.24995940627E-01  0.75657662750E-01 -0.12378968527E+00  0.89222909903E+00  0.88000000000E+00 0.  1.
        -11    1    3    3    0    0  0.85559748661E-02 -0.70286833372E-02  0.29560493642E-01  0.31570413376E-01  0.51100000000E-03 0. -1.
         11    1    3    3    0    0  0.22072519480E-01 -0.48288424764E-01  0.62309694942E-01  0.81864078125E-01  0.51100000000E-03 0.  1.
</event>
<event>
 8    1  0.1114333E+005  0.1043930E+01  0.7957747E-01            NaN
         13   -1    0    0    0    0  0.00000000000E+00  0.00000000000E+00  0.74505805969E-08  0.10566000000E+00  0.10566000000E+00 0. -1.
     999900   -1    0    0    0    0 -0.00000000000E+00 -0.00000000000E+00 -0.74505805969E-08  0.93827000000E+00  0.93827000000E+00 0.  1.
     999902    2    1    2    0    0 -0.16341213800E-01 -0.12269629326E-01 -0.11458672116E-01  0.10205018068E+01  0.10202328447E+01 0.  0.
     999903    2    3    3    0    0 -0.57178967490E-01  0.11088598646E+00  0.29542091778E-01  0.13004344699E+00  0.21758368589E-01 0.  0.
         14    1    1    2    0    0  0.16341213800E-01  0.12269629326E-01  0.11458672116E-01  0.23428193249E-01  0.00000000000E+00 0.  1.
     999901    1    3    3    0    0  0.40837753690E-01 -0.12315561578E+00 -0.41000763894E-01  0.89045835976E+00  0.88000000000E+00 0.  1.
        -11    1    4    4    0    0 -0.27106694419E-01  0.66395323864E-01  0.79287847636E-02  0.72154269882E-01  0.51100000000E-03 0. -1.
         11    1    4    4    0    0 -0.30072273070E-01  0.44490662591E-01  0.21613307014E-01  0.57889177111E-01  0.51100000000E-03 0.  1.
</event>
<event>
 8    1  0.1114333E+005  0.1043930E+01  0.7957747E-01            NaN
         13   -1    0    0    0    0  0.00000000000E+00  0.00000000000E+00  0.74505805969E-08  0.10566000000E+00  0.10566000000E+00 0.  1.
     999900   -1    0    0    0    0 -0.00000000000E+00 -0.00000000000E+00 -0.74505805969E-08  0.93827000000E+00  0.93827000000E+00 0. -1.
     999902    2    1    2    0    0 -0.36341220134E-02 -0.17434208605E-01  0.21996169556E-01  0.10156282342E+01  0.10152338254E+01 0.  0.
     999903    2    3    3    0    0 -0.68445190775E-01 -0.27570307985E-01 -0.98919929923E-01  0.12494090507E+00  0.19499005157E-01 0.  0.
         14    1    1    2    0    0  0.36341220134E-02  0.17434208605E-01 -0.21996169556E-01  0.28301765804E-01  0.00000000000E+00 0. -1.
     999901    1    3    3    0    0  0.64811068762E-01  0.10136099380E-01  0.12091609948E+00  0.89068732912E+00  0.88000000000E+00 0.  1.
        -11    1    4    4    0    0 -0.24810026413E-01 -0.39637546550E-02 -0.45891741742E-01  0.52321714829E-01  0.51100000000E-03 0. -1.
         11    1    4    4    0    0 -0.43635164362E-01 -0.23606553330E-01 -0.53028188181E-01  0.72619190245E-01  0.51100000000E-03 0.  1.
</event>
<event>
 8    1  0.1114333E+005  0.1043930E+01  0.7957747E-01            NaN
         13   -1    0    0    0    0  0.00000000000E+00  0.00000000000E+00  0.74505805969E-08  0.10566000000E+00  0.10566000000E+00 0. -1.
     999900   -1    0    0    0    0 -0.00000000000E+00 -0.00000000000E+00 -0.74505805969E-08  0.93827000000E+00  0.93827000000E+00 0. -1.
     999902    2    1    2    0    0  0.38820911307E-03  0.79739162183E-03  0.23872300680E-01  0.10200412311E+01  0.10197614622E+01 0.  0.
     999903    2    3    3    0    0 -0.71573730728E-01 -0.29110700875E-01  0.10570248122E+00  0.13281567172E+00  0.22288030013E-01 0.  0.
         14    1    1    2    0    0 -0.38820911307E-03 -0.79739162183E-03 -0.23872300680E-01  0.23888768898E-01  0.00000000000E+00 0.  1.
     999901    1    3    3    0    0  0.71961939841E-01  0.29908092497E-01 -0.81830180538E-01  0.88722555939E+00  0.88000000000E+00 0. -1.
        -11    1    4    4    0    0 -0.19309535164E-01 -0.10473178004E-01  0.47844717114E-01  0.52649061554E-01  0.51100000000E-03 0.  1.
         11    1    4    4    0    0 -0.52264195564E-01 -0.18637522871E-01  0.57857764103E-01  0.80166610161E-01  0.51100000000E-03 0. -1.
</event>
<event>
 8    1  0.1114333E+005  0.1043930E+01  0.7957747E-01            NaN
         13   -1    0    0    0    0  0.00000000000E+00  0.00000000000E+00  0.74505805969E-08  0.10566000000E+00  0.10566000000E+00 0.  1.
     999900   -1    0    0    0    0 -0.00000000000E+00 -0.00000000000E+00 -0.74505805969E-08  0.93827000000E+00  0.93827000000E+00 0.  1.
     999902    2    1    2    0    0  0.62399345350E-03  0.22661978554E-01 -0.77222672896E-02  0.10199803016E+01  0.10196990868E+01 0.  0.
     999903    2    3    3    0    0  0.50330659498E-01 -0.63612432331E-01 -0.99304346967E-01  0.12964255452E+00  0.19134309040E-01 0.  0.
         14    1    1    2    0    0 -0.62399345350E-03 -0.22661978554E-01  0.77222672896E-02  0.23949698367E-01  0.00000000000E+00 0. -1.
     999901    1    3    3    0    0 -0.49706666045E-01  0.86274410884E-01  0.91582079677E-01  0.89033774712E+00  0.88000000000E+00 0. -1.
        -11    1    4    4    0    0  0.21782255205E-01 -0.34327757902E-01 -0.62845334780E-01  0.74850910676E-01  0.51100000000E-03 0.  1.
         11    1    4    4    0    0  0.28548404294E-01 -0.29284674429E-01 -0.36459012187E-01  0.54791643841E-01  0.51100000000E-03 0. -1.
</event>
<event>
 7    1  0.1114333E+005  0.1043930E+01  0.7957747E-01            NaN
         13   -1    0    0    0    0  0.00000000000E+00  0.00000000000E+00  0.74505805969E-08  0.10566000000E+00  0.10566000000E+00 0. -1.
     999900   -1    0    0    0    0 -0.00000000000E+00 -0.00000000000E+00 -0.74505805969E-08  0.93827000000E+00  0.93827000000E+00 0.  1.
     999903    2    1    2    0    0 -0.59818322919E-01 -0.71660779675E-01  0.54475786036E-01  0.10987145661E+00  0.19764276206E-01 0.  0.
         14    1    1    2    0    0 -0.34795246737E-01 -0.21529080828E-01  0.87826899061E-02  0.41849087909E-01  0.00000000000E+00 0. -1.
     999901    1    1    2    0    0  0.94613569656E-01  0.93189860503E-01 -0.63258475942E-01  0.89220945548E+00  0.88000000000E+00 0.  1.
        -11    1    3    3    0    0 -0.55735336525E-01 -0.69331512153E-01  0.55738051921E-01  0.10497751125E+00  0.51100000000E-03 0. -1.
         11    1    3    3    0    0 -0.40829863942E-02 -0.23292675213E-02 -0.12622658850E-02  0.48939453660E-02  0.51100000000E-03 0.  1.
</event>
<event>
 8    1  0.1114333E+005  0.1043930E+01  0.7957747E-01            NaN
         13   -1    0    0    0    0  0.00000000000E+00  0.00000000000E+00  0.74505805969E-08  0.10566000000E+00  0.10566000000E+00 0.  1.
     999900   -1    0    0    0    0 -0.00000000000E+00 -0.00000000000E+00 -0.74505805969E-08  0.93827000000E+00  0.93827000000E+00 0.  1.
     999902    2    1    2    0    0 -0.13171334081E-01 -0.20593332924E-01  0.11940237240E-01  0.10167245103E+01  0.10163604632E+01 0.  0.
     999903    2    3    3    0    0 -0.30755337311E-01  0.11089083103E+00  0.47318971127E-01  0.12607927381E+00  0.20352667546E-01 0.  0.
         14    1    1    2    0    0  0.13171334081E-01  0.20593332924E-01 -0.11940237240E-01  0.27205489662E-01  0.00000000000E+00 0.  1.
     999901    1    3    3    0    0  0.17584003230E-01 -0.13148416395E+00 -0.35378733887E-01  0.89064523653E+00  0.88000000000E+00 0.  1.
        -11    1    4    4    0    0 -0.11762370846E-01  0.17457797881E-01  0.43622521533E-02  0.21503916843E-01  0.51100000000E-03 0. -1.
         11    1    4    4    0    0 -0.18992966465E-01  0.93433033148E-01  0.42956718974E-01  0.10457535697E+00  0.51100000000E-03 0.  1.
</event>
<event>
 8    1  0.1114333E+005  0.1043930E+01  0.7957747E-01            NaN
         13   -1    0    0    0    0  0.00000000000E+00  0.00000000000E+00  0.74505805969E-08  0.10566000000E+00  0.10566000000E+00 0.  1.
     999900   -1    0    0    0    0 -0.00000000000E+00 -0.00000000000E+00 -0.74505805969E-08  0.93827000000E+00  0.93827000000E+00 0.  1.
     999902    2    1    2    0    0 -0.22012550195E-01 -0.33470530606E-02  0.83545633312E-02  0.10201486237E+01  0.10198713941E+01 0.  0.
     999903    2    3    3    0    0  0.80698712462E-01 -0.87232709486E-01  0.47066453470E-01  0.12937086395E+00  0.19993538933E-01 0.  0.
         14    1    1    2    0    0  0.22012550195E-01  0.33470530606E-02 -0.83545633312E-02  0.23781376301E-01  0.00000000000E+00 0. -1.
     999901    1    3    3    0    0 -0.10271126266E+00  0.83885656426E-01 -0.38711890139E-01  0.89077775975E+00  0.88000000000E+00 0.  1.
        -11    1    4    4    0    0  0.19308928052E-01 -0.34594074516E-01  0.16444714286E-01  0.42898420054E-01  0.51100000000E-03 0.  1.
         11    1    4    4    0    0  0.61389784409E-01 -0.52638634970E-01  0.30621739184E-01  0.86472443894E-01  0.51100000000E-03 0. -1.
</event>
<event>
 8    1  0.1114333E+005  0.1043930E+01  0.7957747E-01            NaN
         13   -1    0    0    0    0  0.00000000000E+00  0.00000000000E+00  0.74505805969E-08  0.10566000000E+00  0.10566000000E+00 0.  1.
     999900   -1    0    0    0    0 -0.00000000000E+00 -0.00000000000E+00 -0.74505805969E-08  0.93827000000E+00  0.93827000000E+00 0. -1.
     999902    2    1    2    0    0  0.70516960381E-02  0.21941114790E-01 -0.75001022678E-02  0.10196938603E+01  0.10194057966E+01 0.  0.
     999903    2    3    3    0    0  0.11221613889E+00 -0.47689073132E-01 -0.40904856435E-01  0.13007382862E+00  0.19475217255E-01 0.  0.
         14    1    1    2    0    0 -0.70516960381E-02 -0.21941114790E-01  0.75001022678E-02  0.24236139735E-01  0.00000000000E+00 0.  1.
     999901    1    3    3    0    0 -0.10516444285E+00  0.69630187922E-01  0.33404754167E-01  0.88962003165E+00  0.88000000000E+00 0.  1.
        -11    1    4    4    0    0  0.68335136371E-01 -0.22031813964E-01 -0.16439074187E-01  0.73658644914E-01  0.51100000000E-03 0. -1.
         11    1    4    4    0    0  0.43881002519E-01 -0.25657259169E-01 -0.24465782248E-01  0.56415183702E-01  0.51100000000E-03 0.  1.
</event>
<event>
 8    1  0.1114333E+005  0.1043930E+01  0.7957747E-01            NaN
         13   -1    0    0    0    0  0.00000000000E+00  0.00000000000E+00  0.74505805969E-08  0.10566000000E+00  0.10566000000E+00 0.  1.
     999900   -1    0    0    0    0 -0.00000000000E+00 -0.00000000000E+00 -0.74505805969E-08  0.93827000000E+00  0.93827000000E+00 0. -1.
     999902    2    1    2    0    0  0.76393752437E-02  0.10209833358E-01 -0.20789542765E-01  0.10195413584E+01  0.10192496140E+01 0.  0.
     999903    2    3    3    0    0  0.60773467133E-01 -0.39735317344E-02  0.11088208921E+00  0.12804720909E+00  0.19800171345E-01 0.  0.
         14    1    1    2    0    0 -0.76393752437E-02 -0.10209833358E-01  0.20789542765E-01  0.24388641612E-01  0.00000000000E+00 0.  1.
     999901    1    3    3    0    0 -0.53134091889E-01  0.14183365092E-01 -0.13167163198E+00  0.89149414930E+00  0.88000000000E+00 0. -1.
        -11    1    4    4    0    0  0.11714529383E-01 -0.88100008031E-02  0.22887633198E-01  0.27183656620E-01  0.51100000000E-03 0.  1.
         11    1    4    4    0    0  0.49058937751E-01  0.48364690688E-02  0.87994456015E-01  0.10086355247E+00  0.51100000000E-03 0. -1.
</event>
<event>
 8    1  0.1114333E+005  0.1043930E+01  0.7957747E-01            NaN
         13   -1    0    0    0    0  0.00000000000E+00  0.00000000000E+00  0.74505805969E-08  0.10566000000E+00  0.10566000000E+00 0. -1.
     999900   -1    0    0    0    0 -0.00000000000E+00 -0.00000000000E+00 -0.74505805969E-08  0.93827000000E+00  0.93827000000E+00 0. -1.
     999902    2    1    2    0    0  0.10944453560E-01  0.11724563969E-01 -0.16317462160E-01  0.10210497457E+01  0.10207933568E+01 0.  0.
     999903    2    3    3    0    0  0.14670209434E-01 -0.81911195468E-01  0.96503002809E-01  0.12891186736E+00  0.19513610855E-01 0.  0.
         14    1    1    2    0    0 -0.10944453560E-01 -0.11724563969E-01  0.16317462160E-01  0.22880254268E-01  0.00000000000E+00 0. -1.
     999901    1    3    3    0    0 -0.37257558739E-02  0.93635759437E-01 -0.11282046497E+00  0.89213787837E+00  0.88000000000E+00 0. -1.
        -11    1    4    4    0    0  0.88146067322E-02 -0.24578059524E-01  0.18850203169E-01  0.32208222278E-01  0.51100000000E-03 0.  1.
         11    1    4    4    0    0  0.58556027015E-02 -0.57333135943E-01  0.77652799640E-01  0.96703645087E-01  0.51100000000E-03 0. -1.
</event>
<event>
 8    1  0.1114333E+005  0.1043930E+01  0.7957747E-01            NaN
         13   -1    0    0    0    0  0.00000000000E+00  0.00000000000E+00  0.74505805969E-08  0.10566000000E+00  0.10566000000E+00 0.  1.
     999900   -1    0    0    0    0 -0.00000000000E+00 -0.00000000000E+00 -0.74505805969E-08  0.93827000000E+00  0.93827000000E+00 0. -1.
     999902    2    1    2    0    0 -0.16633272663E-01  0.21243033411E-02 -0.16622377161E-01  0.10203189465E+01  0.10200457199E+01 0.  0.
     999903    2    3    3    0    0  0.16342417269E-02 -0.12637276129E+00  0.23401718415E-01  0.12989931178E+00  0.18800139220E-01 0.  0.
         14    1    1    2    0    0  0.16633272663E-01 -0.21243033411E-02  0.16622377161E-01  0.23611053485E-01  0.00000000000E+00 0.  1.
     999901    1    3    3    0    0 -0.18267514390E-01  0.12849706463E+00 -0.40024095576E-01  0.89041963474E+00  0.88000000000E+00 0. -1.
        -11    1    4    4    0    0  0.98369218181E-02 -0.81999509294E-01  0.16984885610E-01  0.84317447871E-01  0.51100000000E-03 0.  1.
         11    1    4    4    0    0 -0.82026800913E-02 -0.44373251992E-01  0.64168328051E-02  0.45581863907E-01  0.51100000000E-03 0. -1.
</event>
<event>
 8    1  0.1114333E+005  0.1043930E+01  0.7957747E-01            NaN
         13   -1    0    0    0    0  0.00000000000E+00  0.00000000000E+00  0.74505805969E-08  0.10566000000E+00  0.10566000000E+00 0.  1.
     999900   -1    0    0    0    0 -0.00000000000E+00 -0.00000000000E+00 -0.74505805969E-08  0.93827000000E+00  0.93827000000E+00 0. -1.
     999902    2    1    2    0    0 -0.55996596998E-02 -0.80588065435E-02 -0.22751125698E-01  0.10191527065E+01  0.10188514734E+01 0.  0.
     999903    2    3    3    0    0 -0.44679896615E-01 -0.38204696023E-01  0.11124428500E+00  0.12764229735E+00  0.21479598904E-01 0.  0.
         14    1    1    2    0    0  0.55996596998E-02  0.80588065435E-02  0.22751125698E-01  0.24777293479E-01  0.00000000000E+00 0.  1.
     999901    1    3    3    0    0  0.39080236915E-01  0.30145889479E-01 -0.13399541069E+00  0.89151040917E+00  0.88000000000E+00 0. -1.
        -11    1    4    4    0    0 -0.19156903590E-02 -0.11495422932E-01  0.27778357704E-01  0.30128274023E-01  0.51100000000E-03 0.  1.
         11    1    4    4    0    0 -0.42764206256E-01 -0.26709273091E-01  0.83465927293E-01  0.97514023328E-01  0.51100000000E-03 0. -1.
</event>
<event>
 8    1  0.1114333E+005  0.1043930E+01  0.7957747E-01            NaN
         13   -1    0    0    0    0  0.00000000000E+00  0.00000000000E+00  0.74505805969E-08  0.10566000000E+00  0.10566000000E+00 0. -1.
     999900   -1    0    0    0    0 -0.00000000000E+00 -0.00000000000E+00 -0.74505805969E-08  0.93827000000E+00  0.93827000000E+00 0.  1.
     999902    2    1    2    0    0 -0.26289521175E-01  0.77814953399E-02 -0.36723704545E-02  0.10162681689E+01  0.10158916351E+01 0.  0.
     999903    2    3    3    0    0  0.60827983351E-01 -0.90714887177E-01  0.56133140373E-01  0.12449034005E+00  0.20437245482E-01 0.  0.
         14    1    1    2    0    0  0.26289521175E-01 -0.77814953399E-02  0.36723704545E-02  0.27661831069E-01  0.00000000000E+00 0. -1.
     999901    1    3    3    0    0 -0.87117504525E-01  0.98496382517E-01 -0.59805510827E-01  0.89177782888E+00  0.88000000000E+00 0. -1.
        -11    1    4    4    0    0  0.27441007447E-01 -0.31199365196E-01  0.12116436389E-01  0.43283697047E-01  0.51100000000E-03 0.  1.
         11    1    4    4    0    0  0.33386975904E-01 -0.59515521982E-01  0.44016703984E-01  0.81206643000E-01  0.51100000000E-03 0. -1.
</event>
<event>
 8    1  0.1114333E+005  0.1043930E+01  0.7957747E-01            NaN
         13   -1    0    0    0    0  0.00000000000E+00  0.00000000000E+00  0.74505805969E-08  0.10566000000E+00  0.10566000000E+00 0. -1.
     999900   -1    0    0    0    0 -0.00000000000E+00 -0.00000000000E+00 -0.74505805969E-08  0.93827000000E+00  0.93827000000E+00 0.  1.
     999902    2    1    2    0    0 -0.10090418291E-01  0.19476299288E-01 -0.74254948353E-02  0.10207722637E+01  0.10205095461E+01 0.  0.
     999903    2    3    3    0    0  0.64201118870E-01  0.24464743717E-01  0.10853818258E+00  0.13004688993E+00  0.20281744295E-01 0.  0.
         14    1    1    2    0    0  0.10090418291E-01 -0.19476299288E-01  0.74254948353E-02  0.23157736262E-01  0.00000000000E+00 0. -1.
     999901    1    3    3    0    0 -0.74291537161E-01 -0.49884444289E-02 -0.11596367742E+00  0.89072537381E+00  0.88000000000E+00 0.  1.
        -11    1    4    4    0    0  0.45885370328E-01  0.24813469027E-01  0.89689975458E-01  0.10375802752E+00  0.51100000000E-03 0. -1.
         11    1    4    4    0    0  0.18315748542E-01 -0.34872530995E-03  0.18848207125E-01  0.26288862410E-01  0.51100000000E-03 0.  1.
</event>
<event>
 8    1  0.1114333E+005  0.1043930E+01  0.7957747E-01            NaN
         13   -1    0    0    0    0  0.00000000000E+00  0.00000000000E+00  0.74505805969E-08  0.10566000000E+00  0.10566000000E+00 0.  1.
     999900   -1    0    0    0    0 -0.00000000000E+00 -0.00000000000E+00 -0.74505805969E-08  0.93827000000E+00  0.93827000000E+00 0. -1.
     999902    2    1    2    0    0 -0.14292685066E-01 -0.10827544146E-01 -0.15220436563E-01  0.10204102583E+01  0.10201391655E+01 0.  0.
     999903    2    3    3    0    0  0.41614481556E-01  0.11614340585E+00  0.30114708062E-01  0.12838867297E+00  0.18860008133E-01 0.  0.
         14    1    1    2    0    0  0.14292685066E-01  0.10827544146E-01  0.15220436563E-01  0.23519741661E-01  0.00000000000E+00 0.  1.
     999901    1    3    3    0    0 -0.55907166623E-01 -0.12697095000E+00 -0.45335144625E-01  0.89202158537E+00  0.88000000000E+00 0.  1.
        -11    1    4    4    0    0  0.42886430917E-02  0.23418648137E-01  0.12488897411E-01  0.26889760499E-01  0.51100000000E-03 0.  1.
         11    1    4    4    0    0  0.37325838464E-01  0.92724757718E-01  0.17625810651E-01  0.10149891247E+00  0.51100000000E-03 0. -1.
</event>
<event>
 7    1  0.1343309E+005  0.1043930E+01  0.7957747E-01            NaN
         13   -1    0    0    0    0  0.00000000000E+00  0.00000000000E+00  0.74505805969E-08  0.10566000000E+00  0.10566000000E+00 0.  1.
     999900   -1    0    0    0    0 -0.00000000000E+00 -0.00000000000E+00 -0.74505805969E-08  0.93827000000E+00  0.93827000000E+00 0.  1.
     999903    2    1    2    0    0 -0.24580613428E-01 -0.38087601760E-01 -0.38983169915E-01  0.63061739698E-01  0.20055510782E-01 0.  0.
         14    1    1    2    0    0 -0.75540513905E-02 -0.35945575151E-01 -0.81122410041E-01  0.89050510814E-01  0.00000000000E+00 0. -1.
     999901    1    1    2    0    0  0.32134664818E-01  0.74033176911E-01  0.12010557996E+00  0.89181774949E+00  0.88000000000E+00 0. -1.
        -11    1    3    3    0    0 -0.17510184886E-01 -0.28690155299E-01 -0.15977126491E-01  0.37219098293E-01  0.51100000000E-03 0.  1.
         11    1    3    3    0    0 -0.70704285421E-02 -0.93974464614E-02 -0.23006043424E-01  0.25842641405E-01  0.51100000000E-03 0. -1.
</event>
<event>
 8    1  0.1114333E+005  0.1043930E+01  0.7957747E-01            NaN
         13   -1    0    0    0    0  0.00000000000E+00  0.00000000000E+00  0.74505805969E-08  0.10566000000E+00  0.10566000000E+00 0.  1.
     999900   -1    0    0    0    0 -0.00000000000E+00 -0.00000000000E+00 -0.74505805969E-08  0.93827000000E+00  0.93827000000E+00 0.  1.
     999902    2    1    2    0    0  0.17709980723E-01 -0.14480866946E-01 -0.73802912792E-02  0.10198923707E+01  0.10196090624E+01 0.  0.
     999903    2    3    3    0    0  0.57251695803E-02  0.10918330444E+00 -0.65921719866E-01  0.12923892412E+00  0.20081205698E-01 0.  0.
         14    1    1    2    0    0 -0.17709980723E-01  0.14480866946E-01  0.73802912792E-02  0.24037629336E-01  0.00000000000E+00 0. -1.
     999901    1    3    3    0    0  0.11984811143E-01 -0.12366417139E+00  0.58541428586E-01  0.89065344655E+00  0.88000000000E+00 0. -1.
        -11    1    4    4    0    0 -0.30343980584E-02  0.62753306611E-01 -0.46438381929E-01  0.78127904742E-01  0.51100000000E-03 0. -1.
         11    1    4    4    0    0  0.87595676387E-02  0.46429997829E-01 -0.19483337936E-01  0.51111019377E-01  0.51100000000E-03 0.  1.
</event>
<event>
 8    1  0.1114333E+005  0.1043930E+01  0.7957747E-01            NaN
         13   -1    0    0    0    0  0.00000000000E+00  0.00000000000E+00  0.74505805969E-08  0.10566000000E+00  0.10566000000E+00 0.  1.
     999900   -1    0    0    0    0 -0.00000000000E+00 -0.00000000000E+00 -0.74505805969E-08  0.93827000000E+00  0.93827000000E+00 0. -1.
     999902    2    1    2    0    0  0.17645190825E-01  0.11694515903E-01 -0.58997672397E-02  0.10219545201E+01  0.10217182192E+01 0.  0.
     999903    2    3    3    0    0  0.73907991986E-01 -0.29294632433E-01  0.10401075942E+00  0.13238949332E+00  0.19702108955E-01 0.  0.
         14    1    1    2    0    0 -0.17645190825E-01 -0.11694515903E-01  0.58997672397E-02  0.21975479857E-01  0.00000000000E+00 0.  1.
     999901    1    3    3    0    0 -0.56262801160E-01  0.40989148336E-01 -0.10991052666E+00  0.88956502682E+00  0.88000000000E+00 0. -1.
        -11    1    4    4    0    0  0.68390060492E-01 -0.26013461542E-01  0.84167126565E-01  0.11152697822E+00  0.51100000000E-03 0.  1.
         11    1    4    4    0    0  0.55179314942E-02 -0.32811708916E-02  0.19843632856E-01  0.20862515101E-01  0.51100000000E-03 0. -1.
</event>
<event>
 8    1  0.1114333E+005  0.1043930E+01  0.7957747E-01            NaN
         13   -1    0    0    0    0  0.00000000000E+00  0.00000000000E+00  0.74505805969E-08  0.10566000000E+00  0.10566000000E+00 0. -1.
     999900   -1    0    0    0    0 -0.00000000000E+00 -0.00000000000E+00 -0.74505805969E-08  0.93827000000E+00  0.93827000000E+00 0. -1.
     999902    2    1    2    0    0 -0.83900652196E-02 -0.90641888825E-02 -0.18900730527E-01  0.10213514631E+01  0.10211018660E+01 0.  0.
     999903    2    3    3    0    0 -0.46681963235E-01  0.29366503252E-01  0.11542748862E+00  0.12950660102E+00  0.20170705811E-01 0.  0.
         14    1    1    2    0    0  0.83900652196E-02  0.90641888825E-02  0.18900730527E-01  0.22578536909E-01  0.00000000000E+00 0. -1.
     999901    1    3    3    0    0  0.38291898016E-01 -0.38430692134E-01 -0.13432821915E+00  0.89184486208E+00  0.88000000000E+00 0. -1.
        -11    1    4    4    0    0 -0.42579487892E-01  0.20178301275E-01  0.81794890668E-01  0.94397255743E-01  0.51100000000E-03 0.  1.
         11    1    4    4    0    0 -0.41024753439E-02  0.91882019767E-02  0.33632597951E-01  0.35109345272E-01  0.51100000000E-03 0. -1.
</event>
<event>
 8    1  0.1114333E+005  0.1043930E+01  0.7957747E-01            NaN
         13   -1    0    0    0    0  0.00000000000E+00  0.00000000000E+00  0.74505805969E-08  0.10566000000E+00  0.10566000000E+00 0.  1.
     999900   -1    0    0    0    0 -0.00000000000E+00 -0.00000000000E+00 -0.74505805969E-08  0.93827000000E+00  0.93827000000E+00 0.  1.
     999902    2    1    2    0    0  0.13005475763E-01  0.74560598253E-02  0.18172167463E-01  0.10203723495E+01  0.10201003719E+01 0.  0.
     999903    2    3    3    0    0  0.12263186614E+00 -0.35406380595E-01  0.28008209321E-01  0.13248053062E+00  0.21781754431E-01 0.  0.
         14    1    1    2    0    0 -0.13005475763E-01 -0.74560598253E-02 -0.18172167463E-01  0.23557650525E-01  0.00000000000E+00 0. -1.
     999901    1    3    3    0    0 -0.10962639037E+00  0.42862440420E-01 -0.98360418579E-02  0.88789181885E+00  0.88000000000E+00 0.  1.
        -11    1    4    4    0    0  0.85485943335E-01 -0.33604204169E-01  0.14961834594E-01  0.93065604071E-01  0.51100000000E-03 0.  1.
         11    1    4    4    0    0  0.37145922800E-01 -0.18021764256E-02  0.13046374727E-01  0.39414926552E-01  0.51100000000E-03 0. -1.
</event>
<event>
 8    1  0.1114333E+005  0.1043930E+01  0.7957747E-01            NaN
         13   -1    0    0    0    0  0.00000000000E+00  0.00000000000E+00  0.74505805969E-08  0.10566000000E+00  0.10566000000E+00 0.  1.
     999900   -1    0    0    0    0 -0.00000000000E+00 -0.00000000000E+00 -0.74505805969E-08  0.93827000000E+00  0.93827000000E+00 0. -1.
     999902    2    1    2    0    0 -0.10600163571E-01  0.12342103481E-01 -0.18074616028E-01  0.10196116380E+01  0.10193215928E+01 0.  0.
     999903    2    3    3    0    0 -0.68777019876E-01  0.54124013202E-01 -0.98430138515E-01  0.13305239881E+00  0.18835110647E-01 0.  0.
         14    1    1    2    0    0  0.10600163571E-01 -0.12342103481E-01  0.18074616028E-01  0.24318362005E-01  0.00000000000E+00 0.  1.
     999901    1    3    3    0    0  0.58176856305E-01 -0.41781909721E-01  0.80355522487E-01  0.88655923918E+00  0.88000000000E+00 0.  1.
        -11    1    4    4    0    0 -0.22168793909E-01  0.19681227198E-01 -0.46982639856E-01  0.55555699043E-01  0.51100000000E-03 0. -1.
         11    1    4    4    0    0 -0.46608225967E-01  0.34442786004E-01 -0.51447498659E-01  0.77496699767E-01  0.51100000000E-03 0.  1.
</event>
<event>
 8    1  0.1114333E+005  0.1043930E+01  0.7957747E-01            NaN
         13   -1    0    0    0    0  0.00000000000E+00  0.00000000000E+00  0.74505805969E-08  0.10566000000E+00  0.10566000000E+00 0. -1.
     999900   -1    0    0    0    0 -0.00000000000E+00 -0.00000000000E+00 -0.74505805969E-08  0.93827000000E+00  0.93827000000E+00 0. -1.
     999902    2    1    2    0    0 -0.95340793647E-02 -0.20635303521E-01  0.30047905410E-02  0.10210009096E+01  0.10207434125E+01 0.  0.
     999903    2    3    3    0    0 -0.17611424864E-01  0.12565998113E+00  0.10850113869E-01  0.12885232168E+00  0.19611289787E-01 0.  0.
         14    1    1    2    0    0  0.95340793647E-02  0.20635303521E-01 -0.30047905410E-02  0.22929090408E-01  0.00000000000E+00 0.  1.
     999901    1    3    3    0    0  0.80773454991E-02 -0.14629528465E+00 -0.78453233276E-02  0.89214858792E+00  0.88000000000E+00 0. -1.
        -11    1    4    4    0    0 -0.21819789651E-01  0.10156848783E+00  0.74250720683E-02  0.10415207034E+00  0.51100000000E-03 0. -1.
         11    1    4    4    0    0  0.42083647870E-02  0.24091493301E-01  0.34250418003E-02  0.24700251335E-01  0.51100000000E-03 0.  1.
</event>
<event>
 8    1  0.1114333E+005  0.1043930E+01  0.7957747E-01            NaN
         13   -1    0    0    0    0  0.00000000000E+00  0.00000000000E+00  0.74505805969E-08  0.10566000000E+00  0.10566000000E+00 0. -1.
     999900   -1    0    0    0    0 -0.00000000000E+00 -0.00000000000E+00 -0.74505805969E-08  0.93827000000E+00  0.93827000000E+00 0.  1.
     999902    2    1    2    0    0  0.70160504849E-02 -0.13851932360E-01  0.18609645713E-01  0.10196932529E+01  0.10194051747E+01 0.  0.
     999903    2    3    3    0    0 -0.18284908713E-01 -0.10213722375E+00 -0.75567413897E-01  0.12991589328E+00  0.20033844412E-01 0.  0.
         14    1    1    2    0    0 -0.70160504849E-02  0.13851932360E-01 -0.18609645713E-01  0.24236747060E-01  0.00000000000E+00 0.  1.
     999901    1    3    3    0    0  0.25300959197E-01  0.88285291385E-01  0.94177059610E-01  0.88977735966E+00  0.88000000000E+00 0. -1.
        -11    1    4    4    0    0 -0.15830691439E-01 -0.48951297845E-01 -0.28312489401E-01  0.58725620723E-01  0.51100000000E-03 0. -1.
         11    1    4    4    0    0 -0.24542172733E-02 -0.53185925900E-01 -0.47254924496E-01  0.71190272554E-01  0.51100000000E-03 0.  1.
</event>
<event>
 8    1  0.1114333E+005  0.1043930E+01  0.7957747E-01            NaN
         13   -1    0    0    0    0  0.00000000000E+00  0.00000000000E+00  0.74505805969E-08  0.10566000000E+00  0.10566000000E+00 0.  1.
     999900   -1    0    0    0    0 -0.00000000000E+00 -0.00000000000E+00 -0.74505805969E-08  0.93827000000E+00  0.93827000000E+00 0.  1.
     999902    2    1    2    0    0  0.18056700695E-01 -0.22246077531E-02 -0.24350866683E-01  0.10135333221E+01  0.10130774092E+01 0.  0.
     999903    2    3    3    0    0  0.48776901362E-01 -0.11387791914E+00  0.27225771353E-02  0.12553379279E+00  0.20098610195E-01 0.  0.
         14    1    1    2    0    0 -0.18056700695E-01  0.22246077531E-02  0.24350866683E-01  0.30396677908E-01  0.00000000000E+00 0.  1.
     999901    1    3    3    0    0 -0.30720200667E-01  0.11165331139E+00 -0.27073443818E-01  0.88799952930E+00  0.88000000000E+00 0. -1.
        -11    1    4    4    0    0  0.63563197194E-02 -0.19075449259E-01  0.77397385211E-02  0.21550875578E-01  0.51100000000E-03 0. -1.
         11    1    4    4    0    0  0.42420581642E-01 -0.94802469886E-01 -0.50171613858E-02  0.10398291722E+00  0.51100000000E-03 0.  1.
</event>
<event>
 8    1  0.1114333E+005  0.1043930E+01  0.7957747E-01            NaN
         13   -1    0    0    0    0  0.00000000000E+00  0.00000000000E+00  0.74505805969E-08  0.10566000000E+00  0.10566000000E+00 0. -1.
     999900   -1    0    0    0    0 -0.00000000000E+00 -0.00000000000E+00 -0.74505805969E-08  0.93827000000E+00  0.93827000000E+00 0.  1.
     999902    2    1    2    0    0 -0.23132727087E-01 -0.41775773057E-02 -0.19722702126E-02  0.10203404883E+01  0.10200677658E+01 0.  0.
     999903    2    3    3    0    0 -0.15420336088E-01  0.82380902345E-01  0.97854393106E-01  0.13044318290E+00  0.20384844318E-01 0.  0.
         14    1    1    2    0    0  0.23132727087E-01  0.41775773057E-02  0.19722702126E-02  0.23589511746E-01  0.00000000000E+00 0. -1.
     999901    1    3    3    0    0 -0.77123909984E-02 -0.86558479651E-01 -0.99826663318E-01  0.88989730536E+00  0.88000000000E+00 0. -1.
        -11    1    4    4    0    0 -0.41676507014E-02  0.17251529224E-01  0.96074654729E-02  0.20187845025E-01  0.51100000000E-03 0. -1.
         11    1    4    4    0    0 -0.11252685387E-01  0.65129373120E-01  0.88246927633E-01  0.11025533787E+00  0.51100000000E-03 0.  1.
</event>
<event>
 8    1  0.1114333E+005  0.1043930E+01  0.7957747E-01            NaN
         13   -1    0    0    0    0  0.00000000000E+00  0.00000000000E+00  0.74505805969E-08  0.10566000000E+00  0.10566000000E+00 0. -1.
     999900   -1    0    0    0    0 -0.00000000000E+00 -0.00000000000E+00 -0.74505805969E-08  0.93827000000E+00  0.93827000000E+00 0. -1.
     999902    2    1    2    0    0 -0.21464591022E-01  0.53202381405E-02  0.69424611063E-02  0.10207517480E+01  0.10204885593E+01 0.  0.
     999903    2    3    3    0    0  0.17247290999E-01  0.99635339645E-01 -0.80127661996E-01  0.13059718019E+00  0.20261078528E-01 0.  0.
         14    1    1    2    0    0  0.21464591022E-01 -0.53202381405E-02 -0.69424611063E-02  0.23178252044E-01  0.00000000000E+00 0.  1.
     999901    1    3    3    0    0 -0.38711882020E-01 -0.94315101505E-01  0.87070123102E-01  0.89015456777E+00  0.88000000000E+00 0.  1.
        -11    1    4    4    0    0  0.16295646953E-01  0.63536253133E-01 -0.41021322164E-01  0.77365454596E-01  0.51100000000E-03 0.  1.
         11    1    4    4    0    0  0.95164404504E-03  0.36099086512E-01 -0.39106339832E-01  0.53231725592E-01  0.51100000000E-03 0. -1.
</event>
<event>
 8    1  0.1114333E+005  0.1043930E+01  0.7957747E-01            NaN
         13   -1    0    0    0    0  0.00000000000E+00  0.00000000000E+00  0.74505805969E-08  0.10566000000E+00  0.10566000000E+00 0. -1.
     999900   -1    0    0    0    0 -0.00000000000E+00 -0.00000000000E+00 -0.74505805969E-08  0.93827000000E+00  0.93827000000E+00 0. -1.
     999902    2    1    2    0    0 -0.70592726216E-02 -0.21798253887E-01 -0.52174502675E-02  0.10204306598E+01  0.10201600426E+01 0.  0.
     999903    2    3    3    0    0 -0.45231115285E-01 -0.57886526683E-01 -0.10869487242E+00  0.13281191850E+00  0.20681553253E-01 0.  0.
         14    1    1    2    0    0  0.70592726216E-02  0.21798253887E-01  0.52174502675E-02  0.23499340199E-01  0.00000000000E+00 0. -1.
     999901    1    3    3    0    0  0.38171842664E-01  0.36088272796E-01  0.10347742215E+00  0.88761874130E+00  0.88000000000E+00 0.  1.
        -11    1    4    4    0    0 -0.56189826172E-03 -0.56815994368E-02 -0.18869976311E-01  0.19721395204E-01  0.51100000000E-03 0.  1.
         11    1    4    4    0    0 -0.44669217024E-01 -0.52204927246E-01 -0.89824896110E-01  0.11309052330E+00  0.51100000000E-03 0. -1.
</event>
<event>
 8    1  0.1114333E+005  0.1043930E+01  0.7957747E-01            NaN
         13   -1    0    0    0    0  0.00000000000E+00  0.00000000000E+00  0.74505805969E-08  0.10566000000E+00  0.10566000000E+00 0.  1.
     999900   -1    0    0    0    0 -0.00000000000E+00 -0.00000000000E+00 -0.74505805969E-08  0.93827000000E+00  0.93827000000E+00 0. -1.
     999902    2    1    2    0    0 -0.13679354001E-01 -0.17101035020E-01  0.68617800592E-02  0.10209810534E+01  0.10207231051E+01 0.  0.
     999903    2    3    3    0    0  0.10853046852E+00  0.15519076300E-01 -0.65212694405E-01  0.12902026824E+00  0.19334678154E-01 0.  0.
         14    1    1    2    0    0  0.13679354001E-01  0.17101035020E-01 -0.68617800592E-02  0.22948946604E-01  0.00000000000E+00 0.  1.
     999901    1    3    3    0    0 -0.12220982252E+00 -0.32620111320E-01  0.72074474464E-01  0.89196078515E+00  0.88000000000E+00 0.  1.
        -11    1    4    4    0    0  0.45287378894E-01  0.15896671133E-01 -0.30579359905E-01  0.56912294045E-01  0.51100000000E-03 0. -1.
         11    1    4    4    0    0  0.63243089626E-01 -0.37759483278E-03 -0.34633334500E-01  0.72107974197E-01  0.51100000000E-03 0.  1.
</event>
<event>
 8    1  0.1114333E+005  0.1043930E+01  0.7957747E-01            NaN
         13   -1    0    0    0    0  0.00000000000E+00  0.00000000000E+00  0.74505805969E-08  0.10566000000E+00  0.10566000000E+00 0.  1.
     999900   -1    0    0    0    0 -0.00000000000E+00 -0.00000000000E+00 -0.74505805969E-08  0.93827000000E+00  0.93827000000E+00 0.  1.
     999902    2    1    2    0    0 -0.24195926456E-02 -0.17247261655E-01 -0.18470927069E-01  0.10185430425E+01  0.10182266113E+01 0.  0.
     999903    2    3    3    0    0 -0.27235908553E-01  0.57612023660E-01 -0.11137086250E+00  0.13014551881E+00  0.21758838869E-01 0.  0.
         14    1    1    2    0    0  0.24195926456E-02  0.17247261655E-01  0.18470927069E-01  0.25386957477E-01  0.00000000000E+00 0.  1.
     999901    1    3    3    0    0  0.24816315907E-01 -0.74859285314E-01  0.92899935427E-01  0.88839752371E+00  0.88000000000E+00 0. -1.
        -11    1    4    4    0    0 -0.28423063326E-02  0.16235533735E-01 -0.47132357491E-01  0.49933871316E-01  0.51100000000E-03 0.  1.
         11    1    4    4    0    0 -0.24393602220E-01  0.41376489925E-01 -0.64238505005E-01  0.80211647496E-01  0.51100000000E-03 0. -1.
</event>
<event>
 8    1  0.1114333E+005  0.1043930E+01  0.7957747E-01            NaN
         13   -1    0    0    0    0  0.00000000000E+00  0.00000000000E+00  0.74505805969E-08  0.10566000000E+00  0.10566000000E+00 0.  1.
     999900   -1    0    0    0    0 -0.00000000000E+00 -0.00000000000E+00 -0.74505805969E-08  0.93827000000E+00  0.93827000000E+00 0. -1.
     999902    2    1    2    0    0  0.15584194874E-02  0.19975737897E-01 -0.85064520747E-02  0.10221626276E+01  0.10219308287E+01 0.  0.
     999903    2    3    3    0    0  0.12390798642E-01 -0.72752670035E-01 -0.10724865494E+00  0.13173243900E+00  0.20116625260E-01 0.  0.
         14    1    1    2    0    0 -0.15584194874E-02 -0.19975737897E-01  0.85064520747E-02  0.21767372435E-01  0.00000000000E+00 0.  1.
     999901    1    3    3    0    0 -0.10832379155E-01  0.92728407932E-01  0.98742202861E-01  0.89043018856E+00  0.88000000000E+00 0.  1.
        -11    1    4    4    0    0 -0.18420172078E-02 -0.46586509161E-01 -0.62547167831E-01  0.78013493627E-01  0.51100000000E-03 0.  1.
         11    1    4    4    0    0  0.14232815850E-01 -0.26166160874E-01 -0.44701487105E-01  0.53718945376E-01  0.51100000000E-03 0. -1.
</event>
<event>
 8    1  0.1114333E+005  0.1043930E+01  0.7957747E-01            NaN
         13   -1    0    0    0    0  0.00000000000E+00  0.00000000000E+00  0.74505805969E-08  0.10566000000E+00  0.10566000000E+00 0.  1.
     999900   -1    0    0    0    0 -0.00000000000E+00 -0.00000000000E+00 -0.74505805969E-08  0.93827000000E+00  0.93827000000E+00 0.  1.
     999902    2    1    2    0    0 -0.20538536285E-01  0.87636860752E-02  0.61293097408E-02  0.10207739618E+01  0.10205112831E+01 0.  0.
     999903    2    3    3    0    0  0.14233615737E-01  0.11153878532E+00 -0.64810834257E-01  0.13127729088E+00  0.19743009289E-01 0.  0.
         14    1    1    2    0    0  0.20538536285E-01 -0.87636860752E-02 -0.61293097408E-02  0.23156038181E-01  0.00000000000E+00 0. -1.
     999901    1    3    3    0    0 -0.34772152022E-01 -0.10277509925E+00  0.70940143997E-01  0.88949667094E+00  0.88000000000E+00 0.  1.
        -11    1    4    4    0    0 -0.14790651777E-02  0.50331699527E-01 -0.22027942062E-01  0.54963251028E-01  0.51100000000E-03 0.  1.
         11    1    4    4    0    0  0.15712680915E-01  0.61207085795E-01 -0.42782892195E-01  0.76314039852E-01  0.51100000000E-03 0. -1.
</event>
<event>
 8    1  0.1114333E+005  0.1043930E+01  0.7957747E-01            NaN
         13   -1    0    0    0    0  0.00000000000E+00  0.00000000000E+00  0.74505805969E-08  0.10566000000E+00  0.10566000000E+00 0. -1.
     999900   -1    0    0    0    0 -0.00000000000E+00 -0.00000000000E+00 -0.74505805969E-08  0.93827000000E+00  0.93827000000E+00 0.  1.
     999902    2    1    2    0    0  0.43436833780E-03 -0.14022704162E-01 -0.19157149944E-01  0.10201850784E+01  0.10199087081E+01 0.  0.
     999903    2    3    3    0    0  0.11027640140E+00  0.63598270827E-01 -0.16887759504E-01  0.12996294987E+00  0.19988675775E-01 0.  0.
         14    1    1    2    0    0 -0.43436833780E-03  0.14022704162E-01  0.19157149944E-01  0.23744921602E-01  0.00000000000E+00 0. -1.
     999901    1    3    3    0    0 -0.10984203307E+00 -0.77620974989E-01 -0.22693904399E-02  0.89022212853E+00  0.88000000000E+00 0.  1.
        -11    1    4    4    0    0  0.24740775891E-01  0.52147772325E-02 -0.39182947965E-02  0.25591288525E-01  0.51100000000E-03 0.  1.
         11    1    4    4    0    0  0.85535625514E-01  0.58383493594E-01 -0.12969464708E-01  0.10437166135E+00  0.51100000000E-03 0. -1.
</event>
<event>
 8    1  0.1114333E+005  0.1043930E+01  0.7957747E-01            NaN
         13   -1    0    0    0    0  0.00000000000E+00  0.00000000000E+00  0.74505805969E-08  0.10566000000E+00  0.10566000000E+00 0.  1.
     999900   -1    0    0    0    0 -0.00000000000E+00 -0.00000000000E+00 -0.74505805969E-08  0.93827000000E+00  0.93827000000E+00 0. -1.
     999902    2    1    2    0    0 -0.31000713196E-01 -0.18829824381E-02 -0.20897113831E-01  0.10064963359E+01  0.10057999776E+01 0.  0.
     999903    2    3    3    0    0 -0.11840274784E+00 -0.18765312752E-01 -0.90947990890E-02  0.12192670983E+00  0.20299249764E-01 0.  0.
         14    1    1    2    0    0  0.31000713196E-01  0.18829824381E-02  0.20897113831E-01  0.37433664101E-01  0.00000000000E+00 0. -1.
     999901    1    3    3    0    0  0.87402034640E-01  0.16882330314E-01 -0.11802314742E-01  0.88456962607E+00  0.88000000000E+00 0. -1.
        -11    1    4    4    0    0 -0.62137568999E-01  0.90407357460E-04 -0.21257673014E-02  0.62176085935E-01  0.51100000000E-03 0. -1.
         11    1    4    4    0    0 -0.56265178837E-01 -0.18855720110E-01 -0.69690317876E-02  0.59750623892E-01  0.51100000000E-03 0.  1.
</event>
<event>
 8    1  0.1114333E+005  0.1043930E+01  0.7957747E-01            NaN
         13   -1    0    0    0    0  0.00000000000E+00  0.00000000000E+00  0.74505805969E-08  0.10566000000E+00  0.10566000000E+00 0. -1.
     999900   -1    0    0    0    0 -0.00000000000E+00 -0.00000000000E+00 -0.74505805969E-08  0.93827000000E+00  0.93827000000E+00 0.  1.
     999902    2    1    2    0    0 -0.17055977534E-01  0.10813245383E-01 -0.78738547653E-02  0.10222544323E+01  0.10220246055E+01 0.  0.
     999903    2    3    3    0    0 -0.11085765103E+00 -0.70922632961E-01  0.77002243999E-02  0.13336632929E+00  0.20195189438E-01 0.  0.
         14    1    1    2    0    0  0.17055977534E-01 -0.10813245383E-01  0.78738547653E-02  0.21675567679E-01  0.00000000000E+00 0.  1.
     999901    1    3    3    0    0  0.93801673493E-01  0.81735878345E-01 -0.15574079165E-01  0.88888810303E+00  0.88000000000E+00 0. -1.
        -11    1    4    4    0    0 -0.24321909695E-01 -0.88707765047E-02  0.72125046454E-02  0.26879868141E-01  0.51100000000E-03 0. -1.
         11    1    4    4    0    0 -0.86535741331E-01 -0.62051856457E-01  0.48771975443E-03  0.10648646115E+00  0.51100000000E-03 0.  1.
</event>
<event>
 8    1  0.1114333E+005  0.1043930E+01  0.7957747E-01            NaN
         13   -1    0    0    0    0  0.00000000000E+00  0.00000000000E+00  0.74505805969E-08  0.10566000000E+00  0.10566000000E+00 0. -1.
     999900   -1    0    0    0    0 -0.00000000000E+00 -0.00000000000E+00 -0.74505805969E-08  0.93827000000E+00  0.93827000000E+00 0. -1.
     999902    2    1    2    0    0 -0.22447195800E-01  0.33205537892E-02  0.66012233220E-03  0.10212289331E+01  0.10209765890E+01 0.  0.
     999903    2    3    3    0    0  0.49053254999E-01  0.63062247314E-01  0.10183158576E+00  0.13054545991E+00  0.17011066436E-01 0.  0.
         14    1    1    2    0    0  0.22447195800E-01 -0.33205537892E-02 -0.66012233220E-03  0.22701066897E-01  0.00000000000E+00 0. -1.
     999901    1    3    3    0    0 -0.71500450799E-01 -0.59741693524E-01 -0.10117146343E+00  0.89068347319E+00  0.88000000000E+00 0. -1.
        -11    1    4    4    0    0  0.16749026053E-01  0.15689176816E-01  0.18976434451E-01  0.29783322991E-01  0.51100000000E-03 0. -1.
         11    1    4    4    0    0  0.32304228946E-01  0.47373070498E-01  0.82855151313E-01  0.10076213692E+00  0.51100000000E-03 0.  1.
</event>
<event>
 8    1  0.1114333E+005  0.1043930E+01  0.7957747E-01            NaN
         13   -1    0    0    0    0  0.00000000000E+00  0.00000000000E+00  0.74505805969E-08  0.10566000000E+00  0.10566000000E+00 0.  1.
     999900   -1    0    0    0    0 -0.00000000000E+00 -0.00000000000E+00 -0.74505805969E-08  0.93827000000E+00  0.93827000000E+00 0. -1.
     999902    2    1    2    0    0  0.22716290990E-01 -0.40166064076E-02  0.45110570914E-02  0.10204244126E+01  0.10201536498E+01 0.  0.
     999903    2    3    3    0    0 -0.64985025945E-02 -0.28529752102E-02  0.12942116482E+00  0.13112278029E+00  0.19823612297E-01 0.  0.
         14    1    1    2    0    0 -0.22716290990E-01  0.40166064076E-02 -0.45110570914E-02  0.23505587409E-01  0.00000000000E+00 0.  1.
     999901    1    3    3    0    0  0.29214793585E-01 -0.11636311973E-02 -0.12491010773E+00  0.88930163230E+00  0.88000000000E+00 0. -1.
        -11    1    4    4    0    0  0.57272200881E-02 -0.25291050269E-02  0.78504539545E-01  0.78755452334E-01  0.51100000000E-03 0.  1.
         11    1    4    4    0    0 -0.12225722683E-01 -0.32387018332E-03  0.50916625272E-01  0.52367327955E-01  0.51100000000E-03 0. -1.
</event>
<event>
 8    1  0.1114333E+005  0.1043930E+01  0.7957747E-01            NaN
         13   -1    0    0    0    0  0.00000000000E+00  0.00000000000E+00  0.74505805969E-08  0.10566000000E+00  0.10566000000E+00 0. -1.
     999900   -1    0    0    0    0 -0.00000000000E+00 -0.00000000000E+00 -0.74505805969E-08  0.93827000000E+00  0.93827000000E+00 0. -1.
     999902    2    1    2    0    0 -0.70569030777E-02 -0.46565929370E-02  0.21533306188E-01  0.10207963229E+01  0.10205341572E+01 0.  0.
     999903    2    3    3    0    0  0.52820011710E-01  0.12373709725E-01 -0.11426435286E+00  0.12820667460E+00  0.20917618121E-01 0.  0.
         14    1    1    2    0    0  0.70569030777E-02  0.46565929370E-02 -0.21533306188E-01  0.23133677058E-01  0.00000000000E+00 0.  1.
     999901    1    3    3    0    0 -0.59876914787E-01 -0.17030302662E-01  0.13579765904E+00  0.89258964835E+00  0.88000000000E+00 0.  1.
        -11    1    4    4    0    0  0.20223220119E-01 -0.54226547974E-02 -0.43962275303E-01  0.48696268726E-01  0.51100000000E-03 0.  1.
         11    1    4    4    0    0  0.32596791591E-01  0.17796364523E-01 -0.70302077553E-01  0.79510405870E-01  0.51100000000E-03 0. -1.
</event>
<event>
 8    1  0.1114333E+005  0.1043930E+01  0.7957747E-01            NaN
         13   -1    0    0    0    0  0.00000000000E+00  0.00000000000E+00  0.74505805969E-08  0.10566000000E+00  0.10566000000E+00 0.  1.
     999900   -1    0    0    0    0 -0.00000000000E+00 -0.00000000000E+00 -0.74505805969E-08  0.93827000000E+00  0.93827000000E+00 0.  1.
     999902    2    1    2    0    0  0.51748210474E-02  0.23854705692E-01  0.10336873304E-01  0.10174219502E+01  0.10170765694E+01 0.  0.
     999903    2    3    3    0    0 -0.82205552569E-01 -0.71875804524E-01  0.60583712154E-01  0.12650983042E+00  0.20259981899E-01 0.  0.
         14    1    1    2    0    0 -0.51748210474E-02 -0.23854705692E-01 -0.10336873304E-01  0.26508049838E-01  0.00000000000E+00 0.  1.
     999901    1    3    3    0    0  0.87380373616E-01  0.95730510216E-01 -0.50246838850E-01  0.89091211974E+00  0.88000000000E+00 0. -1.
        -11    1    4    4    0    0 -0.55547159142E-01 -0.50866578530E-01  0.30886343020E-01  0.81407143460E-01  0.51100000000E-03 0. -1.
         11    1    4    4    0    0 -0.26658393427E-01 -0.21009225994E-01  0.29697369135E-01  0.45102686965E-01  0.51100000000E-03 0.  1.
</event>
<event>
 8    1  0.1114333E+005  0.1043930E+01  0.7957747E-01            NaN
         13   -1    0    0    0    0  0.00000000000E+00  0.00000000000E+00  0.74505805969E-08  0.10566000000E+00  0.10566000000E+00 0.  1.
     999900   -1    0    0    0    0 -0.00000000000E+00 -0.00000000000E+00 -0.74505805969E-08  0.93827000000E+00  0.93827000000E+00 0. -1.
     999902    2    1    2    0    0 -0.33636676713E-02 -0.18251721676E-01 -0.12826538104E-01  0.10213698652E+01  0.10211206793E+01 0.  0.
     999903    2    3    3    0    0 -0.13837457647E-01  0.12689187946E+00 -0.75946408296E-02  0.12940364496E+00  0.19864552689E-01 0.  0.
         14    1    1    2    0    0  0.33636676713E-02  0.18251721676E-01  0.12826538104E-01  0.22560134842E-01  0.00000000000E+00 0.  1.
     999901    1    3    3    0    0  0.10473789975E-01 -0.14514360113E+00 -0.52318972742E-02  0.89196622020E+00  0.88000000000E+00 0.  1.
        -11    1    4    4    0    0 -0.17334313898E-01  0.69617108390E-01 -0.23891009059E-02  0.71784323798E-01  0.51100000000E-03 0.  1.
         11    1    4    4    0    0  0.34968562516E-02  0.57274771066E-01 -0.52055399237E-02  0.57619321162E-01  0.51100000000E-03 0. -1.
</event>
<event>
 8    1  0.1114333E+005  0.1043930E+01  0.7957747E-01            NaN
         13   -1    0    0    0    0  0.00000000000E+00  0.00000000000E+00  0.74505805969E-08  0.10566000000E+00  0.10566000000E+00 0.  1.
     999900   -1    0    0    0    0 -0.00000000000E+00 -0.00000000000E+00 -0.74505805969E-08  0.93827000000E+00  0.93827000000E+00 0.  1.
     999902    2    1    2    0    0 -0.11627391221E-01  0.23111238164E-01 -0.11757568348E-01  0.10155122948E+01  0.10151146019E+01 0.  0.
     999903    2    3    3    0    0  0.11000716663E+00 -0.36158088964E-02  0.54191652911E-01  0.12430042296E+00  0.19980218165E-01 0.  0.
         14    1    1    2    0    0  0.11627391221E-01 -0.23111238164E-01  0.11757568348E-01  0.28417705212E-01  0.00000000000E+00 0.  1.
     999901    1    3    3    0    0 -0.12163455785E+00  0.26727047060E-01 -0.65949221258E-01  0.89121187183E+00  0.88000000000E+00 0.  1.
        -11    1    4    4    0    0  0.45739622816E-01 -0.33426937082E-02  0.33448532480E-01  0.56765765586E-01  0.51100000000E-03 0.  1.
         11    1    4    4    0    0  0.64267543815E-01 -0.27311518813E-03  0.20743120431E-01  0.67534657370E-01  0.51100000000E-03 0. -1.
</event>
<event>
 8    1  0.1114333E+005  0.1043930E+01  0.7957747E-01            NaN
         13   -1    0    0    0    0  0.00000000000E+00  0.00000000000E+00  0.74505805969E-08  0.10566000000E+00  0.10566000000E+00 0.  1.
     999900   -1    0    0    0    0 -0.00000000000E+00 -0.00000000000E+00 -0.74505805969E-08  0.93827000000E+00  0.93827000000E+00 0.  1.
     999902    2    1    2    0    0  0.11048336338E-01  0.98761881724E-02  0.23147874889E-01  0.10164449324E+01  0.10160732610E+01 0.  0.
     999903    2    3    3    0    0  0.11362770702E+00  0.54647994176E-01 -0.12248121239E-01  0.12864995695E+00  0.22430690558E-01 0.  0.
         14    1    1    2    0    0 -0.11048336338E-01 -0.98761881724E-02 -0.23147874889E-01  0.27485067592E-01  0.00000000000E+00 0. -1.
     999901    1    3    3    0    0 -0.10257937069E+00 -0.44771806003E-01  0.35395996128E-01  0.88779497546E+00  0.88000000000E+00 0. -1.
        -11    1    4    4    0    0  0.69049326023E-02 -0.12162814765E-02 -0.35502254831E-02  0.78754464542E-02  0.51100000000E-03 0.  1.
         11    1    4    4    0    0  0.10672277442E+00  0.55864275652E-01 -0.86978957561E-02  0.12077451050E+00  0.51100000000E-03 0. -1.
</event>
<event>
 8    1  0.1114333E+005  0.1043930E+01  0.7957747E-01            NaN
         13   -1    0    0    0    0  0.00000000000E+00  0.00000000000E+00  0.74505805969E-08  0.10566000000E+00  0.10566000000E+00 0.  1.
     999900   -1    0    0    0    0 -0.00000000000E+00 -0.00000000000E+00 -0.74505805969E-08  0.93827000000E+00  0.93827000000E+00 0.  1.
     999902    2    1    2    0    0 -0.18669177858E-01  0.14068542311E-01 -0.64889041775E-02  0.10196695803E+01  0.10193809323E+01 0.  0.
     999903    2    3    3    0    0  0.10778783120E+00  0.66205540476E-02  0.65039055763E-01  0.12772614227E+00  0.20538752472E-01 0.  0.
         14    1    1    2    0    0  0.18669177858E-01 -0.14068542311E-01  0.64889041775E-02  0.24260419660E-01  0.00000000000E+00 0.  1.
     999901    1    3    3    0    0 -0.12645700906E+00  0.74479882635E-02 -0.71527959941E-01  0.89194343807E+00  0.88000000000E+00 0.  1.
        -11    1    4    4    0    0  0.84615139975E-01  0.10414955563E-01  0.42860704596E-01  0.95422713919E-01  0.51100000000E-03 0. -1.
         11    1    4    4    0    0  0.23172691225E-01 -0.37944015149E-02  0.22178351168E-01  0.32303428347E-01  0.51100000000E-03 0.  1.
</event>
<event>
 8    1  0.1114333E+005  0.1043930E+01  0.7957747E-01            NaN
         13   -1    0    0    0    0  0.00000000000E+00  0.00000000000E+00  0.74505805969E-08  0.10566000000E+00  0.10566000000E+00 0. -1.
     999900   -1    0    0    0    0 -0.00000000000E+00 -0.00000000000E+00 -0.74505805969E-08  0.93827000000E+00  0.93827000000E+00 0.  1.
     999902    2    1    2    0    0  0.63821752855E-02 -0.20480948614E-01  0.62251342470E-02  0.10215927281E+01  0.10213484951E+01 0.  0.
     999903    2    3    3    0    0 -0.61450616070E-01  0.10816931767E+00  0.29432565056E-01  0.12935354304E+00  0.19730273931E-01 0.  0.
         14    1    1    2    0    0 -0.63821752855E-02  0.20480948614E-01 -0.62251342470E-02  0.22337271854E-01  0.00000000000E+00 0.  1.
     999901    1    3    3    0    0  0.67832791355E-01 -0.12865026629E+00 -0.23207430809E-01  0.89223918511E+00  0.88000000000E+00 0. -1.
        -11    1    4    4    0    0 -0.17877000758E-01  0.34168923739E-01 -0.17963626083E-04  0.38566357740E-01  0.51100000000E-03 0. -1.
         11    1    4    4    0    0 -0.43573615311E-01  0.74000393933E-01  0.29450528682E-01  0.90787185298E-01  0.51100000000E-03 0.  1.
</event>
<event>
 8    1  0.1114333E+005  0.1043930E+01  0.7957747E-01            NaN
         13   -1    0    0    0    0  0.00000000000E+00  0.00000000000E+00  0.74505805969E-08  0.10566000000E+00  0.10566000000E+00 0.  1.
     999900   -1    0    0    0    0 -0.00000000000E+00 -0.00000000000E+00 -0.74505805969E-08  0.93827000000E+00  0.93827000000E+00 0. -1.
     999902    2    1    2    0    0 -0.17012771191E-02  0.12167687466E-01  0.20155638487E-01  0.10203249852E+01  0.10200519000E+01 0.  0.
     999903    2    3    3    0    0 -0.10943306320E+00 -0.65607637020E-01  0.17484851110E-01  0.13034618097E+00  0.20110930299E-01 0.  0.
         14    1    1    2    0    0  0.17012771191E-02 -0.12167687466E-01 -0.20155638487E-01  0.23605014826E-01  0.00000000000E+00 0. -1.
     999901    1    3    3    0    0  0.10773178608E+00  0.77775324486E-01  0.26707873768E-02  0.88997880421E+00  0.88000000000E+00 0. -1.
        -11    1    4    4    0    0 -0.29415617652E-01 -0.27796444666E-01  0.87846825287E-02  0.41416816223E-01  0.51100000000E-03 0. -1.
         11    1    4    4    0    0 -0.80017445550E-01 -0.37811192354E-01  0.87001685816E-02  0.88929364745E-01  0.51100000000E-03 0.  1.
</event>
<event>
 8    1  0.1114333E+005  0.1043930E+01  0.7957747E-01            NaN
         13   -1    0    0    0    0  0.00000000000E+00  0.00000000000E+00  0.74505805969E-08  0.10566000000E+00  0.10566000000E+00 0. -1.
     999900   -1    0    0    0    0 -0.00000000000E+00 -0.00000000000E+00 -0.74505805969E-08  0.93827000000E+00  0.93827000000E+00 0.  1.
     999902    2    1    2    0    0 -0.10821367725E-01  0.21930738632E-01 -0.67502603625E-02  0.10185602284E+01  0.10182442308E+01 0.  0.
     999903    2    3    3    0    0 -0.94120891455E-01  0.83158462842E-01 -0.35413908735E-01  0.13204500032E+00  0.20190716374E-01 0.  0.
         14    1    1    2    0    0  0.10821367725E-01 -0.21930738632E-01  0.67502603625E-02  0.25369771606E-01  0.00000000000E+00 0. -1.
     999901    1    3    3    0    0  0.83299523730E-01 -0.61227724210E-01  0.28663648373E-01  0.88651522807E+00  0.88000000000E+00 0.  1.
        -11    1    4    4    0    0 -0.16271996609E-01  0.54914681196E-02 -0.34264418174E-02  0.17519581053E-01  0.51100000000E-03 0. -1.
         11    1    4    4    0    0 -0.77848894846E-01  0.77666994722E-01 -0.31987466918E-01  0.11452541927E+00  0.51100000000E-03 0.  1.
</event>
<event>
 8    1  0.1114333E+005  0.1043930E+01  0.7957747E-01            NaN
         13   -1    0    0    0    0  0.00000000000E+00  0.00000000000E+00  0.74505805969E-08  0.10566000000E+00  0.10566000000E+00 0.  1.
     999900   -1    0    0    0    0 -0.00000000000E+00 -0.00000000000E+00 -0.74505805969E-08  0.93827000000E+00  0.93827000000E+00 0. -1.
     999902    2    1    2    0    0 -0.21735220477E-01 -0.68205193374E-02  0.61863342955E-02  0.10203247034E+01  0.10200516117E+01 0.  0.
     999903    2    3    3    0    0 -0.12642720353E+00  0.36633066039E-02 -0.35861056546E-01  0.13306019667E+00  0.20536381195E-01 0.  0.
         14    1    1    2    0    0  0.21735220477E-01  0.68205193374E-02 -0.61863342955E-02  0.23605296550E-01  0.00000000000E+00 0. -1.
     999901    1    3    3    0    0  0.10469198305E+00 -0.10483825941E-01  0.42047390842E-01  0.88726450678E+00  0.88000000000E+00 0.  1.
        -11    1    4    4    0    0 -0.78107674742E-01 -0.56166727642E-02 -0.15615785045E-01  0.79852800390E-01  0.51100000000E-03 0. -1.
         11    1    4    4    0    0 -0.48319528788E-01  0.92799793681E-02 -0.20245271501E-01  0.53207396276E-01  0.51100000000E-03 0.  1.
</event>
<event>
 8    1  0.1114333E+005  0.1043930E+01  0.7957747E-01            NaN
         13   -1    0    0    0    0  0.00000000000E+00  0.00000000000E+00  0.74505805969E-08  0.10566000000E+00  0.10566000000E+00 0.  1.
     999900   -1    0    0    0    0 -0.00000000000E+00 -0.00000000000E+00 -0.74505805969E-08  0.93827000000E+00  0.93827000000E+00 0.  1.
     999902    2    1    2    0    0 -0.29596869961E-02  0.23307024311E-01  0.23728464516E-02  0.10203162851E+01  0.10200429962E+01 0.  0.
     999903    2    3    3    0    0  0.22865843242E-01  0.36139148498E-01 -0.12255489875E+00  0.13102524001E+00  0.17861284160E-01 0.  0.
         14    1    1    2    0    0  0.29596869961E-02 -0.23307024311E-01 -0.23728464516E-02  0.23613714863E-01  0.00000000000E+00 0.  1.
     999901    1    3    3    0    0 -0.25825530238E-01 -0.12832124188E-01  0.12492774520E+00  0.88929104513E+00  0.88000000000E+00 0. -1.
        -11    1    4    4    0    0  0.15852242188E-01  0.26167059118E-01 -0.60676395537E-01  0.67955092977E-01  0.51100000000E-03 0.  1.
         11    1    4    4    0    0  0.70136010547E-02  0.99720893804E-02 -0.61878503209E-01  0.63070147033E-01  0.51100000000E-03 0. -1.
</event>
<event>
 8    1  0.1114333E+005  0.1043930E+01  0.7957747E-01            NaN
         13   -1    0    0    0    0  0.00000000000E+00  0.00000000000E+00  0.74505805969E-08  0.10566000000E+00  0.10566000000E+00 0.  1.
     999900   -1    0    0    0    0 -0.00000000000E+00 -0.00000000000E+00 -0.74505805969E-08  0.93827000000E+00  0.93827000000E+00 0.  1.
     999902    2    1    2    0    0  0.20738368794E-01 -0.44779644397E-02  0.10959103071E-01  0.10200504262E+01  0.10197708752E+01 0.  0.
     999903    2    3    3    0    0  0.10502359735E+00 -0.69921207632E-01 -0.35128037327E-01  0.13240700546E+00  0.19460339446E-01 0.  0.
         14    1    1    2    0    0 -0.20738368794E-01  0.44779644397E-02 -0.10959103071E-01  0.23879573821E-01  0.00000000000E+00 0. -1.
     999901    1    3    3    0    0 -0.84285228558E-01  0.65443243192E-01  0.46087140398E-01  0.88764342072E+00  0.88000000000E+00 0. -1.
        -11    1    4    4    0    0  0.41986438758E-01 -0.34825826905E-01 -0.71356977698E-02  0.55017075193E-01  0.51100000000E-03 0.  1.
         11    1    4    4    0    0  0.63037158594E-01 -0.35095380727E-01 -0.27992339558E-01  0.77389930268E-01  0.51100000000E-03 0. -1.
</event>
<event>
 7    1  0.1581670E+005  0.1043930E+01  0.7957747E-01            NaN
         13   -1    0    0    0    0  0.00000000000E+00  0.00000000000E+00  0.74505805969E-08  0.10566000000E+00  0.10566000000E+00 0.  1.
     999900   -1    0    0    0    0 -0.00000000000E+00 -0.00000000000E+00 -0.74505805969E-08  0.93827000000E+00  0.93827000000E+00 0.  1.
     999903    2    1    2    0    0 -0.46763422576E-01 -0.29136202758E-03  0.90445080819E-01  0.10371086750E+00  0.19716206816E-01 0.  0.
         14    1    1    2    0    0  0.30477735778E-01  0.24684540841E-02  0.40109579739E-01  0.50435741598E-01  0.00000000000E+00 0.  1.
     999901    1    1    2    0    0  0.16285686799E-01 -0.21770920565E-02 -0.13055466056E+00  0.88978339090E+00  0.88000000000E+00 0.  1.
        -11    1    3    3    0    0 -0.19302763467E-01  0.94024152508E-02  0.34518040811E-01  0.40654130816E-01  0.51100000000E-03 0.  1.
         11    1    3    3    0    0 -0.27460659109E-01 -0.96937772784E-02  0.55927040008E-01  0.63056736687E-01  0.51100000000E-03 0. -1.
</event>
<event>
 8    1  0.1114333E+005  0.1043930E+01  0.7957747E-01            NaN
         13   -1    0    0    0    0  0.00000000000E+00  0.00000000000E+00  0.74505805969E-08  0.10566000000E+00  0.10566000000E+00 0. -1.
     999900   -1    0    0    0    0 -0.00000000000E+00 -0.00000000000E+00 -0.74505805969E-08  0.93827000000E+00  0.93827000000E+00 0.  1.
     999902    2    1    2    0    0  0.11111654514E-01 -0.20568467662E-01  0.36501560979E-02  0.10202687581E+01  0.10199943551E+01 0.  0.
     999903    2    3    3    0    0 -0.71964997580E-01  0.68906486155E-01  0.79193421176E-01  0.12863302398E+00  0.18649187393E-01 0.  0.
         14    1    1    2    0    0 -0.11111654514E-01  0.20568467662E-01 -0.36501560979E-02  0.23661241885E-01  0.00000000000E+00 0. -1.
     999901    1    3    3    0    0  0.83076652094E-01 -0.89474953817E-01 -0.75543265078E-01  0.89163573413E+00  0.88000000000E+00 0.  1.
        -11    1    4    4    0    0 -0.58291913265E-01  0.64352048246E-01  0.65710980534E-01  0.10889135571E+00  0.51100000000E-03 0. -1.
         11    1    4    4    0    0 -0.13673084315E-01  0.45544379091E-02  0.13482440642E-01  0.19741668268E-01  0.51100000000E-03 0.  1.
</event>
<event>
 8    1  0.1114333E+005  0.1043930E+01  0.7957747E-01            NaN
         13   -1    0    0    0    0  0.00000000000E+00  0.00000000000E+00  0.74505805969E-08  0.10566000000E+00  0.10566000000E+00 0.  1.
     999900   -1    0    0    0    0 -0.00000000000E+00 -0.00000000000E+00 -0.74505805969E-08  0.93827000000E+00  0.93827000000E+00 0.  1.
     999902    2    1    2    0    0 -0.93458944006E-02 -0.34904998356E-02  0.21323235997E-01  0.10203883407E+01  0.10201167365E+01 0.  0.
     999903    2    3    3    0    0 -0.81350033571E-01  0.36750462792E-01  0.96666257416E-01  0.13332548944E+00  0.21515025780E-01 0.  0.
         14    1    1    2    0    0  0.93458944006E-02  0.34904998356E-02 -0.21323235997E-01  0.23541659344E-01  0.00000000000E+00 0. -1.
     999901    1    3    3    0    0  0.72004139170E-01 -0.40240962627E-01 -0.75343021419E-01  0.88706285122E+00  0.88000000000E+00 0.  1.
        -11    1    4    4    0    0 -0.56669447268E-01  0.20391934527E-01  0.77079455712E-01  0.97820043249E-01  0.51100000000E-03 0. -1.
         11    1    4    4    0    0 -0.24680586302E-01  0.16358528265E-01  0.19586801704E-01  0.35505446191E-01  0.51100000000E-03 0.  1.
</event>
<event>
 8    1  0.1114333E+005  0.1043930E+01  0.7957747E-01            NaN
         13   -1    0    0    0    0  0.00000000000E+00  0.00000000000E+00  0.74505805969E-08  0.10566000000E+00  0.10566000000E+00 0.  1.
     999900   -1    0    0    0    0 -0.00000000000E+00 -0.00000000000E+00 -0.74505805969E-08  0.93827000000E+00  0.93827000000E+00 0. -1.
     999902    2    1    2    0    0  0.10370919751E-01  0.11199413938E-01 -0.18720408168E-01  0.10197755691E+01  0.10194894677E+01 0.  0.
     999903    2    3    3    0    0  0.36227832139E-01 -0.12176933778E+00  0.90137274523E-02  0.12897904290E+00  0.20349908605E-01 0.  0.
         14    1    1    2    0    0 -0.10370919751E-01 -0.11199413938E-01  0.18720408168E-01  0.24154430878E-01  0.00000000000E+00 0.  1.
     999901    1    3    3    0    0 -0.25856912387E-01  0.13296875172E+00 -0.27734135620E-01  0.89079652622E+00  0.88000000000E+00 0. -1.
        -11    1    4    4    0    0  0.27453395949E-01 -0.65607294333E-01 -0.16558124489E-02  0.71140767881E-01  0.51100000000E-03 0.  1.
         11    1    4    4    0    0  0.87744361896E-02 -0.56162043446E-01  0.10669539901E-01  0.57838275019E-01  0.51100000000E-03 0. -1.
</event>
<event>
 8    1  0.1114333E+005  0.1043930E+01  0.7957747E-01            NaN
         13   -1    0    0    0    0  0.00000000000E+00  0.00000000000E+00  0.74505805969E-08  0.10566000000E+00  0.10566000000E+00 0.  1.
     999900   -1    0    0    0    0 -0.00000000000E+00 -0.00000000000E+00 -0.74505805969E-08  0.93827000000E+00  0.93827000000E+00 0. -1.
     999902    2    1    2    0    0  0.31767757830E-01  0.14833674286E-01  0.14517917276E-01  0.10059826911E+01  0.10052667191E+01 0.  0.
     999903    2    3    3    0    0  0.67475101305E-01  0.33142768436E-01 -0.89929534253E-01  0.11889785444E+00  0.19951096818E-01 0.  0.
         14    1    1    2    0    0 -0.31767757830E-01 -0.14833674286E-01 -0.14517917276E-01  0.37947308895E-01  0.00000000000E+00 0.  1.
     999901    1    3    3    0    0 -0.35707343475E-01 -0.18309094150E-01  0.10444745153E+00  0.88708483666E+00  0.88000000000E+00 0.  1.
        -11    1    4    4    0    0  0.20696799980E-01  0.20383281611E-01 -0.38228138451E-01  0.48015491137E-01  0.51100000000E-03 0.  1.
         11    1    4    4    0    0  0.46778301325E-01  0.12759486825E-01 -0.51701395801E-01  0.70882363305E-01  0.51100000000E-03 0. -1.
</event>
<event>
 8    1  0.1114333E+005  0.1043930E+01  0.7957747E-01            NaN
         13   -1    0    0    0    0  0.00000000000E+00  0.00000000000E+00  0.74505805969E-08  0.10566000000E+00  0.10566000000E+00 0. -1.
     999900   -1    0    0    0    0 -0.00000000000E+00 -0.00000000000E+00 -0.74505805969E-08  0.93827000000E+00  0.93827000000E+00 0.  1.
     999902    2    1    2    0    0 -0.14946291930E-01 -0.12745503600E-01  0.12006515807E-01  0.10209083596E+01  0.10206487558E+01 0.  0.
     999903    2    3    3    0    0  0.46798747771E-01  0.32469393583E-01  0.11669831541E+00  0.13140444744E+00  0.20105911439E-01 0.  0.
         14    1    1    2    0    0  0.14946291930E-01  0.12745503600E-01 -0.12006515807E-01  0.23021640392E-01  0.00000000000E+00 0.  1.
     999901    1    3    3    0    0 -0.61745039701E-01 -0.45214897184E-01 -0.10469179961E+00  0.88950391217E+00  0.88000000000E+00 0.  1.
        -11    1    4    4    0    0  0.17892143258E-01  0.46427009673E-02  0.52870579299E-01  0.56011094786E-01  0.51100000000E-03 0. -1.
         11    1    4    4    0    0  0.28906604513E-01  0.27826692616E-01  0.63827736113E-01  0.75393352656E-01  0.51100000000E-03 0.  1.
</event>
<event>
 8    1  0.1114333E+005  0.1043930E+01  0.7957747E-01            NaN
         13   -1    0    0    0    0  0.00000000000E+00  0.00000000000E+00  0.74505805969E-08  0.10566000000E+00  0.10566000000E+00 0.  1.
     999900   -1    0    0    0    0 -0.00000000000E+00 -0.00000000000E+00 -0.74505805969E-08  0.93827000000E+00  0.93827000000E+00 0.  1.
     999902    2    1    2    0    0 -0.11778546810E-01  0.18339785946E-01 -0.98463557441E-02  0.10200127963E+01  0.10197323531E+01 0.  0.
     999903    2    3    3    0    0 -0.11947577308E+00 -0.11138825969E-01  0.48688234477E-01  0.13102799360E+00  0.19981419674E-01 0.  0.
         14    1    1    2    0    0  0.11778546810E-01 -0.18339785946E-01  0.98463557441E-02  0.23917203744E-01  0.00000000000E+00 0. -1.
     999901    1    3    3    0    0  0.10769722627E+00  0.29478611915E-01 -0.58534590221E-01  0.88898480266E+00  0.88000000000E+00 0.  1.
        -11    1    4    4    0    0 -0.86924644460E-01 -0.32779665709E-03  0.39720644504E-01  0.95571920489E-01  0.51100000000E-03 0. -1.
         11    1    4    4    0    0 -0.32551128621E-01 -0.10811029312E-01  0.89675899733E-02  0.35456073108E-01  0.51100000000E-03 0.  1.
</event>
<event>
 8    1  0.1114333E+005  0.1043930E+01  0.7957747E-01            NaN
         13   -1    0    0    0    0  0.00000000000E+00  0.00000000000E+00  0.74505805969E-08  0.10566000000E+00  0.10566000000E+00 0. -1.
     999900   -1    0    0    0    0 -0.00000000000E+00 -0.00000000000E+00 -0.74505805969E-08  0.93827000000E+00  0.93827000000E+00 0. -1.
     999902    2    1    2    0    0 -0.67968538882E-02 -0.70421732643E-02  0.21256173147E-01  0.10205288393E+01  0.10202605047E+01 0.  0.
     999903    2    3    3    0    0 -0.11975890540E+00  0.48196653504E-01 -0.10580037666E-01  0.13102038096E+00  0.19730438417E-01 0.  0.
         14    1    1    2    0    0  0.67968538882E-02  0.70421732643E-02 -0.21256173147E-01  0.23401160739E-01  0.00000000000E+00 0.  1.
     999901    1    3    3    0    0  0.11296205151E+00 -0.55238826768E-01  0.31836210813E-01  0.88950845830E+00  0.88000000000E+00 0. -1.
        -11    1    4    4    0    0 -0.35276739915E-02  0.43739732039E-02  0.23864255267E-02  0.61263588837E-02  0.51100000000E-03 0.  1.
         11    1    4    4    0    0 -0.11623123141E+00  0.43822680300E-01 -0.12966463193E-01  0.12489402208E+00  0.51100000000E-03 0. -1.
</event>
<event>
 8    1  0.1114333E+005  0.1043930E+01  0.7957747E-01            NaN
         13   -1    0    0    0    0  0.00000000000E+00  0.00000000000E+00  0.74505805969E-08  0.10566000000E+00  0.10566000000E+00 0.  1.
     999900   -1    0    0    0    0 -0.00000000000E+00 -0.00000000000E+00 -0.74505805969E-08  0.93827000000E+00  0.93827000000E+00 0.  1.
     999902    2    1    2    0    0  0.41790428325E-02 -0.11865667671E-01  0.21492283895E-01  0.10190266521E+01  0.10187223081E+01 0.  0.
     999903    2    3    3    0    0  0.61656159521E-01  0.79130183255E-01 -0.75479120288E-01  0.12718175695E+00  0.20372378161E-01 0.  0.
         14    1    1    2    0    0 -0.41790428325E-02  0.11865667671E-01 -0.21492283895E-01  0.24903347873E-01  0.00000000000E+00 0. -1.
     999901    1    3    3    0    0 -0.57477116688E-01 -0.90995850926E-01  0.96971404183E-01  0.89184489518E+00  0.88000000000E+00 0.  1.
        -11    1    4    4    0    0  0.18087266535E-01  0.18593077352E-01 -0.95910529881E-02  0.27660461937E-01  0.51100000000E-03 0. -1.
         11    1    4    4    0    0  0.43568892986E-01  0.60537105903E-01 -0.65888067300E-01  0.99521295011E-01  0.51100000000E-03 0.  1.
</event>
<event>
 8    1  0.1114333E+005  0.1043930E+01  0.7957747E-01            NaN
         13   -1    0    0    0    0  0.00000000000E+00  0.00000000000E+00  0.74505805969E-08  0.10566000000E+00  0.10566000000E+00 0.  1.
     999900   -1    0    0    0    0 -0.00000000000E+00 -0.00000000000E+00 -0.74505805969E-08  0.93827000000E+00  0.93827000000E+00 0. -1.
     999902    2    1    2    0    0  0.11574196407E-01 -0.64289028790E-02  0.19166462162E-01  0.10206352348E+01  0.10203693627E+01 0.  0.
     999903    2    3    3    0    0  0.72163157181E-01  0.41562779327E-01  0.10208548969E+00  0.13336425653E+00  0.20726597253E-01 0.  0.
         14    1    1    2    0    0 -0.11574196407E-01  0.64289028790E-02 -0.19166462162E-01  0.23294765217E-01  0.00000000000E+00 0. -1.
     999901    1    3    3    0    0 -0.60588960774E-01 -0.47991682207E-01 -0.82919027530E-01  0.88727097826E+00  0.88000000000E+00 0. -1.
        -11    1    4    4    0    0  0.46947867832E-01  0.16167696774E-01  0.53150832145E-01  0.72737671063E-01  0.51100000000E-03 0. -1.
         11    1    4    4    0    0  0.25215289349E-01  0.25395082553E-01  0.48934657547E-01  0.60626585465E-01  0.51100000000E-03 0.  1.
</event>
<event>
 8    1  0.1114333E+005  0.1043930E+01  0.7957747E-01            NaN
         13   -1    0    0    0    0  0.00000000000E+00  0.00000000000E+00  0.74505805969E-08  0.10566000000E+00  0.10566000000E+00 0.  1.
     999900   -1    0    0    0    0 -0.00000000000E+00 -0.00000000000E+00 -0.74505805969E-08  0.93827000000E+00  0.93827000000E+00 0.  1.
     999902    2    1    2    0    0  0.53657187973E-02  0.25538468803E-01 -0.25545728631E-02  0.10177092035E+01  0.10173713642E+01 0.  0.
     999903    2    3    3    0    0  0.31639060118E-01 -0.67508288500E-01 -0.10069117907E+00  0.12699107693E+00  0.20727299299E-01 0.  0.
         14    1    1    2    0    0 -0.53657187973E-02 -0.25538468803E-01  0.25545728631E-02  0.26220796508E-01  0.00000000000E+00 0.  1.
     999901    1    3    3    0    0 -0.26273341321E-01  0.93046757303E-01  0.98136606205E-01  0.89071812656E+00  0.88000000000E+00 0. -1.
        -11    1    4    4    0    0  0.26251804507E-01 -0.59030093645E-01 -0.96420079361E-01  0.11606378428E+00  0.51100000000E-03 0. -1.
         11    1    4    4    0    0  0.53872556111E-02 -0.84781948554E-02 -0.42710997078E-02  0.10927292654E-01  0.51100000000E-03 0.  1.
</event>
<event>
 8    1  0.1114333E+005  0.1043930E+01  0.7957747E-01            NaN
         13   -1    0    0    0    0  0.00000000000E+00  0.00000000000E+00  0.74505805969E-08  0.10566000000E+00  0.10566000000E+00 0.  1.
     999900   -1    0    0    0    0 -0.00000000000E+00 -0.00000000000E+00 -0.74505805969E-08  0.93827000000E+00  0.93827000000E+00 0.  1.
     999902    2    1    2    0    0  0.62423167593E-02  0.68174947792E-03 -0.22354852337E-01  0.10207099500E+01  0.10204458002E+01 0.  0.
     999903    2    3    3    0    0  0.73540293674E-01  0.87262521940E-01 -0.64858900639E-01  0.13288573201E+00  0.20712755743E-01 0.  0.
         14    1    1    2    0    0 -0.62423167593E-02 -0.68174947792E-03  0.22354852337E-01  0.23220050041E-01  0.00000000000E+00 0.  1.
     999901    1    3    3    0    0 -0.67297976914E-01 -0.86580772462E-01  0.42504048302E-01  0.88782421795E+00  0.88000000000E+00 0.  1.
        -11    1    4    4    0    0  0.73328179173E-01  0.79577819850E-01 -0.61630891706E-01  0.12453224163E+00  0.51100000000E-03 0.  1.
         11    1    4    4    0    0  0.21211450101E-03  0.76847020900E-02 -0.32280089338E-02  0.83534903753E-02  0.51100000000E-03 0. -1.
</event>
<event>
 8    1  0.1114333E+005  0.1043930E+01  0.7957747E-01            NaN
         13   -1    0    0    0    0  0.00000000000E+00  0.00000000000E+00  0.74505805969E-08  0.10566000000E+00  0.10566000000E+00 0.  1.
     999900   -1    0    0    0    0 -0.00000000000E+00 -0.00000000000E+00 -0.74505805969E-08  0.93827000000E+00  0.93827000000E+00 0.  1.
     999902    2    1    2    0    0 -0.17605882477E-01 -0.15111624198E-01 -0.20470317680E-03  0.10207271944E+01  0.10204634414E+01 0.  0.
     999903    2    3    3    0    0  0.33861442653E-01  0.84807264049E-01 -0.89106381826E-01  0.12913525959E+00  0.19927334291E-01 0.  0.
         14    1    1    2    0    0  0.17605882477E-01  0.15111624198E-01  0.20470317680E-03  0.23202805586E-01  0.00000000000E+00 0. -1.
     999901    1    3    3    0    0 -0.51467325129E-01 -0.99918888247E-01  0.88901678649E-01  0.89159193483E+00  0.88000000000E+00 0. -1.
        -11    1    4    4    0    0  0.18016754697E-01  0.21093314426E-01 -0.24298417449E-01  0.36880964939E-01  0.51100000000E-03 0. -1.
         11    1    4    4    0    0  0.15844687956E-01  0.63713949623E-01 -0.64807964377E-01  0.92254294647E-01  0.51100000000E-03 0.  1.
</event>
<event>
 8    1  0.1114333E+005  0.1043930E+01  0.7957747E-01            NaN
         13   -1    0    0    0    0  0.00000000000E+00  0.00000000000E+00  0.74505805969E-08  0.10566000000E+00  0.10566000000E+00 0.  1.
     999900   -1    0    0    0    0 -0.00000000000E+00 -0.00000000000E+00 -0.74505805969E-08  0.93827000000E+00  0.93827000000E+00 0.  1.
     999902    2    1    2    0    0  0.88526329350E-02 -0.16276971701E-01 -0.14671692186E-01  0.10202959680E+01  0.10200222031E+01 0.  0.
     999903    2    3    3    0    0  0.69738498308E-01 -0.10105730366E+00  0.43495174202E-01  0.13222042073E+00  0.22679786386E-01 0.  0.
         14    1    1    2    0    0 -0.88526329350E-02  0.16276971701E-01  0.14671692186E-01  0.23634032014E-01  0.00000000000E+00 0.  1.
     999901    1    3    3    0    0 -0.60885865373E-01  0.84780331956E-01 -0.58166866389E-01  0.88807554726E+00  0.88000000000E+00 0. -1.
        -11    1    4    4    0    0  0.12196429828E-01 -0.30137572209E-01  0.19014446669E-01  0.37667445657E-01  0.51100000000E-03 0.  1.
         11    1    4    4    0    0  0.57542068480E-01 -0.70919731447E-01  0.24480727533E-01  0.94552975072E-01  0.51100000000E-03 0. -1.
</event>
<event>
 8    1  0.1114333E+005  0.1043930E+01  0.7957747E-01            NaN
         13   -1    0    0    0    0  0.00000000000E+00  0.00000000000E+00  0.74505805969E-08  0.10566000000E+00  0.10566000000E+00 0. -1.
     999900   -1    0    0    0    0 -0.00000000000E+00 -0.00000000000E+00 -0.74505805969E-08  0.93827000000E+00  0.93827000000E+00 0. -1.
     999902    2    1    2    0    0  0.17212301369E-01  0.75883838829E-04  0.17011116561E-01  0.10197298520E+01  0.10194426536E+01 0.  0.
     999903    2    3    3    0    0  0.52693036925E-01 -0.70748021960E-01 -0.92374985913E-01  0.12942640505E+00  0.20885821752E-01 0.  0.
         14    1    1    2    0    0 -0.17212301369E-01 -0.75883838829E-04 -0.17011116561E-01  0.24200148004E-01  0.00000000000E+00 0.  1.
     999901    1    3    3    0    0 -0.35480735556E-01  0.70823905799E-01  0.10938610247E+00  0.89030344695E+00  0.88000000000E+00 0.  1.
        -11    1    4    4    0    0  0.36801319080E-01 -0.49980671481E-01 -0.50334620300E-01  0.79913952033E-01  0.51100000000E-03 0. -1.
         11    1    4    4    0    0  0.15891717845E-01 -0.20767350478E-01 -0.42040365613E-01  0.49512453018E-01  0.51100000000E-03 0.  1.
</event>
<event>
 8    1  0.1114333E+005  0.1043930E+01  0.7957747E-01            NaN
         13   -1    0    0    0    0  0.00000000000E+00  0.00000000000E+00  0.74505805969E-08  0.10566000000E+00  0.10566000000E+00 0.  1.
     999900   -1    0    0    0    0 -0.00000000000E+00 -0.00000000000E+00 -0.74505805969E-08  0.93827000000E+00  0.93827000000E+00 0.  1.
     999902    2    1    2    0    0 -0.18462507771E-01 -0.14527746425E-01  0.69568290678E-03  0.10204267325E+01  0.10201560237E+01 0.  0.
     999903    2    3    3    0    0  0.28111471013E-01  0.38317627916E-01 -0.11877537159E+00  0.12956473309E+00  0.20516718892E-01 0.  0.
         14    1    1    2    0    0  0.18462507771E-01  0.14527746425E-01 -0.69568290678E-03  0.23503267519E-01  0.00000000000E+00 0.  1.
     999901    1    3    3    0    0 -0.46573978784E-01 -0.52845374341E-01  0.11947105450E+00  0.89086199939E+00  0.88000000000E+00 0. -1.
        -11    1    4    4    0    0 -0.22753678045E-02  0.98469371584E-02 -0.23091640720E-01  0.25211593805E-01  0.51100000000E-03 0. -1.
         11    1    4    4    0    0  0.30386838818E-01  0.28470690758E-01 -0.95683730868E-01  0.10435313929E+00  0.51100000000E-03 0.  1.
</event>
<event>
 8    1  0.1114333E+005  0.1043930E+01  0.7957747E-01            NaN
         13   -1    0    0    0    0  0.00000000000E+00  0.00000000000E+00  0.74505805969E-08  0.10566000000E+00  0.10566000000E+00 0.  1.
     999900   -1    0    0    0    0 -0.00000000000E+00 -0.00000000000E+00 -0.74505805969E-08  0.93827000000E+00  0.93827000000E+00 0.  1.
     999902    2    1    2    0    0 -0.20846599567E-01 -0.10743702989E-01 -0.42420010163E-02  0.10200971982E+01  0.10198187542E+01 0.  0.
     999903    2    3    3    0    0 -0.10405629603E+00 -0.17876028190E-01 -0.78251159703E-01  0.13305036789E+00  0.20781993992E-01 0.  0.
         14    1    1    2    0    0  0.20846599567E-01  0.10743702989E-01  0.42420010163E-02  0.23832801767E-01  0.00000000000E+00 0.  1.
     999901    1    3    3    0    0  0.83209696462E-01  0.71323252010E-02  0.74009158687E-01  0.88704683034E+00  0.88000000000E+00 0.  1.
        -11    1    4    4    0    0 -0.88683764462E-01 -0.22543577315E-01 -0.67612280220E-01  0.11377479736E+00  0.51100000000E-03 0. -1.
         11    1    4    4    0    0 -0.15372531567E-01  0.46675491242E-02 -0.10638879483E-01  0.19275570530E-01  0.51100000000E-03 0.  1.
</event>
<event>
 8    1  0.1114333E+005  0.1043930E+01  0.7957747E-01            NaN
         13   -1    0    0    0    0  0.00000000000E+00  0.00000000000E+00  0.74505805969E-08  0.10566000000E+00  0.10566000000E+00 0.  1.
     999900   -1    0    0    0    0 -0.00000000000E+00 -0.00000000000E+00 -0.74505805969E-08  0.93827000000E+00  0.93827000000E+00 0.  1.
     999902    2    1    2    0    0 -0.13541026067E-01 -0.19145615073E-01  0.36222829549E-02  0.10202016436E+01  0.10199256633E+01 0.  0.
     999903    2    3    3    0    0 -0.10585655135E+00 -0.48175254060E-01  0.61125607453E-01  0.13303113661E+00  0.20844156373E-01 0.  0.
         14    1    1    2    0    0  0.13541026067E-01  0.19145615073E-01 -0.36222829549E-02  0.23728356396E-01  0.00000000000E+00 0. -1.
     999901    1    3    3    0    0  0.92315525281E-01  0.29029638987E-01 -0.57503324498E-01  0.88717050699E+00  0.88000000000E+00 0.  1.
        -11    1    4    4    0    0 -0.45753683808E-01 -0.11439745395E-01  0.30850324419E-01  0.56358415471E-01  0.51100000000E-03 0.  1.
         11    1    4    4    0    0 -0.60102867540E-01 -0.36735508664E-01  0.30275283033E-01  0.76672721141E-01  0.51100000000E-03 0. -1.
</event>
<event>
 8    1  0.1114333E+005  0.1043930E+01  0.7957747E-01            NaN
         13   -1    0    0    0    0  0.00000000000E+00  0.00000000000E+00  0.74505805969E-08  0.10566000000E+00  0.10566000000E+00 0.  1.
     999900   -1    0    0    0    0 -0.00000000000E+00 -0.00000000000E+00 -0.74505805969E-08  0.93827000000E+00  0.93827000000E+00 0. -1.
     999902    2    1    2    0    0 -0.55429225162E-03  0.22768262728E-01  0.46396416107E-02  0.10206872097E+01  0.10204225364E+01 0.  0.
     999903    2    3    3    0    0  0.12715964399E+00 -0.11962220172E-01  0.16508356556E-01  0.13071084912E+00  0.22363596994E-01 0.  0.
         14    1    1    2    0    0  0.55429225162E-03 -0.22768262728E-01 -0.46396416107E-02  0.23242790320E-01  0.00000000000E+00 0.  1.
     999901    1    3    3    0    0 -0.12771393625E+00  0.34730482901E-01 -0.11868714946E-01  0.88997636056E+00  0.88000000000E+00 0. -1.
        -11    1    4    4    0    0  0.21593531375E-01  0.55405738404E-02 -0.79183488956E-03  0.22312926281E-01  0.51100000000E-03 0. -1.
         11    1    4    4    0    0  0.10556611262E+00 -0.17502794013E-01  0.17300191446E-01  0.10839792284E+00  0.51100000000E-03 0.  1.
</event>
<event>
 8    1  0.1114333E+005  0.1043930E+01  0.7957747E-01            NaN
         13   -1    0    0    0    0  0.00000000000E+00  0.00000000000E+00  0.74505805969E-08  0.10566000000E+00  0.10566000000E+00 0. -1.
     999900   -1    0    0    0    0 -0.00000000000E+00 -0.00000000000E+00 -0.74505805969E-08  0.93827000000E+00  0.93827000000E+00 0.  1.
     999902    2    1    2    0    0  0.21963343346E-01 -0.67062476936E-02  0.57511649760E-02  0.10202564260E+01  0.10199817335E+01 0.  0.
     999903    2    3    3    0    0  0.68878807766E-01  0.83255034364E-01 -0.71349203242E-01  0.13107783881E+00  0.20371551682E-01 0.  0.
         14    1    1    2    0    0 -0.21963343346E-01  0.67062476936E-02 -0.57511649760E-02  0.23673574036E-01  0.00000000000E+00 0.  1.
     999901    1    3    3    0    0 -0.46915464419E-01 -0.89961282058E-01  0.77100368218E-01  0.88917858715E+00  0.88000000000E+00 0.  1.
        -11    1    4    4    0    0  0.16186079879E-01  0.94969215880E-02 -0.17362314987E-01  0.25571308222E-01  0.51100000000E-03 0. -1.
         11    1    4    4    0    0  0.52692727887E-01  0.73758112776E-01 -0.53986888255E-01  0.10550653059E+00  0.51100000000E-03 0.  1.
</event>
<event>
 8    1  0.1114333E+005  0.1043930E+01  0.7957747E-01            NaN
         13   -1    0    0    0    0  0.00000000000E+00  0.00000000000E+00  0.74505805969E-08  0.10566000000E+00  0.10566000000E+00 0. -1.
     999900   -1    0    0    0    0 -0.00000000000E+00 -0.00000000000E+00 -0.74505805969E-08  0.93827000000E+00  0.93827000000E+00 0. -1.
     999902    2    1    2    0    0 -0.16413572296E-01  0.12969254842E-01  0.10860110641E-01  0.10203599145E+01  0.10200876463E+01 0.  0.
     999903    2    3    3    0    0 -0.72661813784E-01 -0.93742223204E-01  0.52266453736E-01  0.13116607206E+00  0.20134862274E-01 0.  0.
         14    1    1    2    0    0  0.16413572296E-01 -0.12969254842E-01 -0.10860110641E-01  0.23570085486E-01  0.00000000000E+00 0. -1.
     999901    1    3    3    0    0  0.56248241489E-01  0.10671147805E+00 -0.41406343094E-01  0.88919384246E+00  0.88000000000E+00 0.  1.
        -11    1    4    4    0    0 -0.55667139397E-01 -0.60008621288E-01  0.29212274926E-01  0.86910777035E-01  0.51100000000E-03 0.  1.
         11    1    4    4    0    0 -0.16994674387E-01 -0.33733601917E-01  0.23054178810E-01  0.44255295021E-01  0.51100000000E-03 0. -1.
</event>
<event>
 8    1  0.1114333E+005  0.1043930E+01  0.7957747E-01            NaN
         13   -1    0    0    0    0  0.00000000000E+00  0.00000000000E+00  0.74505805969E-08  0.10566000000E+00  0.10566000000E+00 0. -1.
     999900   -1    0    0    0    0 -0.00000000000E+00 -0.00000000000E+00 -0.74505805969E-08  0.93827000000E+00  0.93827000000E+00 0. -1.
     999902    2    1    2    0    0 -0.88975787533E-03  0.43228788457E-02 -0.23065722598E-01  0.10204458243E+01  0.10201755603E+01 0.  0.
     999903    2    3    3    0    0  0.11377692613E+00 -0.61845823878E-01  0.74424586631E-05  0.13024409624E+00  0.13907900649E-01 0.  0.
         14    1    1    2    0    0  0.88975787533E-03 -0.43228788457E-02  0.23065722598E-01  0.23484175727E-01  0.00000000000E+00 0. -1.
     999901    1    3    3    0    0 -0.11466668400E+00  0.66168702724E-01 -0.23073165057E-01  0.89020172803E+00  0.88000000000E+00 0. -1.
        -11    1    4    4    0    0  0.94619341686E-02 -0.39771044647E-02  0.36243742043E-02  0.10896915504E-01  0.51100000000E-03 0.  1.
         11    1    4    4    0    0  0.10431499196E+00 -0.57868719414E-01 -0.36169317456E-02  0.11934718074E+00  0.51100000000E-03 0. -1.
</event>
<event>
 8    1  0.1114333E+005  0.1043930E+01  0.7957747E-01            NaN
         13   -1    0    0    0    0  0.00000000000E+00  0.00000000000E+00  0.74505805969E-08  0.10566000000E+00  0.10566000000E+00 0.  1.
     999900   -1    0    0    0    0 -0.00000000000E+00 -0.00000000000E+00 -0.74505805969E-08  0.93827000000E+00  0.93827000000E+00 0.  1.
     999902    2    1    2    0    0 -0.16855337541E-01  0.16921560017E-01  0.63386434754E-03  0.10200376711E+01  0.10197578178E+01 0.  0.
     999903    2    3    3    0    0  0.11902050053E+00  0.74084346937E-02 -0.43546079197E-01  0.12846343955E+00  0.19642551646E-01 0.  0.
         14    1    1    2    0    0  0.16855337541E-01 -0.16921560017E-01 -0.63386434754E-03  0.23892328916E-01  0.00000000000E+00 0. -1.
     999901    1    3    3    0    0 -0.13587583808E+00  0.95131253235E-02  0.44179943545E-01  0.89157423154E+00  0.88000000000E+00 0.  1.
        -11    1    4    4    0    0  0.46168889328E-01  0.10881447100E-01 -0.22816712173E-01  0.52638728216E-01  0.51100000000E-03 0. -1.
         11    1    4    4    0    0  0.72851611206E-01 -0.34730124059E-02 -0.20729367025E-01  0.75824711333E-01  0.51100000000E-03 0.  1.
</event>
<event>
 8    1  0.1114333E+005  0.1043930E+01  0.7957747E-01            NaN
         13   -1    0    0    0    0  0.00000000000E+00  0.00000000000E+00  0.74505805969E-08  0.10566000000E+00  0.10566000000E+00 0.  1.
     999900   -1    0    0    0    0 -0.00000000000E+00 -0.00000000000E+00 -0.74505805969E-08  0.93827000000E+00  0.93827000000E+00 0.  1.
     999902    2    1    2    0    0  0.14005680015E-01  0.25746512109E-02  0.18696053317E-01  0.10204282913E+01  0.10201576189E+01 0.  0.
     999903    2    3    3    0    0  0.82809814956E-01  0.53156174061E-01 -0.83196034300E-01  0.13044261898E+00  0.20264560928E-01 0.  0.
         14    1    1    2    0    0 -0.14005680015E-01 -0.25746512109E-02 -0.18696053317E-01  0.23501708686E-01  0.00000000000E+00 0. -1.
     999901    1    3    3    0    0 -0.68804134941E-01 -0.50581522850E-01  0.10189208762E+00  0.88998567233E+00  0.88000000000E+00 0. -1.
        -11    1    4    4    0    0  0.42365638060E-01  0.15941397644E-01 -0.33147571010E-01  0.56107023018E-01  0.51100000000E-03 0.  1.
         11    1    4    4    0    0  0.40444176896E-01  0.37214776417E-01 -0.50048463290E-01  0.74335595964E-01  0.51100000000E-03 0. -1.
</event>
<event>
 8    1  0.1114333E+005  0.1043930E+01  0.7957747E-01            NaN
         13   -1    0    0    0    0  0.00000000000E+00  0.00000000000E+00  0.74505805969E-08  0.10566000000E+00  0.10566000000E+00 0. -1.
     999900   -1    0    0    0    0 -0.00000000000E+00 -0.00000000000E+00 -0.74505805969E-08  0.93827000000E+00  0.93827000000E+00 0. -1.
     999902    2    1    2    0    0 -0.82343044519E-03  0.91170874048E-02  0.21089541274E-01  0.10209393917E+01  0.10206804952E+01 0.  0.
     999903    2    3    3    0    0 -0.17558836475E-01 -0.24039906274E-01  0.12913385713E+00  0.13355388681E+00  0.16578835654E-01 0.  0.
         14    1    1    2    0    0  0.82343044519E-03 -0.91170874048E-02 -0.21089541274E-01  0.22990608334E-01  0.00000000000E+00 0.  1.
     999901    1    3    3    0    0  0.16735406030E-01  0.33156993679E-01 -0.10804431586E+00  0.88738550486E+00  0.88000000000E+00 0. -1.
        -11    1    4    4    0    0 -0.12899557309E-01 -0.21269995608E-01  0.72333411987E-01  0.76493103627E-01  0.51100000000E-03 0.  1.
         11    1    4    4    0    0 -0.46592791661E-02 -0.27699106661E-02  0.56800445144E-01  0.57060783179E-01  0.51100000000E-03 0. -1.
</event>
<event>
 8    1  0.1114333E+005  0.1043930E+01  0.7957747E-01            NaN
         13   -1    0    0    0    0  0.00000000000E+00  0.00000000000E+00  0.74505805969E-08  0.10566000000E+00  0.10566000000E+00 0. -1.
     999900   -1    0    0    0    0 -0.00000000000E+00 -0.00000000000E+00 -0.74505805969E-08  0.93827000000E+00  0.93827000000E+00 0.  1.
     999902    2    1    2    0    0 -0.37109793820E-02  0.14544204469E-01  0.17297414076E-01  0.10210279087E+01  0.10207710246E+01 0.  0.
     999903    2    3    3    0    0 -0.54770995810E-01  0.97981236163E-01 -0.66246104107E-01  0.13167511990E+00  0.18697761090E-01 0.  0.
         14    1    1    2    0    0  0.37109793820E-02 -0.14544204469E-01 -0.17297414076E-01  0.22902091287E-01  0.00000000000E+00 0.  1.
     999901    1    3    3    0    0  0.51060016428E-01 -0.83437031695E-01  0.83543518183E-01  0.88935278881E+00  0.88000000000E+00 0. -1.
        -11    1    4    4    0    0 -0.12314176298E-01  0.91868830310E-02 -0.91518112964E-02  0.17890067879E-01  0.51100000000E-03 0. -1.
         11    1    4    4    0    0 -0.42456819511E-01  0.88794353132E-01 -0.57094292811E-01  0.11378505202E+00  0.51100000000E-03 0.  1.
</event>
<event>
 8    1  0.1114333E+005  0.1043930E+01  0.7957747E-01            NaN
         13   -1    0    0    0    0  0.00000000000E+00  0.00000000000E+00  0.74505805969E-08  0.10566000000E+00  0.10566000000E+00 0. -1.
     999900   -1    0    0    0    0 -0.00000000000E+00 -0.00000000000E+00 -0.74505805969E-08  0.93827000000E+00  0.93827000000E+00 0.  1.
     999902    2    1    2    0    0 -0.15131379618E-01  0.14996288019E-01 -0.10550399850E-01  0.10201569430E+01  0.10198799096E+01 0.  0.
     999903    2    3    3    0    0 -0.76173046711E-01 -0.69477991981E-01 -0.79199403142E-01  0.13135174792E+00  0.18740645874E-01 0.  0.
         14    1    1    2    0    0  0.15131379618E-01 -0.14996288019E-01  0.10550399850E-01  0.23773057028E-01  0.00000000000E+00 0. -1.
     999901    1    3    3    0    0  0.61041667094E-01  0.84474280000E-01  0.68649003292E-01  0.88880519505E+00  0.88000000000E+00 0.  1.
        -11    1    4    4    0    0 -0.34877317583E-01 -0.39788083642E-01 -0.49473250705E-01  0.72438819275E-01  0.51100000000E-03 0.  1.
         11    1    4    4    0    0 -0.41295729128E-01 -0.29689908340E-01 -0.29726152437E-01  0.58912928642E-01  0.51100000000E-03 0. -1.
</event>
<event>
 8    1  0.1114333E+005  0.1043930E+01  0.7957747E-01            NaN
         13   -1    0    0    0    0  0.00000000000E+00  0.00000000000E+00  0.74505805969E-08  0.10566000000E+00  0.10566000000E+00 0. -1.
     999900   -1    0    0    0    0 -0.00000000000E+00 -0.00000000000E+00 -0.74505805969E-08  0.93827000000E+00  0.93827000000E+00 0.  1.
     999902    2    1    2    0    0 -0.21145987752E-01 -0.73271221246E-02 -0.10269478075E-02  0.10215270060E+01  0.10212813177E+01 0.  0.
     999903    2    3    3    0    0 -0.13034404302E+00  0.11072652787E-01  0.22623045296E-01  0.13427163741E+00  0.20122058625E-01 0.  0.
         14    1    1    2    0    0  0.21145987752E-01  0.73271221246E-02  0.10269478075E-02  0.22402993961E-01  0.00000000000E+00 0.  1.
     999901    1    3    3    0    0  0.10919805527E+00 -0.18399774911E-01 -0.23649993104E-01  0.88725536863E+00  0.88000000000E+00 0. -1.
        -11    1    4    4    0    0 -0.85046026179E-01 -0.68722960251E-03  0.89905047557E-02  0.85524202131E-01  0.51100000000E-03 0. -1.
         11    1    4    4    0    0 -0.45298016840E-01  0.11759882389E-01  0.13632540540E-01  0.48747435276E-01  0.51100000000E-03 0.  1.
</event>
<event>
 8    1  0.1114333E+005  0.1043930E+01  0.7957747E-01            NaN
         13   -1    0    0    0    0  0.00000000000E+00  0.00000000000E+00  0.74505805969E-08  0.10566000000E+00  0.10566000000E+00 0. -1.
     999900   -1    0    0    0    0 -0.00000000000E+00 -0.00000000000E+00 -0.74505805969E-08  0.93827000000E+00  0.93827000000E+00 0.  1.
     999902    2    1    2    0    0 -0.65562266754E-02 -0.11161056349E-02 -0.23589718680E-01  0.10194207236E+01  0.10191260507E+01 0.  0.
     999903    2    3    3    0    0 -0.90356903962E-01  0.76689872369E-01  0.47471342716E-01  0.12918143100E+00  0.19713120452E-01 0.  0.
         14    1    1    2    0    0  0.65562266754E-02  0.11161056349E-02  0.23589718680E-01  0.24509276354E-01  0.00000000000E+00 0. -1.
     999901    1    3    3    0    0  0.83800677287E-01 -0.77805978004E-01 -0.71061061395E-01  0.89023929265E+00  0.88000000000E+00 0.  1.
        -11    1    4    4    0    0 -0.29729667170E-01  0.34920313200E-01  0.24827465366E-01  0.52153097142E-01  0.51100000000E-03 0.  1.
         11    1    4    4    0    0 -0.60627236793E-01  0.41769559170E-01  0.22643877350E-01  0.77028333857E-01  0.51100000000E-03 0. -1.
</event>
<event>
 8    1  0.1114333E+005  0.1043930E+01  0.7957747E-01            NaN
         13   -1    0    0    0    0  0.00000000000E+00  0.00000000000E+00  0.74505805969E-08  0.10566000000E+00  0.10566000000E+00 0. -1.
     999900   -1    0    0    0    0 -0.00000000000E+00 -0.00000000000E+00 -0.74505805969E-08  0.93827000000E+00  0.93827000000E+00 0.  1.
     999902    2    1    2    0    0 -0.18749812394E-01  0.38857394148E-02 -0.14711151690E-01  0.10197831075E+01  0.10194971868E+01 0.  0.
     999903    2    3    3    0    0  0.10462296339E-01 -0.10663024888E+00 -0.72173633656E-01  0.13053113653E+00  0.18704934817E-01 0.  0.
         14    1    1    2    0    0  0.18749812394E-01 -0.38857394148E-02  0.14711151690E-01  0.24146892546E-01  0.00000000000E+00 0. -1.
     999901    1    3    3    0    0 -0.29212108733E-01  0.11051598830E+00  0.57462481967E-01  0.88925197093E+00  0.88000000000E+00 0. -1.
        -11    1    4    4    0    0  0.88968356536E-02 -0.10276718042E+00 -0.64144910583E-01  0.12147048091E+00  0.51100000000E-03 0.  1.
         11    1    4    4    0    0  0.15654606858E-02 -0.38630684565E-02 -0.80287230737E-02  0.90606556193E-02  0.51100000000E-03 0. -1.
</event>
<event>
 8    1  0.1114333E+005  0.1043930E+01  0.7957747E-01            NaN
         13   -1    0    0    0    0  0.00000000000E+00  0.00000000000E+00  0.74505805969E-08  0.10566000000E+00  0.10566000000E+00 0. -1.
     999900   -1    0    0    0    0 -0.00000000000E+00 -0.00000000000E+00 -0.74505805969E-08  0.93827000000E+00  0.93827000000E+00 0.  1.
     999902    2    1    2    0    0  0.88637939093E-02 -0.14537026975E-01  0.17055227068E-01  0.10198307725E+01  0.10195459930E+01 0.  0.
     999903    2    3    3    0    0 -0.12692866945E+00  0.86644600656E-02  0.82144817515E-02  0.12906926632E+00  0.20135486130E-01 0.  0.
         14    1    1    2    0    0 -0.88637939093E-02  0.14537026975E-01 -0.17055227068E-01  0.24099227500E-01  0.00000000000E+00 0.  1.
     999901    1    3    3    0    0  0.13579246336E+00 -0.23201487041E-01  0.88407453163E-02  0.89076150618E+00  0.88000000000E+00 0. -1.
        -11    1    4    4    0    0 -0.29598443960E-01  0.83971565755E-02 -0.37757800230E-02  0.31001576721E-01  0.51100000000E-03 0. -1.
         11    1    4    4    0    0 -0.97330225493E-01  0.26730349009E-03  0.11990261775E-01  0.98067689603E-01  0.51100000000E-03 0.  1.
</event>
<event>
 8    1  0.1114333E+005  0.1043930E+01  0.7957747E-01            NaN
         13   -1    0    0    0    0  0.00000000000E+00  0.00000000000E+00  0.74505805969E-08  0.10566000000E+00  0.10566000000E+00 0.  1.
     999900   -1    0    0    0    0 -0.00000000000E+00 -0.00000000000E+00 -0.74505805969E-08  0.93827000000E+00  0.93827000000E+00 0. -1.
     999902    2    1    2    0    0 -0.15604562316E-01  0.97492795423E-02  0.14941161594E-01  0.10202279088E+01  0.10199525463E+01 0.  0.
     999903    2    3    3    0    0 -0.51288120600E-01 -0.95366394018E-01 -0.68051643608E-01  0.12937975853E+00  0.19567199496E-01 0.  0.
         14    1    1    2    0    0  0.15604562316E-01 -0.97492795423E-02 -0.14941161594E-01  0.23702091183E-01  0.00000000000E+00 0. -1.
     999901    1    3    3    0    0  0.35683558283E-01  0.10511567356E+00  0.82992805202E-01  0.89084815029E+00  0.88000000000E+00 0.  1.
        -11    1    4    4    0    0 -0.16933412530E-01 -0.22493144623E-01 -0.26766556185E-01  0.38850890156E-01  0.51100000000E-03 0.  1.
         11    1    4    4    0    0 -0.34354708069E-01 -0.72873249395E-01 -0.41285087424E-01  0.90528868371E-01  0.51100000000E-03 0. -1.
</event>
<event>
 8    1  0.1114333E+005  0.1043930E+01  0.7957747E-01            NaN
         13   -1    0    0    0    0  0.00000000000E+00  0.00000000000E+00  0.74505805969E-08  0.10566000000E+00  0.10566000000E+00 0. -1.
     999900   -1    0    0    0    0 -0.00000000000E+00 -0.00000000000E+00 -0.74505805969E-08  0.93827000000E+00  0.93827000000E+00 0.  1.
     999902    2    1    2    0    0  0.39792565875E-02  0.23904436321E-01  0.13306005351E-02  0.10196601204E+01  0.10193712445E+01 0.  0.
     999903    2    3    3    0    0  0.92881215605E-01 -0.62884109176E-01 -0.60272247465E-01  0.12880057992E+00  0.19378188128E-01 0.  0.
         14    1    1    2    0    0 -0.39792565875E-02 -0.23904436321E-01 -0.13306005351E-02  0.24269879616E-01  0.00000000000E+00 0.  1.
     999901    1    3    3    0    0 -0.88901959018E-01  0.86788545497E-01  0.61602848000E-01  0.89085954046E+00  0.88000000000E+00 0. -1.
        -11    1    4    4    0    0  0.31025933316E-01 -0.27666162467E-01 -0.30897986383E-01  0.51797410817E-01  0.51100000000E-03 0. -1.
         11    1    4    4    0    0  0.61855282289E-01 -0.35217946709E-01 -0.29374261082E-01  0.77003169107E-01  0.51100000000E-03 0.  1.
</event>
<event>
 8    1  0.1114333E+005  0.1043930E+01  0.7957747E-01            NaN
         13   -1    0    0    0    0  0.00000000000E+00  0.00000000000E+00  0.74505805969E-08  0.10566000000E+00  0.10566000000E+00 0. -1.
     999900   -1    0    0    0    0 -0.00000000000E+00 -0.00000000000E+00 -0.74505805969E-08  0.93827000000E+00  0.93827000000E+00 0. -1.
     999902    2    1    2    0    0 -0.15182701499E-02 -0.14209789758E-01  0.18389337525E-01  0.10206407105E+01  0.10203749649E+01 0.  0.
     999903    2    3    3    0    0 -0.12653398703E+00  0.12128900172E-01 -0.21445357730E-01  0.13052304472E+00  0.20454870852E-01 0.  0.
         14    1    1    2    0    0  0.15182701499E-02  0.14209789758E-01 -0.18389337525E-01  0.23289289466E-01  0.00000000000E+00 0.  1.
     999901    1    3    3    0    0  0.12501571688E+00 -0.26338689930E-01  0.39834695255E-01  0.89011766582E+00  0.88000000000E+00 0.  1.
        -11    1    4    4    0    0 -0.73067628543E-01  0.43643196873E-02 -0.24134578789E-02  0.73239412389E-01  0.51100000000E-03 0.  1.
         11    1    4    4    0    0 -0.53466358485E-01  0.77645804843E-02 -0.19031899851E-01  0.57283632328E-01  0.51100000000E-03 0. -1.
</event>
<event>
 8    1  0.1114333E+005  0.1043930E+01  0.7957747E-01            NaN
         13   -1    0    0    0    0  0.00000000000E+00  0.00000000000E+00  0.74505805969E-08  0.10566000000E+00  0.10566000000E+00 0.  1.
     999900   -1    0    0    0    0 -0.00000000000E+00 -0.00000000000E+00 -0.74505805969E-08  0.93827000000E+00  0.93827000000E+00 0. -1.
     999902    2    1    2    0    0  0.19645475366E-01 -0.89012362623E-02  0.10880227631E-02  0.10223346185E+01  0.10221065070E+01 0.  0.
     999903    2    3    3    0    0  0.10509615219E+00  0.80486587204E-01  0.82905538953E-02  0.13365926853E+00  0.16515897074E-01 0.  0.
         14    1    1    2    0    0 -0.19645475366E-01  0.89012362623E-02 -0.10880227631E-02  0.21595381518E-01  0.00000000000E+00 0.  1.
     999901    1    3    3    0    0 -0.85450676822E-01 -0.89387823467E-01 -0.72025311322E-02  0.88867534995E+00  0.88000000000E+00 0. -1.
        -11    1    4    4    0    0  0.54247792850E-02  0.36543140231E-02 -0.31768029041E-02  0.72894059403E-02  0.51100000000E-03 0.  1.
         11    1    4    4    0    0  0.99671372903E-01  0.76832273181E-01  0.11467356799E-01  0.12636986259E+00  0.51100000000E-03 0. -1.
</event>
<event>
 8    1  0.1114333E+005  0.1043930E+01  0.7957747E-01            NaN
         13   -1    0    0    0    0  0.00000000000E+00  0.00000000000E+00  0.74505805969E-08  0.10566000000E+00  0.10566000000E+00 0.  1.
     999900   -1    0    0    0    0 -0.00000000000E+00 -0.00000000000E+00 -0.74505805969E-08  0.93827000000E+00  0.93827000000E+00 0. -1.
     999902    2    1    2    0    0  0.15688971698E-01  0.84079954425E-02  0.17286170067E-01  0.10191177068E+01  0.10188156115E+01 0.  0.
     999903    2    3    3    0    0 -0.58406322632E-01  0.11050405633E+00  0.22094323718E-01  0.13010879981E+00  0.28595378273E-01 0.  0.
         14    1    1    2    0    0 -0.15688971698E-01 -0.84079954425E-02 -0.17286170067E-01  0.24812293241E-01  0.00000000000E+00 0. -1.
     999901    1    3    3    0    0  0.74095294330E-01 -0.10209606089E+00 -0.48081536505E-02  0.88900890695E+00  0.88000000000E+00 0.  1.
        -11    1    4    4    0    0 -0.49008939190E-03  0.39345168415E-02 -0.44131232338E-02  0.59546106560E-02  0.51100000000E-03 0. -1.
         11    1    4    4    0    0 -0.57916233240E-01  0.10656953949E+00  0.26507446952E-01  0.12415418915E+00  0.51100000000E-03 0.  1.
</event>
<event>
 8    1  0.1114333E+005  0.1043930E+01  0.7957747E-01            NaN
         13   -1    0    0    0    0  0.00000000000E+00  0.00000000000E+00  0.74505805969E-08  0.10566000000E+00  0.10566000000E+00 0. -1.
     999900   -1    0    0    0    0 -0.00000000000E+00 -0.00000000000E+00 -0.74505805969E-08  0.93827000000E+00  0.93827000000E+00 0.  1.
     999902    2    1    2    0    0  0.70082853038E-02  0.10611376688E-01  0.20249500654E-01  0.10200185037E+01  0.10197381959E+01 0.  0.
     999903    2    3    3    0    0  0.30531619118E-01 -0.12072063473E+00  0.30827571048E-01  0.12989865783E+00  0.20436994696E-01 0.  0.
         14    1    1    2    0    0 -0.70082853038E-02 -0.10611376688E-01 -0.20249500654E-01  0.23911496290E-01  0.00000000000E+00 0.  1.
     999901    1    3    3    0    0 -0.23523333814E-01  0.13133201142E+00 -0.10578070394E-01  0.89011984588E+00  0.88000000000E+00 0.  1.
        -11    1    4    4    0    0  0.25143137056E-01 -0.61365257993E-01  0.20453828211E-01  0.69400954165E-01  0.51100000000E-03 0.  1.
         11    1    4    4    0    0  0.53884820622E-02 -0.59355376741E-01  0.10373742837E-01  0.60497703663E-01  0.51100000000E-03 0. -1.
</event>
<event>
 8    1  0.1114333E+005  0.1043930E+01  0.7957747E-01            NaN
         13   -1    0    0    0    0  0.00000000000E+00  0.00000000000E+00  0.74505805969E-08  0.10566000000E+00  0.10566000000E+00 0.  1.
     999900   -1    0    0    0    0 -0.00000000000E+00 -0.00000000000E+00 -0.74505805969E-08  0.93827000000E+00  0.93827000000E+00 0. -1.
     999902    2    1    2    0    0 -0.43556384776E-02  0.42311200424E-02 -0.22851221451E-01  0.10202857135E+01  0.10200117082E+01 0.  0.
     999903    2    3    3    0    0 -0.41720401380E-01  0.47640428963E-01 -0.11598466172E+00  0.13351949214E+00  0.19100017414E-01 0.  0.
         14    1    1    2    0    0  0.43556384776E-02 -0.42311200424E-02  0.22851221451E-01  0.23644286523E-01  0.00000000000E+00 0.  1.
     999901    1    3    3    0    0  0.37364762903E-01 -0.43409308921E-01  0.93133440264E-01  0.88676622134E+00  0.88000000000E+00 0.  1.
        -11    1    4    4    0    0 -0.23063469590E-01  0.25283264871E-01 -0.81418557352E-01  0.88319928183E-01  0.51100000000E-03 0.  1.
         11    1    4    4    0    0 -0.18656931790E-01  0.22357164092E-01 -0.34566104364E-01  0.45199563958E-01  0.51100000000E-03 0. -1.
</event>
<event>
 8    1  0.1164943E+005  0.1043930E+01  0.7957747E-01            NaN
         13   -1    0    0    0    0  0.00000000000E+00  0.00000000000E+00  0.74505805969E-08  0.10566000000E+00  0.10566000000E+00 0.  1.
     999900   -1    0    0    0    0 -0.00000000000E+00 -0.00000000000E+00 -0.74505805969E-08  0.93827000000E+00  0.93827000000E+00 0. -1.
     999902    2    1    2    0    0 -0.18462888092E-01  0.13784991299E-01 -0.40757168393E-02  0.10205309468E+01  0.10202626611E+01 0.  0.
     999903    2    3    3    0    0 -0.10105657962E+00 -0.63487312410E-01 -0.52591614459E-01  0.13196664464E+00  0.20155551656E-01 0.  0.
         14    1    1    2    0    0  0.18462888092E-01 -0.13784991299E-01  0.40757168393E-02  0.23399053176E-01  0.00000000000E+00 0.  1.
     999901    1    3    3    0    0  0.82593691533E-01  0.77272303709E-01  0.48515897619E-01  0.88856430219E+00  0.88000000000E+00 0. -1.
        -11    1    4    4    0    0 -0.40310663082E-01 -0.14229743127E-01 -0.20801013178E-01  0.47543437169E-01  0.51100000000E-03 0.  1.
         11    1    4    4    0    0 -0.60745916542E-01 -0.49257569282E-01 -0.31790601281E-01  0.84423207467E-01  0.51100000000E-03 0. -1.
</event>
<event>
 8    1  0.1114333E+005  0.1043930E+01  0.7957747E-01            NaN
         13   -1    0    0    0    0  0.00000000000E+00  0.00000000000E+00  0.74505805969E-08  0.10566000000E+00  0.10566000000E+00 0. -1.
     999900   -1    0    0    0    0 -0.00000000000E+00 -0.00000000000E+00 -0.74505805969E-08  0.93827000000E+00  0.93827000000E+00 0.  1.
     999902    2    1    2    0    0 -0.12891675641E-01  0.10398468015E-01  0.99022589285E-02  0.10246328974E+01  0.10244511683E+01 0.  0.
     999903    2    3    3    0    0 -0.11290441337E+00  0.73315253890E-01 -0.10583503475E-01  0.13649961001E+00  0.19939909134E-01 0.  0.
         14    1    1    2    0    0  0.12891675641E-01 -0.10398468015E-01 -0.99022589285E-02  0.19297102627E-01  0.00000000000E+00 0.  1.
     999901    1    3    3    0    0  0.10001273773E+00 -0.62916785874E-01  0.20485762403E-01  0.88813328736E+00  0.88000000000E+00 0. -1.
        -11    1    4    4    0    0 -0.67566456980E-01  0.50399650819E-01 -0.14553943748E-01  0.85541973973E-01  0.51100000000E-03 0.  1.
         11    1    4    4    0    0 -0.45337956393E-01  0.22915603071E-01  0.39704402739E-02  0.50957636042E-01  0.51100000000E-03 0. -1.
</event>
<event>
 8    1  0.1114333E+005  0.1043930E+01  0.7957747E-01            NaN
         13   -1    0    0    0    0  0.00000000000E+00  0.00000000000E+00  0.74505805969E-08  0.10566000000E+00  0.10566000000E+00 0. -1.
     999900   -1    0    0    0    0 -0.00000000000E+00 -0.00000000000E+00 -0.74505805969E-08  0.93827000000E+00  0.93827000000E+00 0.  1.
     999902    2    1    2    0    0 -0.24355663133E-02 -0.13699445101E-01  0.22545257142E-01  0.10174366914E+01  0.10170916997E+01 0.  0.
     999903    2    3    3    0    0  0.38406621056E-01 -0.96444443105E-01 -0.71959795027E-01  0.12757938610E+00  0.17935677040E-01 0.  0.
         14    1    1    2    0    0  0.24355663133E-02  0.13699445101E-01 -0.22545257142E-01  0.26493308569E-01  0.00000000000E+00 0.  1.
     999901    1    3    3    0    0 -0.40842187370E-01  0.82744998004E-01  0.94505052169E-01  0.88985730533E+00  0.88000000000E+00 0. -1.
        -11    1    4    4    0    0  0.19780456671E-01 -0.28701021326E-01 -0.19962956996E-01  0.40172078168E-01  0.51100000000E-03 0.  1.
         11    1    4    4    0    0  0.18626164385E-01 -0.67743421779E-01 -0.51996838031E-01  0.87407307934E-01  0.51100000000E-03 0. -1.
</event>
<event>
 8    1  0.1114333E+005  0.1043930E+01  0.7957747E-01            NaN
         13   -1    0    0    0    0  0.00000000000E+00  0.00000000000E+00  0.74505805969E-08  0.10566000000E+00  0.10566000000E+00 0. -1.
     999900   -1    0    0    0    0 -0.00000000000E+00 -0.00000000000E+00 -0.74505805969E-08  0.93827000000E+00  0.93827000000E+00 0. -1.
     999902    2    1    2    0    0 -0.12059083270E-01 -0.14747744787E-01 -0.14246048410E-01  0.10201420333E+01  0.10198646482E+01 0.  0.
     999903    2    3    3    0    0 -0.33472858004E-01 -0.12596794363E+00 -0.14868612414E-01  0.13288284343E+00  0.21175915497E-01 0.  0.
         14    1    1    2    0    0  0.12059083270E-01  0.14747744787E-01  0.14246048410E-01  0.23787966726E-01  0.00000000000E+00 0.  1.
     999901    1    3    3    0    0  0.21413774734E-01  0.11122019884E+00  0.62256400366E-03  0.88725918985E+00  0.88000000000E+00 0.  1.
        -11    1    4    4    0    0 -0.17700692460E-03 -0.37223444629E-01 -0.55635860531E-02  0.37640812588E-01  0.51100000000E-03 0.  1.
         11    1    4    4    0    0 -0.33295851080E-01 -0.88744499001E-01 -0.93050263609E-02  0.95242030841E-01  0.51100000000E-03 0. -1.
</event>
<event>
 8    1  0.1114333E+005  0.1043930E+01  0.7957747E-01            NaN
         13   -1    0    0    0    0  0.00000000000E+00  0.00000000000E+00  0.74505805969E-08  0.10566000000E+00  0.10566000000E+00 0. -1.
     999900   -1    0    0    0    0 -0.00000000000E+00 -0.00000000000E+00 -0.74505805969E-08  0.93827000000E+00  0.93827000000E+00 0.  1.
     999902    2    1    2    0    0  0.22908412579E-01  0.48051814269E-02  0.48865429767E-02  0.10200184246E+01  0.10197381150E+01 0.  0.
     999903    2    3    3    0    0 -0.72705618746E-01 -0.86797948478E-02 -0.10333121738E+00  0.12814681321E+00  0.19565771493E-01 0.  0.
         14    1    1    2    0    0 -0.22908412579E-01 -0.48051814269E-02 -0.48865429767E-02  0.23911575391E-01  0.00000000000E+00 0. -1.
     999901    1    3    3    0    0  0.95614031325E-01  0.13484976275E-01  0.10821776035E+00  0.89187161140E+00  0.88000000000E+00 0. -1.
        -11    1    4    4    0    0 -0.44677534960E-01 -0.13159055173E-01 -0.73080924016E-01  0.86662133825E-01  0.51100000000E-03 0.  1.
         11    1    4    4    0    0 -0.28028083787E-01  0.44792603254E-02 -0.30250293362E-01  0.41484679380E-01  0.51100000000E-03 0. -1.
</event>
<event>
 8    1  0.1114333E+005  0.1043930E+01  0.7957747E-01            NaN
         13   -1    0    0    0    0  0.00000000000E+00  0.00000000000E+00  0.74505805969E-08  0.10566000000E+00  0.10566000000E+00 0.  1.
     999900   -1    0    0    0    0 -0.00000000000E+00 -0.00000000000E+00 -0.74505805969E-08  0.93827000000E+00  0.93827000000E+00 0. -1.
     999902    2    1    2    0    0 -0.44650905432E-02  0.22808506847E-01  0.64839575663E-02  0.10198010397E+01  0.10195155486E+01 0.  0.
     999903    2    3    3    0    0  0.54678737141E-01  0.98231107088E-01  0.67218859139E-01  0.13251569146E+00  0.20072836470E-01 0.  0.
         14    1    1    2    0    0  0.44650905432E-02 -0.22808506847E-01 -0.64839575663E-02  0.24128960274E-01  0.00000000000E+00 0. -1.
     999901    1    3    3    0    0 -0.59143827684E-01 -0.75422600241E-01 -0.60734901573E-01  0.88728534827E+00  0.88000000000E+00 0. -1.
        -11    1    4    4    0    0  0.15058865926E-01  0.25375491932E-01  0.28361162253E-01  0.40930449290E-01  0.51100000000E-03 0.  1.
         11    1    4    4    0    0  0.39619871215E-01  0.72855615156E-01  0.38857696885E-01  0.91585242169E-01  0.51100000000E-03 0. -1.
</event>
<event>
 8    1  0.1114333E+005  0.1043930E+01  0.7957747E-01            NaN
         13   -1    0    0    0    0  0.00000000000E+00  0.00000000000E+00  0.74505805969E-08  0.10566000000E+00  0.10566000000E+00 0.  1.
     999900   -1    0    0    0    0 -0.00000000000E+00 -0.00000000000E+00 -0.74505805969E-08  0.93827000000E+00  0.93827000000E+00 0. -1.
     999902    2    1    2    0    0  0.25754432770E-02  0.16563958799E-01  0.15853051919E-01  0.10208580063E+01  0.10205972526E+01 0.  0.
     999903    2    3    3    0    0 -0.89439297512E-01  0.93314686020E-01 -0.17133312345E-01  0.13212548922E+00  0.21367637745E-01 0.  0.
         14    1    1    2    0    0 -0.25754432770E-02 -0.16563958799E-01 -0.15853051919E-01  0.23071993722E-01  0.00000000000E+00 0. -1.
     999901    1    3    3    0    0  0.92014740789E-01 -0.76750727221E-01  0.32986364264E-01  0.88873251706E+00  0.88000000000E+00 0. -1.
        -11    1    4    4    0    0 -0.75482482684E-01  0.65752275060E-01 -0.12604467984E-01  0.10089648459E+00  0.51100000000E-03 0.  1.
         11    1    4    4    0    0 -0.13956814828E-01  0.27562410960E-01 -0.45288443609E-02  0.31229004632E-01  0.51100000000E-03 0. -1.
</event>
<event>
 8    1  0.1114333E+005  0.1043930E+01  0.7957747E-01            NaN
         13   -1    0    0    0    0  0.00000000000E+00  0.00000000000E+00  0.74505805969E-08  0.10566000000E+00  0.10566000000E+00 0. -1.
     999900   -1    0    0    0    0 -0.00000000000E+00 -0.00000000000E+00 -0.74505805969E-08  0.93827000000E+00  0.93827000000E+00 0. -1.
     999902    2    1    2    0    0 -0.56537112170E-02  0.22693602318E-01 -0.21125015997E-02  0.10204475236E+01  0.10201772991E+01 0.  0.
     999903    2    3    3    0    0  0.66013021331E-01  0.10450258480E+00  0.45588249476E-01  0.13246993836E+00  0.13837877894E-01 0.  0.
         14    1    1    2    0    0  0.56537112170E-02 -0.22693602318E-01  0.21125015997E-02  0.23482476438E-01  0.00000000000E+00 0.  1.
     999901    1    3    3    0    0 -0.71666732548E-01 -0.81808982477E-01 -0.47700751075E-01  0.88797758520E+00  0.88000000000E+00 0. -1.
        -11    1    4    4    0    0  0.46069342116E-01  0.61358480591E-01  0.25372756735E-01  0.80816367951E-01  0.51100000000E-03 0.  1.
         11    1    4    4    0    0  0.19943679215E-01  0.43144104205E-01  0.20215492741E-01  0.51653570409E-01  0.51100000000E-03 0. -1.
</event>
<event>
 8    1  0.1114333E+005  0.1043930E+01  0.7957747E-01            NaN
         13   -1    0    0    0    0  0.00000000000E+00  0.00000000000E+00  0.74505805969E-08  0.10566000000E+00  0.10566000000E+00 0.  1.
     999900   -1    0    0    0    0 -0.00000000000E+00 -0.00000000000E+00 -0.74505805969E-08  0.93827000000E+00  0.93827000000E+00 0.  1.
     999902    2    1    2    0    0  0.63951778713E-02  0.71494004325E-02 -0.18827870075E-01  0.10227994317E+01  0.10225811344E+01 0.  0.
     999903    2    3    3    0    0 -0.98499079571E-02  0.28588174446E-01 -0.13034823393E+00  0.13535348097E+00  0.20386228609E-01 0.  0.
         14    1    1    2    0    0 -0.63951778713E-02 -0.71494004325E-02  0.18827870075E-01  0.21130568334E-01  0.00000000000E+00 0.  1.
     999901    1    3    3    0    0  0.16245085828E-01 -0.21438774013E-01  0.11152036386E+00  0.88744595069E+00  0.88000000000E+00 0. -1.
        -11    1    4    4    0    0 -0.14759581676E-02  0.15896818918E-01 -0.10140527086E+00  0.10265562519E+00  0.51100000000E-03 0.  1.
         11    1    4    4    0    0 -0.83739497895E-02  0.12691355527E-01 -0.28942963072E-01  0.32697855780E-01  0.51100000000E-03 0. -1.
</event>
<event>
 8    1  0.1114333E+005  0.1043930E+01  0.7957747E-01            NaN
         13   -1    0    0    0    0  0.00000000000E+00  0.00000000000E+00  0.74505805969E-08  0.10566000000E+00  0.10566000000E+00 0. -1.
     999900   -1    0    0    0    0 -0.00000000000E+00 -0.00000000000E+00 -0.74505805969E-08  0.93827000000E+00  0.93827000000E+00 0.  1.
     999902    2    1    2    0    0  0.15491304983E-01 -0.14422616891E-01  0.10226717224E-01  0.10204230191E+01  0.10201522238E+01 0.  0.
     999903    2    3    3    0    0 -0.78565815361E-01 -0.13065972488E-01 -0.99093284228E-01  0.12868345781E+00  0.19915982377E-01 0.  0.
         14    1    1    2    0    0 -0.15491304983E-01  0.14422616891E-01 -0.10226717224E-01  0.23506980947E-01  0.00000000000E+00 0. -1.
     999901    1    3    3    0    0  0.94057120344E-01 -0.13566444030E-02  0.10932000145E+00  0.89173956124E+00  0.88000000000E+00 0. -1.
        -11    1    4    4    0    0 -0.45436628918E-01  0.18188725820E-02 -0.60496151688E-01  0.75682501511E-01  0.51100000000E-03 0. -1.
         11    1    4    4    0    0 -0.33129186443E-01 -0.14884845070E-01 -0.38597132540E-01  0.53000956297E-01  0.51100000000E-03 0.  1.
</event>
<event>
 8    1  0.1114333E+005  0.1043930E+01  0.7957747E-01            NaN
         13   -1    0    0    0    0  0.00000000000E+00  0.00000000000E+00  0.74505805969E-08  0.10566000000E+00  0.10566000000E+00 0. -1.
     999900   -1    0    0    0    0 -0.00000000000E+00 -0.00000000000E+00 -0.74505805969E-08  0.93827000000E+00  0.93827000000E+00 0.  1.
     999902    2    1    2    0    0 -0.24436786163E-01 -0.45294407707E-02  0.34399901539E-02  0.10188400442E+01  0.10185310647E+01 0.  0.
     999903    2    3    3    0    0 -0.53717181004E-01  0.26701846708E-02  0.11765425254E+00  0.13094699100E+00  0.20295957481E-01 0.  0.
         14    1    1    2    0    0  0.24436786163E-01  0.45294407707E-02 -0.34399901539E-02  0.25089955838E-01  0.00000000000E+00 0.  1.
     999901    1    3    3    0    0  0.29280394841E-01 -0.71996254415E-02 -0.11421426238E+00  0.88789305317E+00  0.88000000000E+00 0.  1.
        -11    1    4    4    0    0 -0.15341447959E-01 -0.59331444803E-02  0.21621392058E-01  0.27171822619E-01  0.51100000000E-03 0. -1.
         11    1    4    4    0    0 -0.38375733045E-01  0.86033291511E-02  0.96032860478E-01  0.10377516838E+00  0.51100000000E-03 0.  1.
</event>
<event>
 8    1  0.1114333E+005  0.1043930E+01  0.7957747E-01            NaN
         13   -1    0    0    0    0  0.00000000000E+00  0.00000000000E+00  0.74505805969E-08  0.10566000000E+00  0.10566000000E+00 0. -1.
     999900   -1    0    0    0    0 -0.00000000000E+00 -0.00000000000E+00 -0.74505805969E-08  0.93827000000E+00  0.93827000000E+00 0. -1.
     999902    2    1    2    0    0  0.92751340872E-02  0.19218870555E-01 -0.97727947045E-02  0.10204587279E+01  0.10201887643E+01 0.  0.
     999903    2    3    3    0    0  0.58807847904E-01  0.53139547195E-01  0.10280481429E+00  0.13125806433E+00  0.19433866323E-01 0.  0.
         14    1    1    2    0    0 -0.92751340872E-02 -0.19218870555E-01  0.97727947045E-02  0.23471272101E-01  0.00000000000E+00 0. -1.
     999901    1    3    3    0    0 -0.49532713817E-01 -0.33920676641E-01 -0.11257760899E+00  0.88920066357E+00  0.88000000000E+00 0. -1.
        -11    1    4    4    0    0  0.42268407223E-01  0.38738160735E-01  0.87104387301E-01  0.10428182370E+00  0.51100000000E-03 0. -1.
         11    1    4    4    0    0  0.16539440681E-01  0.14401386461E-01  0.15700426986E-01  0.26976240631E-01  0.51100000000E-03 0.  1.
</event>
<event>
 8    1  0.1131215E+005  0.1043930E+01  0.7957747E-01            NaN
         13   -1    0    0    0    0  0.00000000000E+00  0.00000000000E+00  0.74505805969E-08  0.10566000000E+00  0.10566000000E+00 0.  1.
     999900   -1    0    0    0    0 -0.00000000000E+00 -0.00000000000E+00 -0.74505805969E-08  0.93827000000E+00  0.93827000000E+00 0.  1.
     999902    2    1    2    0    0  0.12575048973E-01  0.15439794709E-01 -0.14036427651E-01  0.10195673150E+01  0.10192761988E+01 0.  0.
     999903    2    3    3    0    0 -0.11265473843E+00  0.60072891253E-01 -0.92365202524E-02  0.12956863410E+00  0.20071753350E-01 0.  0.
         14    1    1    2    0    0 -0.12575048973E-01 -0.15439794709E-01  0.14036427651E-01  0.24362684962E-01  0.00000000000E+00 0.  1.
     999901    1    3    3    0    0  0.12522978740E+00 -0.44633096543E-01 -0.47999073988E-02  0.88999868094E+00  0.88000000000E+00 0.  1.
        -11    1    4    4    0    0 -0.50326204853E-01  0.27332508810E-01  0.58320354579E-02  0.57567931102E-01  0.51100000000E-03 0.  1.
         11    1    4    4    0    0 -0.62328533575E-01  0.32740382442E-01 -0.15068555710E-01  0.72000702998E-01  0.51100000000E-03 0. -1.
</event>
<event>
 8    1  0.1114333E+005  0.1043930E+01  0.7957747E-01            NaN
         13   -1    0    0    0    0  0.00000000000E+00  0.00000000000E+00  0.74505805969E-08  0.10566000000E+00  0.10566000000E+00 0. -1.
     999900   -1    0    0    0    0 -0.00000000000E+00 -0.00000000000E+00 -0.74505805969E-08  0.93827000000E+00  0.93827000000E+00 0.  1.
     999902    2    1    2    0    0  0.15753132824E-02 -0.19043857276E-01  0.15581869299E-01  0.10192734641E+01  0.10189751959E+01 0.  0.
     999903    2    3    3    0    0 -0.30307079303E-01 -0.10703340679E+00 -0.65160916700E-01  0.13063515451E+00  0.21093347351E-01 0.  0.
         14    1    1    2    0    0 -0.15753132824E-02  0.19043857276E-01 -0.15581869299E-01  0.24656535903E-01  0.00000000000E+00 0.  1.
     999901    1    3    3    0    0  0.31882392586E-01  0.87989549516E-01  0.80742785999E-01  0.88863830959E+00  0.88000000000E+00 0. -1.
        -11    1    4    4    0    0 -0.14079396368E-01 -0.49087463371E-01 -0.42118407034E-01  0.66196901698E-01  0.51100000000E-03 0. -1.
         11    1    4    4    0    0 -0.16227682935E-01 -0.57945943421E-01 -0.23042509665E-01  0.64438252809E-01  0.51100000000E-03 0.  1.
</event>
<event>
 8    1  0.1114333E+005  0.1043930E+01  0.7957747E-01            NaN
         13   -1    0    0    0    0  0.00000000000E+00  0.00000000000E+00  0.74505805969E-08  0.10566000000E+00  0.10566000000E+00 0. -1.
     999900   -1    0    0    0    0 -0.00000000000E+00 -0.00000000000E+00 -0.74505805969E-08  0.93827000000E+00  0.93827000000E+00 0. -1.
     999902    2    1    2    0    0 -0.10002276065E-01 -0.20506850138E-01  0.42707007694E-02  0.10207176043E+01  0.10204536307E+01 0.  0.
     999903    2    3    3    0    0 -0.11199991904E+00 -0.44859791069E-01  0.52880557076E-01  0.13315943548E+00  0.19460195845E-01 0.  0.
         14    1    1    2    0    0  0.10002276065E-01  0.20506850138E-01 -0.42707007694E-02  0.23212395700E-01  0.00000000000E+00 0. -1.
     999901    1    3    3    0    0  0.10199764297E+00  0.24352940931E-01 -0.48609856307E-01  0.88755816882E+00  0.88000000000E+00 0. -1.
        -11    1    4    4    0    0 -0.32280230290E-01 -0.45846807169E-02  0.10183150544E-01  0.34161238866E-01  0.51100000000E-03 0.  1.
         11    1    4    4    0    0 -0.79719688747E-01 -0.40275110352E-01  0.42697406532E-01  0.98998196617E-01  0.51100000000E-03 0. -1.
</event>
<event>
 8    1  0.1114333E+005  0.1043930E+01  0.7957747E-01            NaN
         13   -1    0    0    0    0  0.00000000000E+00  0.00000000000E+00  0.74505805969E-08  0.10566000000E+00  0.10566000000E+00 0.  1.
     999900   -1    0    0    0    0 -0.00000000000E+00 -0.00000000000E+00 -0.74505805969E-08  0.93827000000E+00  0.93827000000E+00 0. -1.
     999902    2    1    2    0    0  0.20040115141E-01  0.76444866072E-02 -0.83598869696E-02  0.10209097459E+01  0.10206501737E+01 0.  0.
     999903    2    3    3    0    0 -0.40667292201E-01 -0.11979740629E+00  0.23582101174E-01  0.12908738913E+00  0.10108972633E-01 0.  0.
         14    1    1    2    0    0 -0.20040115141E-01 -0.76444866072E-02  0.83598869696E-02  0.23020254136E-01  0.00000000000E+00 0.  1.
     999901    1    3    3    0    0  0.60707407342E-01  0.12744189289E+00 -0.31941988143E-01  0.89182235674E+00  0.88000000000E+00 0. -1.
        -11    1    4    4    0    0 -0.29265864923E-01 -0.79789003335E-01  0.11491865236E-01  0.85761879588E-01  0.51100000000E-03 0. -1.
         11    1    4    4    0    0 -0.11401427278E-01 -0.40008402952E-01  0.12090235937E-01  0.43325509538E-01  0.51100000000E-03 0.  1.
</event>
<event>
 8    1  0.1114333E+005  0.1043930E+01  0.7957747E-01            NaN
         13   -1    0    0    0    0  0.00000000000E+00  0.00000000000E+00  0.74505805969E-08  0.10566000000E+00  0.10566000000E+00 0. -1.
     999900   -1    0    0    0    0 -0.00000000000E+00 -0.00000000000E+00 -0.74505805969E-08  0.93827000000E+00  0.93827000000E+00 0. -1.
     999902    2    1    2    0    0  0.19180457044E-01 -0.10809635877E-01 -0.70948630016E-03  0.10219018015E+01  0.10216643530E+01 0.  0.
     999903    2    3    3    0    0  0.57911154403E-01  0.11590396254E+00 -0.13382651060E-01  0.13189224418E+00  0.20713241856E-01 0.  0.
         14    1    1    2    0    0 -0.19180457044E-01  0.10809635877E-01  0.70948630016E-03  0.22028198543E-01  0.00000000000E+00 0.  1.
     999901    1    3    3    0    0 -0.38730697358E-01 -0.12671359842E+00  0.12673164760E-01  0.89000955728E+00  0.88000000000E+00 0.  1.
        -11    1    4    4    0    0  0.39391470738E-01  0.75841710662E-01  0.10017606284E-02  0.85468811203E-01  0.51100000000E-03 0.  1.
         11    1    4    4    0    0  0.18519683664E-01  0.40062251879E-01 -0.14384411689E-01  0.46423432976E-01  0.51100000000E-03 0. -1.
</event>
<event>
 8    1  0.1114333E+005  0.1043930E+01  0.7957747E-01            NaN
         13   -1    0    0    0    0  0.00000000000E+00  0.00000000000E+00  0.74505805969E-08  0.10566000000E+00  0.10566000000E+00 0.  1.
     999900   -1    0    0    0    0 -0.00000000000E+00 -0.00000000000E+00 -0.74505805969E-08  0.93827000000E+00  0.93827000000E+00 0.  1.
     999902    2    1    2    0    0 -0.19562577942E-01 -0.12154705658E-01  0.52220675394E-02  0.10203142994E+01  0.10200409640E+01 0.  0.
     999903    2    3    3    0    0  0.32062524804E-01 -0.24199381188E-01  0.12309932426E+00  0.13087331030E+00  0.18993792888E-01 0.  0.
         14    1    1    2    0    0  0.19562577942E-01  0.12154705658E-01 -0.52220675394E-02  0.23615700598E-01  0.00000000000E+00 0. -1.
     999901    1    3    3    0    0 -0.51625102746E-01  0.12044675531E-01 -0.11787725672E+00  0.88944098910E+00  0.88000000000E+00 0.  1.
        -11    1    4    4    0    0  0.64010508313E-02 -0.12569977365E-01  0.62041713972E-01  0.63627141821E-01  0.51100000000E-03 0. -1.
         11    1    4    4    0    0  0.25661473972E-01 -0.11629403824E-01  0.61057610290E-01  0.67246168479E-01  0.51100000000E-03 0.  1.
</event>
<event>
 8    1  0.1114333E+005  0.1043930E+01  0.7957747E-01            NaN
         13   -1    0    0    0    0  0.00000000000E+00  0.00000000000E+00  0.74505805969E-08  0.10566000000E+00  0.10566000000E+00 0. -1.
     999900   -1    0    0    0    0 -0.00000000000E+00 -0.00000000000E+00 -0.74505805969E-08  0.93827000000E+00  0.93827000000E+00 0. -1.
     999902    2    1    2    0    0 -0.23100994692E-01  0.42824055144E-02 -0.48436504816E-02  0.10199413380E+01  0.10196591966E+01 0.  0.
     999903    2    3    3    0    0  0.11238236545E+00  0.31276539034E-01  0.47714147150E-01  0.12761474636E+00  0.20021630610E-01 0.  0.
         14    1    1    2    0    0  0.23100994692E-01 -0.42824055144E-02  0.48436504816E-02  0.23988661962E-01  0.00000000000E+00 0.  1.
     999901    1    3    3    0    0 -0.13548336014E+00 -0.26994133519E-01 -0.52557797631E-01  0.89232659168E+00  0.88000000000E+00 0.  1.
        -11    1    4    4    0    0  0.36038957202E-01  0.39372163524E-02  0.22593037522E-01  0.42720189305E-01  0.51100000000E-03 0.  1.
         11    1    4    4    0    0  0.76343408250E-01  0.27339322681E-01  0.25121109627E-01  0.84894557056E-01  0.51100000000E-03 0. -1.
</event>
<event>
 8    1  0.1114333E+005  0.1043930E+01  0.7957747E-01            NaN
         13   -1    0    0    0    0  0.00000000000E+00  0.00000000000E+00  0.74505805969E-08  0.10566000000E+00  0.10566000000E+00 0. -1.
     999900   -1    0    0    0    0 -0.00000000000E+00 -0.00000000000E+00 -0.74505805969E-08  0.93827000000E+00  0.93827000000E+00 0. -1.
     999902    2    1    2    0    0  0.19084156043E-01  0.93581864591E-02 -0.10533552572E-01  0.10202079344E+01  0.10199321022E+01 0.  0.
     999903    2    3    3    0    0 -0.50866228663E-01  0.10320804305E-01  0.11582549797E+00  0.12843408831E+00  0.19643748096E-01 0.  0.
         14    1    1    2    0    0 -0.19084156043E-01 -0.93581864591E-02  0.10533552572E-01  0.23722065582E-01  0.00000000000E+00 0. -1.
     999901    1    3    3    0    0  0.69950384706E-01 -0.96261784608E-03 -0.12635905054E+00  0.89177384611E+00  0.88000000000E+00 0. -1.
        -11    1    4    4    0    0 -0.46112929712E-01  0.75684779785E-02  0.83915632290E-01  0.96050916753E-01  0.51100000000E-03 0.  1.
         11    1    4    4    0    0 -0.47532989511E-02  0.27523263266E-02  0.31909865681E-01  0.32383171554E-01  0.51100000000E-03 0. -1.
</event>
<event>
 8    1  0.1481758E+005  0.1043930E+01  0.7957747E-01            NaN
         13   -1    0    0    0    0  0.00000000000E+00  0.00000000000E+00  0.74505805969E-08  0.10566000000E+00  0.10566000000E+00 0.  1.
     999900   -1    0    0    0    0 -0.00000000000E+00 -0.00000000000E+00 -0.74505805969E-08  0.93827000000E+00  0.93827000000E+00 0. -1.
     999902    2    1    2    0    0  0.22070695038E-01 -0.51294079033E-02  0.79644490182E-02  0.10199121139E+01  0.10196292764E+01 0.  0.
     999903    2    3    3    0    0 -0.11412996718E+00 -0.22616117128E-01  0.50153409021E-01  0.12826402539E+00  0.19978929156E-01 0.  0.
         14    1    1    2    0    0 -0.22070695038E-01  0.51294079033E-02 -0.79644490182E-02  0.24017886107E-01  0.00000000000E+00 0. -1.
     999901    1    3    3    0    0  0.13620066222E+00  0.17486709225E-01 -0.42188960003E-01  0.89164808850E+00  0.88000000000E+00 0. -1.
        -11    1    4    4    0    0 -0.48980803017E-01 -0.58315831396E-02  0.31195175779E-01  0.58365456727E-01  0.51100000000E-03 0.  1.
         11    1    4    4    0    0 -0.65149164162E-01 -0.16784533989E-01  0.18958233242E-01  0.69898568661E-01  0.51100000000E-03 0. -1.
</event>
<event>
 8    1  0.1114333E+005  0.1043930E+01  0.7957747E-01            NaN
         13   -1    0    0    0    0  0.00000000000E+00  0.00000000000E+00  0.74505805969E-08  0.10566000000E+00  0.10566000000E+00 0. -1.
     999900   -1    0    0    0    0 -0.00000000000E+00 -0.00000000000E+00 -0.74505805969E-08  0.93827000000E+00  0.93827000000E+00 0.  1.
     999902    2    1    2    0    0 -0.40717679288E-02  0.20989783621E-01 -0.10582504676E-01  0.10200733507E+01  0.10197943425E+01 0.  0.
     999903    2    3    3    0    0  0.73325256882E-01 -0.44421421543E-01  0.93739642933E-01  0.12813611317E+00  0.16789486378E-01 0.  0.
         14    1    1    2    0    0  0.40717679288E-02 -0.20989783621E-01  0.10582504676E-01  0.23856649298E-01  0.00000000000E+00 0. -1.
     999901    1    3    3    0    0 -0.77397024811E-01  0.65411205164E-01 -0.10432214761E+00  0.89193723753E+00  0.88000000000E+00 0.  1.
        -11    1    4    4    0    0  0.60038328361E-01 -0.36553071146E-01  0.85300152041E-01  0.11053101348E+00  0.51100000000E-03 0.  1.
         11    1    4    4    0    0  0.13286928521E-01 -0.78683503970E-02  0.84394908914E-02  0.17605099687E-01  0.51100000000E-03 0. -1.
</event>
<event>
 8    1  0.1114333E+005  0.1043930E+01  0.7957747E-01            NaN
         13   -1    0    0    0    0  0.00000000000E+00  0.00000000000E+00  0.74505805969E-08  0.10566000000E+00  0.10566000000E+00 0.  1.
     999900   -1    0    0    0    0 -0.00000000000E+00 -0.00000000000E+00 -0.74505805969E-08  0.93827000000E+00  0.93827000000E+00 0. -1.
     999902    2    1    2    0    0  0.11872946906E-01  0.16481033838E-01  0.82550470709E-02  0.10220042812E+01  0.10217690608E+01 0.  0.
     999903    2    3    3    0    0 -0.52082264884E-01  0.36584721596E-01 -0.11296989531E+00  0.13116764404E+00  0.19792660902E-01 0.  0.
         14    1    1    2    0    0 -0.11872946906E-01 -0.16481033838E-01 -0.82550470709E-02  0.21925718842E-01  0.00000000000E+00 0. -1.
     999901    1    3    3    0    0  0.63955211790E-01 -0.20103687758E-01  0.12122494239E+00  0.89083663712E+00  0.88000000000E+00 0.  1.
        -11    1    4    4    0    0 -0.18559413766E-01  0.23134498493E-02 -0.31968385372E-01  0.37041094393E-01  0.51100000000E-03 0. -1.
         11    1    4    4    0    0 -0.33522851118E-01  0.34271271747E-01 -0.81001509943E-01  0.94126549646E-01  0.51100000000E-03 0.  1.
</event>
<event>
 8    1  0.1114333E+005  0.1043930E+01  0.7957747E-01            NaN
         13   -1    0    0    0    0  0.00000000000E+00  0.00000000000E+00  0.74505805969E-08  0.10566000000E+00  0.10566000000E+00 0.  1.
     999900   -1    0    0    0    0 -0.00000000000E+00 -0.00000000000E+00 -0.74505805969E-08  0.93827000000E+00  0.93827000000E+00 0.  1.
     999902    2    1    2    0    0 -0.55912160602E-02 -0.22761660199E-01 -0.20010619745E-02  0.10204064135E+01  0.10201352310E+01 0.  0.
     999903    2    3    3    0    0 -0.44796886167E-01 -0.10503535177E+00 -0.67366565941E-01  0.13328821733E+00  0.13722555949E-01 0.  0.
         14    1    1    2    0    0  0.55912160602E-02  0.22761660199E-01  0.20010619745E-02  0.23523586484E-01  0.00000000000E+00 0.  1.
     999901    1    3    3    0    0  0.39205670107E-01  0.82273691568E-01  0.65365503967E-01  0.88711819618E+00  0.88000000000E+00 0. -1.
        -11    1    4    4    0    0 -0.18802567272E-01 -0.55939716428E-01 -0.28881555458E-01  0.65705355769E-01  0.51100000000E-03 0. -1.
         11    1    4    4    0    0 -0.25994318895E-01 -0.49095635339E-01 -0.38485010483E-01  0.67582861563E-01  0.51100000000E-03 0.  1.
</event>
<event>
 7    1  0.1114333E+005  0.1043930E+01  0.7957747E-01            NaN
         13   -1    0    0    0    0  0.00000000000E+00  0.00000000000E+00  0.74505805969E-08  0.10566000000E+00  0.10566000000E+00 0.  1.
     999900   -1    0    0    0    0 -0.00000000000E+00 -0.00000000000E+00 -0.74505805969E-08  0.93827000000E+00  0.93827000000E+00 0.  1.
     999902    2    1    2    0    0 -0.17434304131E-01 -0.13592764248E-01  0.78787149608E-02  0.10204610343E+01  0.10201911244E+01 0.  0.
         14    1    1    2    0    0  0.17434304131E-01  0.13592764248E-01 -0.78787149608E-02  0.23468965675E-01  0.00000000000E+00 0.  1.
     999901    1    3    3    0    0  0.47525125919E-01  0.10018736543E+00 -0.16445541965E-01  0.88711138063E+00  0.88000000000E+00 0.  1.
        -11    1    3    3    0    0 -0.41556040081E-01 -0.73701321544E-01  0.13381263607E-01  0.85662760878E-01  0.51100000000E-03 0. -1.
         11    1    3    3    0    0 -0.23403389970E-01 -0.40078808129E-01  0.10942993320E-01  0.47686892821E-01  0.51100000000E-03 0.  1.
</event>
<event>
 8    1  0.1114333E+005  0.1043930E+01  0.7957747E-01            NaN
         13   -1    0    0    0    0  0.00000000000E+00  0.00000000000E+00  0.74505805969E-08  0.10566000000E+00  0.10566000000E+00 0. -1.
     999900   -1    0    0    0    0 -0.00000000000E+00 -0.00000000000E+00 -0.74505805969E-08  0.93827000000E+00  0.93827000000E+00 0. -1.
     999902    2    1    2    0    0  0.25446020042E-02  0.35146464898E-02 -0.22590755611E-01  0.10209263051E+01  0.10206671105E+01 0.  0.
     999903    2    3    3    0    0  0.37396556696E-01  0.79257974533E-01 -0.98881834473E-01  0.13369914187E+00  0.20433168318E-01 0.  0.
         14    1    1    2    0    0 -0.25446020042E-02 -0.35146464898E-02  0.22590755611E-01  0.23003694885E-01  0.00000000000E+00 0. -1.
     999901    1    3    3    0    0 -0.34851954692E-01 -0.75743328044E-01  0.76291078862E-01  0.88722716325E+00  0.88000000000E+00 0. -1.
        -11    1    4    4    0    0  0.37846003566E-01  0.66181516870E-01 -0.78152455201E-01  0.10918049522E+00  0.51100000000E-03 0.  1.
         11    1    4    4    0    0 -0.44944687006E-03  0.13076457664E-01 -0.20729379272E-01  0.24518646650E-01  0.51100000000E-03 0. -1.
</event>
<event>
 8    1  0.1114333E+005  0.1043930E+01  0.7957747E-01            NaN
         13   -1    0    0    0    0  0.00000000000E+00  0.00000000000E+00  0.74505805969E-08  0.10566000000E+00  0.10566000000E+00 0. -1.
     999900   -1    0    0    0    0 -0.00000000000E+00 -0.00000000000E+00 -0.74505805969E-08  0.93827000000E+00  0.93827000000E+00 0. -1.
     999902    2    1    2    0    0 -0.54750162375E-03 -0.77543423988E-02  0.25599839629E-01  0.10171759092E+01  0.10168240010E+01 0.  0.
     999903    2    3    3    0    0 -0.55706227949E-01  0.10098305551E+00  0.53017924198E-01  0.12834630905E+00  0.19002984679E-01 0.  0.
         14    1    1    2    0    0  0.54750162375E-03  0.77543423988E-02 -0.25599839629E-01  0.26754090773E-01  0.00000000000E+00 0.  1.
     999901    1    3    3    0    0  0.55158726326E-01 -0.10873739791E+00 -0.27418084569E-01  0.88882960018E+00  0.88000000000E+00 0.  1.
        -11    1    4    4    0    0 -0.46563414819E-01  0.66383799208E-01  0.37369640298E-01  0.89284441724E-01  0.51100000000E-03 0.  1.
         11    1    4    4    0    0 -0.91428131302E-02  0.34599256305E-01  0.15648283899E-01  0.39061867323E-01  0.51100000000E-03 0. -1.
</event>
<event>
 8    1  0.1114333E+005  0.1043930E+01  0.7957747E-01            NaN
         13   -1    0    0    0    0  0.00000000000E+00  0.00000000000E+00  0.74505805969E-08  0.10566000000E+00  0.10566000000E+00 0. -1.
     999900   -1    0    0    0    0 -0.00000000000E+00 -0.00000000000E+00 -0.74505805969E-08  0.93827000000E+00  0.93827000000E+00 0. -1.
     999902    2    1    2    0    0 -0.23931311275E-02  0.23431687744E-01  0.12243396283E-02  0.10203446216E+01  0.10200719959E+01 0.  0.
     999903    2    3    3    0    0  0.12139097687E+00 -0.90404935823E-02  0.41130465154E-01  0.13019325985E+00  0.21001665593E-01 0.  0.
         14    1    1    2    0    0  0.23931311275E-02 -0.23431687744E-01 -0.12243396283E-02  0.23585378408E-01  0.00000000000E+00 0. -1.
     999901    1    3    3    0    0 -0.12378410800E+00  0.32472181326E-01 -0.39906125526E-01  0.89015136174E+00  0.88000000000E+00 0.  1.
        -11    1    4    4    0    0  0.77001708531E-01 -0.13694351295E-01  0.32681308150E-01  0.84765130787E-01  0.51100000000E-03 0. -1.
         11    1    4    4    0    0  0.44389268339E-01  0.46538577125E-02  0.84491570038E-02  0.45428129065E-01  0.51100000000E-03 0.  1.
</event>
<event>
 8    1  0.1114333E+005  0.1043930E+01  0.7957747E-01            NaN
         13   -1    0    0    0    0  0.00000000000E+00  0.00000000000E+00  0.74505805969E-08  0.10566000000E+00  0.10566000000E+00 0. -1.
     999900   -1    0    0    0    0 -0.00000000000E+00 -0.00000000000E+00 -0.74505805969E-08  0.93827000000E+00  0.93827000000E+00 0.  1.
     999902    2    1    2    0    0  0.49959141797E-02  0.12208611612E-01  0.19365509981E-01  0.10204985610E+01  0.10202295235E+01 0.  0.
     999903    2    3    3    0    0  0.11973029868E+00  0.51814086416E-01  0.29766817235E-02  0.13201605342E+00  0.19983336850E-01 0.  0.
         14    1    1    2    0    0 -0.49959141797E-02 -0.12208611612E-01 -0.19365509981E-01  0.23431438982E-01  0.00000000000E+00 0.  1.
     999901    1    3    3    0    0 -0.11473438450E+00 -0.39605474804E-01  0.16388828257E-01  0.88848250760E+00  0.88000000000E+00 0. -1.
        -11    1    4    4    0    0  0.16797117111E-01  0.14787602214E-01  0.32835218662E-02  0.22624300196E-01  0.51100000000E-03 0. -1.
         11    1    4    4    0    0  0.10293318157E+00  0.37026484202E-01 -0.30684014270E-03  0.10939175322E+00  0.51100000000E-03 0.  1.
</event>
<event>
 8    1  0.1114333E+005  0.1043930E+01  0.7957747E-01            NaN
         13   -1    0    0    0    0  0.00000000000E+00  0.00000000000E+00  0.74505805969E-08  0.10566000000E+00  0.10566000000E+00 0.  1.
     999900   -1    0    0    0    0 -0.00000000000E+00 -0.00000000000E+00 -0.74505805969E-08  0.93827000000E+00  0.93827000000E+00 0. -1.
     999902    2    1    2    0    0  0.21572435368E-01 -0.24501484906E-01  0.54300633391E-02  0.10108365215E+01  0.10102946575E+01 0.  0.
     999903    2    3    3    0    0  0.12204861289E+00  0.63795105224E-02  0.12748614377E-01  0.12455064252E+00  0.20341418842E-01 0.  0.
         14    1    1    2    0    0 -0.21572435368E-01  0.24501484906E-01 -0.54300633391E-02  0.33093478484E-01  0.00000000000E+00 0. -1.
     999901    1    3    3    0    0 -0.10047617752E+00 -0.30880995429E-01 -0.73185510374E-02  0.88628587900E+00  0.88000000000E+00 0.  1.
        -11    1    4    4    0    0  0.68859811742E-01  0.13507070318E-01  0.53693565358E-02  0.70379014858E-01  0.51100000000E-03 0. -1.
         11    1    4    4    0    0  0.53188801144E-01 -0.71275597957E-02  0.73792578407E-02  0.54171627658E-01  0.51100000000E-03 0.  1.
</event>
<event>
 8    1  0.1114333E+005  0.1043930E+01  0.7957747E-01            NaN
         13   -1    0    0    0    0  0.00000000000E+00  0.00000000000E+00  0.74505805969E-08  0.10566000000E+00  0.10566000000E+00 0.  1.
     999900   -1    0    0    0    0 -0.00000000000E+00 -0.00000000000E+00 -0.74505805969E-08  0.93827000000E+00  0.93827000000E+00 0. -1.
     999902    2    1    2    0    0  0.60770912006E-02  0.69617373203E-02  0.21991123701E-01  0.10200761461E+01  0.10197972041E+01 0.  0.
     999903    2    3    3    0    0  0.85956679900E-01  0.57895691763E-01  0.80856526787E-01  0.13303603873E+00  0.20502383610E-01 0.  0.
         14    1    1    2    0    0 -0.60770912006E-02 -0.69617373203E-02 -0.21991123701E-01  0.23853853894E-01  0.00000000000E+00 0. -1.
     999901    1    3    3    0    0 -0.79879588700E-01 -0.50933954443E-01 -0.58865403086E-01  0.88704010737E+00  0.88000000000E+00 0. -1.
        -11    1    4    4    0    0  0.58584073037E-01  0.38596500996E-01  0.42137520339E-01  0.81838959207E-01  0.51100000000E-03 0.  1.
         11    1    4    4    0    0  0.27372606863E-01  0.19299190767E-01  0.38719006448E-01  0.51197079527E-01  0.51100000000E-03 0. -1.
</event>
<event>
 7    1  0.1114333E+005  0.1043930E+01  0.7957747E-01            NaN
         13   -1    0    0    0    0  0.00000000000E+00  0.00000000000E+00  0.74505805969E-08  0.10566000000E+00  0.10566000000E+00 0. -1.
     999900   -1    0    0    0    0 -0.00000000000E+00 -0.00000000000E+00 -0.74505805969E-08  0.93827000000E+00  0.93827000000E+00 0. -1.
     999903    2    1    2    0    0  0.36845902265E-01  0.38448574544E-01 -0.20976277539E-01  0.60167486866E-01  0.18552866578E-01 0.  0.
         14    1    1    2    0    0  0.61220430342E-01 -0.13095700901E-01 -0.69267624106E-01  0.93367243842E-01  0.00000000000E+00 0.  1.
     999901    1    1    2    0    0 -0.98066332608E-01 -0.25352873643E-01  0.90243901644E-01  0.89039526929E+00  0.88000000000E+00 0.  1.
        -11    1    3    3    0    0  0.56340029842E-02  0.26748496254E-02 -0.94096566339E-02  0.11300423404E-01  0.51100000000E-03 0.  1.
         11    1    3    3    0    0  0.31211899281E-01  0.35773724919E-01 -0.11566620905E-01  0.48867063462E-01  0.51100000000E-03 0. -1.
</event>
<event>
 8    1  0.1114333E+005  0.1043930E+01  0.7957747E-01            NaN
         13   -1    0    0    0    0  0.00000000000E+00  0.00000000000E+00  0.74505805969E-08  0.10566000000E+00  0.10566000000E+00 0.  1.
     999900   -1    0    0    0    0 -0.00000000000E+00 -0.00000000000E+00 -0.74505805969E-08  0.93827000000E+00  0.93827000000E+00 0.  1.
     999902    2    1    2    0    0 -0.22140707136E-01 -0.17006877487E-03 -0.71566553211E-02  0.10206607595E+01  0.10203954765E+01 0.  0.
     999903    2    3    3    0    0  0.11352262529E+00  0.44107505505E-01 -0.37474816338E-01  0.12864941756E+00  0.17704583714E-01 0.  0.
         14    1    1    2    0    0  0.22140707136E-01  0.17006877487E-03  0.71566553211E-02  0.23269240452E-01  0.00000000000E+00 0. -1.
     999901    1    3    3    0    0 -0.13566333242E+00 -0.44277574280E-01  0.30318161017E-01  0.89201134199E+00  0.88000000000E+00 0. -1.
        -11    1    4    4    0    0  0.18147666060E-01  0.11022182319E-01 -0.12536944470E-01  0.24662975979E-01  0.51100000000E-03 0.  1.
         11    1    4    4    0    0  0.95374959229E-01  0.33085323185E-01 -0.24937871867E-01  0.10398644158E+00  0.51100000000E-03 0. -1.
</event>
<event>
 8    1  0.1114333E+005  0.1043930E+01  0.7957747E-01            NaN
         13   -1    0    0    0    0  0.00000000000E+00  0.00000000000E+00  0.74505805969E-08  0.10566000000E+00  0.10566000000E+00 0.  1.
     999900   -1    0    0    0    0 -0.00000000000E+00 -0.00000000000E+00 -0.74505805969E-08  0.93827000000E+00  0.93827000000E+00 0.  1.
     999902    2    1    2    0    0  0.21268644608E-01 -0.11196943954E-01 -0.92788513839E-02  0.10181652202E+01  0.10178391777E+01 0.  0.
     999903    2    3    3    0    0 -0.50622662009E-01 -0.89923851776E-01 -0.75279258517E-01  0.12927695962E+00  0.19915132390E-01 0.  0.
         14    1    1    2    0    0 -0.21268644608E-01  0.11196943954E-01  0.92788513839E-02  0.25764779843E-01  0.00000000000E+00 0.  1.
     999901    1    3    3    0    0  0.71891306616E-01  0.78726907822E-01  0.66000407133E-01  0.88888826054E+00  0.88000000000E+00 0. -1.
        -11    1    4    4    0    0 -0.11591826383E-01 -0.39964829369E-01 -0.27336168762E-01  0.49790413425E-01  0.51100000000E-03 0. -1.
         11    1    4    4    0    0 -0.39030835626E-01 -0.49959022406E-01 -0.47943089755E-01  0.79486546193E-01  0.51100000000E-03 0.  1.
</event>
<event>
 8    1  0.1114333E+005  0.1043930E+01  0.7957747E-01            NaN
         13   -1    0    0    0    0  0.00000000000E+00  0.00000000000E+00  0.74505805969E-08  0.10566000000E+00  0.10566000000E+00 0. -1.
     999900   -1    0    0    0    0 -0.00000000000E+00 -0.00000000000E+00 -0.74505805969E-08  0.93827000000E+00  0.93827000000E+00 0. -1.
     999902    2    1    2    0    0  0.22223138025E-01  0.78599069327E-02  0.27341155287E-02  0.10201998211E+01  0.10199237980E+01 0.  0.
     999903    2    3    3    0    0  0.10586772951E-01 -0.73442095330E-01  0.10486693337E+00  0.13049395231E+00  0.22929822213E-01 0.  0.
         14    1    1    2    0    0 -0.22223138025E-01 -0.78599069327E-02 -0.27341155287E-02  0.23730178853E-01  0.00000000000E+00 0.  1.
     999901    1    3    3    0    0  0.11636365074E-01  0.81302002263E-01 -0.10213281784E+00  0.88970586884E+00  0.88000000000E+00 0. -1.
        -11    1    4    4    0    0  0.50615209800E-02 -0.68970210845E-01  0.86203073942E-01  0.11051579098E+00  0.51100000000E-03 0. -1.
         11    1    4    4    0    0  0.55252519714E-02 -0.44718844852E-02  0.18663859428E-01  0.19978161325E-01  0.51100000000E-03 0.  1.
</event>
<event>
 8    1  0.1114333E+005  0.1043930E+01  0.7957747E-01            NaN
         13   -1    0    0    0    0  0.00000000000E+00  0.00000000000E+00  0.74505805969E-08  0.10566000000E+00  0.10566000000E+00 0. -1.
     999900   -1    0    0    0    0 -0.00000000000E+00 -0.00000000000E+00 -0.74505805969E-08  0.93827000000E+00  0.93827000000E+00 0.  1.
     999902    2    1    2    0    0  0.20008561447E-01 -0.11761168085E-01 -0.47462278026E-02  0.10202404604E+01  0.10199653930E+01 0.  0.
     999903    2    3    3    0    0  0.55621542990E-01  0.11549951829E+00  0.36556993376E-02  0.13033363435E+00  0.23229234515E-01 0.  0.
         14    1    1    2    0    0 -0.20008561447E-01  0.11761168085E-01  0.47462278026E-02  0.23689539554E-01  0.00000000000E+00 0.  1.
     999901    1    3    3    0    0 -0.35612981542E-01 -0.12726068637E+00 -0.84019271402E-02  0.88990682609E+00  0.88000000000E+00 0.  1.
        -11    1    4    4    0    0  0.36258377364E-01  0.59476287267E-01 -0.73421846915E-02  0.70044753360E-01  0.51100000000E-03 0. -1.
         11    1    4    4    0    0  0.19363165626E-01  0.56023231021E-01  0.10997884029E-01  0.60288880991E-01  0.51100000000E-03 0.  1.
</event>
<event>
 8    1  0.1114333E+005  0.1043930E+01  0.7957747E-01            NaN
         13   -1    0    0    0    0  0.00000000000E+00  0.00000000000E+00  0.74505805969E-08  0.10566000000E+00  0.10566000000E+00 0.  1.
     999900   -1    0    0    0    0 -0.00000000000E+00 -0.00000000000E+00 -0.74505805969E-08  0.93827000000E+00  0.93827000000E+00 0. -1.
     999902    2    1    2    0    0 -0.21676818964E-01 -0.95496581348E-02  0.38641646266E-02  0.10199297454E+01  0.10196473280E+01 0.  0.
     999903    2    3    3    0    0  0.59567213679E-01 -0.54809673440E-01  0.99581021071E-01  0.12986751254E+00  0.19920788312E-01 0.  0.
         14    1    1    2    0    0  0.21676818964E-01  0.95496581348E-02 -0.38641646266E-02  0.24000254564E-01  0.00000000000E+00 0.  1.
     999901    1    3    3    0    0 -0.81244032642E-01  0.45260015305E-01 -0.95716856445E-01  0.89006223290E+00  0.88000000000E+00 0. -1.
        -11    1    4    4    0    0  0.37410668213E-01 -0.35274093610E-01  0.47561651194E-01  0.70044211477E-01  0.51100000000E-03 0. -1.
         11    1    4    4    0    0  0.22156545465E-01 -0.19535579829E-01  0.52019369878E-01  0.59823301060E-01  0.51100000000E-03 0.  1.
</event>
<event>
 8    1  0.1114333E+005  0.1043930E+01  0.7957747E-01            NaN
         13   -1    0    0    0    0  0.00000000000E+00  0.00000000000E+00  0.74505805969E-08  0.10566000000E+00  0.10566000000E+00 0.  1.
     999900   -1    0    0    0    0 -0.00000000000E+00 -0.00000000000E+00 -0.74505805969E-08  0.93827000000E+00  0.93827000000E+00 0. -1.
     999902    2    1    2    0    0  0.63679839508E-02 -0.96557171825E-02  0.19955993349E-01  0.10208643163E+01  0.10206037069E+01 0.  0.
     999903    2    3    3    0    0  0.87903568905E-01 -0.97474406686E-01  0.16366895018E-02  0.13255368891E+00  0.18425642638E-01 0.  0.
         14    1    1    2    0    0 -0.63679839508E-02  0.96557171825E-02 -0.19955993349E-01  0.23065683698E-01  0.00000000000E+00 0. -1.
     999901    1    3    3    0    0 -0.81535584955E-01  0.87818689504E-01  0.18319303847E-01  0.88831062739E+00  0.88000000000E+00 0.  1.
        -11    1    4    4    0    0  0.49877370546E-01 -0.53689313712E-01  0.99850246619E-02  0.73961181291E-01  0.51100000000E-03 0. -1.
         11    1    4    4    0    0  0.38026198360E-01 -0.43785092974E-01 -0.83483351601E-02  0.58592507622E-01  0.51100000000E-03 0.  1.
</event>
<event>
 8    1  0.1114333E+005  0.1043930E+01  0.7957747E-01            NaN
         13   -1    0    0    0    0  0.00000000000E+00  0.00000000000E+00  0.74505805969E-08  0.10566000000E+00  0.10566000000E+00 0. -1.
     999900   -1    0    0    0    0 -0.00000000000E+00 -0.00000000000E+00 -0.74505805969E-08  0.93827000000E+00  0.93827000000E+00 0. -1.
     999902    2    1    2    0    0  0.14430979560E-01 -0.14161408937E-01 -0.12934772317E-01  0.10199277707E+01  0.10196453062E+01 0.  0.
     999903    2    3    3    0    0 -0.12449533897E+00 -0.21710987594E-01  0.12903185908E-01  0.12862248175E+00  0.20169139671E-01 0.  0.
         14    1    1    2    0    0 -0.14430979560E-01  0.14161408937E-01  0.12934772317E-01  0.24002229252E-01  0.00000000000E+00 0.  1.
     999901    1    3    3    0    0  0.13892631853E+00  0.75495786563E-02 -0.25837958225E-01  0.89130528900E+00  0.88000000000E+00 0. -1.
        -11    1    4    4    0    0 -0.47546511027E-02  0.35158368862E-03 -0.32582799800E-02  0.57972258561E-02  0.51100000000E-03 0. -1.
         11    1    4    4    0    0 -0.11974068787E+00 -0.22062571282E-01  0.16161465888E-01  0.12282525589E+00  0.51100000000E-03 0.  1.
</event>
<event>
 8    1  0.1114333E+005  0.1043930E+01  0.7957747E-01            NaN
         13   -1    0    0    0    0  0.00000000000E+00  0.00000000000E+00  0.74505805969E-08  0.10566000000E+00  0.10566000000E+00 0.  1.
     999900   -1    0    0    0    0 -0.00000000000E+00 -0.00000000000E+00 -0.74505805969E-08  0.93827000000E+00  0.93827000000E+00 0. -1.
     999902    2    1    2    0    0  0.22196223192E-02 -0.21056018160E-01 -0.95547611848E-02  0.10207012229E+01  0.10204368723E+01 0.  0.
     999903    2    3    3    0    0  0.66245737935E-01 -0.11472147706E+00 -0.51135462223E-02  0.13340629671E+00  0.14885447702E-01 0.  0.
         14    1    1    2    0    0 -0.22196223192E-02  0.21056018160E-01  0.95547611848E-02  0.23228777094E-01  0.00000000000E+00 0.  1.
     999901    1    3    3    0    0 -0.64026115616E-01  0.93665458895E-01 -0.44412149625E-02  0.88729492620E+00  0.88000000000E+00 0.  1.
        -11    1    4    4    0    0  0.24431313667E-01 -0.38199234786E-01  0.49874668105E-02  0.45620243006E-01  0.51100000000E-03 0. -1.
         11    1    4    4    0    0  0.41814424268E-01 -0.76522242270E-01 -0.10101013033E-01  0.87786053699E-01  0.51100000000E-03 0.  1.
</event>
<event>
 8    1  0.1114333E+005  0.1043930E+01  0.7957747E-01            NaN
         13   -1    0    0    0    0  0.00000000000E+00  0.00000000000E+00  0.74505805969E-08  0.10566000000E+00  0.10566000000E+00 0.  1.
     999900   -1    0    0    0    0 -0.00000000000E+00 -0.00000000000E+00 -0.74505805969E-08  0.93827000000E+00  0.93827000000E+00 0.  1.
     999902    2    1    2    0    0  0.76280887765E-02 -0.15014805808E-01 -0.16494995469E-01  0.10203563493E+01  0.10200839978E+01 0.  0.
     999903    2    3    3    0    0  0.14993139648E-01 -0.11443093697E+00  0.59662383297E-01  0.13145941633E+00  0.20068497403E-01 0.  0.
         14    1    1    2    0    0 -0.76280887765E-02  0.15014805808E-01  0.16494995469E-01  0.23573650701E-01  0.00000000000E+00 0.  1.
     999901    1    3    3    0    0 -0.73650508718E-02  0.99416131161E-01 -0.76157378766E-01  0.88889693297E+00  0.88000000000E+00 0.  1.
        -11    1    4    4    0    0 -0.28315919258E-02 -0.53576155134E-01  0.29672992494E-01  0.61312069907E-01  0.51100000000E-03 0. -1.
         11    1    4    4    0    0  0.17824731574E-01 -0.60854781835E-01  0.29989390803E-01  0.70147346419E-01  0.51100000000E-03 0.  1.
</event>
<event>
 8    1  0.1114333E+005  0.1043930E+01  0.7957747E-01            NaN
         13   -1    0    0    0    0  0.00000000000E+00  0.00000000000E+00  0.74505805969E-08  0.10566000000E+00  0.10566000000E+00 0. -1.
     999900   -1    0    0    0    0 -0.00000000000E+00 -0.00000000000E+00 -0.74505805969E-08  0.93827000000E+00  0.93827000000E+00 0. -1.
     999902    2    1    2    0    0 -0.15401767439E-01  0.19500149186E-01 -0.47092078418E-02  0.10186387585E+01  0.10183247387E+01 0.  0.
     999903    2    3    3    0    0  0.61479997907E-01  0.35047116898E-01 -0.10640872770E+00  0.12931581018E+00  0.19790676791E-01 0.  0.
         14    1    1    2    0    0  0.15401767439E-01 -0.19500149186E-01  0.47092078418E-02  0.25291241508E-01  0.00000000000E+00 0.  1.
     999901    1    3    3    0    0 -0.76881765345E-01 -0.15546967713E-01  0.10169951986E+00  0.88932294831E+00  0.88000000000E+00 0.  1.
        -11    1    4    4    0    0  0.47273364370E-01  0.24913459279E-01 -0.63513818218E-01  0.83004323126E-01  0.51100000000E-03 0.  1.
         11    1    4    4    0    0  0.14206633537E-01  0.10133657619E-01 -0.42894909481E-01  0.46311487058E-01  0.51100000000E-03 0. -1.
</event>
<event>
 8    1  0.1114333E+005  0.1043930E+01  0.7957747E-01            NaN
         13   -1    0    0    0    0  0.00000000000E+00  0.00000000000E+00  0.74505805969E-08  0.10566000000E+00  0.10566000000E+00 0. -1.
     999900   -1    0    0    0    0 -0.00000000000E+00 -0.00000000000E+00 -0.74505805969E-08  0.93827000000E+00  0.93827000000E+00 0. -1.
     999902    2    1    2    0    0  0.83850221438E-02 -0.12661094576E-01 -0.18572685938E-01  0.10199392398E+01  0.10196570484E+01 0.  0.
     999903    2    3    3    0    0 -0.10027295847E+00  0.78373875797E-01  0.57861352101E-02  0.12826257488E+00  0.14855239740E-01 0.  0.
         14    1    1    2    0    0 -0.83850221438E-02  0.12661094576E-01  0.18572685938E-01  0.23990760203E-01  0.00000000000E+00 0. -1.
     999901    1    3    3    0    0  0.10865798061E+00 -0.91034970373E-01 -0.24358821148E-01  0.89167666491E+00  0.88000000000E+00 0.  1.
        -11    1    4    4    0    0 -0.38886078946E-01  0.25894258649E-01  0.83341848669E-02  0.47459029964E-01  0.51100000000E-03 0.  1.
         11    1    4    4    0    0 -0.61386879523E-01  0.52479617148E-01 -0.25480496568E-02  0.80803544920E-01  0.51100000000E-03 0. -1.
</event>
<event>
 8    1  0.1114333E+005  0.1043930E+01  0.7957747E-01            NaN
         13   -1    0    0    0    0  0.00000000000E+00  0.00000000000E+00  0.74505805969E-08  0.10566000000E+00  0.10566000000E+00 0.  1.
     999900   -1    0    0    0    0 -0.00000000000E+00 -0.00000000000E+00 -0.74505805969E-08  0.93827000000E+00  0.93827000000E+00 0. -1.
     999902    2    1    2    0    0 -0.11731400062E-01  0.15394285868E-01  0.12704052642E-01  0.10207782671E+01  0.10205156872E+01 0.  0.
     999903    2    3    3    0    0 -0.83062400785E-01 -0.86975176151E-01 -0.45559741057E-01  0.13006939875E+00  0.19450316082E-01 0.  0.
         14    1    1    2    0    0  0.11731400062E-01 -0.15394285868E-01 -0.12704052642E-01  0.23151732945E-01  0.00000000000E+00 0. -1.
     999901    1    3    3    0    0  0.71331000723E-01  0.10236946202E+00  0.58263793700E-01  0.89070886830E+00  0.88000000000E+00 0.  1.
        -11    1    4    4    0    0 -0.77728382229E-01 -0.72310556612E-01 -0.40979345717E-01  0.11379844418E+00  0.51100000000E-03 0. -1.
         11    1    4    4    0    0 -0.53340185563E-02 -0.14664619540E-01 -0.45803953403E-02  0.16270954572E-01  0.51100000000E-03 0.  1.
</event>
<event>
 8    1  0.1114333E+005  0.1043930E+01  0.7957747E-01            NaN
         13   -1    0    0    0    0  0.00000000000E+00  0.00000000000E+00  0.74505805969E-08  0.10566000000E+00  0.10566000000E+00 0.  1.
     999900   -1    0    0    0    0 -0.00000000000E+00 -0.00000000000E+00 -0.74505805969E-08  0.93827000000E+00  0.93827000000E+00 0.  1.
     999902    2    1    2    0    0 -0.89734758207E-02 -0.21262599111E-01  0.58667942851E-02  0.10201173843E+01  0.10198394173E+01 0.  0.
     999903    2    3    3    0    0  0.11647444095E+00 -0.54610393740E-01 -0.74139084422E-02  0.13049632328E+00  0.20633318965E-01 0.  0.
         14    1    1    2    0    0  0.89734758207E-02  0.21262599111E-01 -0.58667942851E-02  0.23812615657E-01  0.00000000000E+00 0.  1.
     999901    1    3    3    0    0 -0.12544791677E+00  0.33347794629E-01  0.13280702727E-01  0.88962106107E+00  0.88000000000E+00 0. -1.
        -11    1    4    4    0    0  0.28230805955E-01 -0.23071651540E-01  0.33868438836E-03  0.36464439359E-01  0.51100000000E-03 0. -1.
         11    1    4    4    0    0  0.88243634993E-01 -0.31538742200E-01 -0.77525928306E-02  0.94031883917E-01  0.51100000000E-03 0.  1.
</event>
<event>
 8    1  0.1114333E+005  0.1043930E+01  0.7957747E-01            NaN
         13   -1    0    0    0    0  0.00000000000E+00  0.00000000000E+00  0.74505805969E-08  0.10566000000E+00  0.10566000000E+00 0.  1.
     999900   -1    0    0    0    0 -0.00000000000E+00 -0.00000000000E+00 -0.74505805969E-08  0.93827000000E+00  0.93827000000E+00 0. -1.
     999902    2    1    2    0    0 -0.77450348248E-02  0.13806701417E-01 -0.18833416949E-01  0.10193269888E+01  0.10190300299E+01 0.  0.
     999903    2    3    3    0    0  0.10249584877E+00  0.27082998454E-01  0.68731760288E-01  0.12803748879E+00  0.20752249091E-01 0.  0.
         14    1    1    2    0    0  0.77450348248E-02 -0.13806701417E-01  0.18833416949E-01  0.24603011247E-01  0.00000000000E+00 0.  1.
     999901    1    3    3    0    0 -0.11024088360E+00 -0.13276297037E-01 -0.87565177236E-01  0.89128949996E+00  0.88000000000E+00 0.  1.
        -11    1    4    4    0    0  0.26526725658E-01  0.12260815207E-01  0.10059831842E-01  0.30910452947E-01  0.51100000000E-03 0. -1.
         11    1    4    4    0    0  0.75969123115E-01  0.14822183247E-01  0.58671928446E-01  0.97127035843E-01  0.51100000000E-03 0.  1.
</event>
<event>
 8    1  0.1114333E+005  0.1043930E+01  0.7957747E-01            NaN
         13   -1    0    0    0    0  0.00000000000E+00  0.00000000000E+00  0.74505805969E-08  0.10566000000E+00  0.10566000000E+00 0. -1.
     999900   -1    0    0    0    0 -0.00000000000E+00 -0.00000000000E+00 -0.74505805969E-08  0.93827000000E+00  0.93827000000E+00 0. -1.
     999902    2    1    2    0    0 -0.22462568167E-01  0.25153087513E-02  0.98445974689E-02  0.10192762002E+01  0.10189779990E+01 0.  0.
     999903    2    3    3    0    0  0.39226003799E-01  0.26463227919E-01 -0.11685374174E+00  0.12774299725E+00  0.20603266281E-01 0.  0.
         14    1    1    2    0    0  0.22462568167E-01 -0.25153087513E-02 -0.98445974689E-02  0.24653799831E-01  0.00000000000E+00 0.  1.
     999901    1    3    3    0    0 -0.61688571966E-01 -0.23947919167E-01  0.12669833921E+00  0.89153320292E+00  0.88000000000E+00 0.  1.
        -11    1    4    4    0    0  0.10375362507E-01  0.87241402726E-02 -0.60423975341E-01  0.61927995993E-01  0.51100000000E-03 0.  1.
         11    1    4    4    0    0  0.28850641292E-01  0.17739087646E-01 -0.56429766403E-01  0.65815001260E-01  0.51100000000E-03 0. -1.
</event>
<event>
 8    1  0.1114333E+005  0.1043930E+01  0.7957747E-01            NaN
         13   -1    0    0    0    0  0.00000000000E+00  0.00000000000E+00  0.74505805969E-08  0.10566000000E+00  0.10566000000E+00 0.  1.
     999900   -1    0    0    0    0 -0.00000000000E+00 -0.00000000000E+00 -0.74505805969E-08  0.93827000000E+00  0.93827000000E+00 0.  1.
     999902    2    1    2    0    0 -0.19355037478E-01  0.88655137098E-02  0.99093397065E-02  0.10204478829E+01  0.10201776668E+01 0.  0.
     999903    2    3    3    0    0  0.11301061501E+00 -0.50709608615E-01 -0.24276759824E-01  0.12790177735E+00  0.20655267401E-01 0.  0.
         14    1    1    2    0    0  0.19355037478E-01 -0.88655137098E-02 -0.99093397065E-02  0.23482117080E-01  0.00000000000E+00 0. -1.
     999901    1    3    3    0    0 -0.13236565249E+00  0.59575122325E-01  0.34186099531E-01  0.89254610557E+00  0.88000000000E+00 0. -1.
        -11    1    4    4    0    0  0.51865450934E-01 -0.34483387164E-01 -0.10685286746E-01  0.63194663261E-01  0.51100000000E-03 0. -1.
         11    1    4    4    0    0  0.61145164079E-01 -0.16226221451E-01 -0.13591473078E-01  0.64707114093E-01  0.51100000000E-03 0.  1.
</event>
<event>
 8    1  0.1114333E+005  0.1043930E+01  0.7957747E-01            NaN
         13   -1    0    0    0    0  0.00000000000E+00  0.00000000000E+00  0.74505805969E-08  0.10566000000E+00  0.10566000000E+00 0. -1.
     999900   -1    0    0    0    0 -0.00000000000E+00 -0.00000000000E+00 -0.74505805969E-08  0.93827000000E+00  0.93827000000E+00 0.  1.
     999902    2    1    2    0    0 -0.64615615730E-02 -0.14153688055E-01 -0.17715314092E-01  0.10203522347E+01  0.10200797870E+01 0.  0.
     999903    2    3    3    0    0 -0.55153996046E-01  0.63235540081E-01 -0.99546131770E-01  0.13183868470E+00  0.20767995156E-01 0.  0.
         14    1    1    2    0    0  0.64615615730E-02  0.14153688055E-01  0.17715314092E-01  0.23577765307E-01  0.00000000000E+00 0. -1.
     999901    1    3    3    0    0  0.48692434473E-01 -0.77389228136E-01  0.81830817678E-01  0.88851355000E+00  0.88000000000E+00 0. -1.
        -11    1    4    4    0    0 -0.24707465986E-01  0.24779121926E-01 -0.57099012254E-01  0.66970307452E-01  0.51100000000E-03 0.  1.
         11    1    4    4    0    0 -0.30446530061E-01  0.38456418154E-01 -0.42447119515E-01  0.64868377243E-01  0.51100000000E-03 0. -1.
</event>
<event>
 8    1  0.1114333E+005  0.1043930E+01  0.7957747E-01            NaN
         13   -1    0    0    0    0  0.00000000000E+00  0.00000000000E+00  0.74505805969E-08  0.10566000000E+00  0.10566000000E+00 0. -1.
     999900   -1    0    0    0    0 -0.00000000000E+00 -0.00000000000E+00 -0.74505805969E-08  0.93827000000E+00  0.93827000000E+00 0. -1.
     999902    2    1    2    0    0 -0.21336773481E-01  0.68125870745E-02 -0.31043063194E-02  0.10213179244E+01  0.10210675770E+01 0.  0.
     999903    2    3    3    0    0 -0.49049782153E-01  0.12043772689E+00  0.20239291608E-01  0.13327310188E+00  0.20999132611E-01 0.  0.
         14    1    1    2    0    0  0.21336773481E-01 -0.68125870745E-02  0.31043063194E-02  0.22612075600E-01  0.00000000000E+00 0. -1.
     999901    1    3    3    0    0  0.27713008672E-01 -0.11362513982E+00 -0.23343597928E-01  0.88804482252E+00  0.88000000000E+00 0. -1.
        -11    1    4    4    0    0 -0.29307230016E-01  0.45402641667E-01  0.58296704771E-02  0.54355862429E-01  0.51100000000E-03 0. -1.
         11    1    4    4    0    0 -0.19742552137E-01  0.75035085225E-01  0.14409621131E-01  0.78917239446E-01  0.51100000000E-03 0.  1.
</event>
<event>
 8    1  0.1114333E+005  0.1043930E+01  0.7957747E-01            NaN
         13   -1    0    0    0    0  0.00000000000E+00  0.00000000000E+00  0.74505805969E-08  0.10566000000E+00  0.10566000000E+00 0. -1.
     999900   -1    0    0    0    0 -0.00000000000E+00 -0.00000000000E+00 -0.74505805969E-08  0.93827000000E+00  0.93827000000E+00 0.  1.
     999902    2    1    2    0    0  0.11494626273E-01  0.17448827434E-01  0.82942671979E-02  0.10214492776E+01  0.10212018624E+01 0.  0.
     999903    2    3    3    0    0  0.70540498697E-02  0.12787441024E+00  0.34306735385E-01  0.13415554011E+00  0.20472724224E-01 0.  0.
         14    1    1    2    0    0 -0.11494626273E-01 -0.17448827434E-01 -0.82942671979E-02  0.22480722415E-01  0.00000000000E+00 0.  1.
     999901    1    3    3    0    0  0.44405764028E-02 -0.11042558280E+00 -0.26012468188E-01  0.88729373747E+00  0.88000000000E+00 0.  1.
        -11    1    4    4    0    0  0.20510656984E-02  0.10103177875E+00  0.18920725632E-01  0.10280993224E+00  0.51100000000E-03 0.  1.
         11    1    4    4    0    0  0.50029841712E-02  0.26842631490E-01  0.15386009754E-01  0.31345607875E-01  0.51100000000E-03 0. -1.
</event>
<event>
 8    1  0.1114333E+005  0.1043930E+01  0.7957747E-01            NaN
         13   -1    0    0    0    0  0.00000000000E+00  0.00000000000E+00  0.74505805969E-08  0.10566000000E+00  0.10566000000E+00 0. -1.
     999900   -1    0    0    0    0 -0.00000000000E+00 -0.00000000000E+00 -0.74505805969E-08  0.93827000000E+00  0.93827000000E+00 0.  1.
     999902    2    1    2    0    0  0.11139503196E-01  0.65402369122E-02 -0.19769290136E-01  0.10203145800E+01  0.10200412512E+01 0.  0.
     999903    2    3    3    0    0 -0.37933444214E-02 -0.69471640810E-01  0.10546579090E+00  0.12807883702E+00  0.20987069933E-01 0.  0.
         14    1    1    2    0    0 -0.11139503196E-01 -0.65402369122E-02  0.19769290136E-01  0.23615420021E-01  0.00000000000E+00 0. -1.
     999901    1    3    3    0    0  0.14932847618E-01  0.76011877722E-01 -0.12523508103E+00  0.89223574296E+00  0.88000000000E+00 0.  1.
        -11    1    4    4    0    0  0.80156786258E-02 -0.41631621009E-01  0.63265871776E-01  0.76159534034E-01  0.51100000000E-03 0. -1.
         11    1    4    4    0    0 -0.11809023047E-01 -0.27840019801E-01  0.42199919120E-01  0.51919302986E-01  0.51100000000E-03 0.  1.
</event>
<event>
 8    1  0.1114333E+005  0.1043930E+01  0.7957747E-01            NaN
         13   -1    0    0    0    0  0.00000000000E+00  0.00000000000E+00  0.74505805969E-08  0.10566000000E+00  0.10566000000E+00 0.  1.
     999900   -1    0    0    0    0 -0.00000000000E+00 -0.00000000000E+00 -0.74505805969E-08  0.93827000000E+00  0.93827000000E+00 0.  1.
     999902    2    1    2    0    0  0.75837509020E-02  0.21353754921E-01  0.58200351301E-02  0.10205340829E+01  0.10202658700E+01 0.  0.
     999903    2    3    3    0    0  0.90592502681E-01 -0.86821695829E-01  0.26386707373E-01  0.12979541809E+00  0.20139111780E-01 0.  0.
         14    1    1    2    0    0 -0.75837509020E-02 -0.21353754921E-01 -0.58200351301E-02  0.23395917077E-01  0.00000000000E+00 0.  1.
     999901    1    3    3    0    0 -0.83008751779E-01  0.10817545075E+00 -0.20566672243E-01  0.89073866483E+00  0.88000000000E+00 0.  1.
        -11    1    4    4    0    0  0.71589753094E-01 -0.78504213129E-01  0.23860932730E-01  0.10889265108E+00  0.51100000000E-03 0.  1.
         11    1    4    4    0    0  0.19002749587E-01 -0.83174826996E-02  0.25257746432E-02  0.20902767014E-01  0.51100000000E-03 0. -1.
</event>
<event>
 8    1  0.1114333E+005  0.1043930E+01  0.7957747E-01            NaN
         13   -1    0    0    0    0  0.00000000000E+00  0.00000000000E+00  0.74505805969E-08  0.10566000000E+00  0.10566000000E+00 0.  1.
     999900   -1    0    0    0    0 -0.00000000000E+00 -0.00000000000E+00 -0.74505805969E-08  0.93827000000E+00  0.93827000000E+00 0.  1.
     999902    2    1    2    0    0 -0.32969117528E-02 -0.17075170607E-01 -0.16172944360E-01  0.10201814167E+01  0.10199049602E+01 0.  0.
     999903    2    3    3    0    0 -0.15175517426E-01  0.25124986540E-01  0.12308030795E+00  0.12815371378E+00  0.20323653081E-01 0.  0.
         14    1    1    2    0    0  0.32969117528E-02  0.17075170607E-01  0.16172944360E-01  0.23748583276E-01  0.00000000000E+00 0.  1.
     999901    1    3    3    0    0  0.11878605673E-01 -0.42200157147E-01 -0.13925325231E+00  0.89202770294E+00  0.88000000000E+00 0.  1.
        -11    1    4    4    0    0 -0.16598528599E-01  0.13700325810E-01  0.54253531324E-01  0.58368800408E-01  0.51100000000E-03 0.  1.
         11    1    4    4    0    0  0.14230111729E-02  0.11424660730E-01  0.68826776622E-01  0.69784913375E-01  0.51100000000E-03 0. -1.
</event>
<event>
 8    1  0.1114333E+005  0.1043930E+01  0.7957747E-01            NaN
         13   -1    0    0    0    0  0.00000000000E+00  0.00000000000E+00  0.74505805969E-08  0.10566000000E+00  0.10566000000E+00 0. -1.
     999900   -1    0    0    0    0 -0.00000000000E+00 -0.00000000000E+00 -0.74505805969E-08  0.93827000000E+00  0.93827000000E+00 0. -1.
     999902    2    1    2    0    0  0.13312263235E-01 -0.14580044684E-01 -0.13029914652E-01  0.10202747103E+01  0.10200004469E+01 0.  0.
     999903    2    3    3    0    0 -0.27353212750E-01 -0.53307582789E-01  0.11307664833E+00  0.12951303152E+00  0.19934901685E-01 0.  0.
         14    1    1    2    0    0 -0.13312263235E-01  0.14580044684E-01  0.13029914652E-01  0.23655289710E-01  0.00000000000E+00 0. -1.
     999901    1    3    3    0    0  0.40665475985E-01  0.38727538104E-01 -0.12610656298E+00  0.89076167877E+00  0.88000000000E+00 0. -1.
        -11    1    4    4    0    0 -0.18235179838E-01 -0.20814770685E-01  0.66171216399E-01  0.71726337305E-01  0.51100000000E-03 0.  1.
         11    1    4    4    0    0 -0.91180329116E-02 -0.32492812104E-01  0.46905431928E-01  0.57786694212E-01  0.51100000000E-03 0. -1.
</event>
<event>
 8    1  0.1114333E+005  0.1043930E+01  0.7957747E-01            NaN
         13   -1    0    0    0    0  0.00000000000E+00  0.00000000000E+00  0.74505805969E-08  0.10566000000E+00  0.10566000000E+00 0. -1.
     999900   -1    0    0    0    0 -0.00000000000E+00 -0.00000000000E+00 -0.74505805969E-08  0.93827000000E+00  0.93827000000E+00 0. -1.
     999902    2    1    2    0    0 -0.12179404249E-01  0.11684823125E-01  0.14337168016E-01  0.10217844053E+01  0.10215443913E+01 0.  0.
     999903    2    3    3    0    0  0.44856896996E-01  0.10060692637E+00  0.72750350926E-01  0.13354323304E+00  0.20181345082E-01 0.  0.
         14    1    1    2    0    0  0.12179404249E-01 -0.11684823125E-01 -0.14337168016E-01  0.22145594732E-01  0.00000000000E+00 0.  1.
     999901    1    3    3    0    0 -0.57036301245E-01 -0.88922103243E-01 -0.58413182910E-01  0.88824117223E+00  0.88000000000E+00 0. -1.
        -11    1    4    4    0    0  0.22116557448E-01  0.54715852864E-01  0.27140741935E-01  0.64960354538E-01  0.51100000000E-03 0.  1.
         11    1    4    4    0    0  0.22740339549E-01  0.45891073504E-01  0.45609608991E-01  0.68582878501E-01  0.51100000000E-03 0. -1.
</event>
<event>
 8    1  0.1114333E+005  0.1043930E+01  0.7957747E-01            NaN
         13   -1    0    0    0    0  0.00000000000E+00  0.00000000000E+00  0.74505805969E-08  0.10566000000E+00  0.10566000000E+00 0.  1.
     999900   -1    0    0    0    0 -0.00000000000E+00 -0.00000000000E+00 -0.74505805969E-08  0.93827000000E+00  0.93827000000E+00 0. -1.
     999902    2    1    2    0    0  0.23468395198E-04 -0.86273132351E-02  0.21996756081E-01  0.10203018735E+01  0.10200282470E+01 0.  0.
     999903    2    3    3    0    0  0.19726476657E-01  0.88970454944E-01 -0.87527521684E-01  0.12794034344E+00  0.20069596240E-01 0.  0.
         14    1    1    2    0    0 -0.23468395198E-04  0.86273132351E-02 -0.21996756081E-01  0.23628126513E-01  0.00000000000E+00 0.  1.
     999901    1    3    3    0    0 -0.19703008262E-01 -0.97597768179E-01  0.10952427776E+00  0.89236153005E+00  0.88000000000E+00 0.  1.
        -11    1    4    4    0    0  0.15466157857E-01  0.28854129186E-01 -0.25967261800E-01  0.41789025070E-01  0.51100000000E-03 0.  1.
         11    1    4    4    0    0  0.42603188002E-02  0.60116325758E-01 -0.61560259884E-01  0.86151318370E-01  0.51100000000E-03 0. -1.
</event>
<event>
 8    1  0.1114333E+005  0.1043930E+01  0.7957747E-01            NaN
         13   -1    0    0    0    0  0.00000000000E+00  0.00000000000E+00  0.74505805969E-08  0.10566000000E+00  0.10566000000E+00 0.  1.
     999900   -1    0    0    0    0 -0.00000000000E+00 -0.00000000000E+00 -0.74505805969E-08  0.93827000000E+00  0.93827000000E+00 0.  1.
     999902    2    1    2    0    0 -0.22355695726E-01  0.74564372999E-02 -0.67836201674E-03  0.10203538306E+01  0.10200814202E+01 0.  0.
     999903    2    3    3    0    0 -0.10515549511E+00  0.51528967252E-01  0.60273163842E-01  0.13327250221E+00  0.20391001610E-01 0.  0.
         14    1    1    2    0    0  0.22355695726E-01 -0.74564372999E-02  0.67836201674E-03  0.23576169401E-01  0.00000000000E+00 0.  1.
     999901    1    3    3    0    0  0.82799799388E-01 -0.44072529952E-01 -0.60951525859E-01  0.88708132839E+00  0.88000000000E+00 0.  1.
        -11    1    4    4    0    0 -0.29208948795E-01  0.11515028460E-01  0.67779626252E-02  0.32124141522E-01  0.51100000000E-03 0.  1.
         11    1    4    4    0    0 -0.75946546318E-01  0.40013938792E-01  0.53495201217E-01  0.10114836069E+00  0.51100000000E-03 0. -1.
</event>
<event>
 8    1  0.1114333E+005  0.1043930E+01  0.7957747E-01            NaN
         13   -1    0    0    0    0  0.00000000000E+00  0.00000000000E+00  0.74505805969E-08  0.10566000000E+00  0.10566000000E+00 0. -1.
     999900   -1    0    0    0    0 -0.00000000000E+00 -0.00000000000E+00 -0.74505805969E-08  0.93827000000E+00  0.93827000000E+00 0.  1.
     999902    2    1    2    0    0 -0.59774779902E-02  0.54916754160E-02  0.22542025810E-01  0.10199710420E+01  0.10196896071E+01 0.  0.
     999903    2    3    3    0    0  0.11804941600E+00  0.43201936141E-01 -0.22776750746E-01  0.12932042265E+00  0.20072853188E-01 0.  0.
         14    1    1    2    0    0  0.59774779902E-02 -0.54916754160E-02 -0.22542025810E-01  0.23958958025E-01  0.00000000000E+00 0.  1.
     999901    1    3    3    0    0 -0.12402689399E+00 -0.37710260725E-01  0.45318776556E-01  0.89065061933E+00  0.88000000000E+00 0. -1.
        -11    1    4    4    0    0  0.42017663373E-01  0.65560592463E-02 -0.30268889404E-02  0.42636711011E-01  0.51100000000E-03 0. -1.
         11    1    4    4    0    0  0.76031752628E-01  0.36645876894E-01 -0.19749861805E-01  0.86683711638E-01  0.51100000000E-03 0.  1.
</event>
<event>
 8    1  0.1114333E+005  0.1043930E+01  0.7957747E-01            NaN
         13   -1    0    0    0    0  0.00000000000E+00  0.00000000000E+00  0.74505805969E-08  0.10566000000E+00  0.10566000000E+00 0.  1.
     999900   -1    0    0    0    0 -0.00000000000E+00 -0.00000000000E+00 -0.74505805969E-08  0.93827000000E+00  0.93827000000E+00 0. -1.
     999902    2    1    2    0    0  0.16528175384E-01  0.14348208229E-01  0.92790760608E-02  0.10201570550E+01  0.10198800243E+01 0.  0.
     999903    2    3    3    0    0  0.92572184118E-01 -0.88300733841E-01  0.19771486731E-01  0.13087105644E+00  0.19227398606E-01 0.  0.
         14    1    1    2    0    0 -0.16528175384E-01 -0.14348208229E-01 -0.92790760608E-02  0.23772944989E-01  0.00000000000E+00 0.  1.
     999901    1    3    3    0    0 -0.76044008734E-01  0.10264894207E+00 -0.10492410670E-01  0.88928599857E+00  0.88000000000E+00 0. -1.
        -11    1    4    4    0    0  0.87438785254E-02 -0.15255150013E-01 -0.15383267898E-02  0.17657932605E-01  0.51100000000E-03 0. -1.
         11    1    4    4    0    0  0.83828305593E-01 -0.73045583828E-01  0.21309813521E-01  0.11321312384E+00  0.51100000000E-03 0.  1.
</event>
<event>
 8    1  0.1114333E+005  0.1043930E+01  0.7957747E-01            NaN
         13   -1    0    0    0    0  0.00000000000E+00  0.00000000000E+00  0.74505805969E-08  0.10566000000E+00  0.10566000000E+00 0.  1.
     999900   -1    0    0    0    0 -0.00000000000E+00 -0.00000000000E+00 -0.74505805969E-08  0.93827000000E+00  0.93827000000E+00 0.  1.
     999902    2    1    2    0    0 -0.12814356237E-01  0.10032375316E-01 -0.18318279853E-01  0.10194266195E+01  0.10191320900E+01 0.  0.
     999903    2    3    3    0    0  0.40964982689E-01 -0.79729253697E-01  0.87339430770E-01  0.12695089479E+00  0.21294830821E-01 0.  0.
         14    1    1    2    0    0  0.12814356237E-01 -0.10032375316E-01  0.18318279853E-01  0.24503380522E-01  0.00000000000E+00 0.  1.
     999901    1    3    3    0    0 -0.53779338927E-01  0.89761629012E-01 -0.10565771062E+00  0.89247572469E+00  0.88000000000E+00 0.  1.
        -11    1    4    4    0    0  0.27935689225E-01 -0.70651707429E-01  0.68396714682E-01  0.10222738476E+00  0.51100000000E-03 0. -1.
         11    1    4    4    0    0  0.13029293464E-01 -0.90775462673E-02  0.18942716088E-01  0.24723510030E-01  0.51100000000E-03 0.  1.
</event>
<event>
 8    1  0.1114333E+005  0.1043930E+01  0.7957747E-01            NaN
         13   -1    0    0    0    0  0.00000000000E+00  0.00000000000E+00  0.74505805969E-08  0.10566000000E+00  0.10566000000E+00 0.  1.
     999900   -1    0    0    0    0 -0.00000000000E+00 -0.00000000000E+00 -0.74505805969E-08  0.93827000000E+00  0.93827000000E+00 0.  1.
     999902    2    1    2    0    0  0.13552516638E-01 -0.13934843137E-01 -0.12305684284E-01  0.10209239046E+01  0.10206646553E+01 0.  0.
     999903    2    3    3    0    0  0.11287500158E+00  0.33211459545E-01 -0.59280521968E-01  0.13283924351E+00  0.16979908793E-01 0.  0.
         14    1    1    2    0    0 -0.13552516638E-01  0.13934843137E-01  0.12305684284E-01  0.23006095413E-01  0.00000000000E+00 0.  1.
     999901    1    3    3    0    0 -0.99322484946E-01 -0.47146302682E-01  0.46974837683E-01  0.88808466108E+00  0.88000000000E+00 0. -1.
        -11    1    4    4    0    0  0.76000061226E-01  0.13965506376E-01 -0.37909503475E-01  0.86072273407E-01  0.51100000000E-03 0.  1.
         11    1    4    4    0    0  0.36874940358E-01  0.19245953169E-01 -0.21371018493E-01  0.46766970098E-01  0.51100000000E-03 0. -1.
</event>
<event>
 8    1  0.1114333E+005  0.1043930E+01  0.7957747E-01            NaN
         13   -1    0    0    0    0  0.00000000000E+00  0.00000000000E+00  0.74505805969E-08  0.10566000000E+00  0.10566000000E+00 0.  1.
     999900   -1    0    0    0    0 -0.00000000000E+00 -0.00000000000E+00 -0.74505805969E-08  0.93827000000E+00  0.93827000000E+00 0.  1.
     999902    2    1    2    0    0 -0.69204529340E-02 -0.58964137646E-02  0.19173004662E-01  0.10227105638E+01  0.10224904072E+01 0.  0.
     999903    2    3    3    0    0 -0.10971286175E+00 -0.57924768415E-01 -0.43847943398E-01  0.13296629219E+00  0.19110256118E-01 0.  0.
         14    1    1    2    0    0  0.69204529340E-02  0.58964137646E-02 -0.19173004662E-01  0.21219436181E-01  0.00000000000E+00 0. -1.
     999901    1    3    3    0    0  0.10279240882E+00  0.52028354651E-01  0.63020948060E-01  0.88974427163E+00  0.88000000000E+00 0. -1.
        -11    1    4    4    0    0 -0.63975339543E-01 -0.31245598224E-01 -0.34789769642E-01  0.79244688597E-01  0.51100000000E-03 0. -1.
         11    1    4    4    0    0 -0.45737522210E-01 -0.26679170191E-01 -0.90581737558E-02  0.53721603595E-01  0.51100000000E-03 0.  1.
</event>
<event>
 8    1  0.1114333E+005  0.1043930E+01  0.7957747E-01            NaN
         13   -1    0    0    0    0  0.00000000000E+00  0.00000000000E+00  0.74505805969E-08  0.10566000000E+00  0.10566000000E+00 0.  1.
     999900   -1    0    0    0    0 -0.00000000000E+00 -0.00000000000E+00 -0.74505805969E-08  0.93827000000E+00  0.93827000000E+00 0. -1.
     999902    2    1    2    0    0  0.22794849791E-01  0.50431332379E-03 -0.66867720143E-02  0.10201692671E+01  0.10198925243E+01 0.  0.
     999903    2    3    3    0    0  0.11144244660E+00 -0.25105980246E-01 -0.65716189554E-01  0.13337799756E+00  0.20526653803E-01 0.  0.
         14    1    1    2    0    0 -0.22794849791E-01 -0.50431332379E-03  0.66867720143E-02  0.23760732920E-01  0.00000000000E+00 0.  1.
     999901    1    3    3    0    0 -0.88647596807E-01  0.25610293570E-01  0.59029417540E-01  0.88679126952E+00  0.88000000000E+00 0.  1.
        -11    1    4    4    0    0  0.57810742367E-01 -0.37275763055E-02 -0.38404002977E-01  0.69506153136E-01  0.51100000000E-03 0. -1.
         11    1    4    4    0    0  0.53631704231E-01 -0.21378403941E-01 -0.27312186577E-01  0.63871844427E-01  0.51100000000E-03 0.  1.
</event>
<event>
 7    1  0.1114333E+005  0.1043930E+01  0.7957747E-01            NaN
         13   -1    0    0    0    0  0.00000000000E+00  0.00000000000E+00  0.74505805969E-08  0.10566000000E+00  0.10566000000E+00 0.  1.
     999900   -1    0    0    0    0 -0.00000000000E+00 -0.00000000000E+00 -0.74505805969E-08  0.93827000000E+00  0.93827000000E+00 0. -1.
     999902    2    1    2    0    0 -0.14067064572E-01  0.16910966876E-01 -0.70139751961E-02  0.10208419305E+01  0.10205808092E+01 0.  0.
         14    1    1    2    0    0  0.14067064572E-01 -0.16910966876E-01  0.70139751961E-02  0.23088069525E-01  0.00000000000E+00 0. -1.
     999901    1    3    3    0    0 -0.94725905984E-01 -0.71359014836E-01  0.25102749593E-01  0.88831033671E+00  0.88000000000E+00 0.  1.
        -11    1    3    3    0    0  0.15553594315E-02  0.19419061030E-02 -0.13782393830E-01  0.14014479761E-01  0.51100000000E-03 0.  1.
         11    1    3    3    0    0  0.79103481981E-01  0.86328075610E-01 -0.18334330959E-01  0.11851711401E+00  0.51100000000E-03 0. -1.
</event>
<event>
 8    1  0.1114333E+005  0.1043930E+01  0.7957747E-01            NaN
         13   -1    0    0    0    0  0.00000000000E+00  0.00000000000E+00  0.74505805969E-08  0.10566000000E+00  0.10566000000E+00 0. -1.
     999900   -1    0    0    0    0 -0.00000000000E+00 -0.00000000000E+00 -0.74505805969E-08  0.93827000000E+00  0.93827000000E+00 0. -1.
     999902    2    1    2    0    0 -0.13334153659E-01 -0.90078547730E-02 -0.21664548972E-01  0.10169430813E+01  0.10165849383E+01 0.  0.
     999903    2    3    3    0    0  0.61716818909E-01  0.31172104714E-01  0.10130536444E+00  0.12432408233E+00  0.20323255977E-01 0.  0.
         14    1    1    2    0    0  0.13334153659E-01  0.90078547730E-02  0.21664548972E-01  0.26986918749E-01  0.00000000000E+00 0. -1.
     999901    1    3    3    0    0 -0.75050972568E-01 -0.40179959487E-01 -0.12296991342E+00  0.89261899892E+00  0.88000000000E+00 0. -1.
        -11    1    4    4    0    0  0.60381563071E-01  0.26869111399E-01  0.99485312411E-01  0.11943814639E+00  0.51100000000E-03 0.  1.
         11    1    4    4    0    0  0.13352558386E-02  0.43029933151E-02  0.18200520334E-02  0.48859359419E-02  0.51100000000E-03 0. -1.
</event>
<event>
 8    1  0.1114333E+005  0.1043930E+01  0.7957747E-01            NaN
         13   -1    0    0    0    0  0.00000000000E+00  0.00000000000E+00  0.74505805969E-08  0.10566000000E+00  0.10566000000E+00 0. -1.
     999900   -1    0    0    0    0 -0.00000000000E+00 -0.00000000000E+00 -0.74505805969E-08  0.93827000000E+00  0.93827000000E+00 0. -1.
     999902    2    1    2    0    0 -0.22608725128E-01  0.15252455252E-03  0.56874846843E-04  0.10213206889E+01  0.10210704033E+01 0.  0.
     999903    2    3    3    0    0 -0.42016514594E-01 -0.43255830363E-01 -0.11646868307E+00  0.13236672311E+00  0.17875706716E-01 0.  0.
         14    1    1    2    0    0  0.22608725128E-01 -0.15252455252E-03 -0.56874846843E-04  0.22609311144E-01  0.00000000000E+00 0.  1.
     999901    1    3    3    0    0  0.19407789465E-01  0.43408354916E-01  0.11652555792E+00  0.88895396575E+00  0.88000000000E+00 0.  1.
        -11    1    4    4    0    0 -0.58870372160E-02 -0.17340894890E-01 -0.30493621239E-01  0.35573668633E-01  0.51100000000E-03 0. -1.
         11    1    4    4    0    0 -0.36129477378E-01 -0.25914935473E-01 -0.85975061835E-01  0.96793054476E-01  0.51100000000E-03 0.  1.
</event>
<event>
 8    1  0.1114333E+005  0.1043930E+01  0.7957747E-01            NaN
         13   -1    0    0    0    0  0.00000000000E+00  0.00000000000E+00  0.74505805969E-08  0.10566000000E+00  0.10566000000E+00 0. -1.
     999900   -1    0    0    0    0 -0.00000000000E+00 -0.00000000000E+00 -0.74505805969E-08  0.93827000000E+00  0.93827000000E+00 0.  1.
     999902    2    1    2    0    0  0.83840214298E-02 -0.22172751536E-01  0.45385922324E-02  0.10197945169E+01  0.10195088696E+01 0.  0.
     999903    2    3    3    0    0  0.74025597134E-01 -0.27792118728E-02  0.10676773854E+00  0.13123628908E+00  0.18333044665E-01 0.  0.
         14    1    1    2    0    0 -0.83840214298E-02  0.22172751536E-01 -0.45385922324E-02  0.24135483121E-01  0.00000000000E+00 0. -1.
     999901    1    3    3    0    0 -0.65641575705E-01 -0.19393539663E-01 -0.10222914631E+00  0.88855822780E+00  0.88000000000E+00 0.  1.
        -11    1    4    4    0    0  0.29515505093E-01  0.68503310004E-02  0.49880403208E-01  0.58364439695E-01  0.51100000000E-03 0. -1.
         11    1    4    4    0    0  0.44510092041E-01 -0.96295428732E-02  0.56887335337E-01  0.72871849381E-01  0.51100000000E-03 0.  1.
</event>
<event>
 8    1  0.1114333E+005  0.1043930E+01  0.7957747E-01            NaN
         13   -1    0    0    0    0  0.00000000000E+00  0.00000000000E+00  0.74505805969E-08  0.10566000000E+00  0.10566000000E+00 0.  1.
     999900   -1    0    0    0    0 -0.00000000000E+00 -0.00000000000E+00 -0.74505805969E-08  0.93827000000E+00  0.93827000000E+00 0. -1.
     999902    2    1    2    0    0 -0.20915281563E-01 -0.91998871250E-02 -0.66069193677E-02  0.10201447460E+01  0.10198674249E+01 0.  0.
     999903    2    3    3    0    0 -0.87915743788E-01 -0.40351819817E-01  0.87587296680E-01  0.13203886535E+00  0.20131568607E-01 0.  0.
         14    1    1    2    0    0  0.20915281563E-01  0.91998871250E-02  0.66069193677E-02  0.23785254035E-01  0.00000000000E+00 0.  1.
     999901    1    3    3    0    0  0.67000462225E-01  0.31151932692E-01 -0.94194216047E-01  0.88810588062E+00  0.88000000000E+00 0. -1.
        -11    1    4    4    0    0 -0.87389299926E-01 -0.40107479400E-01  0.81921656336E-01  0.12632069721E+00  0.51100000000E-03 0.  1.
         11    1    4    4    0    0 -0.52644386211E-03 -0.24434041701E-03  0.56656403431E-02  0.57181681400E-02  0.51100000000E-03 0. -1.
</event>
<event>
 8    1  0.1114333E+005  0.1043930E+01  0.7957747E-01            NaN
         13   -1    0    0    0    0  0.00000000000E+00  0.00000000000E+00  0.74505805969E-08  0.10566000000E+00  0.10566000000E+00 0.  1.
     999900   -1    0    0    0    0 -0.00000000000E+00 -0.00000000000E+00 -0.74505805969E-08  0.93827000000E+00  0.93827000000E+00 0. -1.
     999902    2    1    2    0    0 -0.14162586089E-01 -0.18273761899E-01  0.55388000438E-02  0.10201563271E+01  0.10198792792E+01 0.  0.
     999903    2    3    3    0    0  0.94587040653E-01  0.77454783965E-01  0.31636640373E-01  0.12792791849E+00  0.20462734322E-01 0.  0.
         14    1    1    2    0    0  0.14162586089E-01  0.18273761899E-01 -0.55388000438E-02  0.23773672930E-01  0.00000000000E+00 0. -1.
     999901    1    3    3    0    0 -0.10874962674E+00 -0.95728545864E-01 -0.26097840330E-01  0.89222840858E+00  0.88000000000E+00 0. -1.
        -11    1    4    4    0    0  0.12667330309E-01  0.12762472728E-01 -0.23676176816E-02  0.18144109286E-01  0.51100000000E-03 0. -1.
         11    1    4    4    0    0  0.81919710344E-01  0.64692311237E-01  0.34004258055E-01  0.10978380920E+00  0.51100000000E-03 0.  1.
</event>
<event>
 8    1  0.1114333E+005  0.1043930E+01  0.7957747E-01            NaN
         13   -1    0    0    0    0  0.00000000000E+00  0.00000000000E+00  0.74505805969E-08  0.10566000000E+00  0.10566000000E+00 0.  1.
     999900   -1    0    0    0    0 -0.00000000000E+00 -0.00000000000E+00 -0.74505805969E-08  0.93827000000E+00  0.93827000000E+00 0.  1.
     999902    2    1    2    0    0  0.18525172046E-01 -0.13782251459E-01  0.85229032050E-02  0.10193175573E+01  0.10190203680E+01 0.  0.
     999903    2    3    3    0    0 -0.83435066482E-01  0.42114953197E-01  0.85526721457E-01  0.12833496730E+00  0.20493026797E-01 0.  0.
         14    1    1    2    0    0 -0.18525172046E-01  0.13782251459E-01 -0.85229032050E-02  0.24612442659E-01  0.00000000000E+00 0. -1.
     999901    1    3    3    0    0  0.10196023853E+00 -0.55897204656E-01 -0.77003818252E-01  0.89098259004E+00  0.88000000000E+00 0. -1.
        -11    1    4    4    0    0 -0.50336623461E-01  0.24461978967E-01  0.37400985361E-01  0.67314626222E-01  0.51100000000E-03 0.  1.
         11    1    4    4    0    0 -0.33098443020E-01  0.17652974230E-01  0.48125736096E-01  0.61020341079E-01  0.51100000000E-03 0. -1.
</event>
<event>
 8    1  0.1114333E+005  0.1043930E+01  0.7957747E-01            NaN
         13   -1    0    0    0    0  0.00000000000E+00  0.00000000000E+00  0.74505805969E-08  0.10566000000E+00  0.10566000000E+00 0.  1.
     999900   -1    0    0    0    0 -0.00000000000E+00 -0.00000000000E+00 -0.74505805969E-08  0.93827000000E+00  0.93827000000E+00 0. -1.
     999902    2    1    2    0    0  0.12427751686E-01  0.87515828422E-02  0.17624628721E-01  0.10206562648E+01  0.10203908781E+01 0.  0.
     999903    2    3    3    0    0 -0.31114044059E-01  0.12615538133E+00  0.27578549985E-02  0.13166776043E+00  0.21107567267E-01 0.  0.
         14    1    1    2    0    0 -0.12427751686E-01 -0.87515828422E-02 -0.17624628721E-01  0.23273735234E-01  0.00000000000E+00 0. -1.
     999901    1    3    3    0    0  0.43541795745E-01 -0.11740379849E+00  0.14866773722E-01  0.88898850433E+00  0.88000000000E+00 0.  1.
        -11    1    4    4    0    0 -0.23907118057E-01  0.89641355787E-01  0.11347977193E-01  0.93467431057E-01  0.51100000000E-03 0.  1.
         11    1    4    4    0    0 -0.72069260025E-02  0.36514025546E-01 -0.85901221948E-02  0.38200329375E-01  0.51100000000E-03 0. -1.
</event>
<event>
 8    1  0.1114333E+005  0.1043930E+01  0.7957747E-01            NaN
         13   -1    0    0    0    0  0.00000000000E+00  0.00000000000E+00  0.74505805969E-08  0.10566000000E+00  0.10566000000E+00 0. -1.
     999900   -1    0    0    0    0 -0.00000000000E+00 -0.00000000000E+00 -0.74505805969E-08  0.93827000000E+00  0.93827000000E+00 0. -1.
     999902    2    1    2    0    0 -0.80414718032E-02  0.19364363177E-01 -0.67498688554E-02  0.10219026407E+01  0.10216652105E+01 0.  0.
     999903    2    3    3    0    0  0.22505549025E-01  0.12692926915E+00 -0.32394207851E-01  0.13445632589E+00  0.20287428742E-01 0.  0.
         14    1    1    2    0    0  0.80414718032E-02 -0.19364363177E-01  0.67498688554E-02  0.22027359342E-01  0.00000000000E+00 0.  1.
     999901    1    3    3    0    0 -0.30547020828E-01 -0.10756490597E+00  0.25644338995E-01  0.88744631477E+00  0.88000000000E+00 0.  1.
        -11    1    4    4    0    0  0.13309624768E-01  0.84120991282E-01 -0.11509953511E-01  0.85943163990E-01  0.51100000000E-03 0.  1.
         11    1    4    4    0    0  0.91959242568E-02  0.42808277868E-01 -0.20884254340E-01  0.48513161897E-01  0.51100000000E-03 0. -1.
</event>
<event>
 8    1  0.1114333E+005  0.1043930E+01  0.7957747E-01            NaN
         13   -1    0    0    0    0  0.00000000000E+00  0.00000000000E+00  0.74505805969E-08  0.10566000000E+00  0.10566000000E+00 0. -1.
     999900   -1    0    0    0    0 -0.00000000000E+00 -0.00000000000E+00 -0.74505805969E-08  0.93827000000E+00  0.93827000000E+00 0. -1.
     999902    2    1    2    0    0  0.10297096919E-01  0.21297140776E-01  0.79443606391E-02  0.10189758165E+01  0.10186702132E+01 0.  0.
     999903    2    3    3    0    0 -0.76526936550E-01  0.73443900713E-01  0.73791870904E-01  0.13072270390E+00  0.19819347480E-01 0.  0.
         14    1    1    2    0    0 -0.10297096919E-01 -0.21297140776E-01 -0.79443606391E-02  0.24954183540E-01  0.00000000000E+00 0. -1.
     999901    1    3    3    0    0  0.86824033469E-01 -0.52146759937E-01 -0.65847510265E-01  0.88825311256E+00  0.88000000000E+00 0. -1.
        -11    1    4    4    0    0 -0.21589291700E-01  0.12422605895E-01  0.24563802869E-01  0.34986571506E-01  0.51100000000E-03 0.  1.
         11    1    4    4    0    0 -0.54937644849E-01  0.61021294818E-01  0.49228068035E-01  0.95736132397E-01  0.51100000000E-03 0. -1.
</event>
<event>
 8    1  0.1114333E+005  0.1043930E+01  0.7957747E-01            NaN
         13   -1    0    0    0    0  0.00000000000E+00  0.00000000000E+00  0.74505805969E-08  0.10566000000E+00  0.10566000000E+00 0. -1.
     999900   -1    0    0    0    0 -0.00000000000E+00 -0.00000000000E+00 -0.74505805969E-08  0.93827000000E+00  0.93827000000E+00 0.  1.
     999902    2    1    2    0    0  0.13869956193E-01  0.14376816062E-02  0.76414076885E-02  0.10280292540E+01  0.10279062765E+01 0.  0.
     999903    2    3    3    0    0 -0.41777664357E-02  0.13313734209E+00 -0.26734555999E-01  0.13738217024E+00  0.20398985840E-01 0.  0.
         14    1    1    2    0    0 -0.13869956193E-01 -0.14376816062E-02 -0.76414076885E-02  0.15900746041E-01  0.00000000000E+00 0.  1.
     999901    1    3    3    0    0  0.18047722629E-01 -0.13169966048E+00  0.34375963688E-01  0.89064708372E+00  0.88000000000E+00 0. -1.
        -11    1    4    4    0    0  0.72988425400E-02  0.26594998701E-01 -0.47108933123E-02  0.27982506949E-01  0.51100000000E-03 0. -1.
         11    1    4    4    0    0 -0.11476608976E-01  0.10654234339E+00 -0.22023662687E-01  0.10939966329E+00  0.51100000000E-03 0.  1.
</event>
<event>
 8    1  0.1114333E+005  0.1043930E+01  0.7957747E-01            NaN
         13   -1    0    0    0    0  0.00000000000E+00  0.00000000000E+00  0.74505805969E-08  0.10566000000E+00  0.10566000000E+00 0.  1.
     999900   -1    0    0    0    0 -0.00000000000E+00 -0.00000000000E+00 -0.74505805969E-08  0.93827000000E+00  0.93827000000E+00 0.  1.
     999902    2    1    2    0    0  0.46115347111E-02  0.11601592903E-01 -0.21356256318E-01  0.10191923183E+01  0.10188920595E+01 0.  0.
     999903    2    3    3    0    0 -0.10380674487E+00 -0.43817910929E-01  0.56341545208E-01  0.12741723844E+00  0.19103228472E-01 0.  0.
         14    1    1    2    0    0 -0.46115347111E-02 -0.11601592903E-01  0.21356256318E-01  0.24737681666E-01  0.00000000000E+00 0.  1.
     999901    1    3    3    0    0  0.10841827958E+00  0.55419503833E-01 -0.77697801527E-01  0.89177507989E+00  0.88000000000E+00 0.  1.
        -11    1    4    4    0    0 -0.68956376804E-01 -0.29194479756E-01  0.27127855450E-01  0.79645974239E-01  0.51100000000E-03 0.  1.
         11    1    4    4    0    0 -0.34850368063E-01 -0.14623431173E-01  0.29213689759E-01  0.47771264204E-01  0.51100000000E-03 0. -1.
</event>
<event>
 8    1  0.1114333E+005  0.1043930E+01  0.7957747E-01            NaN
         13   -1    0    0    0    0  0.00000000000E+00  0.00000000000E+00  0.74505805969E-08  0.10566000000E+00  0.10566000000E+00 0. -1.
     999900   -1    0    0    0    0 -0.00000000000E+00 -0.00000000000E+00 -0.74505805969E-08  0.93827000000E+00  0.93827000000E+00 0. -1.
     999902    2    1    2    0    0  0.20799850191E-01 -0.12239816826E-01 -0.27979219843E-02  0.10196344191E+01  0.10193449236E+01 0.  0.
     999903    2    3    3    0    0 -0.31552214828E-01  0.11632010346E+00  0.37615125801E-01  0.12783757775E+00  0.20040954730E-01 0.  0.
         14    1    1    2    0    0 -0.20799850191E-01  0.12239816826E-01  0.27979219843E-02  0.24295580902E-01  0.00000000000E+00 0. -1.
     999901    1    3    3    0    0  0.52352065019E-01 -0.12855992028E+00 -0.40413047785E-01  0.89179684135E+00  0.88000000000E+00 0. -1.
        -11    1    4    4    0    0 -0.93955301644E-02  0.58492652885E-01  0.26576351300E-01  0.64932503402E-01  0.51100000000E-03 0.  1.
         11    1    4    4    0    0 -0.22156684663E-01  0.57827450571E-01  0.11038774500E-01  0.62905074344E-01  0.51100000000E-03 0. -1.
</event>
<event>
 8    1  0.1114333E+005  0.1043930E+01  0.7957747E-01            NaN
         13   -1    0    0    0    0  0.00000000000E+00  0.00000000000E+00  0.74505805969E-08  0.10566000000E+00  0.10566000000E+00 0. -1.
     999900   -1    0    0    0    0 -0.00000000000E+00 -0.00000000000E+00 -0.74505805969E-08  0.93827000000E+00  0.93827000000E+00 0.  1.
     999902    2    1    2    0    0 -0.17536490299E-01 -0.55737625231E-02  0.14808575365E-01  0.10203103212E+01  0.10200368927E+01 0.  0.
     999903    2    3    3    0    0 -0.74834237452E-02 -0.60546100817E-01  0.11724119544E+00  0.13260797034E+00  0.10841768057E-01 0.  0.
         14    1    1    2    0    0  0.17536490299E-01  0.55737625231E-02 -0.14808575365E-01  0.23619678766E-01  0.00000000000E+00 0.  1.
     999901    1    3    3    0    0 -0.10053066554E-01  0.54972338294E-01 -0.10243262008E+00  0.88770235089E+00  0.88000000000E+00 0.  1.
        -11    1    4    4    0    0  0.28073803161E-03 -0.28606817488E-01  0.62808568082E-01  0.69018882678E-01  0.51100000000E-03 0.  1.
         11    1    4    4    0    0 -0.77641617768E-02 -0.31939283329E-01  0.54432627359E-01  0.63589087663E-01  0.51100000000E-03 0. -1.
</event>
<event>
 8    1  0.1114333E+005  0.1043930E+01  0.7957747E-01            NaN
         13   -1    0    0    0    0  0.00000000000E+00  0.00000000000E+00  0.74505805969E-08  0.10566000000E+00  0.10566000000E+00 0. -1.
     999900   -1    0    0    0    0 -0.00000000000E+00 -0.00000000000E+00 -0.74505805969E-08  0.93827000000E+00  0.93827000000E+00 0. -1.
     999902    2    1    2    0    0 -0.10791695222E-01  0.76513646818E-02 -0.19491801718E-01  0.10203729543E+01  0.10201009908E+01 0.  0.
     999903    2    3    3    0    0  0.83994262818E-01  0.14201267725E-01 -0.98419475845E-01  0.13174656667E+00  0.20348277878E-01 0.  0.
         14    1    1    2    0    0  0.10791695222E-01 -0.76513646818E-02  0.19491801718E-01  0.23557045686E-01  0.00000000000E+00 0. -1.
     999901    1    3    3    0    0 -0.94785958040E-01 -0.65499030435E-02  0.78927674127E-01  0.88862638764E+00  0.88000000000E+00 0.  1.
        -11    1    4    4    0    0  0.14594068373E-01  0.76433614439E-02 -0.10496222166E-01  0.19540716635E-01  0.51100000000E-03 0. -1.
         11    1    4    4    0    0  0.69400194445E-01  0.65579062814E-02 -0.87923253679E-01  0.11220585004E+00  0.51100000000E-03 0.  1.
</event>
<event>
 8    1  0.1114333E+005  0.1043930E+01  0.7957747E-01            NaN
         13   -1    0    0    0    0  0.00000000000E+00  0.00000000000E+00  0.74505805969E-08  0.10566000000E+00  0.10566000000E+00 0.  1.
     999900   -1    0    0    0    0 -0.00000000000E+00 -0.00000000000E+00 -0.74505805969E-08  0.93827000000E+00  0.93827000000E+00 0. -1.
     999902    2    1    2    0    0 -0.22554987956E-01 -0.35754606340E-02  0.69863821204E-02  0.10200486069E+01  0.10197690128E+01 0.  0.
     999903    2    3    3    0    0  0.59631736849E-01 -0.10376790673E+00 -0.43998632702E-01  0.12909818421E+00  0.20167770784E-01 0.  0.
         14    1    1    2    0    0  0.22554987956E-01  0.35754606340E-02 -0.69863821204E-02  0.23881393083E-01  0.00000000000E+00 0.  1.
     999901    1    3    3    0    0 -0.82186724805E-01  0.10019244610E+00  0.50985014822E-01  0.89095042271E+00  0.88000000000E+00 0.  1.
        -11    1    4    4    0    0  0.41079682763E-01 -0.82904121749E-01 -0.26903698391E-01  0.96357168115E-01  0.51100000000E-03 0.  1.
         11    1    4    4    0    0  0.18552054086E-01 -0.20863784985E-01 -0.17094934311E-01  0.32741016093E-01  0.51100000000E-03 0. -1.
</event>
<event>
 7    1  0.1114333E+005  0.1043930E+01  0.7957747E-01            NaN
         13   -1    0    0    0    0  0.00000000000E+00  0.00000000000E+00  0.74505805969E-08  0.10566000000E+00  0.10566000000E+00 0.  1.
     999900   -1    0    0    0    0 -0.00000000000E+00 -0.00000000000E+00 -0.74505805969E-08  0.93827000000E+00  0.93827000000E+00 0.  1.
     999903    2    1    2    0    0 -0.22794820984E-01 -0.38857555277E-02  0.84553180213E-01  0.90137304817E-01  0.20995010737E-01 0.  0.
         14    1    1    2    0    0 -0.32023615480E-01  0.45191123736E-01  0.31187176651E-01  0.63564059030E-01  0.00000000000E+00 0.  1.
     999901    1    1    2    0    0  0.54818436464E-01 -0.41305368208E-01 -0.11574035686E+00  0.89022863615E+00  0.88000000000E+00 0.  1.
        -11    1    3    3    0    0 -0.46138845627E-02 -0.83686495361E-02  0.49259397015E-01  0.50180390006E-01  0.51100000000E-03 0. -1.
         11    1    3    3    0    0 -0.18180936421E-01  0.44828940085E-02  0.35293783198E-01  0.39956914812E-01  0.51100000000E-03 0.  1.
</event>
<event>
 8    1  0.1114333E+005  0.1043930E+01  0.7957747E-01            NaN
         13   -1    0    0    0    0  0.00000000000E+00  0.00000000000E+00  0.74505805969E-08  0.10566000000E+00  0.10566000000E+00 0.  1.
     999900   -1    0    0    0    0 -0.00000000000E+00 -0.00000000000E+00 -0.74505805969E-08  0.93827000000E+00  0.93827000000E+00 0.  1.
     999902    2    1    2    0    0  0.49659585045E-02 -0.11857214534E-01 -0.20148489226E-01  0.10200298766E+01  0.10197498386E+01 0.  0.
     999903    2    3    3    0    0 -0.41815205179E-02 -0.46348856590E-01  0.11813289002E+00  0.12851706705E+00  0.19888569555E-01 0.  0.
         14    1    1    2    0    0 -0.49659585045E-02  0.11857214534E-01  0.20148489226E-01  0.23900123399E-01  0.00000000000E+00 0. -1.
     999901    1    3    3    0    0  0.91474790223E-02  0.34491642056E-01 -0.13828137924E+00  0.89151280955E+00  0.88000000000E+00 0.  1.
        -11    1    4    4    0    0  0.76837529053E-03 -0.45186989775E-01  0.10985393984E+00  0.11878806196E+00  0.51100000000E-03 0.  1.
         11    1    4    4    0    0 -0.49498958084E-02 -0.11618668157E-02  0.82789501806E-02  0.97290050932E-02  0.51100000000E-03 0. -1.
</event>
<event>
 8    1  0.1114333E+005  0.1043930E+01  0.7957747E-01            NaN
         13   -1    0    0    0    0  0.00000000000E+00  0.00000000000E+00  0.74505805969E-08  0.10566000000E+00  0.10566000000E+00 0.  1.
     999900   -1    0    0    0    0 -0.00000000000E+00 -0.00000000000E+00 -0.74505805969E-08  0.93827000000E+00  0.93827000000E+00 0.  1.
     999902    2    1    2    0    0 -0.52476996542E-02 -0.26227106663E-01 -0.12611194475E-01  0.10143590396E+01  0.10139279163E+01 0.  0.
     999903    2    3    3    0    0  0.86008691340E-01  0.36107877317E-01  0.77534184670E-01  0.12287736924E+00  0.19647500819E-01 0.  0.
         14    1    1    2    0    0  0.52476996542E-02  0.26227106663E-01  0.12611194475E-01  0.29570960446E-01  0.00000000000E+00 0. -1.
     999901    1    3    3    0    0 -0.91256390994E-01 -0.62334983980E-01 -0.90145379146E-01  0.89148167031E+00  0.88000000000E+00 0.  1.
        -11    1    4    4    0    0  0.74851247308E-01  0.35527979715E-01  0.60888119844E-01  0.10282300728E+00  0.51100000000E-03 0. -1.
         11    1    4    4    0    0  0.11157444032E-01  0.57989760205E-03  0.16646064827E-01  0.20054361964E-01  0.51100000000E-03 0.  1.
</event>
<event>
 8    1  0.1114333E+005  0.1043930E+01  0.7957747E-01            NaN
         13   -1    0    0    0    0  0.00000000000E+00  0.00000000000E+00  0.74505805969E-08  0.10566000000E+00  0.10566000000E+00 0.  1.
     999900   -1    0    0    0    0 -0.00000000000E+00 -0.00000000000E+00 -0.74505805969E-08  0.93827000000E+00  0.93827000000E+00 0. -1.
     999902    2    1    2    0    0  0.12874727568E-01 -0.72440638977E-02  0.18977337494E-01  0.10198805840E+01  0.10195969945E+01 0.  0.
     999903    2    3    3    0    0 -0.11298928215E+00  0.22940986829E-01 -0.50962898379E-01  0.12766731195E+00  0.20220256421E-01 0.  0.
         14    1    1    2    0    0 -0.12874727568E-01  0.72440638977E-02 -0.18977337494E-01  0.24049416003E-01  0.00000000000E+00 0. -1.
     999901    1    3    3    0    0  0.12586400972E+00 -0.30185050727E-01  0.69940235873E-01  0.89221327205E+00  0.88000000000E+00 0. -1.
        -11    1    4    4    0    0 -0.74211454047E-01  0.24631950270E-01 -0.32437619195E-01  0.84655378718E-01  0.51100000000E-03 0. -1.
         11    1    4    4    0    0 -0.38777828108E-01 -0.16909634416E-02 -0.18525279185E-01  0.43011933228E-01  0.51100000000E-03 0.  1.
</event>
<event>
 8    1  0.1114333E+005  0.1043930E+01  0.7957747E-01            NaN
         13   -1    0    0    0    0  0.00000000000E+00  0.00000000000E+00  0.74505805969E-08  0.10566000000E+00  0.10566000000E+00 0. -1.
     999900   -1    0    0    0    0 -0.00000000000E+00 -0.00000000000E+00 -0.74505805969E-08  0.93827000000E+00  0.93827000000E+00 0.  1.
     999902    2    1    2    0    0  0.22284729910E-01 -0.61256573647E-02  0.32222884180E-03  0.10208164391E+01  0.10205547343E+01 0.  0.
     999903    2    3    3    0    0  0.10610638400E+00  0.48722731044E-01  0.61152191500E-01  0.13304693088E+00  0.18150097632E-01 0.  0.
         14    1    1    2    0    0 -0.22284729910E-01  0.61256573647E-02 -0.32222884180E-03  0.23113560884E-01  0.00000000000E+00 0.  1.
     999901    1    3    3    0    0 -0.83821654090E-01 -0.54848388409E-01 -0.60829962658E-01  0.88776950824E+00  0.88000000000E+00 0.  1.
        -11    1    4    4    0    0  0.60724100873E-01  0.34987409796E-01  0.43290242963E-01  0.82376219432E-01  0.51100000000E-03 0.  1.
         11    1    4    4    0    0  0.45382283127E-01  0.13735321248E-01  0.17861948536E-01  0.50670711443E-01  0.51100000000E-03 0. -1.
</event>
<event>
 8    1  0.1114333E+005  0.1043930E+01  0.7957747E-01            NaN
         13   -1    0    0    0    0  0.00000000000E+00  0.00000000000E+00  0.74505805969E-08  0.10566000000E+00  0.10566000000E+00 0.  1.
     999900   -1    0    0    0    0 -0.00000000000E+00 -0.00000000000E+00 -0.74505805969E-08  0.93827000000E+00  0.93827000000E+00 0. -1.
     999902    2    1    2    0    0  0.15650750239E-01 -0.17985338634E-01  0.37407975262E-02  0.10197967873E+01  0.10195111944E+01 0.  0.
     999903    2    3    3    0    0  0.91482232263E-02 -0.65812829374E-01 -0.11112472354E+00  0.13102019015E+00  0.20064085947E-01 0.  0.
         14    1    1    2    0    0 -0.15650750239E-01  0.17985338634E-01 -0.37407975262E-02  0.24133212694E-01  0.00000000000E+00 0.  1.
     999901    1    3    3    0    0  0.65025270123E-02  0.47827490740E-01  0.11486552107E+00  0.88877659716E+00  0.88000000000E+00 0.  1.
        -11    1    4    4    0    0  0.82586291283E-02 -0.25292097382E-01 -0.61038424884E-01  0.66587127722E-01  0.51100000000E-03 0.  1.
         11    1    4    4    0    0  0.88959409795E-03 -0.40520731992E-01 -0.50086298660E-01  0.64433062424E-01  0.51100000000E-03 0. -1.
</event>
<event>
 8    1  0.1114333E+005  0.1043930E+01  0.7957747E-01            NaN
         13   -1    0    0    0    0  0.00000000000E+00  0.00000000000E+00  0.74505805969E-08  0.10566000000E+00  0.10566000000E+00 0. -1.
     999900   -1    0    0    0    0 -0.00000000000E+00 -0.00000000000E+00 -0.74505805969E-08  0.93827000000E+00  0.93827000000E+00 0. -1.
     999902    2    1    2    0    0 -0.17126527649E-01 -0.47852880885E-02 -0.16995705539E-01  0.10193318103E+01  0.10190349692E+01 0.  0.
     999903    2    3    3    0    0 -0.17652184107E-01 -0.10476229418E+00  0.71012941932E-01  0.12930866445E+00  0.19777636217E-01 0.  0.
         14    1    1    2    0    0  0.17126527649E-01  0.47852880885E-02  0.16995705539E-01  0.24598189734E-01  0.00000000000E+00 0.  1.
     999901    1    3    3    0    0  0.52565645805E-03  0.99977006090E-01 -0.88008647471E-01  0.89002314582E+00  0.88000000000E+00 0. -1.
        -11    1    4    4    0    0  0.31879996788E-02 -0.29436176216E-01  0.23858038447E-01  0.38027870460E-01  0.51100000000E-03 0. -1.
         11    1    4    4    0    0 -0.20840183786E-01 -0.75326117962E-01  0.47154903485E-01  0.91280793989E-01  0.51100000000E-03 0.  1.
</event>
<event>
 8    1  0.1114333E+005  0.1043930E+01  0.7957747E-01            NaN
         13   -1    0    0    0    0  0.00000000000E+00  0.00000000000E+00  0.74505805969E-08  0.10566000000E+00  0.10566000000E+00 0.  1.
     999900   -1    0    0    0    0 -0.00000000000E+00 -0.00000000000E+00 -0.74505805969E-08  0.93827000000E+00  0.93827000000E+00 0.  1.
     999902    2    1    2    0    0 -0.14610954334E-01  0.18302582810E-01 -0.27761364380E-02  0.10203467123E+01  0.10200741355E+01 0.  0.
     999903    2    3    3    0    0  0.57228904217E-01  0.10914935636E+00  0.41883382882E-01  0.13163496254E+00  0.19616730850E-01 0.  0.
         14    1    1    2    0    0  0.14610954334E-01 -0.18302582810E-01  0.27761364380E-02  0.23583287676E-01  0.00000000000E+00 0.  1.
     999901    1    3    3    0    0 -0.71839858551E-01 -0.90846773550E-01 -0.44659519320E-01  0.88871174979E+00  0.88000000000E+00 0.  1.
        -11    1    4    4    0    0  0.43041945336E-01  0.71537063215E-01  0.19952955634E-01  0.85840212204E-01  0.51100000000E-03 0. -1.
         11    1    4    4    0    0  0.14186958881E-01  0.37612293145E-01  0.21930427248E-01  0.45794750334E-01  0.51100000000E-03 0.  1.
</event>
<event>
 8    1  0.1114333E+005  0.1043930E+01  0.7957747E-01            NaN
         13   -1    0    0    0    0  0.00000000000E+00  0.00000000000E+00  0.74505805969E-08  0.10566000000E+00  0.10566000000E+00 0.  1.
     999900   -1    0    0    0    0 -0.00000000000E+00 -0.00000000000E+00 -0.74505805969E-08  0.93827000000E+00  0.93827000000E+00 0.  1.
     999902    2    1    2    0    0  0.18969232082E-01  0.18031031231E-02 -0.82262966262E-02  0.10231753643E+01  0.10229648436E+01 0.  0.
     999903    2    3    3    0    0 -0.70181321084E-01 -0.10944632665E+00 -0.66200924818E-02  0.13170083486E+00  0.19934092241E-01 0.  0.
         14    1    1    2    0    0 -0.18969232082E-01 -0.18031031231E-02  0.82262966262E-02  0.20754635695E-01  0.00000000000E+00 0.  1.
     999901    1    3    3    0    0  0.89150553165E-01  0.11124942977E+00 -0.16062041444E-02  0.89147452944E+00  0.88000000000E+00 0.  1.
        -11    1    4    4    0    0 -0.35457386298E-01 -0.38186739887E-01  0.45408007423E-03  0.52114495642E-01  0.51100000000E-03 0. -1.
         11    1    4    4    0    0 -0.34723934786E-01 -0.71259586760E-01 -0.70741725560E-02  0.79586339221E-01  0.51100000000E-03 0.  1.
</event>
<event>
 8    1  0.1114333E+005  0.1043930E+01  0.7957747E-01            NaN
         13   -1    0    0    0    0  0.00000000000E+00  0.00000000000E+00  0.74505805969E-08  0.10566000000E+00  0.10566000000E+00 0. -1.
     999900   -1    0    0    0    0 -0.00000000000E+00 -0.00000000000E+00 -0.74505805969E-08  0.93827000000E+00  0.93827000000E+00 0. -1.
     999902    2    1    2    0    0 -0.10988517127E-01  0.21349874772E-01 -0.41927861956E-02  0.10195549284E+01  0.10192635125E+01 0.  0.
     999903    2    3    3    0    0  0.38097131156E-01 -0.11043232934E-01 -0.12061245206E+00  0.12994138704E+00  0.27641564346E-01 0.  0.
         14    1    1    2    0    0  0.10988517127E-01 -0.21349874772E-01  0.41927861956E-02  0.24375071641E-01  0.00000000000E+00 0.  1.
     999901    1    3    3    0    0 -0.49085648284E-01  0.32393107706E-01  0.11641966586E+00  0.88961354132E+00  0.88000000000E+00 0.  1.
        -11    1    4    4    0    0  0.33239417112E-01 -0.60385458353E-03 -0.10729765365E+00  0.11233107803E+00  0.51100000000E-03 0. -1.
         11    1    4    4    0    0  0.48577140439E-02 -0.10439378351E-01 -0.13314798402E-01  0.17610309014E-01  0.51100000000E-03 0.  1.
</event>
<event>
 8    1  0.1114333E+005  0.1043930E+01  0.7957747E-01            NaN
         13   -1    0    0    0    0  0.00000000000E+00  0.00000000000E+00  0.74505805969E-08  0.10566000000E+00  0.10566000000E+00 0.  1.
     999900   -1    0    0    0    0 -0.00000000000E+00 -0.00000000000E+00 -0.74505805969E-08  0.93827000000E+00  0.93827000000E+00 0.  1.
     999902    2    1    2    0    0 -0.17142381490E-02 -0.14377221857E-01  0.18077203664E-01  0.10207690757E+01  0.10205062849E+01 0.  0.
     999903    2    3    3    0    0  0.26404195853E-01 -0.25990292183E-01  0.12510089359E+00  0.13376311186E+00  0.29489992719E-01 0.  0.
         14    1    1    2    0    0  0.17142381490E-02  0.14377221857E-01 -0.18077203664E-01  0.23160924271E-01  0.00000000000E+00 0. -1.
     999901    1    3    3    0    0 -0.28118434002E-01  0.11613070327E-01 -0.10702368993E+00  0.88700596387E+00  0.88000000000E+00 0.  1.
        -11    1    4    4    0    0  0.23462531191E-01 -0.95161087892E-02  0.42419951789E-01  0.49404049704E-01  0.51100000000E-03 0. -1.
         11    1    4    4    0    0  0.29416646629E-02 -0.16474183394E-01  0.82680941803E-01  0.84359062157E-01  0.51100000000E-03 0.  1.
</event>
<event>
 8    1  0.1114333E+005  0.1043930E+01  0.7957747E-01            NaN
         13   -1    0    0    0    0  0.00000000000E+00  0.00000000000E+00  0.74505805969E-08  0.10566000000E+00  0.10566000000E+00 0.  1.
     999900   -1    0    0    0    0 -0.00000000000E+00 -0.00000000000E+00 -0.74505805969E-08  0.93827000000E+00  0.93827000000E+00 0. -1.
     999902    2    1    2    0    0 -0.84970581879E-02 -0.16022369370E-01  0.15121812935E-01  0.10203167507E+01  0.10200434727E+01 0.  0.
     999903    2    3    3    0    0  0.17800010901E-01  0.99164108436E-01 -0.75807296123E-01  0.12777680007E+00  0.20731707647E-01 0.  0.
         14    1    1    2    0    0  0.84970581879E-02  0.16022369370E-01 -0.15121812935E-01  0.23613249343E-01  0.00000000000E+00 0. -1.
     999901    1    3    3    0    0 -0.26297069088E-01 -0.11518647781E+00  0.90929109058E-01  0.89253995058E+00  0.88000000000E+00 0. -1.
        -11    1    4    4    0    0  0.16447496733E-02  0.52750508450E-01 -0.30645628121E-01  0.61030623356E-01  0.51100000000E-03 0. -1.
         11    1    4    4    0    0  0.16155261227E-01  0.46413599986E-01 -0.45161668001E-01  0.66746176719E-01  0.51100000000E-03 0.  1.
</event>
<event>
 8    1  0.1114333E+005  0.1043930E+01  0.7957747E-01            NaN
         13   -1    0    0    0    0  0.00000000000E+00  0.00000000000E+00  0.74505805969E-08  0.10566000000E+00  0.10566000000E+00 0.  1.
     999900   -1    0    0    0    0 -0.00000000000E+00 -0.00000000000E+00 -0.74505805969E-08  0.93827000000E+00  0.93827000000E+00 0.  1.
     999902    2    1    2    0    0 -0.50874623918E-02  0.60608248034E-02  0.22501607111E-01  0.10200775747E+01  0.10197986665E+01 0.  0.
     999903    2    3    3    0    0 -0.27600436858E-01 -0.38530348789E-01 -0.11684869547E+00  0.12771345976E+00  0.20266678987E-01 0.  0.
         14    1    1    2    0    0  0.50874623918E-02 -0.60608248034E-02 -0.22501607111E-01  0.23852425316E-01  0.00000000000E+00 0. -1.
     999901    1    3    3    0    0  0.22512974466E-01  0.44591173592E-01  0.13935030258E+00  0.89236411493E+00  0.88000000000E+00 0. -1.
        -11    1    4    4    0    0 -0.11173521175E-01 -0.69903547559E-02 -0.53114072211E-01  0.54727309662E-01  0.51100000000E-03 0.  1.
         11    1    4    4    0    0 -0.16426915683E-01 -0.31539994033E-01 -0.63734623260E-01  0.72986150094E-01  0.51100000000E-03 0. -1.
</event>
<event>
 8    1  0.1114333E+005  0.1043930E+01  0.7957747E-01            NaN
         13   -1    0    0    0    0  0.00000000000E+00  0.00000000000E+00  0.74505805969E-08  0.10566000000E+00  0.10566000000E+00 0.  1.
     999900   -1    0    0    0    0 -0.00000000000E+00 -0.00000000000E+00 -0.74505805969E-08  0.93827000000E+00  0.93827000000E+00 0.  1.
     999902    2    1    2    0    0  0.45416572518E-03 -0.82380336596E-02  0.22562996254E-01  0.10199058400E+01  0.10196228529E+01 0.  0.
     999903    2    3    3    0    0  0.71289636007E-01 -0.44349065125E-01 -0.94236896604E-01  0.12863490170E+00  0.24845391393E-01 0.  0.
         14    1    1    2    0    0 -0.45416572518E-03  0.82380336596E-02 -0.22562996254E-01  0.24024160027E-01  0.00000000000E+00 0.  1.
     999901    1    3    3    0    0 -0.70835470282E-01  0.36111031465E-01  0.11679989286E+00  0.89127093828E+00  0.88000000000E+00 0. -1.
        -11    1    4    4    0    0 -0.70835470894E-03 -0.15305432855E-02 -0.88266473927E-02  0.90008418682E-02  0.51100000000E-03 0.  1.
         11    1    4    4    0    0  0.71997990716E-01 -0.42818521839E-01 -0.85410249211E-01  0.11963405983E+00  0.51100000000E-03 0. -1.
</event>
<event>
 8    1  0.1114333E+005  0.1043930E+01  0.7957747E-01            NaN
         13   -1    0    0    0    0  0.00000000000E+00  0.00000000000E+00  0.74505805969E-08  0.10566000000E+00  0.10566000000E+00 0.  1.
     999900   -1    0    0    0    0 -0.00000000000E+00 -0.00000000000E+00 -0.74505805969E-08  0.93827000000E+00  0.93827000000E+00 0. -1.
     999902    2    1    2    0    0  0.17738440320E-01  0.44920108178E-02  0.18413713549E-01  0.10179705071E+01  0.10176394538E+01 0.  0.
     999903    2    3    3    0    0  0.79114633550E-01  0.99245465955E-01  0.18095483349E-01  0.13075838158E+00  0.25720032695E-01 0.  0.
         14    1    1    2    0    0 -0.17738440320E-01 -0.44920108178E-02 -0.18413713549E-01  0.25959492923E-01  0.00000000000E+00 0.  1.
     999901    1    3    3    0    0 -0.61376193230E-01 -0.94753455137E-01  0.31823019992E-03  0.88721212550E+00  0.88000000000E+00 0. -1.
        -11    1    4    4    0    0  0.36741194966E-01  0.50385233536E-01  0.21576808445E-01  0.65987930334E-01  0.51100000000E-03 0.  1.
         11    1    4    4    0    0  0.42373438584E-01  0.48860232418E-01 -0.34813250961E-02  0.64770451248E-01  0.51100000000E-03 0. -1.
</event>
<event>
 8    1  0.1114333E+005  0.1043930E+01  0.7957747E-01            NaN
         13   -1    0    0    0    0  0.00000000000E+00  0.00000000000E+00  0.74505805969E-08  0.10566000000E+00  0.10566000000E+00 0. -1.
     999900   -1    0    0    0    0 -0.00000000000E+00 -0.00000000000E+00 -0.74505805969E-08  0.93827000000E+00  0.93827000000E+00 0. -1.
     999902    2    1    2    0    0  0.16119909570E-01 -0.89551706377E-02  0.15254694640E-01  0.10199977566E+01  0.10197169564E+01 0.  0.
     999903    2    3    3    0    0  0.46192303825E-01  0.11980895085E+00  0.45985351093E-03  0.12999582671E+00  0.20267951576E-01 0.  0.
         14    1    1    2    0    0 -0.16119909570E-01  0.89551706377E-02 -0.15254694640E-01  0.23932243402E-01  0.00000000000E+00 0.  1.
     999901    1    3    3    0    0 -0.30072394255E-01 -0.12876412149E+00  0.14794841129E-01  0.89000192989E+00  0.88000000000E+00 0.  1.
        -11    1    4    4    0    0  0.32056720344E-01  0.83302577018E-01  0.96541794760E-02  0.89779824902E-01  0.51100000000E-03 0. -1.
         11    1    4    4    0    0  0.14135583481E-01  0.36506373830E-01 -0.91943259650E-02  0.40216001809E-01  0.51100000000E-03 0.  1.
</event>
<event>
 8    1  0.1114333E+005  0.1043930E+01  0.7957747E-01            NaN
         13   -1    0    0    0    0  0.00000000000E+00  0.00000000000E+00  0.74505805969E-08  0.10566000000E+00  0.10566000000E+00 0.  1.
     999900   -1    0    0    0    0 -0.00000000000E+00 -0.00000000000E+00 -0.74505805969E-08  0.93827000000E+00  0.93827000000E+00 0. -1.
     999902    2    1    2    0    0  0.47630999803E-02  0.97314940806E-02 -0.21691966091E-01  0.10196827220E+01  0.10193943903E+01 0.  0.
     999903    2    3    3    0    0 -0.12618730555E+00 -0.17005077685E-01  0.83325958922E-02  0.12908498602E+00  0.19521596044E-01 0.  0.
         14    1    1    2    0    0 -0.47630999803E-02 -0.97314940806E-02  0.21691966091E-01  0.24247278020E-01  0.00000000000E+00 0.  1.
     999901    1    3    3    0    0  0.13095040553E+00  0.26736571765E-01 -0.30024561983E-01  0.89059773596E+00  0.88000000000E+00 0.  1.
        -11    1    4    4    0    0 -0.43428860340E-01  0.32521916302E-02  0.46704580020E-02  0.43803161527E-01  0.51100000000E-03 0. -1.
         11    1    4    4    0    0 -0.82758445210E-01 -0.20257269315E-01  0.36621378901E-02  0.85281824492E-01  0.51100000000E-03 0.  1.
</event>
<event>
 8    1  0.1114333E+005  0.1043930E+01  0.7957747E-01            NaN
         13   -1    0    0    0    0  0.00000000000E+00  0.00000000000E+00  0.74505805969E-08  0.10566000000E+00  0.10566000000E+00 0. -1.
     999900   -1    0    0    0    0 -0.00000000000E+00 -0.00000000000E+00 -0.74505805969E-08  0.93827000000E+00  0.93827000000E+00 0.  1.
     999902    2    1    2    0    0 -0.21492711767E-01 -0.28304182735E-02 -0.10249676414E-01  0.10199507633E+01  0.10196688461E+01 0.  0.
     999903    2    3    3    0    0 -0.12384015752E+00 -0.32776772306E-01  0.28931673113E-01  0.13264756712E+00  0.18644944050E-01 0.  0.
         14    1    1    2    0    0  0.21492711767E-01  0.28304182735E-02  0.10249676414E-01  0.23979236712E-01  0.00000000000E+00 0. -1.
     999901    1    3    3    0    0  0.10234744575E+00  0.29946354032E-01 -0.39181349527E-01  0.88730319616E+00  0.88000000000E+00 0.  1.
        -11    1    4    4    0    0 -0.54245340628E-01 -0.10993612880E-01  0.36773178220E-02  0.55472518343E-01  0.51100000000E-03 0. -1.
         11    1    4    4    0    0 -0.69594816888E-01 -0.21783159426E-01  0.25254355291E-01  0.77175048782E-01  0.51100000000E-03 0.  1.
</event>
<event>
 8    1  0.1114333E+005  0.1043930E+01  0.7957747E-01            NaN
         13   -1    0    0    0    0  0.00000000000E+00  0.00000000000E+00  0.74505805969E-08  0.10566000000E+00  0.10566000000E+00 0. -1.
     999900   -1    0    0    0    0 -0.00000000000E+00 -0.00000000000E+00 -0.74505805969E-08  0.93827000000E+00  0.93827000000E+00 0. -1.
     999902    2    1    2    0    0 -0.16469782613E-01 -0.16883092404E-01  0.20708669892E-02  0.10202534074E+01  0.10199786440E+01 0.  0.
     999903    2    3    3    0    0 -0.65152109700E-01  0.11017788349E+00  0.36550870415E-02  0.12979455357E+00  0.21196770140E-01 0.  0.
         14    1    1    2    0    0  0.16469782613E-01  0.16883092404E-01 -0.20708669892E-02  0.23676592629E-01  0.00000000000E+00 0.  1.
     999901    1    3    3    0    0  0.48682327087E-01 -0.12706097590E+00 -0.15842200523E-02  0.89045885381E+00  0.88000000000E+00 0. -1.
        -11    1    4    4    0    0 -0.30168506368E-01  0.33622038731E-01 -0.35493002024E-02  0.45314886272E-01  0.51100000000E-03 0.  1.
         11    1    4    4    0    0 -0.34983603332E-01  0.76555844763E-01  0.72043872439E-02  0.84479667294E-01  0.51100000000E-03 0. -1.
</event>
<event>
 8    1  0.1114333E+005  0.1043930E+01  0.7957747E-01            NaN
         13   -1    0    0    0    0  0.00000000000E+00  0.00000000000E+00  0.74505805969E-08  0.10566000000E+00  0.10566000000E+00 0. -1.
     999900   -1    0    0    0    0 -0.00000000000E+00 -0.00000000000E+00 -0.74505805969E-08  0.93827000000E+00  0.93827000000E+00 0.  1.
     999902    2    1    2    0    0 -0.15942203783E-01 -0.15937281449E-01  0.73539855327E-02  0.10202185702E+01  0.10199429881E+01 0.  0.
     999903    2    3    3    0    0  0.42356242396E-01 -0.11551739259E+00 -0.42380809879E-01  0.13129311928E+00  0.17419267042E-01 0.  0.
         14    1    1    2    0    0  0.15942203783E-01  0.15937281449E-01 -0.73539855327E-02  0.23711429831E-01  0.00000000000E+00 0. -1.
     999901    1    3    3    0    0 -0.58298446178E-01  0.99580111139E-01  0.49734795412E-01  0.88892545089E+00  0.88000000000E+00 0. -1.
        -11    1    4    4    0    0  0.22145754445E-01 -0.55977143906E-01 -0.29780468653E-01  0.67164071601E-01  0.51100000000E-03 0. -1.
         11    1    4    4    0    0  0.20210487951E-01 -0.59540248682E-01 -0.12600341226E-01  0.64129047680E-01  0.51100000000E-03 0.  1.
</event>
<event>
 8    1  0.1114333E+005  0.1043930E+01  0.7957747E-01            NaN
         13   -1    0    0    0    0  0.00000000000E+00  0.00000000000E+00  0.74505805969E-08  0.10566000000E+00  0.10566000000E+00 0. -1.
     999900   -1    0    0    0    0 -0.00000000000E+00 -0.00000000000E+00 -0.74505805969E-08  0.93827000000E+00  0.93827000000E+00 0.  1.
     999902    2    1    2    0    0  0.22681212194E-01 -0.86579978848E-02  0.16622157808E-02  0.10195956359E+01  0.10193052043E+01 0.  0.
     999903    2    3    3    0    0  0.52400500433E-01  0.71848919260E-01  0.93342919196E-01  0.13068059432E+00  0.21364398500E-01 0.  0.
         14    1    1    2    0    0 -0.22681212194E-01  0.86579978848E-02 -0.16622157808E-02  0.24334364081E-01  0.00000000000E+00 0. -1.
     999901    1    3    3    0    0 -0.29719288240E-01 -0.80506917145E-01 -0.91680703415E-01  0.88891504160E+00  0.88000000000E+00 0.  1.
        -11    1    4    4    0    0  0.33458771418E-01  0.49199989466E-01  0.75685743539E-01  0.96274198227E-01  0.51100000000E-03 0.  1.
         11    1    4    4    0    0  0.18941729015E-01  0.22648929794E-01  0.17657175657E-01  0.34406396093E-01  0.51100000000E-03 0. -1.
</event>
<event>
 8    1  0.1114333E+005  0.1043930E+01  0.7957747E-01            NaN
         13   -1    0    0    0    0  0.00000000000E+00  0.00000000000E+00  0.74505805969E-08  0.10566000000E+00  0.10566000000E+00 0. -1.
     999900   -1    0    0    0    0 -0.00000000000E+00 -0.00000000000E+00 -0.74505805969E-08  0.93827000000E+00  0.93827000000E+00 0. -1.
     999902    2    1    2    0    0 -0.11518647053E-01  0.20100346978E-01 -0.48843693540E-02  0.10202538465E+01  0.10199790935E+01 0.  0.
     999903    2    3    3    0    0  0.56958262025E-01 -0.10801570117E+00  0.30816473726E-01  0.12762998451E+00  0.20691123237E-01 0.  0.
         14    1    1    2    0    0  0.11518647053E-01 -0.20100346978E-01  0.48843693540E-02  0.23676153457E-01  0.00000000000E+00 0. -1.
     999901    1    3    3    0    0 -0.68476909079E-01  0.12811604815E+00 -0.35700843080E-01  0.89262386203E+00  0.88000000000E+00 0.  1.
        -11    1    4    4    0    0  0.26665192918E-01 -0.59838121174E-01  0.26108136721E-01  0.70523252783E-01  0.51100000000E-03 0. -1.
         11    1    4    4    0    0  0.30293069107E-01 -0.48177579998E-01  0.47083370054E-02  0.57106731729E-01  0.51100000000E-03 0.  1.
</event>
<event>
 8    1  0.1114333E+005  0.1043930E+01  0.7957747E-01            NaN
         13   -1    0    0    0    0  0.00000000000E+00  0.00000000000E+00  0.74505805969E-08  0.10566000000E+00  0.10566000000E+00 0. -1.
     999900   -1    0    0    0    0 -0.00000000000E+00 -0.00000000000E+00 -0.74505805969E-08  0.93827000000E+00  0.93827000000E+00 0. -1.
     999902    2    1    2    0    0  0.17465257638E-01  0.14092114356E-01  0.82812691222E-02  0.10200092490E+01  0.10197287216E+01 0.  0.
     999903    2    3    3    0    0  0.12345104677E-01  0.12879840573E+00  0.21282566203E-01  0.13245486587E+00  0.18705960010E-01 0.  0.
         14    1    1    2    0    0 -0.17465257638E-01 -0.14092114356E-01 -0.82812691222E-02  0.23920751027E-01  0.00000000000E+00 0.  1.
     999901    1    3    3    0    0  0.51201529607E-02 -0.11470629137E+00 -0.13001297081E-01  0.88755438311E+00  0.88000000000E+00 0. -1.
        -11    1    4    4    0    0  0.10006228263E-01  0.28771440259E-01  0.81791009479E-02  0.31544875843E-01  0.51100000000E-03 0. -1.
         11    1    4    4    0    0  0.23388764144E-02  0.10002696547E+00  0.13103465255E-01  0.10090999002E+00  0.51100000000E-03 0.  1.
</event>
<event>
 8    1  0.1114333E+005  0.1043930E+01  0.7957747E-01            NaN
         13   -1    0    0    0    0  0.00000000000E+00  0.00000000000E+00  0.74505805969E-08  0.10566000000E+00  0.10566000000E+00 0.  1.
     999900   -1    0    0    0    0 -0.00000000000E+00 -0.00000000000E+00 -0.74505805969E-08  0.93827000000E+00  0.93827000000E+00 0. -1.
     999902    2    1    2    0    0  0.22105157309E-01  0.30416588680E-02 -0.27552006655E-02  0.10214470999E+01  0.10211996362E+01 0.  0.
     999903    2    3    3    0    0  0.28535144686E-01 -0.96356156582E-01 -0.83386291946E-01  0.13216500550E+00  0.20385082808E-01 0.  0.
         14    1    1    2    0    0 -0.22105157309E-01 -0.30416588680E-02  0.27552006655E-02  0.22482900147E-01  0.00000000000E+00 0.  1.
     999901    1    3    3    0    0 -0.64299873775E-02  0.99397815450E-01  0.80631091281E-01  0.88928209435E+00  0.88000000000E+00 0.  1.
        -11    1    4    4    0    0 -0.26684785464E-03 -0.14969450475E-01 -0.20339116595E-01  0.25260570860E-01  0.51100000000E-03 0. -1.
         11    1    4    4    0    0  0.28801992541E-01 -0.81386706107E-01 -0.63047175352E-01  0.10690443464E+00  0.51100000000E-03 0.  1.
</event>
<event>
 8    1  0.1114333E+005  0.1043930E+01  0.7957747E-01            NaN
         13   -1    0    0    0    0  0.00000000000E+00  0.00000000000E+00  0.74505805969E-08  0.10566000000E+00  0.10566000000E+00 0.  1.
     999900   -1    0    0    0    0 -0.00000000000E+00 -0.00000000000E+00 -0.74505805969E-08  0.93827000000E+00  0.93827000000E+00 0. -1.
     999902    2    1    2    0    0  0.14963646750E-01  0.67044626720E-02  0.16907681643E-01  0.10203772880E+01  0.10201054257E+01 0.  0.
     999903    2    3    3    0    0  0.45584643282E-01 -0.85897303114E-01 -0.84640114595E-01  0.12918444278E+00  0.82683053146E-02 0.  0.
         14    1    1    2    0    0 -0.14963646750E-01 -0.67044626720E-02 -0.16907681643E-01  0.23552711995E-01  0.00000000000E+00 0. -1.
     999901    1    3    3    0    0 -0.30620996532E-01  0.92601765786E-01  0.10154779624E+00  0.89119284522E+00  0.88000000000E+00 0.  1.
        -11    1    4    4    0    0  0.25619028906E-01 -0.56450545678E-01 -0.52527747884E-01  0.81255302400E-01  0.51100000000E-03 0.  1.
         11    1    4    4    0    0  0.19965614377E-01 -0.29446757437E-01 -0.32112366711E-01  0.47929140382E-01  0.51100000000E-03 0. -1.
</event>
<event>
 8    1  0.1114333E+005  0.1043930E+01  0.7957747E-01            NaN
         13   -1    0    0    0    0  0.00000000000E+00  0.00000000000E+00  0.74505805969E-08  0.10566000000E+00  0.10566000000E+00 0.  1.
     999900   -1    0    0    0    0 -0.00000000000E+00 -0.00000000000E+00 -0.74505805969E-08  0.93827000000E+00  0.93827000000E+00 0. -1.
     999902    2    1    2    0    0 -0.19167339536E-02  0.23420246447E-01 -0.20630551491E-02  0.10203410617E+01  0.10200683527E+01 0.  0.
     999903    2    3    3    0    0 -0.10697067475E+00 -0.60614873612E-01  0.34879903664E-01  0.12935115488E+00  0.19955586459E-01 0.  0.
         14    1    1    2    0    0  0.19167339536E-02 -0.23420246447E-01  0.20630551491E-02  0.23588938281E-01  0.00000000000E+00 0.  1.
     999901    1    3    3    0    0  0.10505394079E+00  0.84035120059E-01 -0.36942958813E-01  0.89098990684E+00  0.88000000000E+00 0. -1.
        -11    1    4    4    0    0 -0.57588157717E-01 -0.25231408036E-01  0.25630360335E-01  0.67898426731E-01  0.51100000000E-03 0.  1.
         11    1    4    4    0    0 -0.49382517030E-01 -0.35383465576E-01  0.92495433296E-02  0.61452728151E-01  0.51100000000E-03 0. -1.
</event>
<event>
 8    1  0.1114333E+005  0.1043930E+01  0.7957747E-01            NaN
         13   -1    0    0    0    0  0.00000000000E+00  0.00000000000E+00  0.74505805969E-08  0.10566000000E+00  0.10566000000E+00 0.  1.
     999900   -1    0    0    0    0 -0.00000000000E+00 -0.00000000000E+00 -0.74505805969E-08  0.93827000000E+00  0.93827000000E+00 0.  1.
     999902    2    1    2    0    0 -0.79429600294E-03  0.13231258033E-01 -0.18934475721E-01  0.10208169849E+01  0.10205552926E+01 0.  0.
     999903    2    3    3    0    0 -0.28053778218E-01 -0.30337669521E-02  0.12402189397E+00  0.12871600743E+00  0.19752523152E-01 0.  0.
         14    1    1    2    0    0  0.79429600294E-03 -0.13231258033E-01  0.18934475721E-01  0.23113015081E-01  0.00000000000E+00 0.  1.
     999901    1    3    3    0    0  0.27259482215E-01  0.16265024985E-01 -0.14295636969E+00  0.89210097749E+00  0.88000000000E+00 0.  1.
        -11    1    4    4    0    0 -0.15665960303E-01 -0.17548416305E-02  0.30207124854E-01  0.34076873306E-01  0.51100000000E-03 0.  1.
         11    1    4    4    0    0 -0.12387817915E-01 -0.12789253216E-02  0.93814769112E-01  0.94639134121E-01  0.51100000000E-03 0. -1.
</event>
<event>
 8    1  0.1114333E+005  0.1043930E+01  0.7957747E-01            NaN
         13   -1    0    0    0    0  0.00000000000E+00  0.00000000000E+00  0.74505805969E-08  0.10566000000E+00  0.10566000000E+00 0.  1.
     999900   -1    0    0    0    0 -0.00000000000E+00 -0.00000000000E+00 -0.74505805969E-08  0.93827000000E+00  0.93827000000E+00 0. -1.
     999902    2    1    2    0    0  0.23285693538E-01  0.13150680573E-02 -0.12192989706E-02  0.10205753513E+01  0.10203080946E+01 0.  0.
     999903    2    3    3    0    0  0.35062834859E-01 -0.15631185033E-01  0.12425621481E+00  0.13143532792E+00  0.19023726622E-01 0.  0.
         14    1    1    2    0    0 -0.23285693538E-01 -0.13150680573E-02  0.12192989706E-02  0.23354648735E-01  0.00000000000E+00 0.  1.
     999901    1    3    3    0    0 -0.11777141321E-01  0.16946253091E-01 -0.12547551378E+00  0.88914002334E+00  0.88000000000E+00 0. -1.
        -11    1    4    4    0    0  0.17064698202E-01 -0.16920156943E-01  0.82826803487E-01  0.86244049838E-01  0.51100000000E-03 0. -1.
         11    1    4    4    0    0  0.17998136657E-01  0.12889719099E-02  0.41429411319E-01  0.45191278085E-01  0.51100000000E-03 0.  1.
</event>
<event>
 8    1  0.1208311E+005  0.1043930E+01  0.7957747E-01            NaN
         13   -1    0    0    0    0  0.00000000000E+00  0.00000000000E+00  0.74505805969E-08  0.10566000000E+00  0.10566000000E+00 0. -1.
     999900   -1    0    0    0    0 -0.00000000000E+00 -0.00000000000E+00 -0.74505805969E-08  0.93827000000E+00  0.93827000000E+00 0.  1.
     999902    2    1    2    0    0 -0.19532696293E-01  0.13788443867E-01 -0.32203881245E-02  0.10198049444E+01  0.10195195468E+01 0.  0.
     999903    2    3    3    0    0 -0.84462877880E-04  0.12993310606E+00  0.93002962901E-02  0.13187218574E+00  0.20522150891E-01 0.  0.
         14    1    1    2    0    0  0.19532696293E-01 -0.13788443867E-01  0.32203881245E-02  0.24125055615E-01  0.00000000000E+00 0.  1.
     999901    1    3    3    0    0 -0.19448233415E-01 -0.11614466219E+00 -0.12520684415E-01  0.88793275865E+00  0.88000000000E+00 0. -1.
        -11    1    4    4    0    0 -0.99823457204E-02  0.61949650348E-01  0.68879639838E-02  0.63127740124E-01  0.51100000000E-03 0. -1.
         11    1    4    4    0    0  0.98978828425E-02  0.67983455708E-01  0.24123323063E-02  0.68744445615E-01  0.51100000000E-03 0.  1.
</event>
<event>
 8    1  0.1114333E+005  0.1043930E+01  0.7957747E-01            NaN
         13   -1    0    0    0    0  0.00000000000E+00  0.00000000000E+00  0.74505805969E-08  0.10566000000E+00  0.10566000000E+00 0.  1.
     999900   -1    0    0    0    0 -0.00000000000E+00 -0.00000000000E+00 -0.74505805969E-08  0.93827000000E+00  0.93827000000E+00 0. -1.
     999902    2    1    2    0    0 -0.22423429682E-01  0.50829549045E-02  0.59512806592E-02  0.10201799606E+01  0.10199034698E+01 0.  0.
     999903    2    3    3    0    0 -0.99365119566E-01 -0.62734742341E-01  0.58257521299E-01  0.13268054850E+00  0.20027837589E-01 0.  0.
         14    1    1    2    0    0  0.22423429682E-01 -0.50829549045E-02 -0.59512806592E-02  0.23750039384E-01  0.00000000000E+00 0. -1.
     999901    1    3    3    0    0  0.76941689884E-01  0.67817697245E-01 -0.52306240640E-01  0.88749941212E+00  0.88000000000E+00 0. -1.
        -11    1    4    4    0    0 -0.79907813468E-01 -0.51303501109E-01  0.55368640973E-01  0.10992386185E+00  0.51100000000E-03 0. -1.
         11    1    4    4    0    0 -0.19457306098E-01 -0.11431241232E-01  0.28888803257E-02  0.22756686649E-01  0.51100000000E-03 0.  1.
</event>
<event>
 8    1  0.1114333E+005  0.1043930E+01  0.7957747E-01            NaN
         13   -1    0    0    0    0  0.00000000000E+00  0.00000000000E+00  0.74505805969E-08  0.10566000000E+00  0.10566000000E+00 0. -1.
     999900   -1    0    0    0    0 -0.00000000000E+00 -0.00000000000E+00 -0.74505805969E-08  0.93827000000E+00  0.93827000000E+00 0. -1.
     999902    2    1    2    0    0 -0.27447879879E-02 -0.60905025445E-02 -0.19624609449E-01  0.10231995061E+01  0.10229894798E+01 0.  0.
     999903    2    3    3    0    0  0.50881611190E-01 -0.35672123676E-01  0.11313804060E+00  0.13113628845E+00  0.23131605055E-01 0.  0.
         14    1    1    2    0    0  0.27447879879E-02  0.60905025445E-02  0.19624609449E-01  0.20730493925E-01  0.00000000000E+00 0. -1.
     999901    1    3    3    0    0 -0.53626399178E-01  0.29581621131E-01 -0.13276265005E+00  0.89206321763E+00  0.88000000000E+00 0. -1.
        -11    1    4    4    0    0  0.45358049684E-01 -0.38059227516E-01  0.94253470087E-01  0.11130963667E+00  0.51100000000E-03 0. -1.
         11    1    4    4    0    0  0.55235615062E-02  0.23871038404E-02  0.18884570511E-01  0.19826651781E-01  0.51100000000E-03 0.  1.
</event>
<event>
 8    1  0.1114333E+005  0.1043930E+01  0.7957747E-01            NaN
         13   -1    0    0    0    0  0.00000000000E+00  0.00000000000E+00  0.74505805969E-08  0.10566000000E+00  0.10566000000E+00 0. -1.
     999900   -1    0    0    0    0 -0.00000000000E+00 -0.00000000000E+00 -0.74505805969E-08  0.93827000000E+00  0.93827000000E+00 0. -1.
     999902    2    1    2    0    0  0.30809895846E-01 -0.27000659922E-03  0.18289987692E-02  0.10130646825E+01  0.10125943824E+01 0.  0.
     999903    2    3    3    0    0 -0.13132935229E-01  0.11316522067E+00  0.44172773248E-01  0.12368764302E+00  0.19197864000E-01 0.  0.
         14    1    1    2    0    0 -0.30809895846E-01  0.27000659922E-03 -0.18289987692E-02  0.30865317463E-01  0.00000000000E+00 0.  1.
     999901    1    3    3    0    0  0.43942831075E-01 -0.11343522727E+00 -0.42343774479E-01  0.88937703952E+00  0.88000000000E+00 0. -1.
        -11    1    4    4    0    0 -0.62456906833E-02  0.70884492993E-01  0.17706631463E-01  0.73330797880E-01  0.51100000000E-03 0.  1.
         11    1    4    4    0    0 -0.68872445457E-02  0.42280727675E-01  0.26466141785E-01  0.50356845137E-01  0.51100000000E-03 0. -1.
</event>
<event>
 8    1  0.1114333E+005  0.1043930E+01  0.7957747E-01            NaN
         13   -1    0    0    0    0  0.00000000000E+00  0.00000000000E+00  0.74505805969E-08  0.10566000000E+00  0.10566000000E+00 0. -1.
     999900   -1    0    0    0    0 -0.00000000000E+00 -0.00000000000E+00 -0.74505805969E-08  0.93827000000E+00  0.93827000000E+00 0. -1.
     999902    2    1    2    0    0  0.34783652383E-02 -0.15159436000E-01 -0.16737647315E-01  0.10210814473E+01  0.10208257763E+01 0.  0.
     999903    2    3    3    0    0  0.70561203095E-01 -0.10645661930E+00 -0.28920255012E-01  0.13373501055E+00  0.27143631353E-01 0.  0.
         14    1    1    2    0    0 -0.34783652383E-02  0.15159436000E-01  0.16737647315E-01  0.22848552738E-01  0.00000000000E+00 0. -1.
     999901    1    3    3    0    0 -0.67082837857E-01  0.91297183296E-01  0.12182607697E-01  0.88734643671E+00  0.88000000000E+00 0. -1.
        -11    1    4    4    0    0  0.78128460237E-02 -0.24237071456E-01  0.26164836333E-02  0.25604361022E-01  0.51100000000E-03 0. -1.
         11    1    4    4    0    0  0.62748357072E-01 -0.82219547840E-01 -0.31536738645E-01  0.10813064953E+00  0.51100000000E-03 0.  1.
</event>
<event>
 8    1  0.1114333E+005  0.1043930E+01  0.7957747E-01            NaN
         13   -1    0    0    0    0  0.00000000000E+00  0.00000000000E+00  0.74505805969E-08  0.10566000000E+00  0.10566000000E+00 0. -1.
     999900   -1    0    0    0    0 -0.00000000000E+00 -0.00000000000E+00 -0.74505805969E-08  0.93827000000E+00  0.93827000000E+00 0.  1.
     999902    2    1    2    0    0 -0.19698611275E-01  0.12571697541E-02  0.12087837927E-01  0.10207841237E+01  0.10205216782E+01 0.  0.
     999903    2    3    3    0    0  0.22236226573E-01 -0.11609489766E+00  0.53440416944E-01  0.13104254657E+00  0.18541731711E-01 0.  0.
         14    1    1    2    0    0  0.19698611275E-01 -0.12571697541E-02 -0.12087837927E-01  0.23145876257E-01  0.00000000000E+00 0.  1.
     999901    1    3    3    0    0 -0.41934837848E-01  0.11735206741E+00 -0.41352579017E-01  0.88974157717E+00  0.88000000000E+00 0.  1.
        -11    1    4    4    0    0  0.12535573842E-01 -0.56777301621E-01  0.16309333013E-01  0.60390877252E-01  0.51100000000E-03 0. -1.
         11    1    4    4    0    0  0.97006527310E-02 -0.59317596038E-01  0.37131083931E-01  0.70651669322E-01  0.51100000000E-03 0.  1.
</event>
<event>
 8    1  0.1114333E+005  0.1043930E+01  0.7957747E-01            NaN
         13   -1    0    0    0    0  0.00000000000E+00  0.00000000000E+00  0.74505805969E-08  0.10566000000E+00  0.10566000000E+00 0. -1.
     999900   -1    0    0    0    0 -0.00000000000E+00 -0.00000000000E+00 -0.74505805969E-08  0.93827000000E+00  0.93827000000E+00 0.  1.
     999902    2    1    2    0    0 -0.79897990823E-02  0.20642419167E-01  0.26182111239E-02  0.10216409581E+01  0.10213977902E+01 0.  0.
     999903    2    3    3    0    0  0.11822543513E+00  0.50804662494E-01 -0.20069984894E-01  0.13183491155E+00  0.20476141395E-01 0.  0.
         14    1    1    2    0    0  0.79897990823E-02 -0.20642419167E-01 -0.26182111239E-02  0.22289041880E-01  0.00000000000E+00 0. -1.
     999901    1    3    3    0    0 -0.12621523422E+00 -0.30162243328E-01  0.22688196018E-01  0.88980604657E+00  0.88000000000E+00 0. -1.
        -11    1    4    4    0    0  0.88404377098E-01  0.31284278598E-01 -0.76573703450E-02  0.94090044208E-01  0.51100000000E-03 0. -1.
         11    1    4    4    0    0  0.29821058036E-01  0.19520383896E-01 -0.12412614549E-01  0.37744867344E-01  0.51100000000E-03 0.  1.
</event>
<event>
 8    1  0.1114333E+005  0.1043930E+01  0.7957747E-01            NaN
         13   -1    0    0    0    0  0.00000000000E+00  0.00000000000E+00  0.74505805969E-08  0.10566000000E+00  0.10566000000E+00 0.  1.
     999900   -1    0    0    0    0 -0.00000000000E+00 -0.00000000000E+00 -0.74505805969E-08  0.93827000000E+00  0.93827000000E+00 0. -1.
     999902    2    1    2    0    0 -0.15060155075E-01  0.11151077468E-01 -0.14402853955E-01  0.10202953432E+01  0.10200215637E+01 0.  0.
     999903    2    3    3    0    0  0.76601266398E-01 -0.71032192419E-01  0.71658468883E-01  0.12756780509E+00  0.15009408988E-01 0.  0.
         14    1    1    2    0    0  0.15060155075E-01 -0.11151077468E-01  0.14402853955E-01  0.23634656791E-01  0.00000000000E+00 0.  1.
     999901    1    3    3    0    0 -0.91661421473E-01  0.82183269887E-01 -0.86061322838E-01  0.89272753812E+00  0.88000000000E+00 0. -1.
        -11    1    4    4    0    0  0.68355047539E-01 -0.59305001799E-01  0.66578068507E-01  0.11234943742E+00  0.51100000000E-03 0. -1.
         11    1    4    4    0    0  0.82462188588E-02 -0.11727190620E-01  0.50804003761E-02  0.15218367661E-01  0.51100000000E-03 0.  1.
</event>
<event>
 8    1  0.1114333E+005  0.1043930E+01  0.7957747E-01            NaN
         13   -1    0    0    0    0  0.00000000000E+00  0.00000000000E+00  0.74505805969E-08  0.10566000000E+00  0.10566000000E+00 0.  1.
     999900   -1    0    0    0    0 -0.00000000000E+00 -0.00000000000E+00 -0.74505805969E-08  0.93827000000E+00  0.93827000000E+00 0. -1.
     999902    2    1    2    0    0 -0.21730487503E-01 -0.75315119863E-02 -0.18627860371E-02  0.10208560378E+01  0.10205952391E+01 0.  0.
     999903    2    3    3    0    0 -0.73311517749E-01 -0.78779556071E-01  0.75681100389E-01  0.13307794571E+00  0.20032812809E-01 0.  0.
         14    1    1    2    0    0  0.21730487503E-01  0.75315119863E-02  0.18627860371E-02  0.23073962203E-01  0.00000000000E+00 0. -1.
     999901    1    3    3    0    0  0.51581030246E-01  0.71248044085E-01 -0.77543886426E-01  0.88777809209E+00  0.88000000000E+00 0. -1.
        -11    1    4    4    0    0 -0.56800819175E-01 -0.68547686409E-01  0.54725194764E-01  0.10449988724E+00  0.51100000000E-03 0.  1.
         11    1    4    4    0    0 -0.16510698574E-01 -0.10231869662E-01  0.20955905625E-01  0.28578058467E-01  0.51100000000E-03 0. -1.
</event>
<event>
 8    1  0.1114333E+005  0.1043930E+01  0.7957747E-01            NaN
         13   -1    0    0    0    0  0.00000000000E+00  0.00000000000E+00  0.74505805969E-08  0.10566000000E+00  0.10566000000E+00 0.  1.
     999900   -1    0    0    0    0 -0.00000000000E+00 -0.00000000000E+00 -0.74505805969E-08  0.93827000000E+00  0.93827000000E+00 0.  1.
     999902    2    1    2    0    0  0.34441852462E-02 -0.43996470029E-02 -0.23221789343E-01  0.10200454693E+01  0.10197658009E+01 0.  0.
     999903    2    3    3    0    0  0.24849022292E-01  0.81499524838E-01 -0.99528654654E-01  0.13231827447E+00  0.18507463473E-01 0.  0.
         14    1    1    2    0    0 -0.34441852462E-02  0.43996470029E-02  0.23221789343E-01  0.23884530685E-01  0.00000000000E+00 0.  1.
     999901    1    3    3    0    0 -0.21404837046E-01 -0.85899171841E-01  0.76306865311E-01  0.88772719484E+00  0.88000000000E+00 0. -1.
        -11    1    4    4    0    0  0.10451305983E-01  0.52881882575E-01 -0.51288139599E-01  0.74407376556E-01  0.51100000000E-03 0. -1.
         11    1    4    4    0    0  0.14397716309E-01  0.28617642263E-01 -0.48240515054E-01  0.57910897915E-01  0.51100000000E-03 0.  1.
</event>
<event>
 8    1  0.1114333E+005  0.1043930E+01  0.7957747E-01            NaN
         13   -1    0    0    0    0  0.00000000000E+00  0.00000000000E+00  0.74505805969E-08  0.10566000000E+00  0.10566000000E+00 0.  1.
     999900   -1    0    0    0    0 -0.00000000000E+00 -0.00000000000E+00 -0.74505805969E-08  0.93827000000E+00  0.93827000000E+00 0. -1.
     999902    2    1    2    0    0 -0.20109011917E-01  0.42678733591E-02  0.14181677659E-01  0.10189558717E+01  0.10186497737E+01 0.  0.
     999903    2    3    3    0    0 -0.11970045143E+00  0.12820479130E-01 -0.47925758891E-01  0.13112202713E+00  0.20088426416E-01 0.  0.
         14    1    1    2    0    0  0.20109011917E-01 -0.42678733591E-02 -0.14181677659E-01  0.24974128304E-01  0.00000000000E+00 0.  1.
     999901    1    3    3    0    0  0.99591439508E-01 -0.85526057713E-02  0.62107436550E-01  0.88783384457E+00  0.88000000000E+00 0.  1.
        -11    1    4    4    0    0 -0.35730994286E-01  0.44051215189E-03 -0.52570434896E-02  0.36121954970E-01  0.51100000000E-03 0. -1.
         11    1    4    4    0    0 -0.83969457139E-01  0.12379966979E-01 -0.42668715401E-01  0.95000072156E-01  0.51100000000E-03 0.  1.
</event>
<event>
 8    1  0.1114333E+005  0.1043930E+01  0.7957747E-01            NaN
         13   -1    0    0    0    0  0.00000000000E+00  0.00000000000E+00  0.74505805969E-08  0.10566000000E+00  0.10566000000E+00 0. -1.
     999900   -1    0    0    0    0 -0.00000000000E+00 -0.00000000000E+00 -0.74505805969E-08  0.93827000000E+00  0.93827000000E+00 0.  1.
     999902    2    1    2    0    0  0.56925928932E-02 -0.21362916007E-01  0.75043857870E-02  0.10205827175E+01  0.10203156314E+01 0.  0.
     999903    2    3    3    0    0 -0.55486114383E-01  0.60753791206E-02 -0.11388734042E+00  0.12972265809E+00  0.27240091613E-01 0.  0.
         14    1    1    2    0    0 -0.56925928932E-02  0.21362916007E-01 -0.75043857870E-02  0.23347282502E-01  0.00000000000E+00 0. -1.
     999901    1    3    3    0    0  0.61178707276E-01 -0.27438295128E-01  0.12139172621E+00  0.89086005941E+00  0.88000000000E+00 0. -1.
        -11    1    4    4    0    0 -0.10492083909E-01 -0.98109952384E-02 -0.27673133330E-01  0.31183375083E-01  0.51100000000E-03 0.  1.
         11    1    4    4    0    0 -0.44994030474E-01  0.15886374359E-01 -0.86214207095E-01  0.98539283002E-01  0.51100000000E-03 0. -1.
</event>
<event>
 8    1  0.1114333E+005  0.1043930E+01  0.7957747E-01            NaN
         13   -1    0    0    0    0  0.00000000000E+00  0.00000000000E+00  0.74505805969E-08  0.10566000000E+00  0.10566000000E+00 0. -1.
     999900   -1    0    0    0    0 -0.00000000000E+00 -0.00000000000E+00 -0.74505805969E-08  0.93827000000E+00  0.93827000000E+00 0. -1.
     999902    2    1    2    0    0 -0.15149368050E-01 -0.96797920631E-02  0.13261670049E-01  0.10215900443E+01  0.10213457520E+01 0.  0.
     999903    2    3    3    0    0  0.10993206787E+00 -0.19271049052E-01  0.64462877144E-01  0.13121994071E+00  0.24632852715E-01 0.  0.
         14    1    1    2    0    0  0.15149368050E-01  0.96797920631E-02 -0.13261670049E-01  0.22339955666E-01  0.00000000000E+00 0.  1.
     999901    1    3    3    0    0 -0.12508143592E+00  0.95912569893E-02 -0.51201207096E-01  0.89037010363E+00  0.88000000000E+00 0.  1.
        -11    1    4    4    0    0  0.92824081658E-01 -0.69121888443E-02  0.54648165665E-01  0.10793874013E+00  0.51100000000E-03 0. -1.
         11    1    4    4    0    0  0.17107986208E-01 -0.12358860208E-01  0.98147114798E-02  0.23281200574E-01  0.51100000000E-03 0.  1.
</event>
<event>
 8    1  0.1114333E+005  0.1043930E+01  0.7957747E-01            NaN
         13   -1    0    0    0    0  0.00000000000E+00  0.00000000000E+00  0.74505805969E-08  0.10566000000E+00  0.10566000000E+00 0.  1.
     999900   -1    0    0    0    0 -0.00000000000E+00 -0.00000000000E+00 -0.74505805969E-08  0.93827000000E+00  0.93827000000E+00 0.  1.
     999902    2    1    2    0    0  0.21623228521E-01  0.75913034835E-02  0.72970248832E-02  0.10198792521E+01  0.10195956309E+01 0.  0.
     999903    2    3    3    0    0 -0.38593351880E-01 -0.57766508731E-01  0.10747318487E+00  0.12974839480E+00  0.21394956092E-01 0.  0.
         14    1    1    2    0    0 -0.21623228521E-01 -0.75913034835E-02 -0.72970248832E-02  0.24050747855E-01  0.00000000000E+00 0.  1.
     999901    1    3    3    0    0  0.60216580401E-01  0.65357812215E-01 -0.10017615999E+00  0.89013085735E+00  0.88000000000E+00 0.  1.
        -11    1    4    4    0    0 -0.36540632305E-01 -0.49319491738E-01  0.79429946855E-01  0.10038429983E+00  0.51100000000E-03 0. -1.
         11    1    4    4    0    0 -0.20527195747E-02 -0.84470169929E-02  0.28043238014E-01  0.29364094964E-01  0.51100000000E-03 0.  1.
</event>
<event>
 8    1  0.1114333E+005  0.1043930E+01  0.7957747E-01            NaN
         13   -1    0    0    0    0  0.00000000000E+00  0.00000000000E+00  0.74505805969E-08  0.10566000000E+00  0.10566000000E+00 0. -1.
     999900   -1    0    0    0    0 -0.00000000000E+00 -0.00000000000E+00 -0.74505805969E-08  0.93827000000E+00  0.93827000000E+00 0.  1.
     999902    2    1    2    0    0 -0.11767592653E-01  0.20262227320E-03  0.20403353720E-01  0.10203755071E+01  0.10201036032E+01 0.  0.
     999903    2    3    3    0    0 -0.12847684577E+00 -0.21437012124E-01  0.13612790076E-01  0.13238032959E+00  0.19323514703E-01 0.  0.
         14    1    1    2    0    0  0.11767592653E-01 -0.20262227320E-03 -0.20403353720E-01  0.23554492898E-01  0.00000000000E+00 0.  1.
     999901    1    3    3    0    0  0.11670925311E+00  0.21639634397E-01  0.67905636440E-02  0.88799517752E+00  0.88000000000E+00 0.  1.
        -11    1    4    4    0    0 -0.53031775457E-01 -0.19720049791E-02  0.12176196366E-01  0.54449783201E-01  0.51100000000E-03 0.  1.
         11    1    4    4    0    0 -0.75445070310E-01 -0.19465007145E-01  0.14365937104E-02  0.77930546384E-01  0.51100000000E-03 0. -1.
</event>
<event>
 8    1  0.1114333E+005  0.1043930E+01  0.7957747E-01            NaN
         13   -1    0    0    0    0  0.00000000000E+00  0.00000000000E+00  0.74505805969E-08  0.10566000000E+00  0.10566000000E+00 0. -1.
     999900   -1    0    0    0    0 -0.00000000000E+00 -0.00000000000E+00 -0.74505805969E-08  0.93827000000E+00  0.93827000000E+00 0. -1.
     999902    2    1    2    0    0 -0.25875901451E-01  0.61349320396E-02 -0.30480785553E-02  0.10171626608E+01  0.10168103992E+01 0.  0.
     999903    2    3    3    0    0  0.11905005088E-01 -0.20370053991E-01 -0.12379861199E+00  0.12771867573E+00  0.20719448692E-01 0.  0.
         14    1    1    2    0    0  0.25875901451E-01 -0.61349320396E-02  0.30480785553E-02  0.26767339239E-01  0.00000000000E+00 0.  1.
     999901    1    3    3    0    0 -0.37780906540E-01  0.26504986031E-01  0.12075053343E+00  0.88944398503E+00  0.88000000000E+00 0.  1.
        -11    1    4    4    0    0 -0.23792232244E-02 -0.34008195471E-02 -0.36869145997E-02  0.55750100457E-02  0.51100000000E-03 0.  1.
         11    1    4    4    0    0  0.14284228313E-01 -0.16969234444E-01 -0.12011169739E+00  0.12214366568E+00  0.51100000000E-03 0. -1.
</event>
<event>
 8    1  0.1114333E+005  0.1043930E+01  0.7957747E-01            NaN
         13   -1    0    0    0    0  0.00000000000E+00  0.00000000000E+00  0.74505805969E-08  0.10566000000E+00  0.10566000000E+00 0. -1.
     999900   -1    0    0    0    0 -0.00000000000E+00 -0.00000000000E+00 -0.74505805969E-08  0.93827000000E+00  0.93827000000E+00 0. -1.
     999902    2    1    2    0    0  0.13275358824E-01  0.23305794850E-02 -0.20071395913E-01  0.10197529926E+01  0.10194663497E+01 0.  0.
     999903    2    3    3    0    0  0.92463635954E-02  0.12485679675E+00  0.27036551393E-01  0.13000692466E+00  0.22273536203E-01 0.  0.
         14    1    1    2    0    0 -0.13275358824E-01 -0.23305794850E-02  0.20071395913E-01  0.24177007394E-01  0.00000000000E+00 0. -1.
     999901    1    3    3    0    0  0.40289952290E-02 -0.12252621726E+00 -0.47107947306E-01  0.88974606794E+00  0.88000000000E+00 0.  1.
        -11    1    4    4    0    0 -0.11605559827E-02  0.52021007753E-01  0.12816423209E-02  0.52052241698E-01  0.51100000000E-03 0. -1.
         11    1    4    4    0    0  0.10406919578E-01  0.72835788997E-01  0.25754909072E-01  0.77954682965E-01  0.51100000000E-03 0.  1.
</event>
<event>
 8    1  0.1114333E+005  0.1043930E+01  0.7957747E-01            NaN
         13   -1    0    0    0    0  0.00000000000E+00  0.00000000000E+00  0.74505805969E-08  0.10566000000E+00  0.10566000000E+00 0.  1.
     999900   -1    0    0    0    0 -0.00000000000E+00 -0.00000000000E+00 -0.74505805969E-08  0.93827000000E+00  0.93827000000E+00 0. -1.
     999902    2    1    2    0    0 -0.20478439697E-01 -0.66602893232E-03 -0.11894870148E-01  0.10202382710E+01  0.10199631521E+01 0.  0.
     999903    2    3    3    0    0 -0.98728512311E-01 -0.57353165076E-01 -0.65711056943E-01  0.13331511355E+00  0.20451694519E-01 0.  0.
         14    1    1    2    0    0  0.20478439697E-01  0.66602893232E-03  0.11894870148E-01  0.23691728996E-01  0.00000000000E+00 0.  1.
     999901    1    3    3    0    0  0.78250072614E-01  0.56687136144E-01  0.53816186796E-01  0.88692315745E+00  0.88000000000E+00 0.  1.
        -11    1    4    4    0    0 -0.20936641551E-01 -0.22461822486E-01 -0.16181901410E-01  0.34712987239E-01  0.51100000000E-03 0.  1.
         11    1    4    4    0    0 -0.77791870760E-01 -0.34891342591E-01 -0.49529155533E-01  0.98602126311E-01  0.51100000000E-03 0. -1.
</event>
<event>
 8    1  0.1114333E+005  0.1043930E+01  0.7957747E-01            NaN
         13   -1    0    0    0    0  0.00000000000E+00  0.00000000000E+00  0.74505805969E-08  0.10566000000E+00  0.10566000000E+00 0.  1.
     999900   -1    0    0    0    0 -0.00000000000E+00 -0.00000000000E+00 -0.74505805969E-08  0.93827000000E+00  0.93827000000E+00 0.  1.
     999902    2    1    2    0    0 -0.81725467507E-03  0.14269848286E-01  0.20309260712E-01  0.10190952955E+01  0.10187926476E+01 0.  0.
     999903    2    3    3    0    0 -0.30263591033E-01 -0.95448064581E-01 -0.75080719598E-01  0.12668039456E+00  0.19610964705E-01 0.  0.
         14    1    1    2    0    0  0.81725467507E-03 -0.14269848286E-01 -0.20309260712E-01  0.24834704468E-01  0.00000000000E+00 0. -1.
     999901    1    3    3    0    0  0.29446336358E-01  0.10971791287E+00  0.95389980311E-01  0.89241490097E+00  0.88000000000E+00 0. -1.
        -11    1    4    4    0    0 -0.29016643303E-02 -0.24613061882E-01 -0.27706411753E-01  0.37176993481E-01  0.51100000000E-03 0. -1.
         11    1    4    4    0    0 -0.27361926703E-01 -0.70835002700E-01 -0.47374307845E-01  0.89503401081E-01  0.51100000000E-03 0.  1.
</event>
<event>
 8    1  0.1114333E+005  0.1043930E+01  0.7957747E-01            NaN
         13   -1    0    0    0    0  0.00000000000E+00  0.00000000000E+00  0.74505805969E-08  0.10566000000E+00  0.10566000000E+00 0.  1.
     999900   -1    0    0    0    0 -0.00000000000E+00 -0.00000000000E+00 -0.74505805969E-08  0.93827000000E+00  0.93827000000E+00 0.  1.
     999902    2    1    2    0    0  0.17701667385E-01  0.73418172231E-02 -0.14876466424E-01  0.10196697329E+01  0.10193810885E+01 0.  0.
     999903    2    3    3    0    0  0.10344659423E+00  0.70197656543E-01 -0.40831167813E-01  0.13289090162E+00  0.19076127154E-01 0.  0.
         14    1    1    2    0    0 -0.17701667385E-01 -0.73418172231E-02  0.14876466424E-01  0.24260267138E-01  0.00000000000E+00 0.  1.
     999901    1    3    3    0    0 -0.85744926841E-01 -0.62855839320E-01  0.25954701390E-01  0.88677883124E+00  0.88000000000E+00 0.  1.
        -11    1    4    4    0    0  0.40066508048E-01  0.22871675189E-01 -0.24046646844E-01  0.52028270570E-01  0.51100000000E-03 0.  1.
         11    1    4    4    0    0  0.63380086178E-01  0.47325981354E-01 -0.16784520970E-01  0.80862631049E-01  0.51100000000E-03 0. -1.
</event>
<event>
 8    1  0.1114333E+005  0.1043930E+01  0.7957747E-01            NaN
         13   -1    0    0    0    0  0.00000000000E+00  0.00000000000E+00  0.74505805969E-08  0.10566000000E+00  0.10566000000E+00 0. -1.
     999900   -1    0    0    0    0 -0.00000000000E+00 -0.00000000000E+00 -0.74505805969E-08  0.93827000000E+00  0.93827000000E+00 0. -1.
     999902    2    1    2    0    0  0.19786550141E-02  0.16680528304E-01  0.15858914786E-01  0.10208289117E+01  0.10205674925E+01 0.  0.
     999903    2    3    3    0    0  0.28153247587E-01  0.12877165420E+00 -0.13709719292E-02  0.13316546269E+00  0.18878999279E-01 0.  0.
         14    1    1    2    0    0 -0.19786550141E-02 -0.16680528304E-01 -0.15858914786E-01  0.23101088250E-01  0.00000000000E+00 0.  1.
     999901    1    3    3    0    0 -0.26174592572E-01 -0.11209112590E+00  0.17229886715E-01  0.88766344906E+00  0.88000000000E+00 0.  1.
        -11    1    4    4    0    0  0.59393626129E-03  0.33305891846E-01  0.45469315634E-02  0.33623963175E-01  0.51100000000E-03 0. -1.
         11    1    4    4    0    0  0.27559311325E-01  0.95465762356E-01 -0.59179034926E-02  0.99541499515E-01  0.51100000000E-03 0.  1.
</event>
<event>
 8    1  0.1114333E+005  0.1043930E+01  0.7957747E-01            NaN
         13   -1    0    0    0    0  0.00000000000E+00  0.00000000000E+00  0.74505805969E-08  0.10566000000E+00  0.10566000000E+00 0. -1.
     999900   -1    0    0    0    0 -0.00000000000E+00 -0.00000000000E+00 -0.74505805969E-08  0.93827000000E+00  0.93827000000E+00 0. -1.
     999902    2    1    2    0    0  0.19463526595E-01  0.12056136532E-01 -0.77732317790E-02  0.10197514469E+01  0.10194647670E+01 0.  0.
     999903    2    3    3    0    0  0.35213231766E-01 -0.80416197196E-02 -0.12500324617E+00  0.13161021420E+00  0.19768601102E-01 0.  0.
         14    1    1    2    0    0 -0.19463526595E-01 -0.12056136532E-01  0.77732317790E-02  0.24178553056E-01  0.00000000000E+00 0. -1.
     999901    1    3    3    0    0 -0.15749705171E-01  0.20097756252E-01  0.11723001439E+00  0.88814123274E+00  0.88000000000E+00 0.  1.
        -11    1    4    4    0    0  0.28030513805E-01 -0.75429199236E-02 -0.65183236095E-01  0.71356294284E-01  0.51100000000E-03 0.  1.
         11    1    4    4    0    0  0.71827179612E-02 -0.49869979601E-03 -0.59820010079E-01  0.60253919920E-01  0.51100000000E-03 0. -1.
</event>
<event>
 8    1  0.1114333E+005  0.1043930E+01  0.7957747E-01            NaN
         13   -1    0    0    0    0  0.00000000000E+00  0.00000000000E+00  0.74505805969E-08  0.10566000000E+00  0.10566000000E+00 0. -1.
     999900   -1    0    0    0    0 -0.00000000000E+00 -0.00000000000E+00 -0.74505805969E-08  0.93827000000E+00  0.93827000000E+00 0. -1.
     999902    2    1    2    0    0  0.67374378074E-02  0.34702591248E-02  0.21914666772E-01  0.10207418913E+01  0.10204784761E+01 0.  0.
     999903    2    3    3    0    0  0.90526047188E-01 -0.87368392682E-01 -0.28493077880E-01  0.13067833599E+00  0.20899060996E-01 0.  0.
         14    1    1    2    0    0 -0.67374378074E-02 -0.34702591248E-02 -0.21914666772E-01  0.23188108727E-01  0.00000000000E+00 0.  1.
     999901    1    3    3    0    0 -0.83788609380E-01  0.90838651807E-01  0.50407744652E-01  0.89006355528E+00  0.88000000000E+00 0.  1.
        -11    1    4    4    0    0  0.63703689319E-01 -0.72633127147E-01 -0.25522182423E-01  0.99926843784E-01  0.51100000000E-03 0.  1.
         11    1    4    4    0    0  0.26822357869E-01 -0.14735265535E-01 -0.29708954579E-02  0.30751492206E-01  0.51100000000E-03 0. -1.
</event>
<event>
 8    1  0.1226102E+005  0.1043930E+01  0.7957747E-01            NaN
         13   -1    0    0    0    0  0.00000000000E+00  0.00000000000E+00  0.74505805969E-08  0.10566000000E+00  0.10566000000E+00 0.  1.
     999900   -1    0    0    0    0 -0.00000000000E+00 -0.00000000000E+00 -0.74505805969E-08  0.93827000000E+00  0.93827000000E+00 0. -1.
     999902    2    1    2    0    0  0.76393139732E-02 -0.29786929512E-02 -0.22621544868E-01  0.10198682872E+01  0.10195844042E+01 0.  0.
     999903    2    3    3    0    0  0.12733136926E+00  0.62092898249E-02 -0.25725928275E-01  0.13171275787E+00  0.20846925919E-01 0.  0.
         14    1    1    2    0    0 -0.76393139732E-02  0.29786929512E-02  0.22621544868E-01  0.24061712780E-01  0.00000000000E+00 0.  1.
     999901    1    3    3    0    0 -0.11969205529E+00 -0.91879827761E-02  0.31043834062E-02  0.88815552935E+00  0.88000000000E+00 0. -1.
        -11    1    4    4    0    0  0.67473333990E-01 -0.68243312549E-02 -0.16020660450E-01  0.69686045799E-01  0.51100000000E-03 0.  1.
         11    1    4    4    0    0  0.59858035274E-01  0.13033621080E-01 -0.97052678245E-02  0.62026712067E-01  0.51100000000E-03 0. -1.
</event>
<event>
 8    1  0.1114333E+005  0.1043930E+01  0.7957747E-01            NaN
         13   -1    0    0    0    0  0.00000000000E+00  0.00000000000E+00  0.74505805969E-08  0.10566000000E+00  0.10566000000E+00 0. -1.
     999900   -1    0    0    0    0 -0.00000000000E+00 -0.00000000000E+00 -0.74505805969E-08  0.93827000000E+00  0.93827000000E+00 0. -1.
     999902    2    1    2    0    0 -0.15945841947E-01 -0.15633185290E-01  0.71358999173E-02  0.10204867190E+01  0.10202174063E+01 0.  0.
     999903    2    3    3    0    0 -0.10384606895E+00  0.73179975039E-01  0.27689097727E-01  0.13142167000E+00  0.19122092722E-01 0.  0.
         14    1    1    2    0    0  0.15945841947E-01  0.15633185290E-01 -0.71358999173E-02  0.23443281027E-01  0.00000000000E+00 0.  1.
     999901    1    3    3    0    0  0.87900227008E-01 -0.88813160329E-01 -0.20553197809E-01  0.88906504897E+00  0.88000000000E+00 0. -1.
        -11    1    4    4    0    0 -0.74880934368E-01  0.56659523038E-01  0.12340797875E-01  0.94710148854E-01  0.51100000000E-03 0.  1.
         11    1    4    4    0    0 -0.28965134586E-01  0.16520452000E-01  0.15348299851E-01  0.36711521151E-01  0.51100000000E-03 0. -1.
</event>
<event>
 8    1  0.1114333E+005  0.1043930E+01  0.7957747E-01            NaN
         13   -1    0    0    0    0  0.00000000000E+00  0.00000000000E+00  0.74505805969E-08  0.10566000000E+00  0.10566000000E+00 0. -1.
     999900   -1    0    0    0    0 -0.00000000000E+00 -0.00000000000E+00 -0.74505805969E-08  0.93827000000E+00  0.93827000000E+00 0. -1.
     999902    2    1    2    0    0 -0.14163586268E-01  0.72101408860E-02 -0.19145081538E-01  0.10190477281E+01  0.10187439054E+01 0.  0.
     999903    2    3    3    0    0 -0.12425303498E+00  0.32031191315E-01 -0.22893255996E-01  0.13183308661E+00  0.19774924432E-01 0.  0.
         14    1    1    2    0    0  0.14163586268E-01 -0.72101408860E-02  0.19145081538E-01  0.24882271895E-01  0.00000000000E+00 0. -1.
     999901    1    3    3    0    0  0.11008944872E+00 -0.24821050429E-01  0.37481744581E-02  0.88721464149E+00  0.88000000000E+00 0.  1.
        -11    1    4    4    0    0 -0.79564281431E-01  0.13705229668E-01 -0.21316594161E-01  0.83504290354E-01  0.51100000000E-03 0.  1.
         11    1    4    4    0    0 -0.44688753554E-01  0.18325961647E-01 -0.15766618349E-02  0.48328796261E-01  0.51100000000E-03 0. -1.
</event>
<event>
 8    1  0.1114333E+005  0.1043930E+01  0.7957747E-01            NaN
         13   -1    0    0    0    0  0.00000000000E+00  0.00000000000E+00  0.74505805969E-08  0.10566000000E+00  0.10566000000E+00 0.  1.
     999900   -1    0    0    0    0 -0.00000000000E+00 -0.00000000000E+00 -0.74505805969E-08  0.93827000000E+00  0.93827000000E+00 0. -1.
     999902    2    1    2    0    0 -0.14832213121E-01  0.17474277273E-01 -0.62521150967E-02  0.10201721833E+01  0.10198955092E+01 0.  0.
     999903    2    3    3    0    0 -0.95253191991E-02 -0.14957259310E-01  0.12683146065E+00  0.12955935728E+00  0.19620304216E-01 0.  0.
         14    1    1    2    0    0  0.14832213121E-01 -0.17474277273E-01  0.62521150967E-02  0.23757816723E-01  0.00000000000E+00 0.  1.
     999901    1    3    3    0    0 -0.53068939215E-02  0.32431536583E-01 -0.13308357575E+00  0.89061282599E+00  0.88000000000E+00 0. -1.
        -11    1    4    4    0    0 -0.41330991390E-02  0.37764029234E-02  0.14574631204E-01  0.15621290704E-01  0.51100000000E-03 0.  1.
         11    1    4    4    0    0 -0.53922200601E-02 -0.18733662234E-01  0.11225682945E+00  0.11393806658E+00  0.51100000000E-03 0. -1.
</event>
<event>
 8    1  0.1374868E+005  0.1043930E+01  0.7957747E-01            NaN
         13   -1    0    0    0    0  0.00000000000E+00  0.00000000000E+00  0.74505805969E-08  0.10566000000E+00  0.10566000000E+00 0. -1.
     999900   -1    0    0    0    0 -0.00000000000E+00 -0.00000000000E+00 -0.74505805969E-08  0.93827000000E+00  0.93827000000E+00 0.  1.
     999902    2    1    2    0    0 -0.13390311537E-01  0.19807275393E-01  0.16791638265E-02  0.10199623511E+01  0.10196807096E+01 0.  0.
     999903    2    3    3    0    0 -0.63454582487E-01 -0.38760943208E-01  0.10537984341E+00  0.13052966767E+00  0.20104427055E-01 0.  0.
         14    1    1    2    0    0  0.13390311537E-01 -0.19807275393E-01 -0.16791638265E-02  0.23967648878E-01  0.00000000000E+00 0. -1.
     999901    1    3    3    0    0  0.50064270950E-01  0.58568218602E-01 -0.10370067958E+00  0.88943268346E+00  0.88000000000E+00 0.  1.
        -11    1    4    4    0    0 -0.39302938860E-01 -0.31567753897E-01  0.57881013615E-01  0.76757520460E-01  0.51100000000E-03 0.  1.
         11    1    4    4    0    0 -0.24151643627E-01 -0.71931893111E-02  0.47498829793E-01  0.53772147205E-01  0.51100000000E-03 0. -1.
</event>
<event>
 8    1  0.1114333E+005  0.1043930E+01  0.7957747E-01            NaN
         13   -1    0    0    0    0  0.00000000000E+00  0.00000000000E+00  0.74505805969E-08  0.10566000000E+00  0.10566000000E+00 0.  1.
     999900   -1    0    0    0    0 -0.00000000000E+00 -0.00000000000E+00 -0.74505805969E-08  0.93827000000E+00  0.93827000000E+00 0.  1.
     999902    2    1    2    0    0 -0.15023428643E-01  0.12106559499E-01 -0.15108364165E-01  0.10194241872E+01  0.10191295986E+01 0.  0.
     999903    2    3    3    0    0  0.28393074415E-01  0.12436983520E+00  0.19549866101E-01  0.13055455184E+00  0.19704597441E-01 0.  0.
         14    1    1    2    0    0  0.15023428643E-01 -0.12106559499E-01  0.15108364165E-01  0.24505812756E-01  0.00000000000E+00 0.  1.
     999901    1    3    3    0    0 -0.43416503058E-01 -0.11226327570E+00 -0.34658230266E-01  0.88886963540E+00  0.88000000000E+00 0.  1.
        -11    1    4    4    0    0  0.17252650058E-01  0.65282114506E-01  0.19989751624E-01  0.70422011469E-01  0.51100000000E-03 0. -1.
         11    1    4    4    0    0  0.11140424358E-01  0.59087720695E-01 -0.43988552373E-03  0.60132540376E-01  0.51100000000E-03 0.  1.
</event>
<event>
 8    1  0.1114333E+005  0.1043930E+01  0.7957747E-01            NaN
         13   -1    0    0    0    0  0.00000000000E+00  0.00000000000E+00  0.74505805969E-08  0.10566000000E+00  0.10566000000E+00 0. -1.
     999900   -1    0    0    0    0 -0.00000000000E+00 -0.00000000000E+00 -0.74505805969E-08  0.93827000000E+00  0.93827000000E+00 0. -1.
     999902    2    1    2    0    0 -0.76000398769E-02 -0.30955318153E-01  0.57375847536E-02  0.10115430859E+01  0.10110244816E+01 0.  0.
     999903    2    3    3    0    0  0.31625731370E-01 -0.86229719673E-01 -0.81710342616E-01  0.12461520797E+00  0.20411235322E-01 0.  0.
         14    1    1    2    0    0  0.76000398769E-02  0.30955318153E-01 -0.57375847536E-02  0.32386914130E-01  0.00000000000E+00 0.  1.
     999901    1    3    3    0    0 -0.39225771247E-01  0.55274401521E-01  0.87447927370E-01  0.88692787790E+00  0.88000000000E+00 0.  1.
        -11    1    4    4    0    0  0.15848879965E-01 -0.44306710575E-01 -0.28327394048E-01  0.54926987653E-01  0.51100000000E-03 0. -1.
         11    1    4    4    0    0  0.15776851406E-01 -0.41923009099E-01 -0.53382948568E-01  0.69688220317E-01  0.51100000000E-03 0.  1.
</event>
<event>
 8    1  0.1114333E+005  0.1043930E+01  0.7957747E-01            NaN
         13   -1    0    0    0    0  0.00000000000E+00  0.00000000000E+00  0.74505805969E-08  0.10566000000E+00  0.10566000000E+00 0. -1.
     999900   -1    0    0    0    0 -0.00000000000E+00 -0.00000000000E+00 -0.74505805969E-08  0.93827000000E+00  0.93827000000E+00 0.  1.
     999902    2    1    2    0    0  0.11403376542E-03  0.21999433735E-01  0.98755513353E-03  0.10219081165E+01  0.10216708057E+01 0.  0.
     999903    2    3    3    0    0 -0.34679130732E-01 -0.92735781299E-01  0.81543454716E-01  0.13013236731E+00  0.21966583089E-01 0.  0.
         14    1    1    2    0    0 -0.11403376542E-03 -0.21999433735E-01 -0.98755513353E-03  0.22021883514E-01  0.00000000000E+00 0.  1.
     999901    1    3    3    0    0  0.34793164498E-01  0.11473521503E+00 -0.80555899582E-01  0.89177574918E+00  0.88000000000E+00 0.  1.
        -11    1    4    4    0    0 -0.16392463498E-01 -0.35966848118E-01  0.46199990733E-01  0.60803184849E-01  0.51100000000E-03 0. -1.
         11    1    4    4    0    0 -0.18286667235E-01 -0.56768933181E-01  0.35343463983E-01  0.69329182459E-01  0.51100000000E-03 0.  1.
</event>
<event>
 8    1  0.1114333E+005  0.1043930E+01  0.7957747E-01            NaN
         13   -1    0    0    0    0  0.00000000000E+00  0.00000000000E+00  0.74505805969E-08  0.10566000000E+00  0.10566000000E+00 0. -1.
     999900   -1    0    0    0    0 -0.00000000000E+00 -0.00000000000E+00 -0.74505805969E-08  0.93827000000E+00  0.93827000000E+00 0.  1.
     999902    2    1    2    0    0 -0.61647450982E-02  0.20614211502E-01  0.12151455452E-01  0.10192195231E+01  0.10189199324E+01 0.  0.
     999903    2    3    3    0    0  0.90336233933E-01  0.16417876313E-01  0.90604979403E-01  0.13046477427E+00  0.19534922811E-01 0.  0.
         14    1    1    2    0    0  0.61647450982E-02 -0.20614211502E-01 -0.12151455452E-01  0.24710476879E-01  0.00000000000E+00 0.  1.
     999901    1    3    3    0    0 -0.96500979031E-01  0.41963351891E-02 -0.78453523951E-01  0.88875474885E+00  0.88000000000E+00 0.  1.
        -11    1    4    4    0    0  0.16095173695E-01 -0.40777054135E-02  0.12657644892E-01  0.20884429437E-01  0.51100000000E-03 0. -1.
         11    1    4    4    0    0  0.74241060238E-01  0.20495581726E-01  0.77947334512E-01  0.10958034483E+00  0.51100000000E-03 0.  1.
</event>
<event>
 8    1  0.1114333E+005  0.1043930E+01  0.7957747E-01            NaN
         13   -1    0    0    0    0  0.00000000000E+00  0.00000000000E+00  0.74505805969E-08  0.10566000000E+00  0.10566000000E+00 0.  1.
     999900   -1    0    0    0    0 -0.00000000000E+00 -0.00000000000E+00 -0.74505805969E-08  0.93827000000E+00  0.93827000000E+00 0.  1.
     999902    2    1    2    0    0 -0.44418151852E-02  0.17205122092E-01 -0.12797426531E-01  0.10220320532E+01  0.10217974348E+01 0.  0.
     999903    2    3    3    0    0  0.98181511015E-01  0.81774048014E-01 -0.32959549878E-01  0.13348987384E+00  0.20164584212E-01 0.  0.
         14    1    1    2    0    0  0.44418151852E-02 -0.17205122092E-01  0.12797426531E-01  0.21897946802E-01  0.00000000000E+00 0.  1.
     999901    1    3    3    0    0 -0.10262332620E+00 -0.64568925922E-01  0.20162123348E-01  0.88854217936E+00  0.88000000000E+00 0.  1.
        -11    1    4    4    0    0  0.59126414658E-01  0.59620402489E-01 -0.15937614663E-01  0.85468087526E-01  0.51100000000E-03 0.  1.
         11    1    4    4    0    0  0.39055096357E-01  0.22153645525E-01 -0.17021935215E-01  0.48021786316E-01  0.51100000000E-03 0. -1.
</event>
<event>
 8    1  0.1114333E+005  0.1043930E+01  0.7957747E-01            NaN
         13   -1    0    0    0    0  0.00000000000E+00  0.00000000000E+00  0.74505805969E-08  0.10566000000E+00  0.10566000000E+00 0.  1.
     999900   -1    0    0    0    0 -0.00000000000E+00 -0.00000000000E+00 -0.74505805969E-08  0.93827000000E+00  0.93827000000E+00 0. -1.
     999902    2    1    2    0    0  0.22865551516E-01 -0.57060805413E-02 -0.80499208291E-02  0.10190263050E+01  0.10187219523E+01 0.  0.
     999903    2    3    3    0    0 -0.34946396082E-01  0.12074421396E+00  0.81889984855E-02  0.12796199709E+00  0.22512156662E-01 0.  0.
         14    1    1    2    0    0 -0.22865551516E-01  0.57060805413E-02  0.80499208291E-02  0.24903695040E-01  0.00000000000E+00 0.  1.
     999901    1    3    3    0    0  0.57811947598E-01 -0.12645029450E+00 -0.16238919315E-01  0.89106430787E+00  0.88000000000E+00 0. -1.
        -11    1    4    4    0    0 -0.19025216536E-01  0.68208763091E-01  0.15755137313E-01  0.72545707657E-01  0.51100000000E-03 0.  1.
         11    1    4    4    0    0 -0.15921179546E-01  0.52535450872E-01 -0.75661388273E-02  0.55416289430E-01  0.51100000000E-03 0. -1.
</event>
<event>
 8    1  0.1114333E+005  0.1043930E+01  0.7957747E-01            NaN
         13   -1    0    0    0    0  0.00000000000E+00  0.00000000000E+00  0.74505805969E-08  0.10566000000E+00  0.10566000000E+00 0.  1.
     999900   -1    0    0    0    0 -0.00000000000E+00 -0.00000000000E+00 -0.74505805969E-08  0.93827000000E+00  0.93827000000E+00 0. -1.
     999902    2    1    2    0    0  0.50444915921E-02 -0.20199807817E-01 -0.48553887363E-02  0.10225511803E+01  0.10223276688E+01 0.  0.
     999903    2    3    3    0    0  0.61025311347E-01 -0.94419185605E-01  0.71417635578E-01  0.13437330260E+00  0.17794227878E-01 0.  0.
         14    1    1    2    0    0 -0.50444915921E-02  0.20199807817E-01  0.48553887363E-02  0.21378819683E-01  0.00000000000E+00 0. -1.
     999901    1    3    3    0    0 -0.55980819755E-01  0.74219377788E-01 -0.76273024315E-01  0.88817787771E+00  0.88000000000E+00 0. -1.
        -11    1    4    4    0    0  0.28305928807E-01 -0.28229184529E-01  0.25759586118E-01  0.47559750449E-01  0.51100000000E-03 0.  1.
         11    1    4    4    0    0  0.32719382540E-01 -0.66190001076E-01  0.45658049461E-01  0.86813552155E-01  0.51100000000E-03 0. -1.
</event>
<event>
 8    1  0.1114333E+005  0.1043930E+01  0.7957747E-01            NaN
         13   -1    0    0    0    0  0.00000000000E+00  0.00000000000E+00  0.74505805969E-08  0.10566000000E+00  0.10566000000E+00 0.  1.
     999900   -1    0    0    0    0 -0.00000000000E+00 -0.00000000000E+00 -0.74505805969E-08  0.93827000000E+00  0.93827000000E+00 0.  1.
     999902    2    1    2    0    0 -0.20010628696E-01  0.15950712537E-02 -0.14438279039E-01  0.10192028203E+01  0.10189028195E+01 0.  0.
     999903    2    3    3    0    0  0.90740347604E-01 -0.16093793402E-01  0.83401809833E-01  0.12670556113E+00  0.24609276049E-01 0.  0.
         14    1    1    2    0    0  0.20010628696E-01 -0.15950712537E-02  0.14438279039E-01  0.24727179676E-01  0.00000000000E+00 0. -1.
     999901    1    3    3    0    0 -0.11075097630E+00  0.17688864656E-01 -0.97840088872E-01  0.89249725920E+00  0.88000000000E+00 0. -1.
        -11    1    4    4    0    0  0.47400655930E-01 -0.16386634187E-01  0.57124693647E-01  0.76018653683E-01  0.51100000000E-03 0.  1.
         11    1    4    4    0    0  0.43339691674E-01  0.29284078498E-03  0.26277116187E-01  0.50686907444E-01  0.51100000000E-03 0. -1.
</event>
<event>
 8    1  0.1114333E+005  0.1043930E+01  0.7957747E-01            NaN
         13   -1    0    0    0    0  0.00000000000E+00  0.00000000000E+00  0.74505805969E-08  0.10566000000E+00  0.10566000000E+00 0.  1.
     999900   -1    0    0    0    0 -0.00000000000E+00 -0.00000000000E+00 -0.74505805969E-08  0.93827000000E+00  0.93827000000E+00 0. -1.
     999902    2    1    2    0    0  0.16792418246E-01 -0.16227313525E-01  0.38046828398E-02  0.10202701896E+01  0.10199958202E+01 0.  0.
     999903    2    3    3    0    0  0.51407610343E-02 -0.41533156331E-01  0.12327253326E+00  0.13176092459E+00  0.20332075503E-01 0.  0.
         14    1    1    2    0    0 -0.16792418246E-01  0.16227313525E-01 -0.38046828398E-02  0.23659810360E-01  0.00000000000E+00 0. -1.
     999901    1    3    3    0    0  0.11651657211E-01  0.25305842806E-01 -0.11946785042E+00  0.88850926505E+00  0.88000000000E+00 0. -1.
        -11    1    4    4    0    0 -0.73375977810E-02 -0.10941791440E-01  0.42265749052E-01  0.44274347031E-01  0.51100000000E-03 0. -1.
         11    1    4    4    0    0  0.12478358815E-01 -0.30591364892E-01  0.81006784205E-01  0.87486577559E-01  0.51100000000E-03 0.  1.
</event>
<event>
 8    1  0.1114333E+005  0.1043930E+01  0.7957747E-01            NaN
         13   -1    0    0    0    0  0.00000000000E+00  0.00000000000E+00  0.74505805969E-08  0.10566000000E+00  0.10566000000E+00 0. -1.
     999900   -1    0    0    0    0 -0.00000000000E+00 -0.00000000000E+00 -0.74505805969E-08  0.93827000000E+00  0.93827000000E+00 0.  1.
     999902    2    1    2    0    0  0.11068904029E-01  0.42372521727E-02 -0.20528038990E-01  0.10202260905E+01  0.10199506852E+01 0.  0.
     999903    2    3    3    0    0  0.12463470478E+00  0.33481852376E-01  0.14421226110E-01  0.13175893358E+00  0.22306966210E-01 0.  0.
         14    1    1    2    0    0 -0.11068904029E-01 -0.42372521727E-02  0.20528038990E-01  0.23703909533E-01  0.00000000000E+00 0. -1.
     999901    1    3    3    0    0 -0.11356580075E+00 -0.29244600204E-01 -0.34949265101E-01  0.88846715689E+00  0.88000000000E+00 0.  1.
        -11    1    4    4    0    0  0.59300803220E-01  0.83459180734E-02  0.15059253955E-01  0.61751776182E-01  0.51100000000E-03 0. -1.
         11    1    4    4    0    0  0.65333901557E-01  0.25135934303E-01 -0.63802784461E-03  0.70007157395E-01  0.51100000000E-03 0.  1.
</event>
<event>
 8    1  0.1114333E+005  0.1043930E+01  0.7957747E-01            NaN
         13   -1    0    0    0    0  0.00000000000E+00  0.00000000000E+00  0.74505805969E-08  0.10566000000E+00  0.10566000000E+00 0. -1.
     999900   -1    0    0    0    0 -0.00000000000E+00 -0.00000000000E+00 -0.74505805969E-08  0.93827000000E+00  0.93827000000E+00 0. -1.
     999902    2    1    2    0    0  0.43645597059E-02 -0.16084250155E-01 -0.17881383602E-01  0.10194862613E+01  0.10191931812E+01 0.  0.
     999903    2    3    3    0    0 -0.45895436186E-01  0.11528260928E+00  0.20973082607E-01  0.12747001225E+00  0.20304254795E-01 0.  0.
         14    1    1    2    0    0 -0.43645597059E-02  0.16084250155E-01  0.17881383602E-01  0.24443738748E-01  0.00000000000E+00 0. -1.
     999901    1    3    3    0    0  0.50259995892E-01 -0.13136685944E+00 -0.38854466209E-01  0.89201624901E+00  0.88000000000E+00 0. -1.
        -11    1    4    4    0    0 -0.27430594744E-01  0.42386410560E-01  0.68122336534E-02  0.50948140069E-01  0.51100000000E-03 0. -1.
         11    1    4    4    0    0 -0.18464841442E-01  0.72896198721E-01  0.14160848954E-01  0.76521872178E-01  0.51100000000E-03 0.  1.
</event>
<event>
 8    1  0.1114333E+005  0.1043930E+01  0.7957747E-01            NaN
         13   -1    0    0    0    0  0.00000000000E+00  0.00000000000E+00  0.74505805969E-08  0.10566000000E+00  0.10566000000E+00 0.  1.
     999900   -1    0    0    0    0 -0.00000000000E+00 -0.00000000000E+00 -0.74505805969E-08  0.93827000000E+00  0.93827000000E+00 0. -1.
     999902    2    1    2    0    0 -0.23896081344E-01 -0.60111621340E-02  0.55594529807E-02  0.10186700655E+01  0.10183568324E+01 0.  0.
     999903    2    3    3    0    0 -0.56350470746E-02  0.12658447007E+00 -0.18902163276E-02  0.12851807587E+00  0.21399558163E-01 0.  0.
         14    1    1    2    0    0  0.23896081344E-01  0.60111621340E-02 -0.55594529807E-02  0.25259934506E-01  0.00000000000E+00 0.  1.
     999901    1    3    3    0    0 -0.18261034270E-01 -0.13259563221E+00  0.74496693083E-02  0.89015198962E+00  0.88000000000E+00 0. -1.
        -11    1    4    4    0    0 -0.60010304429E-02  0.91946427268E-01  0.80003631075E-02  0.92490133444E-01  0.51100000000E-03 0.  1.
         11    1    4    4    0    0  0.36598336824E-03  0.34638042804E-01 -0.98905794351E-02  0.36027942429E-01  0.51100000000E-03 0. -1.
</event>
<event>
 8    1  0.1114333E+005  0.1043930E+01  0.7957747E-01            NaN
         13   -1    0    0    0    0  0.00000000000E+00  0.00000000000E+00  0.74505805969E-08  0.10566000000E+00  0.10566000000E+00 0. -1.
     999900   -1    0    0    0    0 -0.00000000000E+00 -0.00000000000E+00 -0.74505805969E-08  0.93827000000E+00  0.93827000000E+00 0.  1.
     999902    2    1    2    0    0 -0.20637969285E-01 -0.10486442282E-01 -0.54817485438E-03  0.10207741855E+01  0.10205115120E+01 0.  0.
     999903    2    3    3    0    0 -0.75849077604E-01 -0.67890042642E-01  0.82681272727E-01  0.13326611190E+00  0.23696481984E-01 0.  0.
         14    1    1    2    0    0  0.20637969285E-01  0.10486442282E-01  0.54817485438E-03  0.23155814466E-01  0.00000000000E+00 0.  1.
     999901    1    3    3    0    0  0.55211108320E-01  0.57403600360E-01 -0.83229447581E-01  0.88750807363E+00  0.88000000000E+00 0.  1.
        -11    1    4    4    0    0 -0.35509570410E-01 -0.28649808757E-01  0.51949506702E-01  0.69142993138E-01  0.51100000000E-03 0. -1.
         11    1    4    4    0    0 -0.40339507195E-01 -0.39240233885E-01  0.30731766025E-01  0.64123118764E-01  0.51100000000E-03 0.  1.
</event>
<event>
 8    1  0.1114333E+005  0.1043930E+01  0.7957747E-01            NaN
         13   -1    0    0    0    0  0.00000000000E+00  0.00000000000E+00  0.74505805969E-08  0.10566000000E+00  0.10566000000E+00 0. -1.
     999900   -1    0    0    0    0 -0.00000000000E+00 -0.00000000000E+00 -0.74505805969E-08  0.93827000000E+00  0.93827000000E+00 0. -1.
     999902    2    1    2    0    0  0.18667015535E-01 -0.60905515185E-02  0.13490566091E-01  0.10201067412E+01  0.10198285227E+01 0.  0.
     999903    2    3    3    0    0 -0.67252260385E-01  0.94938619428E-01  0.50859007834E-01  0.12938489022E+00  0.24851622762E-01 0.  0.
         14    1    1    2    0    0 -0.18667015535E-01  0.60905515185E-02 -0.13490566091E-01  0.23823258809E-01  0.00000000000E+00 0.  1.
     999901    1    3    3    0    0  0.85919275921E-01 -0.10102917095E+00 -0.37368441743E-01  0.89072185097E+00  0.88000000000E+00 0.  1.
        -11    1    4    4    0    0 -0.12939944133E-01  0.36938186031E-01  0.21606860599E-01  0.44710058011E-01  0.51100000000E-03 0. -1.
         11    1    4    4    0    0 -0.54312316253E-01  0.58000433398E-01  0.29252147235E-01  0.84674832210E-01  0.51100000000E-03 0.  1.
</event>
<event>
 8    1  0.1114333E+005  0.1043930E+01  0.7957747E-01            NaN
         13   -1    0    0    0    0  0.00000000000E+00  0.00000000000E+00  0.74505805969E-08  0.10566000000E+00  0.10566000000E+00 0. -1.
     999900   -1    0    0    0    0 -0.00000000000E+00 -0.00000000000E+00 -0.74505805969E-08  0.93827000000E+00  0.93827000000E+00 0. -1.
     999902    2    1    2    0    0 -0.13051688373E-01  0.11488396250E-01  0.20847143022E-01  0.10167834866E+01  0.10164210375E+01 0.  0.
     999903    2    3    3    0    0 -0.35344095476E-01 -0.10155352467E-01  0.12343430096E+00  0.13027938156E+00  0.19604956965E-01 0.  0.
         14    1    1    2    0    0  0.13051688373E-01 -0.11488396250E-01 -0.20847143022E-01  0.27146513404E-01  0.00000000000E+00 0.  1.
     999901    1    3    3    0    0  0.22292407102E-01  0.21643748717E-01 -0.10258715794E+00  0.88650410504E+00  0.88000000000E+00 0. -1.
        -11    1    4    4    0    0 -0.23562794872E-01 -0.11437160672E-01  0.56187666862E-01  0.61994588271E-01  0.51100000000E-03 0. -1.
         11    1    4    4    0    0 -0.11781300604E-01  0.12818082054E-02  0.67246634097E-01  0.68284793289E-01  0.51100000000E-03 0.  1.
</event>
<event>
 8    1  0.1114333E+005  0.1043930E+01  0.7957747E-01            NaN
         13   -1    0    0    0    0  0.00000000000E+00  0.00000000000E+00  0.74505805969E-08  0.10566000000E+00  0.10566000000E+00 0.  1.
     999900   -1    0    0    0    0 -0.00000000000E+00 -0.00000000000E+00 -0.74505805969E-08  0.93827000000E+00  0.93827000000E+00 0.  1.
     999902    2    1    2    0    0  0.13949089402E-01 -0.18880817564E-01  0.15807766524E-02  0.10204021182E+01  0.10201308355E+01 0.  0.
     999903    2    3    3    0    0  0.54478148805E-02 -0.25353798992E-01  0.12774167958E+00  0.13134039673E+00  0.16120462219E-01 0.  0.
         14    1    1    2    0    0 -0.13949089402E-01  0.18880817564E-01 -0.15807766524E-02  0.23527881797E-01  0.00000000000E+00 0. -1.
     999901    1    3    3    0    0  0.85012745215E-02  0.64729814284E-02 -0.12616090293E+00  0.88906172147E+00  0.88000000000E+00 0.  1.
        -11    1    4    4    0    0 -0.29550964758E-02  0.75967507028E-03  0.12312317735E-01  0.12695038023E-01  0.51100000000E-03 0. -1.
         11    1    4    4    0    0  0.84029113563E-02 -0.26113474062E-01  0.11542936184E+00  0.11864535871E+00  0.51100000000E-03 0.  1.
</event>
<event>
 8    1  0.1114333E+005  0.1043930E+01  0.7957747E-01            NaN
         13   -1    0    0    0    0  0.00000000000E+00  0.00000000000E+00  0.74505805969E-08  0.10566000000E+00  0.10566000000E+00 0.  1.
     999900   -1    0    0    0    0 -0.00000000000E+00 -0.00000000000E+00 -0.74505805969E-08  0.93827000000E+00  0.93827000000E+00 0.  1.
     999902    2    1    2    0    0 -0.29638141237E-02 -0.27716238490E-01  0.13877387383E-01  0.10127923066E+01  0.10123135386E+01 0.  0.
     999903    2    3    3    0    0 -0.98927832713E-01 -0.76312367143E-01 -0.33704257684E-02  0.12607467192E+00  0.16527845138E-01 0.  0.
         14    1    1    2    0    0  0.29638141237E-02  0.27716238490E-01 -0.13877387383E-01  0.31137693408E-01  0.00000000000E+00 0.  1.
     999901    1    3    3    0    0  0.95964018590E-01  0.48596128653E-01  0.17247813152E-01  0.88671763467E+00  0.88000000000E+00 0.  1.
        -11    1    4    4    0    0 -0.43566266899E-01 -0.25221617556E-01 -0.59615561850E-02  0.50694682925E-01  0.51100000000E-03 0.  1.
         11    1    4    4    0    0 -0.55361565814E-01 -0.51090749587E-01  0.25911304166E-02  0.75379988993E-01  0.51100000000E-03 0. -1.
</event>
<event>
 8    1  0.1114333E+005  0.1043930E+01  0.7957747E-01            NaN
         13   -1    0    0    0    0  0.00000000000E+00  0.00000000000E+00  0.74505805969E-08  0.10566000000E+00  0.10566000000E+00 0.  1.
     999900   -1    0    0    0    0 -0.00000000000E+00 -0.00000000000E+00 -0.74505805969E-08  0.93827000000E+00  0.93827000000E+00 0.  1.
     999902    2    1    2    0    0 -0.32861648613E-02 -0.17341732285E-02  0.23563782635E-01  0.10200750616E+01  0.10197960939E+01 0.  0.
     999903    2    3    3    0    0  0.10863182416E+00  0.55600812569E-01  0.42847304985E-01  0.13092670998E+00  0.20336869586E-01 0.  0.
         14    1    1    2    0    0  0.32861648613E-02  0.17341732285E-02 -0.23563782635E-01  0.23854938448E-01  0.00000000000E+00 0. -1.
     999901    1    3    3    0    0 -0.11191798902E+00 -0.57334985798E-01 -0.19283522350E-01  0.88914835157E+00  0.88000000000E+00 0.  1.
        -11    1    4    4    0    0  0.61648012563E-01  0.39797672364E-01  0.32650375089E-01  0.80315878212E-01  0.51100000000E-03 0. -1.
         11    1    4    4    0    0  0.46983811595E-01  0.15803140205E-01  0.10196929896E-01  0.50610831771E-01  0.51100000000E-03 0.  1.
</event>
<event>
 8    1  0.1114333E+005  0.1043930E+01  0.7957747E-01            NaN
         13   -1    0    0    0    0  0.00000000000E+00  0.00000000000E+00  0.74505805969E-08  0.10566000000E+00  0.10566000000E+00 0.  1.
     999900   -1    0    0    0    0 -0.00000000000E+00 -0.00000000000E+00 -0.74505805969E-08  0.93827000000E+00  0.93827000000E+00 0. -1.
     999902    2    1    2    0    0 -0.50099809744E-02  0.20332637031E-01  0.98506216528E-02  0.10207880298E+01  0.10205256739E+01 0.  0.
     999903    2    3    3    0    0 -0.83228286554E-01  0.64349911022E-01 -0.77465700567E-01  0.13192371852E+00  0.18305026961E-01 0.  0.
         14    1    1    2    0    0  0.50099809744E-02 -0.20332637031E-01 -0.98506216528E-02  0.23141970204E-01  0.00000000000E+00 0. -1.
     999901    1    3    3    0    0  0.78218305580E-01 -0.44017273991E-01  0.87316322219E-01  0.88886431128E+00  0.88000000000E+00 0.  1.
        -11    1    4    4    0    0 -0.40418104674E-01  0.35673169220E-01 -0.29159778405E-01  0.61292348505E-01  0.51100000000E-03 0. -1.
         11    1    4    4    0    0 -0.42810181881E-01  0.28676741802E-01 -0.48305922162E-01  0.70631370013E-01  0.51100000000E-03 0.  1.
</event>
<event>
 8    1  0.1114333E+005  0.1043930E+01  0.7957747E-01            NaN
         13   -1    0    0    0    0  0.00000000000E+00  0.00000000000E+00  0.74505805969E-08  0.10566000000E+00  0.10566000000E+00 0.  1.
     999900   -1    0    0    0    0 -0.00000000000E+00 -0.00000000000E+00 -0.74505805969E-08  0.93827000000E+00  0.93827000000E+00 0. -1.
     999902    2    1    2    0    0  0.76382959634E-02  0.29294778086E-01 -0.12242631175E-01  0.10112740724E+01  0.10107466745E+01 0.  0.
     999903    2    3    3    0    0  0.24686900776E-01  0.38302200168E-01 -0.11478747310E+00  0.12510973484E+00  0.19994503347E-01 0.  0.
         14    1    1    2    0    0 -0.76382959634E-02 -0.29294778086E-01  0.12242631175E-01  0.32655927585E-01  0.00000000000E+00 0.  1.
     999901    1    3    3    0    0 -0.17048604812E-01 -0.90074220813E-02  0.10254484192E+00  0.88616433757E+00  0.88000000000E+00 0.  1.
        -11    1    4    4    0    0  0.10144175149E-02  0.97588003415E-03 -0.24866156528E-01  0.24911207241E-01  0.51100000000E-03 0.  1.
         11    1    4    4    0    0  0.23672483261E-01  0.37326320134E-01 -0.89921316573E-01  0.10019852760E+00  0.51100000000E-03 0. -1.
</event>
<event>
 8    1  0.1114333E+005  0.1043930E+01  0.7957747E-01            NaN
         13   -1    0    0    0    0  0.00000000000E+00  0.00000000000E+00  0.74505805969E-08  0.10566000000E+00  0.10566000000E+00 0.  1.
     999900   -1    0    0    0    0 -0.00000000000E+00 -0.00000000000E+00 -0.74505805969E-08  0.93827000000E+00  0.93827000000E+00 0. -1.
     999902    2    1    2    0    0  0.20569191107E-01 -0.98161406604E-02  0.38578335189E-02  0.10208143966E+01  0.10205526450E+01 0.  0.
     999903    2    3    3    0    0 -0.10696113609E+00 -0.60443444056E-01  0.37012196296E-01  0.12956453268E+00  0.17971390901E-01 0.  0.
         14    1    1    2    0    0 -0.20569191107E-01  0.98161406604E-02 -0.38578335189E-02  0.23115603382E-01  0.00000000000E+00 0. -1.
     999901    1    3    3    0    0  0.12753032719E+00  0.50627303395E-01 -0.33154362777E-01  0.89124986394E+00  0.88000000000E+00 0. -1.
        -11    1    4    4    0    0 -0.43486409128E-01 -0.18806225410E-01  0.68333646688E-02  0.47871681470E-01  0.51100000000E-03 0.  1.
         11    1    4    4    0    0 -0.63474726959E-01 -0.41637218646E-01  0.30178831627E-01  0.81692851207E-01  0.51100000000E-03 0. -1.
</event>
<event>
 8    1  0.1114333E+005  0.1043930E+01  0.7957747E-01            NaN
         13   -1    0    0    0    0  0.00000000000E+00  0.00000000000E+00  0.74505805969E-08  0.10566000000E+00  0.10566000000E+00 0. -1.
     999900   -1    0    0    0    0 -0.00000000000E+00 -0.00000000000E+00 -0.74505805969E-08  0.93827000000E+00  0.93827000000E+00 0.  1.
     999902    2    1    2    0    0  0.23065767600E-01  0.10734026502E-02  0.26088166736E-02  0.10206923634E+01  0.10204278088E+01 0.  0.
     999903    2    3    3    0    0  0.11601164860E+00  0.14820923643E-01  0.61636613938E-01  0.13372437531E+00  0.20118995650E-01 0.  0.
         14    1    1    2    0    0 -0.23065767600E-01 -0.10734026502E-02 -0.26088166736E-02  0.23237636555E-01  0.00000000000E+00 0. -1.
     999901    1    3    3    0    0 -0.92945880999E-01 -0.13747520993E-01 -0.59027797264E-01  0.88696798814E+00  0.88000000000E+00 0.  1.
        -11    1    4    4    0    0  0.36613375958E-01  0.37014705804E-02  0.92373609282E-02  0.37945093773E-01  0.51100000000E-03 0.  1.
         11    1    4    4    0    0  0.79398272640E-01  0.11119453062E-01  0.52399253009E-01  0.95779281536E-01  0.51100000000E-03 0. -1.
</event>
<event>
 8    1  0.1114333E+005  0.1043930E+01  0.7957747E-01            NaN
         13   -1    0    0    0    0  0.00000000000E+00  0.00000000000E+00  0.74505805969E-08  0.10566000000E+00  0.10566000000E+00 0. -1.
     999900   -1    0    0    0    0 -0.00000000000E+00 -0.00000000000E+00 -0.74505805969E-08  0.93827000000E+00  0.93827000000E+00 0.  1.
     999902    2    1    2    0    0  0.88904345066E-04 -0.16212658295E-01 -0.16961210842E-01  0.10204663927E+01  0.10201966074E+01 0.  0.
     999903    2    3    3    0    0  0.99967631102E-01  0.79584703979E-01 -0.31166463760E-02  0.12954295795E+00  0.21081083782E-01 0.  0.
         14    1    1    2    0    0 -0.88904345066E-04  0.16212658295E-01  0.16961210842E-01  0.23463607271E-01  0.00000000000E+00 0. -1.
     999901    1    3    3    0    0 -0.99878726757E-01 -0.95797362274E-01 -0.13844564466E-01  0.89092343478E+00  0.88000000000E+00 0. -1.
        -11    1    4    4    0    0  0.37095213764E-01  0.39704962124E-01  0.53754661179E-02  0.54604905077E-01  0.51100000000E-03 0.  1.
         11    1    4    4    0    0  0.62872417338E-01  0.39879741855E-01 -0.84921124939E-02  0.74938052870E-01  0.51100000000E-03 0. -1.
</event>
<event>
 8    1  0.1114333E+005  0.1043930E+01  0.7957747E-01            NaN
         13   -1    0    0    0    0  0.00000000000E+00  0.00000000000E+00  0.74505805969E-08  0.10566000000E+00  0.10566000000E+00 0.  1.
     999900   -1    0    0    0    0 -0.00000000000E+00 -0.00000000000E+00 -0.74505805969E-08  0.93827000000E+00  0.93827000000E+00 0. -1.
     999902    2    1    2    0    0  0.73355216258E-02  0.22912293014E-01  0.26717858928E-02  0.10197241848E+01  0.10194368502E+01 0.  0.
     999903    2    3    3    0    0  0.12376178061E+00 -0.16820159619E-01 -0.32039069827E-01  0.13048935359E+00  0.20026814421E-01 0.  0.
         14    1    1    2    0    0 -0.73355216258E-02 -0.22912293014E-01 -0.26717858928E-02  0.24205815180E-01  0.00000000000E+00 0. -1.
     999901    1    3    3    0    0 -0.11642625898E+00  0.39732452633E-01  0.34710855719E-01  0.88923483123E+00  0.88000000000E+00 0. -1.
        -11    1    4    4    0    0  0.47641646166E-01  0.32987912570E-02 -0.12321842749E-01  0.49322382372E-01  0.51100000000E-03 0. -1.
         11    1    4    4    0    0  0.76120134440E-01 -0.20118950876E-01 -0.19717227078E-01  0.81166971215E-01  0.51100000000E-03 0.  1.
</event>
<event>
 8    1  0.1114333E+005  0.1043930E+01  0.7957747E-01            NaN
         13   -1    0    0    0    0  0.00000000000E+00  0.00000000000E+00  0.74505805969E-08  0.10566000000E+00  0.10566000000E+00 0. -1.
     999900   -1    0    0    0    0 -0.00000000000E+00 -0.00000000000E+00 -0.74505805969E-08  0.93827000000E+00  0.93827000000E+00 0. -1.
     999902    2    1    2    0    0  0.17937308776E-01 -0.44437708592E-02 -0.91851759815E-02  0.10232935855E+01  0.10230854806E+01 0.  0.
     999903    2    3    3    0    0 -0.91293429978E-01 -0.79019623922E-01  0.48267981061E-01  0.13155720214E+00  0.19972684296E-01 0.  0.
         14    1    1    2    0    0 -0.17937308776E-01  0.44437708592E-02  0.91851759815E-02  0.20636414500E-01  0.00000000000E+00 0. -1.
     999901    1    3    3    0    0  0.10923073875E+00  0.74575853063E-01 -0.57453157043E-01  0.89173638336E+00  0.88000000000E+00 0. -1.
        -11    1    4    4    0    0 -0.47186227273E-01 -0.38471080319E-01  0.13776498087E-01  0.62422889117E-01  0.51100000000E-03 0.  1.
         11    1    4    4    0    0 -0.44107202705E-01 -0.40548543603E-01  0.34491482975E-01  0.69134313026E-01  0.51100000000E-03 0. -1.
</event>
<event>
 8    1  0.1114333E+005  0.1043930E+01  0.7957747E-01            NaN
         13   -1    0    0    0    0  0.00000000000E+00  0.00000000000E+00  0.74505805969E-08  0.10566000000E+00  0.10566000000E+00 0.  1.
     999900   -1    0    0    0    0 -0.00000000000E+00 -0.00000000000E+00 -0.74505805969E-08  0.93827000000E+00  0.93827000000E+00 0. -1.
     999902    2    1    2    0    0 -0.12652352573E-01 -0.51156268197E-02 -0.20415011914E-01  0.10193734454E+01  0.10190776206E+01 0.  0.
     999903    2    3    3    0    0  0.21821308809E-01 -0.11810711088E+00  0.42930209948E-01  0.12922282558E+00  0.20738287438E-01 0.  0.
         14    1    1    2    0    0  0.12652352573E-01  0.51156268197E-02  0.20415011914E-01  0.24556554621E-01  0.00000000000E+00 0.  1.
     999901    1    3    3    0    0 -0.34473661382E-01  0.11299148406E+00 -0.63345221862E-01  0.89015061980E+00  0.88000000000E+00 0. -1.
        -11    1    4    4    0    0  0.27133854475E-02 -0.67869777778E-01  0.20223920701E-01  0.70872683636E-01  0.51100000000E-03 0.  1.
         11    1    4    4    0    0  0.19107923362E-01 -0.50237333101E-01  0.22706289247E-01  0.58350141943E-01  0.51100000000E-03 0. -1.
</event>
<event>
 8    1  0.1114333E+005  0.1043930E+01  0.7957747E-01            NaN
         13   -1    0    0    0    0  0.00000000000E+00  0.00000000000E+00  0.74505805969E-08  0.10566000000E+00  0.10566000000E+00 0.  1.
     999900   -1    0    0    0    0 -0.00000000000E+00 -0.00000000000E+00 -0.74505805969E-08  0.93827000000E+00  0.93827000000E+00 0. -1.
     999902    2    1    2    0    0 -0.38072218568E-02 -0.15238326304E-01 -0.18260336276E-01  0.10198438752E+01  0.10195594090E+01 0.  0.
     999903    2    3    3    0    0 -0.66734911722E-01 -0.67354249545E-02 -0.11242901044E+00  0.13254464006E+00  0.20709534749E-01 0.  0.
         14    1    1    2    0    0  0.38072218568E-02  0.15238326304E-01  0.18260336276E-01  0.24086124797E-01  0.00000000000E+00 0. -1.
     999901    1    3    3    0    0  0.62927689865E-01 -0.85029013498E-02  0.94168674163E-01  0.88729923514E+00  0.88000000000E+00 0.  1.
        -11    1    4    4    0    0 -0.42497518584E-01 -0.90112972399E-02 -0.87527773236E-01  0.97717013730E-01  0.51100000000E-03 0. -1.
         11    1    4    4    0    0 -0.24237393139E-01  0.22758722854E-02 -0.24901237204E-01  0.34827626335E-01  0.51100000000E-03 0.  1.
</event>
<event>
 8    1  0.1114333E+005  0.1043930E+01  0.7957747E-01            NaN
         13   -1    0    0    0    0  0.00000000000E+00  0.00000000000E+00  0.74505805969E-08  0.10566000000E+00  0.10566000000E+00 0.  1.
     999900   -1    0    0    0    0 -0.00000000000E+00 -0.00000000000E+00 -0.74505805969E-08  0.93827000000E+00  0.93827000000E+00 0.  1.
     999902    2    1    2    0    0  0.10167901791E-01  0.13838695561E-01 -0.16894787218E-01  0.10198399698E+01  0.10195554102E+01 0.  0.
     999903    2    3    3    0    0  0.77973181684E-01  0.34249267628E-01 -0.10034084492E+00  0.13306074584E+00  0.19597130673E-01 0.  0.
         14    1    1    2    0    0 -0.10167901791E-01 -0.13838695561E-01  0.16894787218E-01  0.24090030237E-01  0.00000000000E+00 0. -1.
     999901    1    3    3    0    0 -0.67805279893E-01 -0.20410572066E-01  0.83446057698E-01  0.88677922392E+00  0.88000000000E+00 0. -1.
        -11    1    4    4    0    0  0.15069718336E-01  0.10421818983E-02 -0.26660730283E-01  0.30646993556E-01  0.51100000000E-03 0.  1.
         11    1    4    4    0    0  0.62903463349E-01  0.33207085730E-01 -0.73680114632E-01  0.10241375229E+00  0.51100000000E-03 0. -1.
</event>
<event>
 8    1  0.1114333E+005  0.1043930E+01  0.7957747E-01            NaN
         13   -1    0    0    0    0  0.00000000000E+00  0.00000000000E+00  0.74505805969E-08  0.10566000000E+00  0.10566000000E+00 0. -1.
     999900   -1    0    0    0    0 -0.00000000000E+00 -0.00000000000E+00 -0.74505805969E-08  0.93827000000E+00  0.93827000000E+00 0.  1.
     999902    2    1    2    0    0 -0.60957741203E-02 -0.11131265118E-01  0.20547447325E-01  0.10197792005E+01  0.10194931862E+01 0.  0.
     999903    2    3    3    0    0 -0.44325682247E-01  0.40935984020E-01 -0.11150626837E+00  0.12758487853E+00  0.14273487631E-01 0.  0.
         14    1    1    2    0    0  0.60957741203E-02  0.11131265118E-01 -0.20547447325E-01  0.24150799507E-01  0.00000000000E+00 0.  1.
     999901    1    3    3    0    0  0.38229908127E-01 -0.52067249138E-01  0.13205371570E+00  0.89219432196E+00  0.88000000000E+00 0. -1.
        -11    1    4    4    0    0 -0.32027391565E-01  0.36530830541E-01 -0.93005493758E-01  0.10493111255E+00  0.51100000000E-03 0. -1.
         11    1    4    4    0    0 -0.12298290682E-01  0.44051534787E-02 -0.18500774616E-01  0.22653765984E-01  0.51100000000E-03 0.  1.
</event>
<event>
 8    1  0.1114333E+005  0.1043930E+01  0.7957747E-01            NaN
         13   -1    0    0    0    0  0.00000000000E+00  0.00000000000E+00  0.74505805969E-08  0.10566000000E+00  0.10566000000E+00 0. -1.
     999900   -1    0    0    0    0 -0.00000000000E+00 -0.00000000000E+00 -0.74505805969E-08  0.93827000000E+00  0.93827000000E+00 0.  1.
     999902    2    1    2    0    0  0.11007697675E-01  0.15825687163E-01  0.14467234909E-01  0.10198276626E+01  0.10195428087E+01 0.  0.
     999903    2    3    3    0    0  0.76429995837E-01  0.10198940274E+00 -0.28574245109E-01  0.13215833679E+00  0.20148348929E-01 0.  0.
         14    1    1    2    0    0 -0.11007697675E-01 -0.15825687163E-01 -0.14467234909E-01  0.24102337402E-01  0.00000000000E+00 0.  1.
     999901    1    3    3    0    0 -0.65422298162E-01 -0.86163715577E-01  0.43041480018E-01  0.88766932581E+00  0.88000000000E+00 0. -1.
        -11    1    4    4    0    0  0.80293058087E-02  0.10059734762E-01 -0.94764353041E-02  0.15991621629E-01  0.51100000000E-03 0. -1.
         11    1    4    4    0    0  0.68400690028E-01  0.91929667979E-01 -0.19097809805E-01  0.11616671516E+00  0.51100000000E-03 0.  1.
</event>
<event>
 8    1  0.1114333E+005  0.1043930E+01  0.7957747E-01            NaN
         13   -1    0    0    0    0  0.00000000000E+00  0.00000000000E+00  0.74505805969E-08  0.10566000000E+00  0.10566000000E+00 0. -1.
     999900   -1    0    0    0    0 -0.00000000000E+00 -0.00000000000E+00 -0.74505805969E-08  0.93827000000E+00  0.93827000000E+00 0.  1.
     999902    2    1    2    0    0  0.18629301664E-02 -0.17730495206E-01  0.16108294437E-01  0.10199025549E+01  0.10196194895E+01 0.  0.
     999903    2    3    3    0    0 -0.10886739247E+00 -0.68650681551E-01 -0.13925940822E-01  0.13099529031E+00  0.20020215637E-01 0.  0.
         14    1    1    2    0    0 -0.18629301664E-02  0.17730495206E-01 -0.16108294437E-01  0.24027445114E-01  0.00000000000E+00 0.  1.
     999901    1    3    3    0    0  0.11073032264E+00  0.50920186345E-01  0.30034235259E-01  0.88890726458E+00  0.88000000000E+00 0. -1.
        -11    1    4    4    0    0 -0.91970684947E-01 -0.57437207462E-01 -0.18997439734E-01  0.11008543740E+00  0.51100000000E-03 0.  1.
         11    1    4    4    0    0 -0.16896707526E-01 -0.11213474089E-01  0.50714989121E-02  0.20909852907E-01  0.51100000000E-03 0. -1.
</event>
<event>
 8    1  0.1114333E+005  0.1043930E+01  0.7957747E-01            NaN
         13   -1    0    0    0    0  0.00000000000E+00  0.00000000000E+00  0.74505805969E-08  0.10566000000E+00  0.10566000000E+00 0. -1.
     999900   -1    0    0    0    0 -0.00000000000E+00 -0.00000000000E+00 -0.74505805969E-08  0.93827000000E+00  0.93827000000E+00 0.  1.
     999902    2    1    2    0    0  0.12796962342E-01  0.15370240104E-01  0.59568834053E-02  0.10230615792E+01  0.10228487199E+01 0.  0.
     999903    2    3    3    0    0 -0.74747901492E-01  0.23185576720E-01  0.10576824634E+00  0.13306860686E+00  0.19887494890E-01 0.  0.
         14    1    1    2    0    0 -0.12796962342E-01 -0.15370240104E-01 -0.59568834053E-02  0.20868420782E-01  0.00000000000E+00 0.  1.
     999901    1    3    3    0    0  0.87544863833E-01 -0.78153366165E-02 -0.99811362936E-01  0.88999297235E+00  0.88000000000E+00 0. -1.
        -11    1    4    4    0    0 -0.84616830902E-02  0.88578299318E-02  0.23001504804E-01  0.26065141013E-01  0.51100000000E-03 0. -1.
         11    1    4    4    0    0 -0.66286218402E-01  0.14327746788E-01  0.82766741538E-01  0.10700346585E+00  0.51100000000E-03 0.  1.
</event>
<event>
 8    1  0.1114333E+005  0.1043930E+01  0.7957747E-01            NaN
         13   -1    0    0    0    0  0.00000000000E+00  0.00000000000E+00  0.74505805969E-08  0.10566000000E+00  0.10566000000E+00 0. -1.
     999900   -1    0    0    0    0 -0.00000000000E+00 -0.00000000000E+00 -0.74505805969E-08  0.93827000000E+00  0.93827000000E+00 0.  1.
     999902    2    1    2    0    0  0.13312876305E-01 -0.19376854660E-01  0.16238224798E-02  0.10203645174E+01  0.10200923568E+01 0.  0.
     999903    2    3    3    0    0  0.12083080075E+00  0.44314857270E-03  0.49871752664E-01  0.13228749404E+00  0.20310356371E-01 0.  0.
         14    1    1    2    0    0 -0.13312876305E-01  0.19376854660E-01 -0.16238224798E-02  0.23565482628E-01  0.00000000000E+00 0.  1.
     999901    1    3    3    0    0 -0.10751792444E+00 -0.19820003233E-01 -0.48247930184E-01  0.88807702333E+00  0.88000000000E+00 0.  1.
        -11    1    4    4    0    0  0.65278055059E-01 -0.51260946020E-02  0.36131855600E-01  0.74788190433E-01  0.51100000000E-03 0. -1.
         11    1    4    4    0    0  0.55552745686E-01  0.55692431747E-02  0.13739897064E-01  0.57499303606E-01  0.51100000000E-03 0.  1.
</event>
<event>
 8    1  0.1114333E+005  0.1043930E+01  0.7957747E-01            NaN
         13   -1    0    0    0    0  0.00000000000E+00  0.00000000000E+00  0.74505805969E-08  0.10566000000E+00  0.10566000000E+00 0. -1.
     999900   -1    0    0    0    0 -0.00000000000E+00 -0.00000000000E+00 -0.74505805969E-08  0.93827000000E+00  0.93827000000E+00 0. -1.
     999902    2    1    2    0    0 -0.14216004987E-01 -0.14890539475E-01  0.80875528212E-02  0.10218114224E+01  0.10215720002E+01 0.  0.
     999903    2    3    3    0    0  0.12606320591E+00 -0.26864153096E-01  0.32570029688E-02  0.13060720416E+00  0.20833125162E-01 0.  0.
         14    1    1    2    0    0  0.14216004987E-01  0.14890539475E-01 -0.80875528212E-02  0.22118577582E-01  0.00000000000E+00 0.  1.
     999901    1    3    3    0    0 -0.14027921090E+00  0.11973613622E-01  0.48305498524E-02  0.89120421826E+00  0.88000000000E+00 0.  1.
        -11    1    4    4    0    0  0.11969976353E+00 -0.20577999542E-01  0.14392878057E-02  0.12146530420E+00  0.51100000000E-03 0.  1.
         11    1    4    4    0    0  0.63634423817E-02 -0.62861535546E-02  0.18177151631E-02  0.91418999595E-02  0.51100000000E-03 0. -1.
</event>
<event>
 8    1  0.1114333E+005  0.1043930E+01  0.7957747E-01            NaN
         13   -1    0    0    0    0  0.00000000000E+00  0.00000000000E+00  0.74505805969E-08  0.10566000000E+00  0.10566000000E+00 0. -1.
     999900   -1    0    0    0    0 -0.00000000000E+00 -0.00000000000E+00 -0.74505805969E-08  0.93827000000E+00  0.93827000000E+00 0. -1.
     999902    2    1    2    0    0 -0.20089445505E-01  0.14932255745E-02 -0.14945191506E-01  0.10188466531E+01  0.10185378384E+01 0.  0.
     999903    2    3    3    0    0  0.98090467571E-01 -0.33175412798E-02 -0.80748650635E-01  0.12849855792E+00  0.18941723777E-01 0.  0.
         14    1    1    2    0    0  0.20089445505E-01 -0.14932255745E-02  0.14945191506E-01  0.25083346915E-01  0.00000000000E+00 0. -1.
     999901    1    3    3    0    0 -0.11817991308E+00  0.48107668543E-02  0.65803459129E-01  0.89034809517E+00  0.88000000000E+00 0.  1.
        -11    1    4    4    0    0  0.26227107793E-01 -0.84638605330E-02 -0.17693687859E-01  0.32754020049E-01  0.51100000000E-03 0.  1.
         11    1    4    4    0    0  0.71863359777E-01  0.51463192532E-02 -0.63054962776E-01  0.95744537870E-01  0.51100000000E-03 0. -1.
</event>
<event>
 7    1  0.1114333E+005  0.1043930E+01  0.7957747E-01            NaN
         13   -1    0    0    0    0  0.00000000000E+00  0.00000000000E+00  0.74505805969E-08  0.10566000000E+00  0.10566000000E+00 0. -1.
     999900   -1    0    0    0    0 -0.00000000000E+00 -0.00000000000E+00 -0.74505805969E-08  0.93827000000E+00  0.93827000000E+00 0. -1.
     999903    2    1    2    0    0 -0.10463504807E-02  0.10134282303E+00 -0.48555238437E-01  0.11418843889E+00  0.20246623644E-01 0.  0.
         14    1    1    2    0    0 -0.15562582418E-01 -0.38242208162E-01 -0.17529531175E-01  0.44854709004E-01  0.00000000000E+00 0.  1.
     999901    1    1    2    0    0  0.16608932899E-01 -0.63100614865E-01  0.66084769613E-01  0.88488685210E+00  0.88000000000E+00 0.  1.
        -11    1    3    3    0    0 -0.96847094265E-02  0.31136997979E-01 -0.15588359963E-01  0.36146428968E-01  0.51100000000E-03 0. -1.
         11    1    3    3    0    0  0.86383589458E-02  0.70205825048E-01 -0.32966878474E-01  0.78042009926E-01  0.51100000000E-03 0.  1.
</event>
<event>
 8    1  0.1114333E+005  0.1043930E+01  0.7957747E-01            NaN
         13   -1    0    0    0    0  0.00000000000E+00  0.00000000000E+00  0.74505805969E-08  0.10566000000E+00  0.10566000000E+00 0.  1.
     999900   -1    0    0    0    0 -0.00000000000E+00 -0.00000000000E+00 -0.74505805969E-08  0.93827000000E+00  0.93827000000E+00 0.  1.
     999902    2    1    2    0    0  0.20407714301E-01  0.55337033873E-02  0.12190471725E-01  0.10195229462E+01  0.10192307558E+01 0.  0.
     999903    2    3    3    0    0  0.14552135750E-01 -0.48318155652E-01 -0.11653073084E+00  0.12851034327E+00  0.19725320688E-01 0.  0.
         14    1    1    2    0    0 -0.20407714301E-01 -0.55337033873E-02 -0.12190471725E-01  0.24407053838E-01  0.00000000000E+00 0.  1.
     999901    1    3    3    0    0  0.58555785506E-02  0.53851859039E-01  0.12872120257E+00  0.89101260289E+00  0.88000000000E+00 0. -1.
        -11    1    4    4    0    0  0.69472087154E-02 -0.12195156939E-01 -0.54900957003E-01  0.56668878254E-01  0.51100000000E-03 0.  1.
         11    1    4    4    0    0  0.76049270349E-02 -0.36122998712E-01 -0.61629773839E-01  0.71841465016E-01  0.51100000000E-03 0. -1.
</event>
<event>
 8    1  0.1114333E+005  0.1043930E+01  0.7957747E-01            NaN
         13   -1    0    0    0    0  0.00000000000E+00  0.00000000000E+00  0.74505805969E-08  0.10566000000E+00  0.10566000000E+00 0.  1.
     999900   -1    0    0    0    0 -0.00000000000E+00 -0.00000000000E+00 -0.74505805969E-08  0.93827000000E+00  0.93827000000E+00 0. -1.
     999902    2    1    2    0    0 -0.14216081539E-01  0.16886096531E-01  0.82091701138E-02  0.10203794649E+01  0.10201076535E+01 0.  0.
     999903    2    3    3    0    0 -0.36364932613E-01 -0.93481232731E-01  0.80839917946E-01  0.13024085517E+00  0.19142591905E-01 0.  0.
         14    1    1    2    0    0  0.14216081539E-01 -0.16886096531E-01 -0.82091701138E-02  0.23550535118E-01  0.00000000000E+00 0.  1.
     999901    1    3    3    0    0  0.22148851074E-01  0.11036732926E+00 -0.72630747832E-01  0.89013860971E+00  0.88000000000E+00 0.  1.
        -11    1    4    4    0    0 -0.15761482971E-01 -0.60810612032E-01  0.57144422931E-01  0.84924090070E-01  0.51100000000E-03 0. -1.
         11    1    4    4    0    0 -0.20603449642E-01 -0.32670620699E-01  0.23695495015E-01  0.45316765099E-01  0.51100000000E-03 0.  1.
</event>
<event>
 8    1  0.1114333E+005  0.1043930E+01  0.7957747E-01            NaN
         13   -1    0    0    0    0  0.00000000000E+00  0.00000000000E+00  0.74505805969E-08  0.10566000000E+00  0.10566000000E+00 0. -1.
     999900   -1    0    0    0    0 -0.00000000000E+00 -0.00000000000E+00 -0.74505805969E-08  0.93827000000E+00  0.93827000000E+00 0.  1.
     999902    2    1    2    0    0 -0.11377271585E-01  0.19280687319E-01  0.18209573083E-01  0.10150721455E+01  0.10146618574E+01 0.  0.
     999903    2    3    3    0    0 -0.22414743092E-01  0.47333200576E-01 -0.11154349770E+00  0.12504707362E+00  0.21259495680E-01 0.  0.
         14    1    1    2    0    0  0.11377271585E-01 -0.19280687319E-01 -0.18209573083E-01  0.28857854461E-01  0.00000000000E+00 0.  1.
     999901    1    3    3    0    0  0.11037471507E-01 -0.28052513257E-01  0.12975307078E+00  0.89002507192E+00  0.88000000000E+00 0. -1.
        -11    1    4    4    0    0  0.26780121050E-02  0.15316696123E-01 -0.25498556585E-01  0.29869891829E-01  0.51100000000E-03 0.  1.
         11    1    4    4    0    0 -0.25092755197E-01  0.32016504453E-01 -0.86044941112E-01  0.95177181786E-01  0.51100000000E-03 0. -1.
</event>
<event>
 8    1  0.1114333E+005  0.1043930E+01  0.7957747E-01            NaN
         13   -1    0    0    0    0  0.00000000000E+00  0.00000000000E+00  0.74505805969E-08  0.10566000000E+00  0.10566000000E+00 0.  1.
     999900   -1    0    0    0    0 -0.00000000000E+00 -0.00000000000E+00 -0.74505805969E-08  0.93827000000E+00  0.93827000000E+00 0.  1.
     999902    2    1    2    0    0 -0.77568186502E-02  0.23670319004E-01  0.56983679227E-02  0.10183776296E+01  0.10180570086E+01 0.  0.
     999903    2    3    3    0    0 -0.12323378613E+00  0.81466927765E-03 -0.34858154848E-01  0.12961323882E+00  0.19931657930E-01 0.  0.
         14    1    1    2    0    0  0.77568186502E-02 -0.23670319004E-01 -0.56983679227E-02  0.25552370424E-01  0.00000000000E+00 0. -1.
     999901    1    3    3    0    0  0.11547696748E+00  0.22855649726E-01  0.40556522771E-01  0.88876439076E+00  0.88000000000E+00 0. -1.
        -11    1    4    4    0    0 -0.41887507530E-01 -0.91605688458E-02 -0.11876296671E-01  0.44494795788E-01  0.51100000000E-03 0. -1.
         11    1    4    4    0    0 -0.81346278598E-01  0.99752381234E-02 -0.22981858177E-01  0.85118443029E-01  0.51100000000E-03 0.  1.
</event>
<event>
 8    1  0.1114333E+005  0.1043930E+01  0.7957747E-01            NaN
         13   -1    0    0    0    0  0.00000000000E+00  0.00000000000E+00  0.74505805969E-08  0.10566000000E+00  0.10566000000E+00 0.  1.
     999900   -1    0    0    0    0 -0.00000000000E+00 -0.00000000000E+00 -0.74505805969E-08  0.93827000000E+00  0.93827000000E+00 0.  1.
     999902    2    1    2    0    0  0.11530908747E-01  0.14146575922E-01  0.15664111477E-01  0.10198789739E+01  0.10195953460E+01 0.  0.
     999903    2    3    3    0    0 -0.41138217378E-01  0.11219693473E+00 -0.48160330902E-01  0.13057504998E+00  0.21211343964E-01 0.  0.
         14    1    1    2    0    0 -0.11530908747E-01 -0.14146575922E-01 -0.15664111477E-01  0.24051026074E-01  0.00000000000E+00 0. -1.
     999901    1    3    3    0    0  0.52669126124E-01 -0.98050358803E-01  0.63824442380E-01  0.88930392395E+00  0.88000000000E+00 0. -1.
        -11    1    4    4    0    0 -0.35440670966E-01  0.68775518345E-01 -0.27124001533E-01  0.81988326379E-01  0.51100000000E-03 0.  1.
         11    1    4    4    0    0 -0.56975464113E-02  0.43421416380E-01 -0.21036329369E-01  0.48586723597E-01  0.51100000000E-03 0. -1.
</event>
<event>
 8    1  0.1114333E+005  0.1043930E+01  0.7957747E-01            NaN
         13   -1    0    0    0    0  0.00000000000E+00  0.00000000000E+00  0.74505805969E-08  0.10566000000E+00  0.10566000000E+00 0.  1.
     999900   -1    0    0    0    0 -0.00000000000E+00 -0.00000000000E+00 -0.74505805969E-08  0.93827000000E+00  0.93827000000E+00 0.  1.
     999902    2    1    2    0    0  0.16667071058E-01 -0.74410978100E-02 -0.14727452930E-01  0.10204766620E+01  0.10202071155E+01 0.  0.
     999903    2    3    3    0    0  0.62114849298E-01  0.71927065566E-01  0.86316666602E-01  0.12998538185E+00  0.20343925304E-01 0.  0.
         14    1    1    2    0    0 -0.16667071058E-01  0.74410978100E-02  0.14727452930E-01  0.23453338016E-01  0.00000000000E+00 0. -1.
     999901    1    3    3    0    0 -0.45447778240E-01 -0.79368163377E-01 -0.10104411953E+00  0.89049128014E+00  0.88000000000E+00 0.  1.
        -11    1    4    4    0    0  0.29615643814E-01  0.19847223616E-01  0.35152673902E-01  0.50069653955E-01  0.51100000000E-03 0.  1.
         11    1    4    4    0    0  0.32499205484E-01  0.52079841951E-01  0.51163992700E-01  0.79915727893E-01  0.51100000000E-03 0. -1.
</event>
<event>
 8    1  0.1114333E+005  0.1043930E+01  0.7957747E-01            NaN
         13   -1    0    0    0    0  0.00000000000E+00  0.00000000000E+00  0.74505805969E-08  0.10566000000E+00  0.10566000000E+00 0.  1.
     999900   -1    0    0    0    0 -0.00000000000E+00 -0.00000000000E+00 -0.74505805969E-08  0.93827000000E+00  0.93827000000E+00 0. -1.
     999902    2    1    2    0    0 -0.19251825593E-01  0.11419614552E-01  0.77533335783E-02  0.10202412988E+01  0.10199662510E+01 0.  0.
     999903    2    3    3    0    0  0.21133497121E-01 -0.80236625486E-01  0.98107383117E-01  0.12996286203E+00  0.19512716739E-01 0.  0.
         14    1    1    2    0    0  0.19251825593E-01 -0.11419614552E-01 -0.77533335783E-02  0.23688701247E-01  0.00000000000E+00 0. -1.
     999901    1    3    3    0    0 -0.40385322714E-01  0.91656240039E-01 -0.90354049539E-01  0.89027843672E+00  0.88000000000E+00 0. -1.
        -11    1    4    4    0    0  0.15039912129E-01 -0.23051385830E-01  0.35969139988E-01  0.45294651980E-01  0.51100000000E-03 0.  1.
         11    1    4    4    0    0  0.60935849924E-02 -0.57185239657E-01  0.62138243129E-01  0.84668210049E-01  0.51100000000E-03 0. -1.
</event>
<event>
 7    1  0.1223954E+005  0.1043930E+01  0.7957747E-01            NaN
         13   -1    0    0    0    0  0.00000000000E+00  0.00000000000E+00  0.74505805969E-08  0.10566000000E+00  0.10566000000E+00 0.  1.
     999900   -1    0    0    0    0 -0.00000000000E+00 -0.00000000000E+00 -0.74505805969E-08  0.93827000000E+00  0.93827000000E+00 0. -1.
     999903    2    1    2    0    0  0.18673318656E-01 -0.58756850211E-01 -0.58844409145E-01  0.87546636440E-01  0.20017212293E-01 0.  0.
         14    1    1    2    0    0 -0.12635021431E-01 -0.25932447788E-01 -0.57835783156E-01  0.64630592045E-01  0.00000000000E+00 0. -1.
     999901    1    1    2    0    0 -0.60382972241E-02  0.84689298000E-01  0.11668019230E+00  0.89175277151E+00  0.88000000000E+00 0.  1.
        -11    1    3    3    0    0 -0.22090813405E-02 -0.20919329421E-01 -0.24829875740E-01  0.32546616322E-01  0.51100000000E-03 0.  1.
         11    1    3    3    0    0  0.20882399996E-01 -0.37837520790E-01 -0.34014533405E-01  0.55000020118E-01  0.51100000000E-03 0. -1.
</event>
<event>
 8    1  0.1406220E+005  0.1043930E+01  0.7957747E-01            NaN
         13   -1    0    0    0    0  0.00000000000E+00  0.00000000000E+00  0.74505805969E-08  0.10566000000E+00  0.10566000000E+00 0. -1.
     999900   -1    0    0    0    0 -0.00000000000E+00 -0.00000000000E+00 -0.74505805969E-08  0.93827000000E+00  0.93827000000E+00 0. -1.
     999902    2    1    2    0    0  0.19713254813E-01  0.14355209952E-02 -0.11746710193E-01  0.10209374287E+01  0.10206784875E+01 0.  0.
     999903    2    3    3    0    0  0.91898378086E-01 -0.67196021436E-01 -0.66955591128E-01  0.13359927376E+00  0.20127035873E-01 0.  0.
         14    1    1    2    0    0 -0.19713254813E-01 -0.14355209952E-02  0.11746710193E-01  0.22992571327E-01  0.00000000000E+00 0.  1.
     999901    1    3    3    0    0 -0.72185123273E-01  0.68631542431E-01  0.55208880936E-01  0.88733815492E+00  0.88000000000E+00 0.  1.
        -11    1    4    4    0    0  0.49418693624E-01 -0.24453139148E-01 -0.35980967390E-01  0.65841130223E-01  0.51100000000E-03 0.  1.
         11    1    4    4    0    0  0.42479684462E-01 -0.42742882288E-01 -0.30974623738E-01  0.67758143533E-01  0.51100000000E-03 0. -1.
</event>
<event>
 8    1  0.1114333E+005  0.1043930E+01  0.7957747E-01            NaN
         13   -1    0    0    0    0  0.00000000000E+00  0.00000000000E+00  0.74505805969E-08  0.10566000000E+00  0.10566000000E+00 0. -1.
     999900   -1    0    0    0    0 -0.00000000000E+00 -0.00000000000E+00 -0.74505805969E-08  0.93827000000E+00  0.93827000000E+00 0.  1.
     999902    2    1    2    0    0 -0.89611160163E-02 -0.22577330465E-01  0.42454443319E-02  0.10192711020E+01  0.10189727760E+01 0.  0.
     999903    2    3    3    0    0 -0.41069983070E-01  0.60744998992E-01  0.10430067677E+00  0.12911120659E+00  0.20356180361E-01 0.  0.
         14    1    1    2    0    0  0.89611160163E-02  0.22577330465E-01 -0.42454443319E-02  0.24658897963E-01  0.00000000000E+00 0.  1.
     999901    1    3    3    0    0  0.32108867054E-01 -0.83322329457E-01 -0.10005523244E+00  0.89015989545E+00  0.88000000000E+00 0.  1.
        -11    1    4    4    0    0 -0.24171678447E-01  0.19751205456E-01  0.50759700944E-01  0.59591849416E-01  0.51100000000E-03 0. -1.
         11    1    4    4    0    0 -0.16898304623E-01  0.40993793536E-01  0.53540975830E-01  0.69519357170E-01  0.51100000000E-03 0.  1.
</event>
<event>
 8    1  0.1114333E+005  0.1043930E+01  0.7957747E-01            NaN
         13   -1    0    0    0    0  0.00000000000E+00  0.00000000000E+00  0.74505805969E-08  0.10566000000E+00  0.10566000000E+00 0.  1.
     999900   -1    0    0    0    0 -0.00000000000E+00 -0.00000000000E+00 -0.74505805969E-08  0.93827000000E+00  0.93827000000E+00 0.  1.
     999902    2    1    2    0    0  0.14698790612E-01 -0.85311893907E-02 -0.16667258106E-01  0.10201259430E+01  0.10198481781E+01 0.  0.
     999903    2    3    3    0    0  0.86904869729E-01 -0.97405184071E-01 -0.12629375297E-01  0.13269785615E+00  0.20223591184E-01 0.  0.
         14    1    1    2    0    0 -0.14698790612E-01  0.85311893907E-02  0.16667258106E-01  0.23804057021E-01  0.00000000000E+00 0.  1.
     999901    1    3    3    0    0 -0.72206079117E-01  0.88873994681E-01 -0.40378828091E-02  0.88742808683E+00  0.88000000000E+00 0.  1.
        -11    1    4    4    0    0  0.78706493441E-01 -0.86235804486E-01 -0.49744206111E-02  0.11686031006E+00  0.51100000000E-03 0.  1.
         11    1    4    4    0    0  0.81983762879E-02 -0.11169379585E-01 -0.76549546857E-02  0.15837546095E-01  0.51100000000E-03 0. -1.
</event>
<event>
 8    1  0.1114333E+005  0.1043930E+01  0.7957747E-01            NaN
         13   -1    0    0    0    0  0.00000000000E+00  0.00000000000E+00  0.74505805969E-08  0.10566000000E+00  0.10566000000E+00 0. -1.
     999900   -1    0    0    0    0 -0.00000000000E+00 -0.00000000000E+00 -0.74505805969E-08  0.93827000000E+00  0.93827000000E+00 0. -1.
     999902    2    1    2    0    0  0.62896344203E-02 -0.20265379430E-01  0.83648397798E-02  0.10211217636E+01  0.10208670043E+01 0.  0.
     999903    2    3    3    0    0  0.29086213766E-01  0.20314480223E-01 -0.12349928808E+00  0.13008048660E+00  0.20252725754E-01 0.  0.
         14    1    1    2    0    0 -0.62896344203E-02  0.20265379430E-01 -0.83648397798E-02  0.22808236431E-01  0.00000000000E+00 0.  1.
     999901    1    3    3    0    0 -0.22796579346E-01 -0.40579859652E-01  0.13186412786E+00  0.89104127697E+00  0.88000000000E+00 0.  1.
        -11    1    4    4    0    0  0.26635470645E-01  0.22818444805E-01 -0.93327033644E-01  0.99701183792E-01  0.51100000000E-03 0. -1.
         11    1    4    4    0    0  0.24507431216E-02 -0.25039645825E-02 -0.30172254437E-01  0.30379302811E-01  0.51100000000E-03 0.  1.
</event>
<event>
 8    1  0.1114333E+005  0.1043930E+01  0.7957747E-01            NaN
         13   -1    0    0    0    0  0.00000000000E+00  0.00000000000E+00  0.74505805969E-08  0.10566000000E+00  0.10566000000E+00 0. -1.
     999900   -1    0    0    0    0 -0.00000000000E+00 -0.00000000000E+00 -0.74505805969E-08  0.93827000000E+00  0.93827000000E+00 0. -1.
     999902    2    1    2    0    0 -0.27815729282E-02  0.22511689010E-01  0.58928211910E-02  0.10204941593E+01  0.10202250195E+01 0.  0.
     999903    2    3    3    0    0  0.69069692347E-02 -0.12590443858E+00  0.99846267932E-02  0.12800440712E+00  0.19641832746E-01 0.  0.
         14    1    1    2    0    0  0.27815729282E-02 -0.22511689010E-01 -0.58928211910E-02  0.23435840750E-01  0.00000000000E+00 0.  1.
     999901    1    3    3    0    0 -0.96885421630E-02  0.14841612759E+00 -0.40918056023E-02  0.89248975213E+00  0.88000000000E+00 0.  1.
        -11    1    4    4    0    0  0.81625066364E-02 -0.12208432766E+00  0.12864008833E-01  0.12303232672E+00  0.51100000000E-03 0.  1.
         11    1    4    4    0    0 -0.12555374016E-02 -0.38201109188E-02 -0.28793820394E-02  0.49720804024E-02  0.51100000000E-03 0. -1.
</event>
<event>
 8    1  0.1114333E+005  0.1043930E+01  0.7957747E-01            NaN
         13   -1    0    0    0    0  0.00000000000E+00  0.00000000000E+00  0.74505805969E-08  0.10566000000E+00  0.10566000000E+00 0. -1.
     999900   -1    0    0    0    0 -0.00000000000E+00 -0.00000000000E+00 -0.74505805969E-08  0.93827000000E+00  0.93827000000E+00 0. -1.
     999902    2    1    2    0    0 -0.22260722163E-01  0.23168410629E-02  0.82044928660E-02  0.10200926091E+01  0.10198140565E+01 0.  0.
     999903    2    3    3    0    0  0.18568338544E-01  0.11377258234E+00  0.58275616894E-01  0.13071276224E+00  0.20019865132E-01 0.  0.
         14    1    1    2    0    0  0.22260722163E-01 -0.23168410629E-02 -0.82044928660E-02  0.23837390942E-01  0.00000000000E+00 0. -1.
     999901    1    3    3    0    0 -0.40829060707E-01 -0.11145574128E+00 -0.50071124028E-01  0.88937984682E+00  0.88000000000E+00 0.  1.
        -11    1    4    4    0    0  0.13737626382E-01  0.39467082686E-01  0.13975834275E-01  0.44067653206E-01  0.51100000000E-03 0.  1.
         11    1    4    4    0    0  0.48307121617E-02  0.74305499653E-01  0.44299782619E-01  0.86645109036E-01  0.51100000000E-03 0. -1.
</event>
<event>
 8    1  0.1114333E+005  0.1043930E+01  0.7957747E-01            NaN
         13   -1    0    0    0    0  0.00000000000E+00  0.00000000000E+00  0.74505805969E-08  0.10566000000E+00  0.10566000000E+00 0.  1.
     999900   -1    0    0    0    0 -0.00000000000E+00 -0.00000000000E+00 -0.74505805969E-08  0.93827000000E+00  0.93827000000E+00 0.  1.
     999902    2    1    2    0    0 -0.51751844024E-02  0.18983550410E-01 -0.12789339893E-01  0.10204624706E+01  0.10201925941E+01 0.  0.
     999903    2    3    3    0    0 -0.84652139460E-01 -0.67400287852E-01 -0.70609093049E-01  0.13078731769E+00  0.20270543423E-01 0.  0.
         14    1    1    2    0    0  0.51751844024E-02 -0.18983550410E-01  0.12789339893E-01  0.23467529369E-01  0.00000000000E+00 0.  1.
     999901    1    3    3    0    0  0.79476955058E-01  0.86383838262E-01  0.57819753156E-01  0.88967515294E+00  0.88000000000E+00 0. -1.
        -11    1    4    4    0    0 -0.18328143303E-01 -0.23384958924E-01 -0.26307658922E-01  0.39687922341E-01  0.51100000000E-03 0. -1.
         11    1    4    4    0    0 -0.66323996157E-01 -0.44015328928E-01 -0.44301434127E-01  0.91099395353E-01  0.51100000000E-03 0.  1.
</event>
<event>
 8    1  0.1114333E+005  0.1043930E+01  0.7957747E-01            NaN
         13   -1    0    0    0    0  0.00000000000E+00  0.00000000000E+00  0.74505805969E-08  0.10566000000E+00  0.10566000000E+00 0. -1.
     999900   -1    0    0    0    0 -0.00000000000E+00 -0.00000000000E+00 -0.74505805969E-08  0.93827000000E+00  0.93827000000E+00 0. -1.
     999902    2    1    2    0    0  0.42446474084E-02  0.13836855224E-01  0.18844469726E-01  0.10201689050E+01  0.10198921537E+01 0.  0.
     999903    2    3    3    0    0 -0.29992788493E-01  0.11657226225E+00  0.52480227132E-01  0.13289322633E+00  0.20439561566E-01 0.  0.
         14    1    1    2    0    0 -0.42446474084E-02 -0.13836855224E-01 -0.18844469726E-01  0.23761094953E-01  0.00000000000E+00 0.  1.
     999901    1    3    3    0    0  0.34237435902E-01 -0.10273540702E+00 -0.33635757406E-01  0.88727567872E+00  0.88000000000E+00 0. -1.
        -11    1    4    4    0    0 -0.15288635050E-01  0.74348798046E-01  0.42809678834E-01  0.87145945720E-01  0.51100000000E-03 0. -1.
         11    1    4    4    0    0 -0.14704153443E-01  0.42223464199E-01  0.96705482976E-02  0.45747280606E-01  0.51100000000E-03 0.  1.
</event>
<event>
 8    1  0.1114333E+005  0.1043930E+01  0.7957747E-01            NaN
         13   -1    0    0    0    0  0.00000000000E+00  0.00000000000E+00  0.74505805969E-08  0.10566000000E+00  0.10566000000E+00 0.  1.
     999900   -1    0    0    0    0 -0.00000000000E+00 -0.00000000000E+00 -0.74505805969E-08  0.93827000000E+00  0.93827000000E+00 0. -1.
     999902    2    1    2    0    0  0.15023939411E-01  0.20786536454E-01  0.69758141058E-02  0.10173506690E+01  0.10170034036E+01 0.  0.
     999903    2    3    3    0    0 -0.24518440462E-01 -0.82346015247E-01 -0.88966388332E-01  0.12527173235E+00  0.19898957863E-01 0.  0.
         14    1    1    2    0    0 -0.15023939411E-01 -0.20786536454E-01 -0.69758141058E-02  0.26579330986E-01  0.00000000000E+00 0.  1.
     999901    1    3    3    0    0  0.39542379873E-01  0.10313255170E+00  0.95942202438E-01  0.89207893666E+00  0.88000000000E+00 0.  1.
        -11    1    4    4    0    0 -0.23740476942E-01 -0.80034064854E-01 -0.78780634380E-01  0.11478550107E+00  0.51100000000E-03 0. -1.
         11    1    4    4    0    0 -0.77796352039E-03 -0.23119503929E-02 -0.10185753952E-01  0.10486231279E-01  0.51100000000E-03 0.  1.
</event>
<event>
 8    1  0.1114333E+005  0.1043930E+01  0.7957747E-01            NaN
         13   -1    0    0    0    0  0.00000000000E+00  0.00000000000E+00  0.74505805969E-08  0.10566000000E+00  0.10566000000E+00 0. -1.
     999900   -1    0    0    0    0 -0.00000000000E+00 -0.00000000000E+00 -0.74505805969E-08  0.93827000000E+00  0.93827000000E+00 0. -1.
     999902    2    1    2    0    0 -0.15056130534E-01  0.10230234832E-01  0.14737419059E-01  0.10205091484E+01  0.10202403568E+01 0.  0.
     999903    2    3    3    0    0  0.64112653713E-01  0.16519272774E-01  0.11196713664E+00  0.13159921682E+00  0.19959845700E-01 0.  0.
         14    1    1    2    0    0  0.15056130534E-01 -0.10230234832E-01 -0.14737419059E-01  0.23420851648E-01  0.00000000000E+00 0.  1.
     999901    1    3    3    0    0 -0.79168784247E-01 -0.62890379420E-02 -0.97229717583E-01  0.88890993153E+00  0.88000000000E+00 0. -1.
        -11    1    4    4    0    0  0.35051019087E-01 -0.17155706167E-03  0.48735737032E-01  0.60033628542E-01  0.51100000000E-03 0.  1.
         11    1    4    4    0    0  0.29061634626E-01  0.16690829836E-01  0.63231399611E-01  0.71565588277E-01  0.51100000000E-03 0. -1.
</event>
<event>
 8    1  0.1114333E+005  0.1043930E+01  0.7957747E-01            NaN
         13   -1    0    0    0    0  0.00000000000E+00  0.00000000000E+00  0.74505805969E-08  0.10566000000E+00  0.10566000000E+00 0.  1.
     999900   -1    0    0    0    0 -0.00000000000E+00 -0.00000000000E+00 -0.74505805969E-08  0.93827000000E+00  0.93827000000E+00 0.  1.
     999902    2    1    2    0    0 -0.89687431212E-02 -0.11485528524E-01  0.19483010368E-01  0.10196001128E+01  0.10193097893E+01 0.  0.
     999903    2    3    3    0    0  0.23866212994E-01  0.78799401886E-01 -0.94628308959E-01  0.12704709128E+00  0.20186745330E-01 0.  0.
         14    1    1    2    0    0  0.89687431212E-02  0.11485528524E-01 -0.19483010368E-01  0.24329887210E-01  0.00000000000E+00 0. -1.
     999901    1    3    3    0    0 -0.32834956115E-01 -0.90284930409E-01  0.11411131933E+00  0.89255302151E+00  0.88000000000E+00 0.  1.
        -11    1    4    4    0    0  0.19113584146E-01  0.52542730098E-01 -0.49799181365E-01  0.74875143878E-01  0.51100000000E-03 0.  1.
         11    1    4    4    0    0  0.47526288484E-02  0.26256671787E-01 -0.44829127594E-01  0.52171947406E-01  0.51100000000E-03 0. -1.
</event>
<event>
 8    1  0.1114333E+005  0.1043930E+01  0.7957747E-01            NaN
         13   -1    0    0    0    0  0.00000000000E+00  0.00000000000E+00  0.74505805969E-08  0.10566000000E+00  0.10566000000E+00 0.  1.
     999900   -1    0    0    0    0 -0.00000000000E+00 -0.00000000000E+00 -0.74505805969E-08  0.93827000000E+00  0.93827000000E+00 0.  1.
     999902    2    1    2    0    0 -0.10963567047E-01  0.17516915600E-01  0.94565922099E-02  0.10212040397E+01  0.10209511357E+01 0.  0.
     999903    2    3    3    0    0  0.12775392298E+00  0.16539242506E-01  0.26311425183E-02  0.13031118160E+00  0.19479983577E-01 0.  0.
         14    1    1    2    0    0  0.10963567047E-01 -0.17516915600E-01 -0.94565922099E-02  0.22725960282E-01  0.00000000000E+00 0.  1.
     999901    1    3    3    0    0 -0.13871749002E+00  0.97767309384E-03  0.68254496916E-02  0.89089285812E+00  0.88000000000E+00 0.  1.
        -11    1    4    4    0    0  0.73903806857E-01  0.61750063098E-02  0.10521316120E-01  0.74905691271E-01  0.51100000000E-03 0. -1.
         11    1    4    4    0    0  0.53850116120E-01  0.10364236196E-01 -0.78901736015E-02  0.55405490329E-01  0.51100000000E-03 0.  1.
</event>
<event>
 8    1  0.1114333E+005  0.1043930E+01  0.7957747E-01            NaN
         13   -1    0    0    0    0  0.00000000000E+00  0.00000000000E+00  0.74505805969E-08  0.10566000000E+00  0.10566000000E+00 0. -1.
     999900   -1    0    0    0    0 -0.00000000000E+00 -0.00000000000E+00 -0.74505805969E-08  0.93827000000E+00  0.93827000000E+00 0. -1.
     999902    2    1    2    0    0  0.14456281435E-01  0.14934586628E-01  0.11999812540E-01  0.10199295531E+01  0.10196471310E+01 0.  0.
     999903    2    3    3    0    0  0.88712035640E-01  0.29950743525E-01  0.92164501962E-01  0.13304411549E+00  0.20965899454E-01 0.  0.
         14    1    1    2    0    0 -0.14456281435E-01 -0.14934586628E-01 -0.11999812540E-01  0.24000446906E-01  0.00000000000E+00 0.  1.
     999901    1    3    3    0    0 -0.74255754206E-01 -0.15016156897E-01 -0.80164689422E-01  0.88688543760E+00  0.88000000000E+00 0. -1.
        -11    1    4    4    0    0  0.69451545040E-01  0.14046610026E-01  0.70851871039E-01  0.10020515512E+00  0.51100000000E-03 0.  1.
         11    1    4    4    0    0  0.19260490601E-01  0.15904133499E-01  0.21312630924E-01  0.32838960374E-01  0.51100000000E-03 0. -1.
</event>
<event>
 8    1  0.1114333E+005  0.1043930E+01  0.7957747E-01            NaN
         13   -1    0    0    0    0  0.00000000000E+00  0.00000000000E+00  0.74505805969E-08  0.10566000000E+00  0.10566000000E+00 0. -1.
     999900   -1    0    0    0    0 -0.00000000000E+00 -0.00000000000E+00 -0.74505805969E-08  0.93827000000E+00  0.93827000000E+00 0. -1.
     999902    2    1    2    0    0 -0.19089568841E-01  0.49307498710E-02 -0.11245305512E-01  0.10212324048E+01  0.10209801388E+01 0.  0.
     999903    2    3    3    0    0 -0.12760817171E+00  0.31220332448E-01  0.16206005059E-01  0.13375226203E+00  0.19195789981E-01 0.  0.
         14    1    1    2    0    0  0.19089568841E-01 -0.49307498710E-02  0.11245305512E-01  0.22697595222E-01  0.00000000000E+00 0. -1.
     999901    1    3    3    0    0  0.10851860287E+00 -0.26289582577E-01 -0.27451310571E-01  0.88748014275E+00  0.88000000000E+00 0. -1.
        -11    1    4    4    0    0 -0.55249601213E-01  0.81325923569E-02 -0.10716393173E-02  0.55857560137E-01  0.51100000000E-03 0.  1.
         11    1    4    4    0    0 -0.72358570495E-01  0.23087740091E-01  0.17277644377E-01  0.77894701892E-01  0.51100000000E-03 0. -1.
</event>
<event>
 8    1  0.1114333E+005  0.1043930E+01  0.7957747E-01            NaN
         13   -1    0    0    0    0  0.00000000000E+00  0.00000000000E+00  0.74505805969E-08  0.10566000000E+00  0.10566000000E+00 0. -1.
     999900   -1    0    0    0    0 -0.00000000000E+00 -0.00000000000E+00 -0.74505805969E-08  0.93827000000E+00  0.93827000000E+00 0.  1.
     999902    2    1    2    0    0  0.64734262776E-02  0.31973434262E-01  0.17257666660E-02  0.10112622174E+01  0.10107344302E+01 0.  0.
     999903    2    3    3    0    0  0.91233679335E-01 -0.74168031423E-01 -0.16088942800E-01  0.12066260196E+00  0.21820364359E-01 0.  0.
         14    1    1    2    0    0 -0.64734262776E-02 -0.31973434262E-01 -0.17257666660E-02  0.32667782552E-01  0.00000000000E+00 0.  1.
     999901    1    3    3    0    0 -0.84760253057E-01  0.10614146569E+00  0.17814709466E-01  0.89059961549E+00  0.88000000000E+00 0.  1.
        -11    1    4    4    0    0  0.52464423009E-01 -0.31403173938E-01 -0.16951746199E-02  0.61170333929E-01  0.51100000000E-03 0.  1.
         11    1    4    4    0    0  0.38769256326E-01 -0.42764857486E-01 -0.14393768180E-01  0.59492268029E-01  0.51100000000E-03 0. -1.
</event>
<event>
 7    1  0.1114333E+005  0.1043930E+01  0.7957747E-01            NaN
         13   -1    0    0    0    0  0.00000000000E+00  0.00000000000E+00  0.74505805969E-08  0.10566000000E+00  0.10566000000E+00 0.  1.
     999900   -1    0    0    0    0 -0.00000000000E+00 -0.00000000000E+00 -0.74505805969E-08  0.93827000000E+00  0.93827000000E+00 0.  1.
     999903    2    1    2    0    0 -0.12722339422E-01 -0.87527538935E-02  0.11057599247E+00  0.11356557938E+00  0.20775516524E-01 0.  0.
         14    1    1    2    0    0  0.73497817075E-03 -0.28762205411E-01  0.26217884553E-01  0.38925340377E-01  0.00000000000E+00 0.  1.
     999901    1    1    2    0    0  0.11987361252E-01  0.37514959305E-01 -0.13679387702E+00  0.89143908025E+00  0.88000000000E+00 0.  1.
        -11    1    3    3    0    0  0.38916909673E-02 -0.34169833052E-02  0.56554059629E-01  0.56792990897E-01  0.51100000000E-03 0. -1.
         11    1    3    3    0    0 -0.16614030390E-01 -0.53357705883E-02  0.54021932842E-01  0.56772588478E-01  0.51100000000E-03 0.  1.
</event>
<event>
 7    1  0.1114333E+005  0.1043930E+01  0.7957747E-01            NaN
         13   -1    0    0    0    0  0.00000000000E+00  0.00000000000E+00  0.74505805969E-08  0.10566000000E+00  0.10566000000E+00 0. -1.
     999900   -1    0    0    0    0 -0.00000000000E+00 -0.00000000000E+00 -0.74505805969E-08  0.93827000000E+00  0.93827000000E+00 0.  1.
     999902    2    1    2    0    0 -0.11154576326E-01 -0.15537753774E-01 -0.45734533083E-02  0.10242637131E+01  0.10240748953E+01 0.  0.
         14    1    1    2    0    0  0.11154576326E-01  0.15537753774E-01  0.45734533083E-02  0.19666286902E-01  0.00000000000E+00 0. -1.
     999901    1    3    3    0    0  0.53323927428E-01 -0.12998021840E-01  0.10939360734E+00  0.88847023087E+00  0.88000000000E+00 0. -1.
        -11    1    3    3    0    0 -0.19746766800E-01 -0.16211786647E-01 -0.27886838796E-01  0.37824512216E-01  0.51100000000E-03 0.  1.
         11    1    3    3    0    0 -0.44731736954E-01  0.13672054713E-01 -0.86080221851E-01  0.97968970016E-01  0.51100000000E-03 0. -1.
</event>
<event>
 7    1  0.1114333E+005  0.1043930E+01  0.7957747E-01            NaN
         13   -1    0    0    0    0  0.00000000000E+00  0.00000000000E+00  0.74505805969E-08  0.10566000000E+00  0.10566000000E+00 0. -1.
     999900   -1    0    0    0    0 -0.00000000000E+00 -0.00000000000E+00 -0.74505805969E-08  0.93827000000E+00  0.93827000000E+00 0.  1.
     999903    2    1    2    0    0  0.55710359447E-01  0.44413351739E-01 -0.49054260641E-01  0.88009671864E-01  0.16223189957E-01 0.  0.
         14    1    1    2    0    0  0.48457911146E-01  0.34310980652E-01  0.28955645488E-01  0.66059382010E-01  0.00000000000E+00 0. -1.
     999901    1    1    2    0    0 -0.10416827059E+00 -0.78724332390E-01  0.20098615153E-01  0.88986094613E+00  0.88000000000E+00 0.  1.
        -11    1    3    3    0    0  0.24673892659E-01  0.15923678490E-01 -0.29261995724E-01  0.41459498675E-01  0.51100000000E-03 0.  1.
         11    1    3    3    0    0  0.31036466788E-01  0.28489673248E-01 -0.19792264916E-01  0.46550173189E-01  0.51100000000E-03 0. -1.
</event>
<event>
 8    1  0.1114333E+005  0.1043930E+01  0.7957747E-01            NaN
         13   -1    0    0    0    0  0.00000000000E+00  0.00000000000E+00  0.74505805969E-08  0.10566000000E+00  0.10566000000E+00 0. -1.
     999900   -1    0    0    0    0 -0.00000000000E+00 -0.00000000000E+00 -0.74505805969E-08  0.93827000000E+00  0.93827000000E+00 0.  1.
     999902    2    1    2    0    0 -0.83248827336E-02  0.26642794231E-01 -0.54958381027E-02  0.10154809861E+01  0.10150824039E+01 0.  0.
     999903    2    3    3    0    0  0.51660039197E-01 -0.65388103172E-01 -0.90453847475E-01  0.12459056616E+00  0.19913487057E-01 0.  0.
         14    1    1    2    0    0  0.83248827336E-02 -0.26642794231E-01  0.54958381027E-02  0.28449013927E-01  0.00000000000E+00 0. -1.
     999901    1    3    3    0    0 -0.59984921931E-01  0.92030897403E-01  0.84958009372E-01  0.89089041991E+00  0.88000000000E+00 0.  1.
        -11    1    4    4    0    0  0.22963093679E-01 -0.25802821697E-01 -0.23902176580E-01  0.42007909316E-01  0.51100000000E-03 0.  1.
         11    1    4    4    0    0  0.28696945519E-01 -0.39585281474E-01 -0.66551670895E-01  0.82582656844E-01  0.51100000000E-03 0. -1.
</event>
<event>
 8    1  0.1114333E+005  0.1043930E+01  0.7957747E-01            NaN
         13   -1    0    0    0    0  0.00000000000E+00  0.00000000000E+00  0.74505805969E-08  0.10566000000E+00  0.10566000000E+00 0. -1.
     999900   -1    0    0    0    0 -0.00000000000E+00 -0.00000000000E+00 -0.74505805969E-08  0.93827000000E+00  0.93827000000E+00 0. -1.
     999902    2    1    2    0    0  0.14606344668E-02 -0.22274479264E-01 -0.38940600182E-02  0.10212705741E+01  0.10210191653E+01 0.  0.
     999903    2    3    3    0    0 -0.74519438095E-01  0.43671265307E-01 -0.95856077114E-01  0.13077698890E+00  0.21305098909E-01 0.  0.
         14    1    1    2    0    0 -0.14606344668E-02  0.22274479264E-01  0.38940600182E-02  0.22659425919E-01  0.00000000000E+00 0. -1.
     999901    1    3    3    0    0  0.75980072562E-01 -0.65945744571E-01  0.91962017096E-01  0.89049358518E+00  0.88000000000E+00 0.  1.
        -11    1    4    4    0    0 -0.39423598091E-01  0.10814411947E-01 -0.44195139522E-01  0.60205008684E-01  0.51100000000E-03 0.  1.
         11    1    4    4    0    0 -0.35095840004E-01  0.32856853361E-01 -0.51660937592E-01  0.70571980221E-01  0.51100000000E-03 0. -1.
</event>
<event>
 8    1  0.1114333E+005  0.1043930E+01  0.7957747E-01            NaN
         13   -1    0    0    0    0  0.00000000000E+00  0.00000000000E+00  0.74505805969E-08  0.10566000000E+00  0.10566000000E+00 0. -1.
     999900   -1    0    0    0    0 -0.00000000000E+00 -0.00000000000E+00 -0.74505805969E-08  0.93827000000E+00  0.93827000000E+00 0. -1.
     999902    2    1    2    0    0  0.45201585988E-02  0.19750682640E-01  0.11626165205E-01  0.10205700125E+01  0.10203026323E+01 0.  0.
     999903    2    3    3    0    0 -0.17888084751E-01  0.12310214219E+00  0.43480846871E-01  0.13366619906E+00  0.22404190198E-01 0.  0.
         14    1    1    2    0    0 -0.45201585988E-02 -0.19750682640E-01 -0.11626165205E-01  0.23359987498E-01  0.00000000000E+00 0. -1.
     999901    1    3    3    0    0  0.22408243350E-01 -0.10335145955E+00 -0.31854681666E-01  0.88690381345E+00  0.88000000000E+00 0. -1.
        -11    1    4    4    0    0 -0.14102316678E-01  0.49306005511E-01  0.26987592038E-01  0.57952987500E-01  0.51100000000E-03 0.  1.
         11    1    4    4    0    0 -0.37857680734E-02  0.73796136676E-01  0.16493254833E-01  0.75713211556E-01  0.51100000000E-03 0. -1.
</event>
<event>
 8    1  0.1114333E+005  0.1043930E+01  0.7957747E-01            NaN
         13   -1    0    0    0    0  0.00000000000E+00  0.00000000000E+00  0.74505805969E-08  0.10566000000E+00  0.10566000000E+00 0. -1.
     999900   -1    0    0    0    0 -0.00000000000E+00 -0.00000000000E+00 -0.74505805969E-08  0.93827000000E+00  0.93827000000E+00 0.  1.
     999902    2    1    2    0    0 -0.12386412041E-01 -0.24889254439E-02  0.12748528040E-01  0.10259816597E+01  0.10258246551E+01 0.  0.
     999903    2    3    3    0    0  0.10793154937E+00 -0.56532187977E-01  0.54734044056E-01  0.13516188575E+00  0.20683620450E-01 0.  0.
         14    1    1    2    0    0  0.12386412041E-01  0.24889254439E-02 -0.12748528040E-01  0.17948340322E-01  0.00000000000E+00 0.  1.
     999901    1    3    3    0    0 -0.12031796141E+00  0.54043262533E-01 -0.41985516016E-01  0.89081977393E+00  0.88000000000E+00 0.  1.
        -11    1    4    4    0    0  0.85314609424E-01 -0.40377391453E-01  0.33411685676E-01  0.10012750962E+00  0.51100000000E-03 0.  1.
         11    1    4    4    0    0  0.22616939943E-01 -0.16154796524E-01  0.21322358380E-01  0.35034376133E-01  0.51100000000E-03 0. -1.
</event>
<event>
 8    1  0.1114333E+005  0.1043930E+01  0.7957747E-01            NaN
         13   -1    0    0    0    0  0.00000000000E+00  0.00000000000E+00  0.74505805969E-08  0.10566000000E+00  0.10566000000E+00 0.  1.
     999900   -1    0    0    0    0 -0.00000000000E+00 -0.00000000000E+00 -0.74505805969E-08  0.93827000000E+00  0.93827000000E+00 0. -1.
     999902    2    1    2    0    0  0.18960418513E-01  0.69528742467E-02 -0.11491092876E-01  0.10206945713E+01  0.10204300676E+01 0.  0.
     999903    2    3    3    0    0 -0.64026047871E-02 -0.41431073094E-02  0.12557249912E+00  0.12965426246E+00  0.31362661743E-01 0.  0.
         14    1    1    2    0    0 -0.18960418513E-01 -0.69528742467E-02  0.11491092876E-01  0.23235428681E-01  0.00000000000E+00 0. -1.
     999901    1    3    3    0    0  0.25363023300E-01  0.11095981556E-01 -0.13706359200E+00  0.89104030886E+00  0.88000000000E+00 0. -1.
        -11    1    4    4    0    0  0.29874112815E-02 -0.16178596868E-01  0.76885991453E-01  0.78628165600E-01  0.51100000000E-03 0.  1.
         11    1    4    4    0    0 -0.93900160686E-02  0.12035489558E-01  0.48686507671E-01  0.51026096861E-01  0.51100000000E-03 0. -1.
</event>
<event>
 8    1  0.1114333E+005  0.1043930E+01  0.7957747E-01            NaN
         13   -1    0    0    0    0  0.00000000000E+00  0.00000000000E+00  0.74505805969E-08  0.10566000000E+00  0.10566000000E+00 0. -1.
     999900   -1    0    0    0    0 -0.00000000000E+00 -0.00000000000E+00 -0.74505805969E-08  0.93827000000E+00  0.93827000000E+00 0.  1.
     999902    2    1    2    0    0 -0.47283118145E-03  0.98387727369E-02  0.21168184860E-01  0.10205822577E+01  0.10203151610E+01 0.  0.
     999903    2    3    3    0    0  0.77807896219E-01  0.46231918600E-01  0.95531545965E-01  0.13323664141E+00  0.20839081753E-01 0.  0.
         14    1    1    2    0    0  0.47283118145E-03 -0.98387727369E-02 -0.21168184860E-01  0.23347742258E-01  0.00000000000E+00 0.  1.
     999901    1    3    3    0    0 -0.78280727401E-01 -0.36393145863E-01 -0.74363361105E-01  0.88734561633E+00  0.88000000000E+00 0.  1.
        -11    1    4    4    0    0  0.47664898684E-01  0.21529630565E-01  0.66670754478E-01  0.84739118372E-01  0.51100000000E-03 0. -1.
         11    1    4    4    0    0  0.30142997535E-01  0.24702288035E-01  0.28860791487E-01  0.48497523038E-01  0.51100000000E-03 0.  1.
</event>
<event>
 8    1  0.1114333E+005  0.1043930E+01  0.7957747E-01            NaN
         13   -1    0    0    0    0  0.00000000000E+00  0.00000000000E+00  0.74505805969E-08  0.10566000000E+00  0.10566000000E+00 0.  1.
     999900   -1    0    0    0    0 -0.00000000000E+00 -0.00000000000E+00 -0.74505805969E-08  0.93827000000E+00  0.93827000000E+00 0. -1.
     999902    2    1    2    0    0 -0.10988211175E-01  0.55642079149E-02 -0.20561296249E-01  0.10199619359E+01  0.10196802845E+01 0.  0.
     999903    2    3    3    0    0 -0.32297027103E-02 -0.25135970354E-01  0.12353381353E+00  0.12768053628E+00  0.19986702416E-01 0.  0.
         14    1    1    2    0    0  0.10988211175E-01 -0.55642079149E-02  0.20561296249E-01  0.23968064127E-01  0.00000000000E+00 0.  1.
     999901    1    3    3    0    0 -0.77585084645E-02  0.30700178269E-01 -0.14409510978E+00  0.89228139959E+00  0.88000000000E+00 0. -1.
        -11    1    4    4    0    0 -0.65090583839E-02 -0.55964341571E-02  0.71236116661E-01  0.71753281140E-01  0.51100000000E-03 0.  1.
         11    1    4    4    0    0  0.32793556736E-02 -0.19539536197E-01  0.52297696870E-01  0.55927255139E-01  0.51100000000E-03 0. -1.
</event>
<event>
 8    1  0.1114333E+005  0.1043930E+01  0.7957747E-01            NaN
         13   -1    0    0    0    0  0.00000000000E+00  0.00000000000E+00  0.74505805969E-08  0.10566000000E+00  0.10566000000E+00 0.  1.
     999900   -1    0    0    0    0 -0.00000000000E+00 -0.00000000000E+00 -0.74505805969E-08  0.93827000000E+00  0.93827000000E+00 0. -1.
     999902    2    1    2    0    0 -0.16937055401E-02 -0.13903544315E-01 -0.17946197747E-01  0.10211650446E+01  0.10209112621E+01 0.  0.
     999903    2    3    3    0    0 -0.11664953941E+00 -0.51089774094E-01 -0.31960107418E-01  0.13279910132E+00  0.19921666211E-01 0.  0.
         14    1    1    2    0    0  0.16937055401E-02  0.13903544315E-01  0.17946197747E-01  0.22764955448E-01  0.00000000000E+00 0.  1.
     999901    1    3    3    0    0  0.11495583387E+00  0.37186229778E-01  0.14013909671E-01  0.88836594323E+00  0.88000000000E+00 0. -1.
        -11    1    4    4    0    0 -0.53953098938E-01 -0.32947471009E-01 -0.20989331333E-01  0.66612955810E-01  0.51100000000E-03 0.  1.
         11    1    4    4    0    0 -0.62696440470E-01 -0.18142303085E-01 -0.10970776085E-01  0.66186145513E-01  0.51100000000E-03 0. -1.
</event>
<event>
 8    1  0.1114333E+005  0.1043930E+01  0.7957747E-01            NaN
         13   -1    0    0    0    0  0.00000000000E+00  0.00000000000E+00  0.74505805969E-08  0.10566000000E+00  0.10566000000E+00 0. -1.
     999900   -1    0    0    0    0 -0.00000000000E+00 -0.00000000000E+00 -0.74505805969E-08  0.93827000000E+00  0.93827000000E+00 0.  1.
     999902    2    1    2    0    0  0.27372306436E-02 -0.23156909208E-01  0.37917340203E-02  0.10203056032E+01  0.10200320641E+01 0.  0.
     999903    2    3    3    0    0  0.69696558525E-01 -0.10609785393E+00 -0.37523142113E-01  0.13291072445E+00  0.11954480342E-01 0.  0.
         14    1    1    2    0    0 -0.27372306436E-02  0.23156909208E-01 -0.37917340203E-02  0.23624396766E-01  0.00000000000E+00 0.  1.
     999901    1    3    3    0    0 -0.66959327881E-01  0.82940944726E-01  0.41314876133E-01  0.88739487878E+00  0.88000000000E+00 0.  1.
        -11    1    4    4    0    0  0.24923463015E-01 -0.28069378533E-01 -0.11073570665E-01  0.39140185337E-01  0.51100000000E-03 0.  1.
         11    1    4    4    0    0  0.44773095510E-01 -0.78028475401E-01 -0.26449571448E-01  0.93770539114E-01  0.51100000000E-03 0. -1.
</event>
<event>
 8    1  0.1114333E+005  0.1043930E+01  0.7957747E-01            NaN
         13   -1    0    0    0    0  0.00000000000E+00  0.00000000000E+00  0.74505805969E-08  0.10566000000E+00  0.10566000000E+00 0.  1.
     999900   -1    0    0    0    0 -0.00000000000E+00 -0.00000000000E+00 -0.74505805969E-08  0.93827000000E+00  0.93827000000E+00 0. -1.
     999902    2    1    2    0    0 -0.77887250101E-02 -0.18466516099E-01 -0.20186637842E-01  0.10154839669E+01  0.10150854694E+01 0.  0.
     999903    2    3    3    0    0  0.82676985490E-01 -0.13747549016E-01 -0.94348326043E-01  0.12773047099E+00  0.19722767526E-01 0.  0.
         14    1    1    2    0    0  0.77887250101E-02  0.18466516099E-01  0.20186637842E-01  0.28446033142E-01  0.00000000000E+00 0.  1.
     999901    1    3    3    0    0 -0.90465710500E-01 -0.47189670836E-02  0.74161688202E-01  0.88775349587E+00  0.88000000000E+00 0.  1.
        -11    1    4    4    0    0  0.38718580505E-01 -0.16231080648E-01 -0.48871883739E-01  0.64430571910E-01  0.51100000000E-03 0.  1.
         11    1    4    4    0    0  0.43958404985E-01  0.24835316324E-02 -0.45476442304E-01  0.63299899082E-01  0.51100000000E-03 0. -1.
</event>
<event>
 8    1  0.1114333E+005  0.1043930E+01  0.7957747E-01            NaN
         13   -1    0    0    0    0  0.00000000000E+00  0.00000000000E+00  0.74505805969E-08  0.10566000000E+00  0.10566000000E+00 0. -1.
     999900   -1    0    0    0    0 -0.00000000000E+00 -0.00000000000E+00 -0.74505805969E-08  0.93827000000E+00  0.93827000000E+00 0. -1.
     999902    2    1    2    0    0 -0.46647200984E-02 -0.87304757443E-02  0.21568398711E-01  0.10201986569E+01  0.10199226064E+01 0.  0.
     999903    2    3    3    0    0 -0.93197332111E-01 -0.85779170407E-01  0.32610750624E-01  0.13233804949E+00  0.20151662394E-01 0.  0.
         14    1    1    2    0    0  0.46647200984E-02  0.87304757443E-02 -0.21568398711E-01  0.23731343056E-01  0.00000000000E+00 0.  1.
     999901    1    3    3    0    0  0.88532612012E-01  0.77048694663E-01 -0.11042351913E-01  0.88786060746E+00  0.88000000000E+00 0. -1.
        -11    1    4    4    0    0 -0.24575707587E-01 -0.34595509893E-01  0.14379584275E-01  0.44809019996E-01  0.51100000000E-03 0.  1.
         11    1    4    4    0    0 -0.68621624524E-01 -0.51183660515E-01  0.18231166349E-01  0.87529029490E-01  0.51100000000E-03 0. -1.
</event>
<event>
 8    1  0.1114333E+005  0.1043930E+01  0.7957747E-01            NaN
         13   -1    0    0    0    0  0.00000000000E+00  0.00000000000E+00  0.74505805969E-08  0.10566000000E+00  0.10566000000E+00 0. -1.
     999900   -1    0    0    0    0 -0.00000000000E+00 -0.00000000000E+00 -0.74505805969E-08  0.93827000000E+00  0.93827000000E+00 0.  1.
     999902    2    1    2    0    0 -0.27433514394E-01 -0.77337345365E-03 -0.33468671482E-02  0.10162822634E+01  0.10159061185E+01 0.  0.
     999903    2    3    3    0    0  0.75651940956E-01  0.90721365950E-01  0.35217014272E-01  0.12471898950E+00  0.19000153627E-01 0.  0.
         14    1    1    2    0    0  0.27433514394E-01  0.77337345365E-03  0.33468671482E-02  0.27647736584E-01  0.00000000000E+00 0.  1.
     999901    1    3    3    0    0 -0.10308545535E+00 -0.91494739403E-01 -0.38563881421E-01  0.89156327391E+00  0.88000000000E+00 0.  1.
        -11    1    4    4    0    0  0.55496721506E-01  0.52330652496E-01  0.22650918371E-01  0.79572033483E-01  0.51100000000E-03 0.  1.
         11    1    4    4    0    0  0.20155219451E-01  0.38390713453E-01  0.12566095902E-01  0.45146956019E-01  0.51100000000E-03 0. -1.
</event>
<event>
 8    1  0.1410484E+005  0.1043930E+01  0.7957747E-01            NaN
         13   -1    0    0    0    0  0.00000000000E+00  0.00000000000E+00  0.74505805969E-08  0.10566000000E+00  0.10566000000E+00 0. -1.
     999900   -1    0    0    0    0 -0.00000000000E+00 -0.00000000000E+00 -0.74505805969E-08  0.93827000000E+00  0.93827000000E+00 0. -1.
     999902    2    1    2    0    0 -0.77005679313E-02  0.55918286266E-02 -0.20170635455E-01  0.10216270444E+01  0.10213835695E+01 0.  0.
     999903    2    3    3    0    0 -0.12313182170E-01  0.11356213923E+00  0.61478143204E-01  0.13126454112E+00  0.20070967648E-01 0.  0.
         14    1    1    2    0    0  0.77005679313E-02 -0.55918286266E-02  0.20170635455E-01  0.22302955601E-01  0.00000000000E+00 0. -1.
     999901    1    3    3    0    0  0.46126142383E-02 -0.10797031061E+00 -0.81648778659E-01  0.89036250328E+00  0.88000000000E+00 0. -1.
        -11    1    4    4    0    0  0.27516294839E-02  0.63985286631E-01  0.31090334886E-01  0.71193808820E-01  0.51100000000E-03 0.  1.
         11    1    4    4    0    0 -0.15064811653E-01  0.49576852602E-01  0.30387808318E-01  0.60070732303E-01  0.51100000000E-03 0. -1.
</event>
<event>
 8    1  0.1114333E+005  0.1043930E+01  0.7957747E-01            NaN
         13   -1    0    0    0    0  0.00000000000E+00  0.00000000000E+00  0.74505805969E-08  0.10566000000E+00  0.10566000000E+00 0.  1.
     999900   -1    0    0    0    0 -0.00000000000E+00 -0.00000000000E+00 -0.74505805969E-08  0.93827000000E+00  0.93827000000E+00 0.  1.
     999902    2    1    2    0    0 -0.22672732261E-01 -0.77109591948E-02  0.25327370600E-02  0.10198483382E+01  0.10195639786E+01 0.  0.
     999903    2    3    3    0    0 -0.10923061264E+00 -0.10156500911E-01 -0.71374000526E-01  0.13251499990E+00  0.20772481740E-01 0.  0.
         14    1    1    2    0    0  0.22672732261E-01  0.77109591948E-02 -0.25327370600E-02  0.24081661839E-01  0.00000000000E+00 0. -1.
     999901    1    3    3    0    0  0.86557880384E-01  0.24455417161E-02  0.73906737586E-01  0.88733333826E+00  0.88000000000E+00 0. -1.
        -11    1    4    4    0    0 -0.62692616299E-01  0.43003506277E-02 -0.42596705756E-01  0.75918361522E-01  0.51100000000E-03 0. -1.
         11    1    4    4    0    0 -0.46537996346E-01 -0.14456851539E-01 -0.28777294770E-01  0.56596638377E-01  0.51100000000E-03 0.  1.
</event>
<event>
 8    1  0.1114333E+005  0.1043930E+01  0.7957747E-01            NaN
         13   -1    0    0    0    0  0.00000000000E+00  0.00000000000E+00  0.74505805969E-08  0.10566000000E+00  0.10566000000E+00 0.  1.
     999900   -1    0    0    0    0 -0.00000000000E+00 -0.00000000000E+00 -0.74505805969E-08  0.93827000000E+00  0.93827000000E+00 0.  1.
     999902    2    1    2    0    0  0.95317457838E-02 -0.94833837747E-02 -0.16752649086E-01  0.10224488455E+01  0.10222231663E+01 0.  0.
     999903    2    3    3    0    0 -0.61825484694E-01  0.67606198158E-01  0.90104517329E-01  0.12978255179E+00  0.18212581334E-01 0.  0.
         14    1    1    2    0    0 -0.95317457838E-02  0.94833837747E-02  0.16752649086E-01  0.21481154460E-01  0.00000000000E+00 0.  1.
     999901    1    3    3    0    0  0.71357230478E-01 -0.77089581933E-01 -0.10685716642E+00  0.89266629375E+00  0.88000000000E+00 0.  1.
        -11    1    4    4    0    0 -0.61751652071E-01  0.61707171679E-01  0.86226254621E-01  0.12270399210E+00  0.51100000000E-03 0. -1.
         11    1    4    4    0    0 -0.73832623483E-04  0.58990264796E-02  0.38782627081E-02  0.70785596908E-02  0.51100000000E-03 0.  1.
</event>
<event>
 8    1  0.1114333E+005  0.1043930E+01  0.7957747E-01            NaN
         13   -1    0    0    0    0  0.00000000000E+00  0.00000000000E+00  0.74505805969E-08  0.10566000000E+00  0.10566000000E+00 0.  1.
     999900   -1    0    0    0    0 -0.00000000000E+00 -0.00000000000E+00 -0.74505805969E-08  0.93827000000E+00  0.93827000000E+00 0.  1.
     999902    2    1    2    0    0  0.15392869454E-01 -0.16018211045E-01  0.22811247871E-01  0.10120885719E+01  0.10115875646E+01 0.  0.
     999903    2    3    3    0    0 -0.94250278433E-01  0.71760582165E-01 -0.80633862434E-02  0.12041599776E+00  0.20057372232E-01 0.  0.
         14    1    1    2    0    0 -0.15392869454E-01  0.16018211045E-01 -0.22811247871E-01  0.31841428117E-01  0.00000000000E+00 0. -1.
     999901    1    3    3    0    0  0.10964314789E+00 -0.87778793210E-01  0.30874634115E-01  0.89167257413E+00  0.88000000000E+00 0. -1.
        -11    1    4    4    0    0 -0.23858728894E-01  0.26526363375E-01  0.38888667186E-02  0.35892496481E-01  0.51100000000E-03 0.  1.
         11    1    4    4    0    0 -0.70391549539E-01  0.45234218790E-01 -0.11952252962E-01  0.84523501276E-01  0.51100000000E-03 0. -1.
</event>
<event>
 8    1  0.1114333E+005  0.1043930E+01  0.7957747E-01            NaN
         13   -1    0    0    0    0  0.00000000000E+00  0.00000000000E+00  0.74505805969E-08  0.10566000000E+00  0.10566000000E+00 0. -1.
     999900   -1    0    0    0    0 -0.00000000000E+00 -0.00000000000E+00 -0.74505805969E-08  0.93827000000E+00  0.93827000000E+00 0. -1.
     999902    2    1    2    0    0  0.18522264903E-01 -0.13214849707E-01  0.10642727195E-02  0.10211519574E+01  0.10208978797E+01 0.  0.
     999903    2    3    3    0    0 -0.58088681176E-01  0.11079798101E+00 -0.23444228514E-01  0.12882405470E+00  0.19887627837E-01 0.  0.
         14    1    1    2    0    0 -0.18522264903E-01  0.13214849707E-01 -0.10642727195E-02  0.22778042637E-01  0.00000000000E+00 0.  1.
     999901    1    3    3    0    0  0.76610946079E-01 -0.12401283072E+00  0.24508501234E-01  0.89232790267E+00  0.88000000000E+00 0.  1.
        -11    1    4    4    0    0 -0.99826247793E-02  0.26736161772E-01  0.22109549789E-02  0.28629086375E-01  0.51100000000E-03 0. -1.
         11    1    4    4    0    0 -0.48106056396E-01  0.84061819241E-01 -0.25655183493E-01  0.10019496832E+00  0.51100000000E-03 0.  1.
</event>
<event>
 8    1  0.1114333E+005  0.1043930E+01  0.7957747E-01            NaN
         13   -1    0    0    0    0  0.00000000000E+00  0.00000000000E+00  0.74505805969E-08  0.10566000000E+00  0.10566000000E+00 0. -1.
     999900   -1    0    0    0    0 -0.00000000000E+00 -0.00000000000E+00 -0.74505805969E-08  0.93827000000E+00  0.93827000000E+00 0. -1.
     999902    2    1    2    0    0 -0.10246833099E-01 -0.10109228554E-01  0.17658463399E-01  0.10211480901E+01  0.10208939252E+01 0.  0.
     999903    2    3    3    0    0 -0.96505700710E-01  0.87026090676E-01 -0.13920706380E-02  0.13140723716E+00  0.19468779879E-01 0.  0.
         14    1    1    2    0    0  0.10246833099E-01  0.10109228554E-01 -0.17658463399E-01  0.22781909932E-01  0.00000000000E+00 0. -1.
     999901    1    3    3    0    0  0.86258867611E-01 -0.97135319230E-01  0.19050534037E-01  0.88974085291E+00  0.88000000000E+00 0.  1.
        -11    1    4    4    0    0 -0.72513809468E-01  0.67645254744E-01 -0.91817126078E-02  0.99592660474E-01  0.51100000000E-03 0. -1.
         11    1    4    4    0    0 -0.23991891242E-01  0.19380835932E-01  0.77896419698E-02  0.31814576688E-01  0.51100000000E-03 0.  1.
</event>
<event>
 8    1  0.1114333E+005  0.1043930E+01  0.7957747E-01            NaN
         13   -1    0    0    0    0  0.00000000000E+00  0.00000000000E+00  0.74505805969E-08  0.10566000000E+00  0.10566000000E+00 0.  1.
     999900   -1    0    0    0    0 -0.00000000000E+00 -0.00000000000E+00 -0.74505805969E-08  0.93827000000E+00  0.93827000000E+00 0. -1.
     999902    2    1    2    0    0 -0.76574194842E-02  0.20131715734E-01 -0.99692685290E-02  0.10201958818E+01  0.10199197659E+01 0.  0.
     999903    2    3    3    0    0 -0.23948878015E-01  0.11974059629E+00  0.47230554847E-01  0.13258157339E+00  0.20875563089E-01 0.  0.
         14    1    1    2    0    0  0.76574194842E-02 -0.20131715734E-01  0.99692685290E-02  0.23734118197E-01  0.00000000000E+00 0.  1.
     999901    1    3    3    0    0  0.16291458531E-01 -0.99608880552E-01 -0.57199823376E-01  0.88761430841E+00  0.88000000000E+00 0. -1.
        -11    1    4    4    0    0  0.16945718976E-02  0.38438455949E-01  0.11665072512E-01  0.40208475566E-01  0.51100000000E-03 0.  1.
         11    1    4    4    0    0 -0.25643449913E-01  0.81302140337E-01  0.35565482335E-01  0.92373097824E-01  0.51100000000E-03 0. -1.
</event>
<event>
 8    1  0.1114333E+005  0.1043930E+01  0.7957747E-01            NaN
         13   -1    0    0    0    0  0.00000000000E+00  0.00000000000E+00  0.74505805969E-08  0.10566000000E+00  0.10566000000E+00 0. -1.
     999900   -1    0    0    0    0 -0.00000000000E+00 -0.00000000000E+00 -0.74505805969E-08  0.93827000000E+00  0.93827000000E+00 0.  1.
     999902    2    1    2    0    0  0.18053730617E-01  0.94193784542E-02  0.12413696118E-01  0.10200812740E+01  0.10198024534E+01 0.  0.
     999903    2    3    3    0    0  0.12989191599E+00  0.51703233279E-02 -0.15538619715E-01  0.13255258933E+00  0.20738807920E-01 0.  0.
         14    1    1    2    0    0 -0.18053730617E-01 -0.94193784542E-02 -0.12413696118E-01  0.23848725982E-01  0.00000000000E+00 0. -1.
     999901    1    3    3    0    0 -0.11183818537E+00  0.42490551263E-02  0.27952315834E-01  0.88752868468E+00  0.88000000000E+00 0.  1.
        -11    1    4    4    0    0  0.11042373500E+00  0.11462493982E-01 -0.15435823977E-01  0.11208619809E+00  0.51100000000E-03 0. -1.
         11    1    4    4    0    0  0.19468180989E-01 -0.62921706540E-02 -0.10279573830E-03  0.20466391243E-01  0.51100000000E-03 0.  1.
</event>
<event>
 8    1  0.1114333E+005  0.1043930E+01  0.7957747E-01            NaN
         13   -1    0    0    0    0  0.00000000000E+00  0.00000000000E+00  0.74505805969E-08  0.10566000000E+00  0.10566000000E+00 0. -1.
     999900   -1    0    0    0    0 -0.00000000000E+00 -0.00000000000E+00 -0.74505805969E-08  0.93827000000E+00  0.93827000000E+00 0.  1.
     999902    2    1    2    0    0 -0.79302853152E-03 -0.18971199833E-01  0.16874265483E-01  0.10185277136E+01  0.10182108953E+01 0.  0.
     999903    2    3    3    0    0  0.30500624183E-01 -0.47885165547E-01  0.11743424960E+00  0.13177655320E+00  0.18734455908E-01 0.  0.
         14    1    1    2    0    0  0.79302853152E-03  0.18971199833E-01 -0.16874265483E-01  0.25402286372E-01  0.00000000000E+00 0.  1.
     999901    1    3    3    0    0 -0.31293652714E-01  0.28913965714E-01 -0.10055998412E+00  0.88675116043E+00  0.88000000000E+00 0.  1.
        -11    1    4    4    0    0 -0.21993557066E-02 -0.73513595526E-02  0.14216501813E-01  0.16163220521E-01  0.51100000000E-03 0. -1.
         11    1    4    4    0    0  0.32699979889E-01 -0.40533805994E-01  0.10321774779E+00  0.11561333268E+00  0.51100000000E-03 0.  1.
</event>
<event>
 8    1  0.1114333E+005  0.1043930E+01  0.7957747E-01            NaN
         13   -1    0    0    0    0  0.00000000000E+00  0.00000000000E+00  0.74505805969E-08  0.10566000000E+00  0.10566000000E+00 0.  1.
     999900   -1    0    0    0    0 -0.00000000000E+00 -0.00000000000E+00 -0.74505805969E-08  0.93827000000E+00  0.93827000000E+00 0.  1.
     999902    2    1    2    0    0 -0.22556046586E-02 -0.15126696647E-01 -0.18701628593E-01  0.10197710345E+01  0.10194848244E+01 0.  0.
     999903    2    3    3    0    0 -0.29891438780E-04  0.10811602081E+00  0.64069828001E-01  0.12733345388E+00  0.20488796177E-01 0.  0.
         14    1    1    2    0    0  0.22556046586E-02  0.15126696647E-01  0.18701628593E-01  0.24158965538E-01  0.00000000000E+00 0.  1.
     999901    1    3    3    0    0 -0.22257132198E-02 -0.12324271745E+00 -0.82771456594E-01  0.89243758058E+00  0.88000000000E+00 0.  1.
        -11    1    4    4    0    0 -0.44360977462E-02  0.63603488633E-01  0.27017479747E-01  0.69248018473E-01  0.51100000000E-03 0. -1.
         11    1    4    4    0    0  0.44062063074E-02  0.44512532175E-01  0.37052348254E-01  0.58085435410E-01  0.51100000000E-03 0.  1.
</event>
<event>
 8    1  0.1114333E+005  0.1043930E+01  0.7957747E-01            NaN
         13   -1    0    0    0    0  0.00000000000E+00  0.00000000000E+00  0.74505805969E-08  0.10566000000E+00  0.10566000000E+00 0.  1.
     999900   -1    0    0    0    0 -0.00000000000E+00 -0.00000000000E+00 -0.74505805969E-08  0.93827000000E+00  0.93827000000E+00 0.  1.
     999902    2    1    2    0    0  0.14136870472E-01 -0.10181702045E-01  0.15402648670E-01  0.10206757585E+01  0.10204108213E+01 0.  0.
     999903    2    3    3    0    0 -0.78512261247E-01  0.92792106045E-01 -0.34884655102E-01  0.12842227448E+00  0.22378367036E-01 0.  0.
         14    1    1    2    0    0 -0.14136870472E-01  0.10181702045E-01 -0.15402648670E-01  0.23254241534E-01  0.00000000000E+00 0. -1.
     999901    1    3    3    0    0  0.92649131719E-01 -0.10297380809E+00  0.50287303772E-01  0.89225348398E+00  0.88000000000E+00 0. -1.
        -11    1    4    4    0    0 -0.52585231869E-01  0.47217361545E-01 -0.14399712686E-01  0.72126962285E-01  0.51100000000E-03 0.  1.
         11    1    4    4    0    0 -0.25927029378E-01  0.45574744500E-01 -0.20484942417E-01  0.56295312197E-01  0.51100000000E-03 0. -1.
</event>
<event>
 8    1  0.1114333E+005  0.1043930E+01  0.7957747E-01            NaN
         13   -1    0    0    0    0  0.00000000000E+00  0.00000000000E+00  0.74505805969E-08  0.10566000000E+00  0.10566000000E+00 0.  1.
     999900   -1    0    0    0    0 -0.00000000000E+00 -0.00000000000E+00 -0.74505805969E-08  0.93827000000E+00  0.93827000000E+00 0. -1.
     999902    2    1    2    0    0  0.84174927775E-02 -0.20401059745E-01 -0.73647969056E-02  0.10206641955E+01  0.10203989918E+01 0.  0.
     999903    2    3    3    0    0  0.43401270912E-01  0.52709962240E-01  0.10809045072E+00  0.12942965825E+00  0.20161360599E-01 0.  0.
         14    1    1    2    0    0 -0.84174927775E-02  0.20401059745E-01  0.73647969056E-02  0.23265804452E-01  0.00000000000E+00 0.  1.
     999901    1    3    3    0    0 -0.34983778134E-01 -0.73111021985E-01 -0.11545524763E+00  0.89123453730E+00  0.88000000000E+00 0. -1.
        -11    1    4    4    0    0  0.36742162042E-01  0.32431050654E-01  0.65704610215E-01  0.81970216802E-01  0.51100000000E-03 0.  1.
         11    1    4    4    0    0  0.66591088704E-02  0.20278911587E-01  0.42385840506E-01  0.47459441448E-01  0.51100000000E-03 0. -1.
</event>
<event>
 8    1  0.1114333E+005  0.1043930E+01  0.7957747E-01            NaN
         13   -1    0    0    0    0  0.00000000000E+00  0.00000000000E+00  0.74505805969E-08  0.10566000000E+00  0.10566000000E+00 0. -1.
     999900   -1    0    0    0    0 -0.00000000000E+00 -0.00000000000E+00 -0.74505805969E-08  0.93827000000E+00  0.93827000000E+00 0.  1.
     999902    2    1    2    0    0  0.20889472860E-01 -0.17872751006E-02 -0.29923168665E-02  0.10227517473E+01  0.10225324533E+01 0.  0.
     999903    2    3    3    0    0 -0.12213883537E+00 -0.36982021687E-01 -0.17874811901E-01  0.13038564762E+00  0.19883238437E-01 0.  0.
         14    1    1    2    0    0 -0.20889472860E-01  0.17872751006E-02  0.29923168665E-02  0.21178252735E-01  0.00000000000E+00 0. -1.
     999901    1    3    3    0    0  0.14302830823E+00  0.35194746587E-01  0.14882495034E-01  0.89236609965E+00  0.88000000000E+00 0.  1.
        -11    1    4    4    0    0 -0.72545687640E-01 -0.26558841976E-01 -0.19504558413E-01  0.79680222151E-01  0.51100000000E-03 0. -1.
         11    1    4    4    0    0 -0.49593147729E-01 -0.10423179712E-01  0.16297465118E-02  0.50705425466E-01  0.51100000000E-03 0.  1.
</event>
<event>
 8    1  0.1114333E+005  0.1043930E+01  0.7957747E-01            NaN
         13   -1    0    0    0    0  0.00000000000E+00  0.00000000000E+00  0.74505805969E-08  0.10566000000E+00  0.10566000000E+00 0.  1.
     999900   -1    0    0    0    0 -0.00000000000E+00 -0.00000000000E+00 -0.74505805969E-08  0.93827000000E+00  0.93827000000E+00 0.  1.
     999902    2    1    2    0    0 -0.56607406417E-02 -0.30431437582E-02 -0.13650744236E-01  0.10288420072E+01  0.10287313684E+01 0.  0.
     999903    2    3    3    0    0  0.24522789885E-01 -0.84601438257E-01  0.10290088817E+00  0.13690754552E+00  0.19907602922E-01 0.  0.
         14    1    1    2    0    0  0.56607406417E-02  0.30431437582E-02  0.13650744236E-01  0.15087992800E-01  0.00000000000E+00 0.  1.
     999901    1    3    3    0    0 -0.30183530527E-01  0.81558294499E-01 -0.11655163241E+00  0.89193446168E+00  0.88000000000E+00 0.  1.
        -11    1    4    4    0    0  0.14179397612E-01 -0.57049030892E-01  0.81615607553E-01  0.10058337715E+00  0.51100000000E-03 0.  1.
         11    1    4    4    0    0  0.10343392273E-01 -0.27552407366E-01  0.21285280621E-01  0.36324168366E-01  0.51100000000E-03 0. -1.
</event>
<event>
 8    1  0.1114333E+005  0.1043930E+01  0.7957747E-01            NaN
         13   -1    0    0    0    0  0.00000000000E+00  0.00000000000E+00  0.74505805969E-08  0.10566000000E+00  0.10566000000E+00 0.  1.
     999900   -1    0    0    0    0 -0.00000000000E+00 -0.00000000000E+00 -0.74505805969E-08  0.93827000000E+00  0.93827000000E+00 0. -1.
     999902    2    1    2    0    0  0.52651767236E-02  0.21829635424E-01 -0.51999660062E-02  0.10208801689E+01  0.10206199217E+01 0.  0.
     999903    2    3    3    0    0 -0.95391681922E-01  0.89792464859E-01 -0.40008353253E-02  0.13253778708E+00  0.19697679920E-01 0.  0.
         14    1    1    2    0    0 -0.52651767236E-02 -0.21829635424E-01  0.51999660062E-02  0.23049831130E-01  0.00000000000E+00 0. -1.
     999901    1    3    3    0    0  0.10065685865E+00 -0.67962829435E-01 -0.11991306809E-02  0.88834238179E+00  0.88000000000E+00 0. -1.
        -11    1    4    4    0    0 -0.18388865376E-01  0.17206104494E-01  0.70042672491E-02  0.26144239946E-01  0.51100000000E-03 0.  1.
         11    1    4    4    0    0 -0.77002816546E-01  0.72586360365E-01 -0.11005102574E-01  0.10639354713E+00  0.51100000000E-03 0. -1.
</event>
<event>
 8    1  0.1114333E+005  0.1043930E+01  0.7957747E-01            NaN
         13   -1    0    0    0    0  0.00000000000E+00  0.00000000000E+00  0.74505805969E-08  0.10566000000E+00  0.10566000000E+00 0.  1.
     999900   -1    0    0    0    0 -0.00000000000E+00 -0.00000000000E+00 -0.74505805969E-08  0.93827000000E+00  0.93827000000E+00 0. -1.
     999902    2    1    2    0    0  0.12302375242E-01 -0.18141914623E-01  0.84865065159E-02  0.10204247177E+01  0.10201539620E+01 0.  0.
     999903    2    3    3    0    0 -0.71368462316E-01  0.95166504691E-01  0.44433166891E-01  0.12849884111E+00  0.19685650091E-01 0.  0.
         14    1    1    2    0    0 -0.12302375242E-01  0.18141914623E-01 -0.84865065159E-02  0.23505282292E-01  0.00000000000E+00 0. -1.
     999901    1    3    3    0    0  0.83670837557E-01 -0.11330841931E+00 -0.35946660375E-01  0.89192587659E+00  0.88000000000E+00 0.  1.
        -11    1    4    4    0    0 -0.62620572291E-01  0.78256602766E-01  0.30061463144E-01  0.10463930733E+00  0.51100000000E-03 0.  1.
         11    1    4    4    0    0 -0.87478900248E-02  0.16909901925E-01  0.14371703746E-01  0.23859533788E-01  0.51100000000E-03 0. -1.
</event>
<event>
 8    1  0.1114333E+005  0.1043930E+01  0.7957747E-01            NaN
         13   -1    0    0    0    0  0.00000000000E+00  0.00000000000E+00  0.74505805969E-08  0.10566000000E+00  0.10566000000E+00 0. -1.
     999900   -1    0    0    0    0 -0.00000000000E+00 -0.00000000000E+00 -0.74505805969E-08  0.93827000000E+00  0.93827000000E+00 0. -1.
     999902    2    1    2    0    0 -0.20739252751E-01  0.46369721080E-02  0.12663712456E-01  0.10191916143E+01  0.10188913381E+01 0.  0.
     999903    2    3    3    0    0 -0.65365004212E-01  0.86898697364E-01  0.72532092651E-01  0.13220645539E+00  0.19841245014E-01 0.  0.
         14    1    1    2    0    0  0.20739252751E-01 -0.46369721080E-02 -0.12663712456E-01  0.24738385723E-01  0.00000000000E+00 0.  1.
     999901    1    3    3    0    0  0.44625751461E-01 -0.82261725256E-01 -0.59868380195E-01  0.88698515889E+00  0.88000000000E+00 0. -1.
        -11    1    4    4    0    0 -0.27208263446E-01  0.22094868485E-01  0.18779379931E-01  0.39766808329E-01  0.51100000000E-03 0.  1.
         11    1    4    4    0    0 -0.38156740766E-01  0.64803828879E-01  0.53752712720E-01  0.92439647062E-01  0.51100000000E-03 0. -1.
</event>
<event>
 8    1  0.1114333E+005  0.1043930E+01  0.7957747E-01            NaN
         13   -1    0    0    0    0  0.00000000000E+00  0.00000000000E+00  0.74505805969E-08  0.10566000000E+00  0.10566000000E+00 0.  1.
     999900   -1    0    0    0    0 -0.00000000000E+00 -0.00000000000E+00 -0.74505805969E-08  0.93827000000E+00  0.93827000000E+00 0. -1.
     999902    2    1    2    0    0  0.12211251917E-01  0.19485530379E-01  0.45712383277E-02  0.10204843866E+01  0.10202150197E+01 0.  0.
     999903    2    3    3    0    0  0.35034009265E-01  0.12747491725E+00 -0.29338653343E-02  0.13355771968E+00  0.18756881036E-01 0.  0.
         14    1    1    2    0    0 -0.12211251917E-01 -0.19485530379E-01 -0.45712383277E-02  0.23445613393E-01  0.00000000000E+00 0.  1.
     999901    1    3    3    0    0 -0.22822757349E-01 -0.10798938687E+00  0.75051036621E-02  0.88692666693E+00  0.88000000000E+00 0. -1.
        -11    1    4    4    0    0  0.41731904509E-02  0.45848870446E-01 -0.46397450765E-02  0.46274429170E-01  0.51100000000E-03 0.  1.
         11    1    4    4    0    0  0.30860818814E-01  0.81626046806E-01  0.17058797422E-02  0.87283290507E-01  0.51100000000E-03 0. -1.
</event>
<event>
 8    1  0.1114333E+005  0.1043930E+01  0.7957747E-01            NaN
         13   -1    0    0    0    0  0.00000000000E+00  0.00000000000E+00  0.74505805969E-08  0.10566000000E+00  0.10566000000E+00 0. -1.
     999900   -1    0    0    0    0 -0.00000000000E+00 -0.00000000000E+00 -0.74505805969E-08  0.93827000000E+00  0.93827000000E+00 0.  1.
     999902    2    1    2    0    0  0.51005813937E-02 -0.20687090972E-01 -0.10016425952E-01  0.10203864138E+01  0.10201147646E+01 0.  0.
     999903    2    3    3    0    0  0.10518522655E+00 -0.77255135686E-01  0.10998745683E-01  0.13265981323E+00  0.21103690775E-01 0.  0.
         14    1    1    2    0    0 -0.51005813937E-02  0.20687090972E-01  0.10016425952E-01  0.23543586224E-01  0.00000000000E+00 0.  1.
     999901    1    3    3    0    0 -0.10008464516E+00  0.56568044715E-01 -0.21015171635E-01  0.88772660055E+00  0.88000000000E+00 0.  1.
        -11    1    4    4    0    0  0.42829026921E-01 -0.26472434994E-01  0.13737273839E-01  0.52192807695E-01  0.51100000000E-03 0.  1.
         11    1    4    4    0    0  0.62356199633E-01 -0.50782700692E-01 -0.27385281563E-02  0.80467005534E-01  0.51100000000E-03 0. -1.
</event>
<event>
 8    1  0.1114333E+005  0.1043930E+01  0.7957747E-01            NaN
         13   -1    0    0    0    0  0.00000000000E+00  0.00000000000E+00  0.74505805969E-08  0.10566000000E+00  0.10566000000E+00 0. -1.
     999900   -1    0    0    0    0 -0.00000000000E+00 -0.00000000000E+00 -0.74505805969E-08  0.93827000000E+00  0.93827000000E+00 0.  1.
     999902    2    1    2    0    0  0.77415347260E-02  0.21065500976E-01  0.75130810840E-02  0.10202628692E+01  0.10199883280E+01 0.  0.
     999903    2    3    3    0    0 -0.72593254993E-01  0.19546635197E-01  0.10567656779E+00  0.13116666774E+00  0.19629216193E-01 0.  0.
         14    1    1    2    0    0 -0.77415347260E-02 -0.21065500976E-01 -0.75130810840E-02  0.23667130765E-01  0.00000000000E+00 0. -1.
     999901    1    3    3    0    0  0.80334789719E-01  0.15188657786E-02 -0.98163486704E-01  0.88909620150E+00  0.88000000000E+00 0.  1.
        -11    1    4    4    0    0 -0.52173231573E-01  0.74228441527E-02  0.83058358843E-01  0.98367153069E-01  0.51100000000E-03 0.  1.
         11    1    4    4    0    0 -0.20420023420E-01  0.12123791044E-01  0.22618208945E-01  0.32799514670E-01  0.51100000000E-03 0. -1.
</event>
<event>
 8    1  0.1114333E+005  0.1043930E+01  0.7957747E-01            NaN
         13   -1    0    0    0    0  0.00000000000E+00  0.00000000000E+00  0.74505805969E-08  0.10566000000E+00  0.10566000000E+00 0.  1.
     999900   -1    0    0    0    0 -0.00000000000E+00 -0.00000000000E+00 -0.74505805969E-08  0.93827000000E+00  0.93827000000E+00 0. -1.
     999902    2    1    2    0    0  0.13337795771E-02  0.13891796964E-01  0.20259626843E-01  0.10193289132E+01  0.10190320014E+01 0.  0.
     999903    2    3    3    0    0 -0.71663274900E-01 -0.10020876787E+00  0.31983581806E-01  0.12888803367E+00  0.20291712347E-01 0.  0.
         14    1    1    2    0    0 -0.13337795771E-02 -0.13891796964E-01 -0.20259626843E-01  0.24601086778E-01  0.00000000000E+00 0. -1.
     999901    1    3    3    0    0  0.72997054477E-01  0.11410056484E+00 -0.11723954963E-01  0.89044087955E+00  0.88000000000E+00 0.  1.
        -11    1    4    4    0    0 -0.27472273589E-01 -0.38215986682E-01  0.22489889405E-01  0.52165541315E-01  0.51100000000E-03 0. -1.
         11    1    4    4    0    0 -0.44191001311E-01 -0.61992781191E-01  0.94936924008E-02  0.76722492354E-01  0.51100000000E-03 0.  1.
</event>
<event>
 8    1  0.1114333E+005  0.1043930E+01  0.7957747E-01            NaN
         13   -1    0    0    0    0  0.00000000000E+00  0.00000000000E+00  0.74505805969E-08  0.10566000000E+00  0.10566000000E+00 0.  1.
     999900   -1    0    0    0    0 -0.00000000000E+00 -0.00000000000E+00 -0.74505805969E-08  0.93827000000E+00  0.93827000000E+00 0.  1.
     999902    2    1    2    0    0  0.21177248978E-02  0.21118953283E-01  0.11955688505E-01  0.10195695108E+01  0.10192784477E+01 0.  0.
     999903    2    3    3    0    0  0.11269282818E+00 -0.16014456690E-01 -0.57702385222E-01  0.12914377508E+00  0.19809417798E-01 0.  0.
         14    1    1    2    0    0 -0.21177248978E-02 -0.21118953283E-01 -0.11955688505E-01  0.24360489202E-01  0.00000000000E+00 0. -1.
     999901    1    3    3    0    0 -0.11057510328E+00  0.37133409973E-01  0.69658073727E-01  0.89042573572E+00  0.88000000000E+00 0.  1.
        -11    1    4    4    0    0  0.38199575860E-01 -0.13392807424E-01 -0.14579980279E-01  0.43028035425E-01  0.51100000000E-03 0.  1.
         11    1    4    4    0    0  0.74493252322E-01 -0.26216492658E-02 -0.43122404943E-01  0.86115739650E-01  0.51100000000E-03 0. -1.
</event>
<event>
 8    1  0.1114333E+005  0.1043930E+01  0.7957747E-01            NaN
         13   -1    0    0    0    0  0.00000000000E+00  0.00000000000E+00  0.74505805969E-08  0.10566000000E+00  0.10566000000E+00 0. -1.
     999900   -1    0    0    0    0 -0.00000000000E+00 -0.00000000000E+00 -0.74505805969E-08  0.93827000000E+00  0.93827000000E+00 0. -1.
     999902    2    1    2    0    0 -0.19469132358E-01  0.63211844028E-03  0.23865349889E-01  0.10131241302E+01  0.10126556678E+01 0.  0.
     999903    2    3    3    0    0  0.99845539252E-01 -0.66658960229E-01  0.13129013412E-01  0.12246182099E+00  0.20297239230E-01 0.  0.
         14    1    1    2    0    0  0.19469132358E-01 -0.63211844028E-03 -0.23865349889E-01  0.30805869795E-01  0.00000000000E+00 0.  1.
     999901    1    3    3    0    0 -0.11931467161E+00  0.67291078669E-01  0.10736336477E-01  0.89066230921E+00  0.88000000000E+00 0.  1.
        -11    1    4    4    0    0  0.73195324462E-01 -0.37982140767E-01  0.61592965205E-02  0.82694598342E-01  0.51100000000E-03 0.  1.
         11    1    4    4    0    0  0.26650214791E-01 -0.28676819462E-01  0.69697168916E-02  0.39767222651E-01  0.51100000000E-03 0. -1.
</event>
<event>
 8    1  0.1114333E+005  0.1043930E+01  0.7957747E-01            NaN
         13   -1    0    0    0    0  0.00000000000E+00  0.00000000000E+00  0.74505805969E-08  0.10566000000E+00  0.10566000000E+00 0. -1.
     999900   -1    0    0    0    0 -0.00000000000E+00 -0.00000000000E+00 -0.74505805969E-08  0.93827000000E+00  0.93827000000E+00 0.  1.
     999902    2    1    2    0    0  0.64209032019E-02 -0.11090448330E-01 -0.19428216804E-01  0.10206559447E+01  0.10203905506E+01 0.  0.
     999903    2    3    3    0    0  0.96452142222E-01  0.32053752494E-01 -0.83505207242E-01  0.13269597557E+00  0.17454039883E-01 0.  0.
         14    1    1    2    0    0 -0.64209032019E-02  0.11090448330E-01  0.19428216804E-01  0.23274055303E-01  0.00000000000E+00 0. -1.
     999901    1    3    3    0    0 -0.90031239021E-01 -0.43144200824E-01  0.64076990438E-01  0.88795996912E+00  0.88000000000E+00 0.  1.
        -11    1    4    4    0    0  0.58191832796E-01  0.23005313926E-01 -0.41097626437E-01  0.74865278286E-01  0.51100000000E-03 0. -1.
         11    1    4    4    0    0  0.38260309426E-01  0.90484385676E-02 -0.42407580805E-01  0.57830697286E-01  0.51100000000E-03 0.  1.
</event>
<event>
 8    1  0.1114333E+005  0.1043930E+01  0.7957747E-01            NaN
         13   -1    0    0    0    0  0.00000000000E+00  0.00000000000E+00  0.74505805969E-08  0.10566000000E+00  0.10566000000E+00 0. -1.
     999900   -1    0    0    0    0 -0.00000000000E+00 -0.00000000000E+00 -0.74505805969E-08  0.93827000000E+00  0.93827000000E+00 0. -1.
     999902    2    1    2    0    0  0.22600466731E-01 -0.18138134564E-02 -0.38287911194E-02  0.10209358560E+01  0.10206768791E+01 0.  0.
     999903    2    3    3    0    0 -0.91881739688E-01 -0.18468243750E-01  0.86006964023E-01  0.12882935536E+00  0.20407714851E-01 0.  0.
         14    1    1    2    0    0 -0.22600466731E-01  0.18138134564E-02  0.38287911194E-02  0.22994143975E-01  0.00000000000E+00 0.  1.
     999901    1    3    3    0    0  0.11448220642E+00  0.16654430294E-01 -0.89835755143E-01  0.89210650067E+00  0.88000000000E+00 0. -1.
        -11    1    4    4    0    0 -0.55819090530E-01 -0.11491733164E-01  0.38504735133E-01  0.68780131923E-01  0.51100000000E-03 0.  1.
         11    1    4    4    0    0 -0.36062649158E-01 -0.69765105861E-02  0.47502228890E-01  0.60049223432E-01  0.51100000000E-03 0. -1.
</event>
<event>
 8    1  0.1114333E+005  0.1043930E+01  0.7957747E-01            NaN
         13   -1    0    0    0    0  0.00000000000E+00  0.00000000000E+00  0.74505805969E-08  0.10566000000E+00  0.10566000000E+00 0. -1.
     999900   -1    0    0    0    0 -0.00000000000E+00 -0.00000000000E+00 -0.74505805969E-08  0.93827000000E+00  0.93827000000E+00 0.  1.
     999902    2    1    2    0    0 -0.13575801086E-01 -0.13831320149E-01 -0.10457937012E-01  0.10219078239E+01  0.10216705068E+01 0.  0.
     999903    2    3    3    0    0  0.73072404912E-02  0.14206530644E-01 -0.13051783362E+00  0.13306779261E+00  0.20418404957E-01 0.  0.
         14    1    1    2    0    0  0.13575801086E-01  0.13831320149E-01  0.10457937012E-01  0.22022176067E-01  0.00000000000E+00 0. -1.
     999901    1    3    3    0    0 -0.20883041577E-01 -0.28037850793E-01  0.12005989661E+00  0.88884003132E+00  0.88000000000E+00 0. -1.
        -11    1    4    4    0    0  0.17255877646E-02  0.10348405231E-01 -0.22447271869E-01  0.24783225765E-01  0.51100000000E-03 0. -1.
         11    1    4    4    0    0  0.55816527266E-02  0.38581254131E-02 -0.10807056175E+00  0.10828456685E+00  0.51100000000E-03 0.  1.
</event>
<event>
 8    1  0.1114333E+005  0.1043930E+01  0.7957747E-01            NaN
         13   -1    0    0    0    0  0.00000000000E+00  0.00000000000E+00  0.74505805969E-08  0.10566000000E+00  0.10566000000E+00 0. -1.
     999900   -1    0    0    0    0 -0.00000000000E+00 -0.00000000000E+00 -0.74505805969E-08  0.93827000000E+00  0.93827000000E+00 0. -1.
     999902    2    1    2    0    0 -0.15532016491E-01 -0.10420270440E-01 -0.16680282882E-01  0.10188689264E+01  0.10185606667E+01 0.  0.
     999903    2    3    3    0    0 -0.59488410482E-01 -0.98032486163E-01 -0.62879713748E-01  0.13222218034E+00  0.19483512179E-01 0.  0.
         14    1    1    2    0    0  0.15532016491E-01  0.10420270440E-01  0.16680282882E-01  0.25061073587E-01  0.00000000000E+00 0. -1.
     999901    1    3    3    0    0  0.43956393991E-01  0.87612215723E-01  0.46199430866E-01  0.88664674608E+00  0.88000000000E+00 0.  1.
        -11    1    4    4    0    0 -0.38063418551E-01 -0.63898391902E-01 -0.51070553849E-01  0.90223560731E-01  0.51100000000E-03 0. -1.
         11    1    4    4    0    0 -0.21424991931E-01 -0.34134094260E-01 -0.11809159899E-01  0.41998619605E-01  0.51100000000E-03 0.  1.
</event>
<event>
 8    1  0.1114333E+005  0.1043930E+01  0.7957747E-01            NaN
         13   -1    0    0    0    0  0.00000000000E+00  0.00000000000E+00  0.74505805969E-08  0.10566000000E+00  0.10566000000E+00 0. -1.
     999900   -1    0    0    0    0 -0.00000000000E+00 -0.00000000000E+00 -0.74505805969E-08  0.93827000000E+00  0.93827000000E+00 0. -1.
     999902    2    1    2    0    0  0.19724610614E-01  0.12318580734E-01  0.26426779459E-02  0.10205250552E+01  0.10202566328E+01 0.  0.
     999903    2    3    3    0    0  0.68404340586E-02 -0.95346334467E-01  0.85734031946E-01  0.12998482078E+00  0.20199365492E-01 0.  0.
         14    1    1    2    0    0 -0.19724610614E-01 -0.12318580734E-01 -0.26426779459E-02  0.23404944818E-01  0.00000000000E+00 0.  1.
     999901    1    3    3    0    0  0.12884176556E-01  0.10766491520E+00 -0.83091354000E-01  0.89054023440E+00  0.88000000000E+00 0. -1.
        -11    1    4    4    0    0 -0.64520412418E-03 -0.27998176880E-01  0.37502229342E-01  0.46808039091E-01  0.51100000000E-03 0. -1.
         11    1    4    4    0    0  0.74856381828E-02 -0.67348157588E-01  0.48231802604E-01  0.83176781693E-01  0.51100000000E-03 0.  1.
</event>
<event>
 8    1  0.1114333E+005  0.1043930E+01  0.7957747E-01            NaN
         13   -1    0    0    0    0  0.00000000000E+00  0.00000000000E+00  0.74505805969E-08  0.10566000000E+00  0.10566000000E+00 0. -1.
     999900   -1    0    0    0    0 -0.00000000000E+00 -0.00000000000E+00 -0.74505805969E-08  0.93827000000E+00  0.93827000000E+00 0.  1.
     999902    2    1    2    0    0  0.15321563388E-01  0.44371727412E-02 -0.17681800759E-01  0.10201164559E+01  0.10198384669E+01 0.  0.
     999903    2    3    3    0    0  0.20434228574E-01  0.88036271636E-03 -0.12981137537E+00  0.13297958268E+00  0.20352972718E-01 0.  0.
         14    1    1    2    0    0 -0.15321563388E-01 -0.44371727412E-02  0.17681800759E-01  0.23813544143E-01  0.00000000000E+00 0. -1.
     999901    1    3    3    0    0 -0.51126651861E-02  0.35568100249E-02  0.11212957461E+00  0.88713687317E+00  0.88000000000E+00 0. -1.
        -11    1    4    4    0    0 -0.56619495898E-03  0.21613815447E-02 -0.60502262621E-01  0.60545660869E-01  0.51100000000E-03 0. -1.
         11    1    4    4    0    0  0.21000423533E-01 -0.12810188283E-02 -0.69309112752E-01  0.72433921813E-01  0.51100000000E-03 0.  1.
</event>
<event>
 8    1  0.1114333E+005  0.1043930E+01  0.7957747E-01            NaN
         13   -1    0    0    0    0  0.00000000000E+00  0.00000000000E+00  0.74505805969E-08  0.10566000000E+00  0.10566000000E+00 0. -1.
     999900   -1    0    0    0    0 -0.00000000000E+00 -0.00000000000E+00 -0.74505805969E-08  0.93827000000E+00  0.93827000000E+00 0.  1.
     999902    2    1    2    0    0 -0.47691074910E-02  0.48993410908E-03 -0.22421709524E-01  0.10210014702E+01  0.10207439858E+01 0.  0.
     999903    2    3    3    0    0 -0.20214265308E-01  0.74966378654E-02 -0.13090031922E+00  0.13417834489E+00  0.20102700414E-01 0.  0.
         14    1    1    2    0    0  0.47691074910E-02 -0.48993410908E-03  0.22421709524E-01  0.22928529819E-01  0.00000000000E+00 0. -1.
     999901    1    3    3    0    0  0.15445157817E-01 -0.70067037563E-02  0.10847860969E+00  0.88682312530E+00  0.88000000000E+00 0. -1.
        -11    1    4    4    0    0 -0.16300767307E-02 -0.51515989412E-02 -0.47172965798E-01  0.47484165202E-01  0.51100000000E-03 0.  1.
         11    1    4    4    0    0 -0.18584188577E-01  0.12648236807E-01 -0.83727353419E-01  0.86694179683E-01  0.51100000000E-03 0. -1.
</event>
<event>
 8    1  0.1114333E+005  0.1043930E+01  0.7957747E-01            NaN
         13   -1    0    0    0    0  0.00000000000E+00  0.00000000000E+00  0.74505805969E-08  0.10566000000E+00  0.10566000000E+00 0. -1.
     999900   -1    0    0    0    0 -0.00000000000E+00 -0.00000000000E+00 -0.74505805969E-08  0.93827000000E+00  0.93827000000E+00 0.  1.
     999902    2    1    2    0    0 -0.12395713232E-01 -0.19722880798E-01 -0.35795218781E-02  0.10203618284E+01  0.10200896050E+01 0.  0.
     999903    2    3    3    0    0  0.58782881755E-01 -0.10484230738E+00  0.50078251154E-01  0.13177257251E+00  0.20219867016E-01 0.  0.
         14    1    1    2    0    0  0.12395713232E-01  0.19722880798E-01  0.35795218781E-02  0.23568171554E-01  0.00000000000E+00 0. -1.
     999901    1    3    3    0    0 -0.71178594988E-01  0.85119426581E-01 -0.53657773032E-01  0.88858925594E+00  0.88000000000E+00 0. -1.
        -11    1    4    4    0    0  0.47461192711E-01 -0.79296164890E-01  0.29306521104E-01  0.96951430521E-01  0.51100000000E-03 0.  1.
         11    1    4    4    0    0  0.11321689045E-01 -0.25546142489E-01  0.20771730049E-01  0.34821141985E-01  0.51100000000E-03 0. -1.
</event>
<event>
 8    1  0.1114333E+005  0.1043930E+01  0.7957747E-01            NaN
         13   -1    0    0    0    0  0.00000000000E+00  0.00000000000E+00  0.74505805969E-08  0.10566000000E+00  0.10566000000E+00 0.  1.
     999900   -1    0    0    0    0 -0.00000000000E+00 -0.00000000000E+00 -0.74505805969E-08  0.93827000000E+00  0.93827000000E+00 0. -1.
     999902    2    1    2    0    0  0.15742656690E-02  0.73759471088E-02 -0.29022993107E-01  0.10139430522E+01  0.10134995294E+01 0.  0.
     999903    2    3    3    0    0  0.12073753350E+00  0.10286751616E-01  0.26608256687E-01  0.12416600535E+00  0.50821556551E-02 0.  0.
         14    1    1    2    0    0 -0.15742656690E-02 -0.73759471088E-02  0.29022993107E-01  0.29986947778E-01  0.00000000000E+00 0.  1.
     999901    1    3    3    0    0 -0.11916326783E+00 -0.29108045074E-02 -0.55631249794E-01  0.88977704687E+00  0.88000000000E+00 0.  1.
        -11    1    4    4    0    0  0.24468788313E-01  0.26622614219E-02  0.73573002145E-02  0.25694361733E-01  0.51100000000E-03 0.  1.
         11    1    4    4    0    0  0.96268745189E-01  0.76244901943E-02  0.19250956473E-01  0.98471643619E-01  0.51100000000E-03 0. -1.
</event>
<event>
 8    1  0.1114333E+005  0.1043930E+01  0.7957747E-01            NaN
         13   -1    0    0    0    0  0.00000000000E+00  0.00000000000E+00  0.74505805969E-08  0.10566000000E+00  0.10566000000E+00 0.  1.
     999900   -1    0    0    0    0 -0.00000000000E+00 -0.00000000000E+00 -0.74505805969E-08  0.93827000000E+00  0.93827000000E+00 0. -1.
     999902    2    1    2    0    0  0.55073849399E-03  0.96726104803E-02 -0.20651120065E-01  0.10211192248E+01  0.10208644081E+01 0.  0.
     999903    2    3    3    0    0  0.64272482481E-01 -0.30936224440E-01 -0.11081202316E+00  0.13329124224E+00  0.19981211038E-01 0.  0.
         14    1    1    2    0    0 -0.55073849399E-03 -0.96726104803E-02  0.20651120065E-01  0.22810775224E-01  0.00000000000E+00 0.  1.
     999901    1    3    3    0    0 -0.63721743987E-01  0.40608834920E-01  0.90160903091E-01  0.88782798254E+00  0.88000000000E+00 0.  1.
        -11    1    4    4    0    0  0.27808527280E-01 -0.22428208715E-01 -0.64489219410E-01  0.73725567321E-01  0.51100000000E-03 0.  1.
         11    1    4    4    0    0  0.36463955201E-01 -0.85080157248E-02 -0.46322803747E-01  0.59565674918E-01  0.51100000000E-03 0. -1.
</event>
<event>
 8    1  0.1114333E+005  0.1043930E+01  0.7957747E-01            NaN
         13   -1    0    0    0    0  0.00000000000E+00  0.00000000000E+00  0.74505805969E-08  0.10566000000E+00  0.10566000000E+00 0. -1.
     999900   -1    0    0    0    0 -0.00000000000E+00 -0.00000000000E+00 -0.74505805969E-08  0.93827000000E+00  0.93827000000E+00 0.  1.
     999902    2    1    2    0    0 -0.12030286049E-01 -0.77768086070E-02  0.18898873553E-01  0.10202155749E+01  0.10199399224E+01 0.  0.
     999903    2    3    3    0    0 -0.31959945989E-01 -0.50792739122E-01  0.11748254702E+00  0.13344260382E+00  0.20085795117E-01 0.  0.
         14    1    1    2    0    0  0.12030286049E-01  0.77768086070E-02 -0.18898873553E-01  0.23714425063E-01  0.00000000000E+00 0.  1.
     999901    1    3    3    0    0  0.19929659940E-01  0.43015930516E-01 -0.98583673467E-01  0.88677297111E+00  0.88000000000E+00 0.  1.
        -11    1    4    4    0    0 -0.13929203149E-01 -0.84210761312E-02  0.21376433465E-01  0.26872853444E-01  0.51100000000E-03 0. -1.
         11    1    4    4    0    0 -0.18030742841E-01 -0.42371662991E-01  0.96106113555E-01  0.10656975038E+00  0.51100000000E-03 0.  1.
</event>
<event>
 8    1  0.1114333E+005  0.1043930E+01  0.7957747E-01            NaN
         13   -1    0    0    0    0  0.00000000000E+00  0.00000000000E+00  0.74505805969E-08  0.10566000000E+00  0.10566000000E+00 0.  1.
     999900   -1    0    0    0    0 -0.00000000000E+00 -0.00000000000E+00 -0.74505805969E-08  0.93827000000E+00  0.93827000000E+00 0. -1.
     999902    2    1    2    0    0 -0.14978600567E-01 -0.11519803429E-01 -0.14497359541E-01  0.10201132458E+01  0.10198351811E+01 0.  0.
     999903    2    3    3    0    0  0.86174552249E-02  0.11758814922E+00  0.46546899121E-01  0.12828812911E+00  0.19748338676E-01 0.  0.
         14    1    1    2    0    0  0.14978600567E-01  0.11519803429E-01  0.14497359541E-01  0.23816754180E-01  0.00000000000E+00 0.  1.
     999901    1    3    3    0    0 -0.23596055792E-01 -0.12910795265E+00 -0.61044258662E-01  0.89182511671E+00  0.88000000000E+00 0.  1.
        -11    1    4    4    0    0  0.55137375674E-02  0.19281660671E-01  0.15311275217E-02  0.20119374063E-01  0.51100000000E-03 0. -1.
         11    1    4    4    0    0  0.31037176575E-02  0.98306488548E-01  0.45015771600E-01  0.10816875504E+00  0.51100000000E-03 0.  1.
</event>
<event>
 8    1  0.1114333E+005  0.1043930E+01  0.7957747E-01            NaN
         13   -1    0    0    0    0  0.00000000000E+00  0.00000000000E+00  0.74505805969E-08  0.10566000000E+00  0.10566000000E+00 0. -1.
     999900   -1    0    0    0    0 -0.00000000000E+00 -0.00000000000E+00 -0.74505805969E-08  0.93827000000E+00  0.93827000000E+00 0. -1.
     999902    2    1    2    0    0  0.70440819179E-03  0.95611512807E-02 -0.18136872008E-01  0.10234151778E+01  0.10232095426E+01 0.  0.
     999903    2    3    3    0    0  0.52358204978E-01 -0.65307933500E-01  0.98825513664E-01  0.13102866161E+00  0.19887689778E-01 0.  0.
         14    1    1    2    0    0 -0.70440819179E-03 -0.95611512807E-02  0.18136872008E-01  0.20514822225E-01  0.00000000000E+00 0. -1.
     999901    1    3    3    0    0 -0.51653796786E-01  0.74869084781E-01 -0.11696238567E+00  0.89238651617E+00  0.88000000000E+00 0. -1.
        -11    1    4    4    0    0  0.76112668926E-02 -0.19922931188E-01  0.33846557781E-01  0.40008813598E-01  0.51100000000E-03 0. -1.
         11    1    4    4    0    0  0.44746938085E-01 -0.45385002311E-01  0.64978955883E-01  0.91019848008E-01  0.51100000000E-03 0.  1.
</event>
<event>
 8    1  0.1114333E+005  0.1043930E+01  0.7957747E-01            NaN
         13   -1    0    0    0    0  0.00000000000E+00  0.00000000000E+00  0.74505805969E-08  0.10566000000E+00  0.10566000000E+00 0.  1.
     999900   -1    0    0    0    0 -0.00000000000E+00 -0.00000000000E+00 -0.74505805969E-08  0.93827000000E+00  0.93827000000E+00 0. -1.
     999902    2    1    2    0    0  0.13616324401E-01 -0.19916425908E-01 -0.86235516363E-02  0.10183090329E+01  0.10179866662E+01 0.  0.
     999903    2    3    3    0    0  0.97878380173E-01  0.68203070469E-01 -0.45037783556E-01  0.12915711341E+00  0.20526126531E-01 0.  0.
         14    1    1    2    0    0 -0.13616324401E-01  0.19916425908E-01  0.86235516363E-02  0.25620967077E-01  0.00000000000E+00 0. -1.
     999901    1    3    3    0    0 -0.84262055772E-01 -0.88119496377E-01  0.36414231919E-01  0.88915191951E+00  0.88000000000E+00 0.  1.
        -11    1    4    4    0    0  0.30514117650E-01  0.25532035686E-01 -0.55602182874E-02  0.40176776509E-01  0.51100000000E-03 0. -1.
         11    1    4    4    0    0  0.67364262523E-01  0.42671034783E-01 -0.39477565268E-01  0.88980336902E-01  0.51100000000E-03 0.  1.
</event>
<event>
 8    1  0.1114333E+005  0.1043930E+01  0.7957747E-01            NaN
         13   -1    0    0    0    0  0.00000000000E+00  0.00000000000E+00  0.74505805969E-08  0.10566000000E+00  0.10566000000E+00 0.  1.
     999900   -1    0    0    0    0 -0.00000000000E+00 -0.00000000000E+00 -0.74505805969E-08  0.93827000000E+00  0.93827000000E+00 0. -1.
     999902    2    1    2    0    0 -0.15925450585E-01  0.17605226970E-01  0.30530738902E-02  0.10199949785E+01  0.10197141124E+01 0.  0.
     999903    2    3    3    0    0  0.16043560436E-01 -0.57832383011E-01 -0.11205096778E+00  0.12872521516E+00  0.20317019531E-01 0.  0.
         14    1    1    2    0    0  0.15925450585E-01 -0.17605226970E-01 -0.30530738902E-02  0.23935021479E-01  0.00000000000E+00 0. -1.
     999901    1    3    3    0    0 -0.31969011021E-01  0.75437609981E-01  0.11510404167E+00  0.89126976336E+00  0.88000000000E+00 0.  1.
        -11    1    4    4    0    0  0.18219010178E-01 -0.47285280833E-01 -0.10240838629E+00  0.11426096804E+00  0.51100000000E-03 0.  1.
         11    1    4    4    0    0 -0.21754497420E-02 -0.10547102178E-01 -0.96425814926E-02  0.14464247121E-01  0.51100000000E-03 0. -1.
</event>
<event>
 8    1  0.1114333E+005  0.1043930E+01  0.7957747E-01            NaN
         13   -1    0    0    0    0  0.00000000000E+00  0.00000000000E+00  0.74505805969E-08  0.10566000000E+00  0.10566000000E+00 0.  1.
     999900   -1    0    0    0    0 -0.00000000000E+00 -0.00000000000E+00 -0.74505805969E-08  0.93827000000E+00  0.93827000000E+00 0.  1.
     999902    2    1    2    0    0  0.10392564851E-01 -0.10984781385E-01 -0.14874753832E-01  0.10227184671E+01  0.10224984762E+01 0.  0.
     999903    2    3    3    0    0  0.38683734204E-01 -0.12090874509E+00  0.37478373817E-01  0.13388523301E+00  0.20131348255E-01 0.  0.
         14    1    1    2    0    0 -0.10392564851E-01  0.10984781385E-01  0.14874753832E-01  0.21211532897E-01  0.00000000000E+00 0.  1.
     999901    1    3    3    0    0 -0.28291169353E-01  0.10992396370E+00 -0.52353127649E-01  0.88883323410E+00  0.88000000000E+00 0.  1.
        -11    1    4    4    0    0  0.20020800931E-01 -0.72933259768E-01  0.31965829257E-01  0.82110707045E-01  0.51100000000E-03 0. -1.
         11    1    4    4    0    0  0.18662933273E-01 -0.47975485321E-01  0.55125445598E-02  0.51774525962E-01  0.51100000000E-03 0.  1.
</event>
<event>
 8    1  0.1114333E+005  0.1043930E+01  0.7957747E-01            NaN
         13   -1    0    0    0    0  0.00000000000E+00  0.00000000000E+00  0.74505805969E-08  0.10566000000E+00  0.10566000000E+00 0.  1.
     999900   -1    0    0    0    0 -0.00000000000E+00 -0.00000000000E+00 -0.74505805969E-08  0.93827000000E+00  0.93827000000E+00 0. -1.
     999902    2    1    2    0    0  0.16131965070E-01  0.90529671025E-02 -0.16078161754E-01  0.10194207406E+01  0.10191260681E+01 0.  0.
     999903    2    3    3    0    0 -0.94225307880E-02  0.36808376510E-01  0.12065549887E+00  0.12806251355E+00  0.19965402591E-01 0.  0.
         14    1    1    2    0    0 -0.16131965070E-01 -0.90529671025E-02  0.16078161754E-01  0.24509259388E-01  0.00000000000E+00 0.  1.
     999901    1    3    3    0    0  0.25554495858E-01 -0.27755409408E-01 -0.13673366062E+00  0.89135822707E+00  0.88000000000E+00 0.  1.
        -11    1    4    4    0    0 -0.77920465167E-02  0.26956429149E-02  0.16549451473E-01  0.18496700914E-01  0.51100000000E-03 0. -1.
         11    1    4    4    0    0 -0.16304842713E-02  0.34112733596E-01  0.10410604740E+00  0.10956581263E+00  0.51100000000E-03 0.  1.
</event>
<event>
 8    1  0.1114333E+005  0.1043930E+01  0.7957747E-01            NaN
         13   -1    0    0    0    0  0.00000000000E+00  0.00000000000E+00  0.74505805969E-08  0.10566000000E+00  0.10566000000E+00 0.  1.
     999900   -1    0    0    0    0 -0.00000000000E+00 -0.00000000000E+00 -0.74505805969E-08  0.93827000000E+00  0.93827000000E+00 0. -1.
     999902    2    1    2    0    0  0.27898229578E-02 -0.78582282233E-02  0.23558364201E-01  0.10189393740E+01  0.10186328664E+01 0.  0.
     999903    2    3    3    0    0 -0.71661679984E-01  0.89590764417E-01  0.57538817616E-01  0.12978584191E+00  0.19280761914E-01 0.  0.
         14    1    1    2    0    0 -0.27898229578E-02  0.78582282233E-02 -0.23558364201E-01  0.24990625978E-01  0.00000000000E+00 0. -1.
     999901    1    3    3    0    0  0.74451502941E-01 -0.97448992640E-01 -0.33980453415E-01  0.88915353211E+00  0.88000000000E+00 0.  1.
        -11    1    4    4    0    0 -0.46746501204E-01  0.51722000025E-01  0.25336345412E-01  0.74179459294E-01  0.51100000000E-03 0. -1.
         11    1    4    4    0    0 -0.24915178780E-01  0.37868764393E-01  0.32202472205E-01  0.55606382613E-01  0.51100000000E-03 0.  1.
</event>
<event>
 8    1  0.1114333E+005  0.1043930E+01  0.7957747E-01            NaN
         13   -1    0    0    0    0  0.00000000000E+00  0.00000000000E+00  0.74505805969E-08  0.10566000000E+00  0.10566000000E+00 0. -1.
     999900   -1    0    0    0    0 -0.00000000000E+00 -0.00000000000E+00 -0.74505805969E-08  0.93827000000E+00  0.93827000000E+00 0. -1.
     999902    2    1    2    0    0  0.95562898365E-02  0.21071228328E-01 -0.21691460940E-02  0.10206915721E+01  0.10204269992E+01 0.  0.
     999903    2    3    3    0    0  0.65485419488E-01  0.88475511199E-01  0.72604326900E-01  0.13318806380E+00  0.18746087786E-01 0.  0.
         14    1    1    2    0    0 -0.95562898365E-02 -0.21071228328E-01  0.21691460940E-02  0.23238427948E-01  0.00000000000E+00 0. -1.
     999901    1    3    3    0    0 -0.55929129652E-01 -0.67404282871E-01 -0.74773472994E-01  0.88750350825E+00  0.88000000000E+00 0. -1.
        -11    1    4    4    0    0  0.49780164123E-02  0.16333231575E-01  0.71760539925E-02  0.18528679742E-01  0.51100000000E-03 0. -1.
         11    1    4    4    0    0  0.60507403076E-01  0.72142279624E-01  0.65428272908E-01  0.11465938406E+00  0.51100000000E-03 0.  1.
</event>
<event>
 8    1  0.1114333E+005  0.1043930E+01  0.7957747E-01            NaN
         13   -1    0    0    0    0  0.00000000000E+00  0.00000000000E+00  0.74505805969E-08  0.10566000000E+00  0.10566000000E+00 0. -1.
     999900   -1    0    0    0    0 -0.00000000000E+00 -0.00000000000E+00 -0.74505805969E-08  0.93827000000E+00  0.93827000000E+00 0.  1.
     999902    2    1    2    0    0 -0.44352153929E-03  0.19509250067E-01 -0.17099825439E-01  0.10179836789E+01  0.10176529658E+01 0.  0.
     999903    2    3    3    0    0  0.25333136532E-01  0.12680575597E+00 -0.67754990351E-02  0.13103183803E+00  0.20049130577E-01 0.  0.
         14    1    1    2    0    0  0.44352153929E-03 -0.19509250067E-01  0.17099825439E-01  0.25946321118E-01  0.00000000000E+00 0. -1.
     999901    1    3    3    0    0 -0.25776658071E-01 -0.10729650590E+00 -0.10324326404E-01  0.88695184085E+00  0.88000000000E+00 0. -1.
        -11    1    4    4    0    0  0.24548528273E-01  0.80102941661E-01  0.32977866127E-03  0.83782345265E-01  0.51100000000E-03 0.  1.
         11    1    4    4    0    0  0.78460825902E-03  0.46702814305E-01 -0.71052776964E-02  0.47249492762E-01  0.51100000000E-03 0. -1.
</event>
<event>
 8    1  0.1114333E+005  0.1043930E+01  0.7957747E-01            NaN
         13   -1    0    0    0    0  0.00000000000E+00  0.00000000000E+00  0.74505805969E-08  0.10566000000E+00  0.10566000000E+00 0. -1.
     999900   -1    0    0    0    0 -0.00000000000E+00 -0.00000000000E+00 -0.74505805969E-08  0.93827000000E+00  0.93827000000E+00 0.  1.
     999902    2    1    2    0    0 -0.15399851573E-01  0.92878202018E-02 -0.15064297826E-01  0.10204704156E+01  0.10202007239E+01 0.  0.
     999903    2    3    3    0    0  0.44456468018E-01 -0.12440146276E-01 -0.12191003838E+00  0.13172360360E+00  0.18918654774E-01 0.  0.
         14    1    1    2    0    0  0.15399851573E-01 -0.92878202018E-02  0.15064297826E-01  0.23459584428E-01  0.00000000000E+00 0. -1.
     999901    1    3    3    0    0 -0.59856319591E-01  0.21727966478E-01  0.10684574055E+00  0.88874681198E+00  0.88000000000E+00 0. -1.
        -11    1    4    4    0    0  0.43990315626E-01 -0.13948701246E-01 -0.10453637586E+00  0.11427085864E+00  0.51100000000E-03 0.  1.
         11    1    4    4    0    0  0.46615239171E-03  0.15085549694E-02 -0.17373662518E-01  0.17452744954E-01  0.51100000000E-03 0. -1.
</event>
<event>
 8    1  0.1114333E+005  0.1043930E+01  0.7957747E-01            NaN
         13   -1    0    0    0    0  0.00000000000E+00  0.00000000000E+00  0.74505805969E-08  0.10566000000E+00  0.10566000000E+00 0.  1.
     999900   -1    0    0    0    0 -0.00000000000E+00 -0.00000000000E+00 -0.74505805969E-08  0.93827000000E+00  0.93827000000E+00 0.  1.
     999902    2    1    2    0    0  0.66922277527E-02  0.20099966484E-01 -0.12151227604E-01  0.10195077377E+01  0.10192151786E+01 0.  0.
     999903    2    3    3    0    0 -0.14873131058E-01  0.12659116151E+00  0.27535346041E-01  0.13193776102E+00  0.20071006484E-01 0.  0.
         14    1    1    2    0    0 -0.66922277527E-02 -0.20099966484E-01  0.12151227604E-01  0.24422262329E-01  0.00000000000E+00 0.  1.
     999901    1    3    3    0    0  0.21565358810E-01 -0.10649119503E+00 -0.39686573645E-01  0.88756997665E+00  0.88000000000E+00 0.  1.
        -11    1    4    4    0    0 -0.45404476075E-02  0.37976206731E-01  0.17807695602E-01  0.42192215938E-01  0.51100000000E-03 0.  1.
         11    1    4    4    0    0 -0.10332683450E-01  0.88614954783E-01  0.97276504387E-02  0.89745545085E-01  0.51100000000E-03 0. -1.
</event>
<event>
 8    1  0.1114333E+005  0.1043930E+01  0.7957747E-01            NaN
         13   -1    0    0    0    0  0.00000000000E+00  0.00000000000E+00  0.74505805969E-08  0.10566000000E+00  0.10566000000E+00 0.  1.
     999900   -1    0    0    0    0 -0.00000000000E+00 -0.00000000000E+00 -0.74505805969E-08  0.93827000000E+00  0.93827000000E+00 0. -1.
     999902    2    1    2    0    0  0.10111685625E-01  0.89097951323E-03  0.21729395565E-01  0.10199465336E+01  0.10196645157E+01 0.  0.
     999903    2    3    3    0    0 -0.91389797136E-01 -0.24674035761E-01  0.88335615922E-01  0.13124382197E+00  0.21467573293E-01 0.  0.
         14    1    1    2    0    0 -0.10111685625E-01 -0.89097951323E-03 -0.21729395565E-01  0.23983466436E-01  0.00000000000E+00 0.  1.
     999901    1    3    3    0    0  0.10150148276E+00  0.25565015274E-01 -0.66606220358E-01  0.88870271160E+00  0.88000000000E+00 0. -1.
        -11    1    4    4    0    0 -0.52455272234E-01 -0.10706317179E-01  0.35927476036E-01  0.64476549752E-01  0.51100000000E-03 0. -1.
         11    1    4    4    0    0 -0.38934524902E-01 -0.13967718582E-01  0.52408139887E-01  0.66767272216E-01  0.51100000000E-03 0.  1.
</event>
<event>
 8    1  0.1114333E+005  0.1043930E+01  0.7957747E-01            NaN
         13   -1    0    0    0    0  0.00000000000E+00  0.00000000000E+00  0.74505805969E-08  0.10566000000E+00  0.10566000000E+00 0. -1.
     999900   -1    0    0    0    0 -0.00000000000E+00 -0.00000000000E+00 -0.74505805969E-08  0.93827000000E+00  0.93827000000E+00 0.  1.
     999902    2    1    2    0    0  0.23776936454E-01  0.49261869225E-02 -0.66049842741E-03  0.10196391317E+01  0.10193497499E+01 0.  0.
     999903    2    3    3    0    0 -0.26587166103E-01 -0.11861430707E+00  0.33808493685E-01  0.12891644315E+00  0.26461364763E-01 0.  0.
         14    1    1    2    0    0 -0.23776936454E-01 -0.49261869225E-02  0.66049842741E-03  0.24290868303E-01  0.00000000000E+00 0.  1.
     999901    1    3    3    0    0  0.50364102558E-01  0.12354049399E+00 -0.34468992112E-01  0.89072268855E+00  0.88000000000E+00 0.  1.
        -11    1    4    4    0    0 -0.14093574596E-01 -0.51971337731E-01  0.16625565023E-02  0.53876469869E-01  0.51100000000E-03 0.  1.
         11    1    4    4    0    0 -0.12493591507E-01 -0.66642969339E-01  0.32145937183E-01  0.75039973277E-01  0.51100000000E-03 0. -1.
</event>
<event>
 8    1  0.1114333E+005  0.1043930E+01  0.7957747E-01            NaN
         13   -1    0    0    0    0  0.00000000000E+00  0.00000000000E+00  0.74505805969E-08  0.10566000000E+00  0.10566000000E+00 0.  1.
     999900   -1    0    0    0    0 -0.00000000000E+00 -0.00000000000E+00 -0.74505805969E-08  0.93827000000E+00  0.93827000000E+00 0.  1.
     999902    2    1    2    0    0 -0.86665238212E-02  0.20406573601E-01 -0.31927180660E-02  0.10215306623E+01  0.10212850550E+01 0.  0.
     999903    2    3    3    0    0 -0.96025476292E-01 -0.57655642030E-01 -0.66237276506E-01  0.13153071148E+00  0.19180357377E-01 0.  0.
         14    1    1    2    0    0  0.86665238212E-02 -0.20406573601E-01  0.31927180660E-02  0.22399337712E-01  0.00000000000E+00 0.  1.
     999901    1    3    3    0    0  0.87358952470E-01  0.78062215631E-01  0.63044558440E-01  0.88999995081E+00  0.88000000000E+00 0.  1.
        -11    1    4    4    0    0 -0.75517443079E-01 -0.38341366150E-01 -0.56086947430E-01  0.10158223939E+00  0.51100000000E-03 0.  1.
         11    1    4    4    0    0 -0.20508033213E-01 -0.19314275879E-01 -0.10150329076E-01  0.29948472087E-01  0.51100000000E-03 0. -1.
</event>
<event>
 8    1  0.1114333E+005  0.1043930E+01  0.7957747E-01            NaN
         13   -1    0    0    0    0  0.00000000000E+00  0.00000000000E+00  0.74505805969E-08  0.10566000000E+00  0.10566000000E+00 0.  1.
     999900   -1    0    0    0    0 -0.00000000000E+00 -0.00000000000E+00 -0.74505805969E-08  0.93827000000E+00  0.93827000000E+00 0. -1.
     999902    2    1    2    0    0  0.81346757341E-02  0.18360988502E-01 -0.12797309744E-01  0.10201167687E+01  0.10198387872E+01 0.  0.
     999903    2    3    3    0    0  0.39312545462E-01 -0.11951404042E-01  0.12061035230E+00  0.12900033131E+00  0.20147359788E-01 0.  0.
         14    1    1    2    0    0 -0.81346757341E-02 -0.18360988502E-01  0.12797309744E-01  0.23813231296E-01  0.00000000000E+00 0. -1.
     999901    1    3    3    0    0 -0.31177869728E-01  0.30312392544E-01 -0.13340766205E+00  0.89111643739E+00  0.88000000000E+00 0. -1.
        -11    1    4    4    0    0  0.21186571751E-01 -0.88067078310E-02  0.93205264642E-01  0.95989121277E-01  0.51100000000E-03 0.  1.
         11    1    4    4    0    0  0.18125973712E-01 -0.31446962111E-02  0.27405087659E-01  0.33011210033E-01  0.51100000000E-03 0. -1.
</event>
<event>
 8    1  0.1114333E+005  0.1043930E+01  0.7957747E-01            NaN
         13   -1    0    0    0    0  0.00000000000E+00  0.00000000000E+00  0.74505805969E-08  0.10566000000E+00  0.10566000000E+00 0.  1.
     999900   -1    0    0    0    0 -0.00000000000E+00 -0.00000000000E+00 -0.74505805969E-08  0.93827000000E+00  0.93827000000E+00 0. -1.
     999902    2    1    2    0    0  0.20776178157E-01  0.15345298680E-01  0.33874671721E-02  0.10178799961E+01  0.10175466003E+01 0.  0.
     999903    2    3    3    0    0 -0.94094613334E-01 -0.62392995445E-01  0.53381808606E-01  0.12561435442E+00  0.13515413698E-01 0.  0.
         14    1    1    2    0    0 -0.20776178157E-01 -0.15345298680E-01 -0.33874671721E-02  0.26050003920E-01  0.00000000000E+00 0.  1.
     999901    1    3    3    0    0  0.11487079149E+00  0.77738294124E-01 -0.49994341434E-01  0.89226564166E+00  0.88000000000E+00 0. -1.
        -11    1    4    4    0    0 -0.43610838329E-01 -0.28452625707E-01  0.17239679169E-01  0.54853667045E-01  0.51100000000E-03 0. -1.
         11    1    4    4    0    0 -0.50483775005E-01 -0.33940369737E-01  0.36142129437E-01  0.70760687376E-01  0.51100000000E-03 0.  1.
</event>
<event>
 8    1  0.1114333E+005  0.1043930E+01  0.7957747E-01            NaN
         13   -1    0    0    0    0  0.00000000000E+00  0.00000000000E+00  0.74505805969E-08  0.10566000000E+00  0.10566000000E+00 0. -1.
     999900   -1    0    0    0    0 -0.00000000000E+00 -0.00000000000E+00 -0.74505805969E-08  0.93827000000E+00  0.93827000000E+00 0. -1.
     999902    2    1    2    0    0 -0.12388404210E-01 -0.17769830643E-01  0.10113381591E-01  0.10200235170E+01  0.10197433282E+01 0.  0.
     999903    2    3    3    0    0  0.10841077329E+00 -0.16390607733E-01  0.66663760562E-01  0.12997167086E+00  0.20664715480E-01 0.  0.
         14    1    1    2    0    0  0.12388404210E-01  0.17769830643E-01 -0.10113381591E-01  0.23906482952E-01  0.00000000000E+00 0. -1.
     999901    1    3    3    0    0 -0.12079917750E+00 -0.13792229096E-02 -0.56550378972E-01  0.89005184619E+00  0.88000000000E+00 0. -1.
        -11    1    4    4    0    0  0.46271050487E-01  0.19710224148E-02  0.22022440916E-01  0.51284930218E-01  0.51100000000E-03 0.  1.
         11    1    4    4    0    0  0.62139722806E-01 -0.18361630148E-01  0.44641319646E-01  0.78686740642E-01  0.51100000000E-03 0. -1.
</event>
<event>
 8    1  0.1114333E+005  0.1043930E+01  0.7957747E-01            NaN
         13   -1    0    0    0    0  0.00000000000E+00  0.00000000000E+00  0.74505805969E-08  0.10566000000E+00  0.10566000000E+00 0.  1.
     999900   -1    0    0    0    0 -0.00000000000E+00 -0.00000000000E+00 -0.74505805969E-08  0.93827000000E+00  0.93827000000E+00 0.  1.
     999902    2    1    2    0    0 -0.17001478692E-01 -0.17041966420E-01  0.39937702158E-02  0.10195285841E+01  0.10192365303E+01 0.  0.
     999903    2    3    3    0    0 -0.33684971541E-01 -0.55945753437E-01  0.11285104097E+00  0.13181142815E+00  0.19346589026E-01 0.  0.
         14    1    1    2    0    0  0.17001478692E-01  0.17041966420E-01 -0.39937702158E-02  0.24401415895E-01  0.00000000000E+00 0. -1.
     999901    1    3    3    0    0  0.16683492849E-01  0.38903787017E-01 -0.10885727076E+00  0.88771715595E+00  0.88000000000E+00 0.  1.
        -11    1    4    4    0    0 -0.25691142007E-02 -0.13181228665E-01  0.12391045725E-01  0.18279613564E-01  0.51100000000E-03 0.  1.
         11    1    4    4    0    0 -0.31115857340E-01 -0.42764524773E-01  0.10045999525E+00  0.11353181459E+00  0.51100000000E-03 0. -1.
</event>
<event>
 8    1  0.1114333E+005  0.1043930E+01  0.7957747E-01            NaN
         13   -1    0    0    0    0  0.00000000000E+00  0.00000000000E+00  0.74505805969E-08  0.10566000000E+00  0.10566000000E+00 0. -1.
     999900   -1    0    0    0    0 -0.00000000000E+00 -0.00000000000E+00 -0.74505805969E-08  0.93827000000E+00  0.93827000000E+00 0. -1.
     999902    2    1    2    0    0 -0.18801848130E-01 -0.18857018956E-01 -0.21711187101E-02  0.10172127694E+01  0.10168618430E+01 0.  0.
     999903    2    3    3    0    0 -0.72059752054E-01 -0.68379035635E-03 -0.10553562814E+00  0.12937782277E+00  0.20193483640E-01 0.  0.
         14    1    1    2    0    0  0.18801848130E-01  0.18857018956E-01  0.21711187101E-02  0.26717230648E-01  0.00000000000E+00 0.  1.
     999901    1    3    3    0    0  0.53257903923E-01 -0.18173228600E-01  0.10336450943E+00  0.88783494659E+00  0.88000000000E+00 0.  1.
        -11    1    4    4    0    0 -0.81869080685E-02  0.37789002679E-02 -0.54065786059E-02  0.10526051690E-01  0.51100000000E-03 0. -1.
         11    1    4    4    0    0 -0.63872843985E-01 -0.44626906242E-02 -0.10012904954E+00  0.11885177108E+00  0.51100000000E-03 0.  1.
</event>
<event>
 8    1  0.1114333E+005  0.1043930E+01  0.7957747E-01            NaN
         13   -1    0    0    0    0  0.00000000000E+00  0.00000000000E+00  0.74505805969E-08  0.10566000000E+00  0.10566000000E+00 0. -1.
     999900   -1    0    0    0    0 -0.00000000000E+00 -0.00000000000E+00 -0.74505805969E-08  0.93827000000E+00  0.93827000000E+00 0. -1.
     999902    2    1    2    0    0 -0.98869676781E-02  0.67804879013E-02  0.20337637904E-01  0.10203218094E+01  0.10200486499E+01 0.  0.
     999903    2    3    3    0    0  0.83165086619E-01  0.26643021450E-01  0.96914029455E-01  0.13188658457E+00  0.19376786620E-01 0.  0.
         14    1    1    2    0    0  0.98869676781E-02 -0.67804879013E-02 -0.20337637904E-01  0.23608190561E-01  0.00000000000E+00 0.  1.
     999901    1    3    3    0    0 -0.93052054297E-01 -0.19862533548E-01 -0.76576391551E-01  0.88843522487E+00  0.88000000000E+00 0. -1.
        -11    1    4    4    0    0  0.27436757316E-01  0.33013976347E-02  0.20194257342E-01  0.34230746836E-01  0.51100000000E-03 0. -1.
         11    1    4    4    0    0  0.55728329303E-01  0.23341623815E-01  0.76719772113E-01  0.97655837733E-01  0.51100000000E-03 0.  1.
</event>
<event>
 8    1  0.1114333E+005  0.1043930E+01  0.7957747E-01            NaN
         13   -1    0    0    0    0  0.00000000000E+00  0.00000000000E+00  0.74505805969E-08  0.10566000000E+00  0.10566000000E+00 0. -1.
     999900   -1    0    0    0    0 -0.00000000000E+00 -0.00000000000E+00 -0.74505805969E-08  0.93827000000E+00  0.93827000000E+00 0. -1.
     999902    2    1    2    0    0  0.18369762304E-01  0.15758034203E-01  0.22707110111E-02  0.10196211552E+01  0.10193313397E+01 0.  0.
     999903    2    3    3    0    0 -0.10854707473E+00 -0.58449028756E-01  0.24093151572E-01  0.12715782783E+00  0.19745298928E-01 0.  0.
         14    1    1    2    0    0 -0.18369762304E-01 -0.15758034203E-01 -0.22707110111E-02  0.24308844842E-01  0.00000000000E+00 0.  1.
     999901    1    3    3    0    0  0.12691683704E+00  0.74207062959E-01 -0.21822440561E-01  0.89246332733E+00  0.88000000000E+00 0.  1.
        -11    1    4    4    0    0 -0.31644657039E-01 -0.85399167399E-02  0.10832066117E-01  0.34524039080E-01  0.51100000000E-03 0.  1.
         11    1    4    4    0    0 -0.76902417693E-01 -0.49909112016E-01  0.13261085455E-01  0.92633788748E-01  0.51100000000E-03 0. -1.
</event>
<event>
 8    1  0.1114333E+005  0.1043930E+01  0.7957747E-01            NaN
         13   -1    0    0    0    0  0.00000000000E+00  0.00000000000E+00  0.74505805969E-08  0.10566000000E+00  0.10566000000E+00 0. -1.
     999900   -1    0    0    0    0 -0.00000000000E+00 -0.00000000000E+00 -0.74505805969E-08  0.93827000000E+00  0.93827000000E+00 0.  1.
     999902    2    1    2    0    0 -0.33016507086E-02  0.17640282576E-01  0.15194011447E-01  0.10204153567E+01  0.10201443828E+01 0.  0.
     999903    2    3    3    0    0  0.39048579937E-01  0.67237056755E-01  0.10639427329E+00  0.13330157040E+00  0.20098604060E-01 0.  0.
         14    1    1    2    0    0  0.33016507086E-02 -0.17640282576E-01 -0.15194011447E-01  0.23514643323E-01  0.00000000000E+00 0.  1.
     999901    1    3    3    0    0 -0.42350230646E-01 -0.49596774179E-01 -0.91200261845E-01  0.88711378628E+00  0.88000000000E+00 0.  1.
        -11    1    4    4    0    0  0.19056239578E-01  0.39429744985E-01  0.74933853003E-01  0.86793942780E-01  0.51100000000E-03 0.  1.
         11    1    4    4    0    0  0.19992340359E-01  0.27807311770E-01  0.31460420289E-01  0.46507627618E-01  0.51100000000E-03 0. -1.
</event>
<event>
 8    1  0.1114333E+005  0.1043930E+01  0.7957747E-01            NaN
         13   -1    0    0    0    0  0.00000000000E+00  0.00000000000E+00  0.74505805969E-08  0.10566000000E+00  0.10566000000E+00 0.  1.
     999900   -1    0    0    0    0 -0.00000000000E+00 -0.00000000000E+00 -0.74505805969E-08  0.93827000000E+00  0.93827000000E+00 0. -1.
     999902    2    1    2    0    0 -0.17425218056E-01 -0.16070249941E-01  0.14076885732E-02  0.10201839952E+01  0.10199075994E+01 0.  0.
     999903    2    3    3    0    0 -0.54187911378E-01 -0.95703567555E-01 -0.71763968472E-01  0.13280186088E+00  0.19767764158E-01 0.  0.
         14    1    1    2    0    0  0.17425218056E-01  0.16070249941E-01 -0.14076885732E-02  0.23746004813E-01  0.00000000000E+00 0. -1.
     999901    1    3    3    0    0  0.36762693322E-01  0.79633317614E-01  0.73171657045E-01  0.88738213431E+00  0.88000000000E+00 0. -1.
        -11    1    4    4    0    0 -0.41628494748E-01 -0.56490252815E-01 -0.39809756591E-01  0.80679353486E-01  0.51100000000E-03 0. -1.
         11    1    4    4    0    0 -0.12559416629E-01 -0.39213314740E-01 -0.31954211880E-01  0.52122507392E-01  0.51100000000E-03 0.  1.
</event>
<event>
 8    1  0.1114333E+005  0.1043930E+01  0.7957747E-01            NaN
         13   -1    0    0    0    0  0.00000000000E+00  0.00000000000E+00  0.74505805969E-08  0.10566000000E+00  0.10566000000E+00 0. -1.
     999900   -1    0    0    0    0 -0.00000000000E+00 -0.00000000000E+00 -0.74505805969E-08  0.93827000000E+00  0.93827000000E+00 0.  1.
     999902    2    1    2    0    0 -0.13280158923E-01 -0.20082817089E-01 -0.72520446283E-03  0.10198424911E+01  0.10195579918E+01 0.  0.
     999903    2    3    3    0    0 -0.20248958901E-01  0.80211820472E-01  0.96666085463E-01  0.12877984356E+00  0.19898732338E-01 0.  0.
         14    1    1    2    0    0  0.13280158923E-01  0.20082817089E-01  0.72520446283E-03  0.24087508895E-01  0.00000000000E+00 0. -1.
     999901    1    3    3    0    0  0.69687999775E-02 -0.10029463756E+00 -0.97391289926E-01  0.89106264755E+00  0.88000000000E+00 0. -1.
        -11    1    4    4    0    0 -0.23191828819E-02  0.37533586410E-01  0.32816483879E-01  0.49913239258E-01  0.51100000000E-03 0.  1.
         11    1    4    4    0    0 -0.17929776019E-01  0.42678234061E-01  0.63849601584E-01  0.78866604302E-01  0.51100000000E-03 0. -1.
</event>
<event>
 8    1  0.1114333E+005  0.1043930E+01  0.7957747E-01            NaN
         13   -1    0    0    0    0  0.00000000000E+00  0.00000000000E+00  0.74505805969E-08  0.10566000000E+00  0.10566000000E+00 0. -1.
     999900   -1    0    0    0    0 -0.00000000000E+00 -0.00000000000E+00 -0.74505805969E-08  0.93827000000E+00  0.93827000000E+00 0.  1.
     999902    2    1    2    0    0 -0.14478204000E-01  0.21240714728E-01  0.24317166398E-02  0.10181094733E+01  0.10177820002E+01 0.  0.
     999903    2    3    3    0    0  0.30805345573E-01  0.11111469790E+00  0.58268328199E-01  0.13061543957E+00  0.19228873570E-01 0.  0.
         14    1    1    2    0    0  0.14478204000E-01 -0.21240714728E-01 -0.24317166398E-02  0.25820526700E-01  0.00000000000E+00 0.  1.
     999901    1    3    3    0    0 -0.45283549574E-01 -0.89873983170E-01 -0.55836611559E-01  0.88749403373E+00  0.88000000000E+00 0. -1.
        -11    1    4    4    0    0  0.13873464496E-01  0.46263272915E-01  0.35058054286E-01  0.59683261718E-01  0.51100000000E-03 0.  1.
         11    1    4    4    0    0  0.16931881077E-01  0.64851424982E-01  0.23210273913E-01  0.70932177854E-01  0.51100000000E-03 0. -1.
</event>
<event>
 8    1  0.1114333E+005  0.1043930E+01  0.7957747E-01            NaN
         13   -1    0    0    0    0  0.00000000000E+00  0.00000000000E+00  0.74505805969E-08  0.10566000000E+00  0.10566000000E+00 0. -1.
     999900   -1    0    0    0    0 -0.00000000000E+00 -0.00000000000E+00 -0.74505805969E-08  0.93827000000E+00  0.93827000000E+00 0.  1.
     999902    2    1    2    0    0 -0.86021060964E-02  0.14686781439E-01  0.16484816988E-01  0.10202351278E+01  0.10199599350E+01 0.  0.
     999903    2    3    3    0    0 -0.11715550142E+00  0.17167393690E-01  0.56394967889E-01  0.13266382742E+00  0.19979183804E-01 0.  0.
         14    1    1    2    0    0  0.86021060964E-02 -0.14686781439E-01 -0.16484816988E-01  0.23694872219E-01  0.00000000000E+00 0. -1.
     999901    1    3    3    0    0  0.10855339532E+00 -0.24806122508E-02 -0.39910150901E-01  0.88757130036E+00  0.88000000000E+00 0.  1.
        -11    1    4    4    0    0 -0.17700019553E-01  0.83860520613E-03  0.16655394791E-01  0.24324005581E-01  0.51100000000E-03 0.  1.
         11    1    4    4    0    0 -0.99455481863E-01  0.16328788484E-01  0.39739573098E-01  0.10833982184E+00  0.51100000000E-03 0. -1.
</event>
<event>
 7    1  0.1114333E+005  0.1043930E+01  0.7957747E-01            NaN
         13   -1    0    0    0    0  0.00000000000E+00  0.00000000000E+00  0.74505805969E-08  0.10566000000E+00  0.10566000000E+00 0. -1.
     999900   -1    0    0    0    0 -0.00000000000E+00 -0.00000000000E+00 -0.74505805969E-08  0.93827000000E+00  0.93827000000E+00 0.  1.
     999903    2    1    2    0    0 -0.76072606486E-01 -0.13179222304E-01  0.30688166754E-01  0.85474448853E-01  0.20084433524E-01 0.  0.
         14    1    1    2    0    0  0.45624499403E-01 -0.55318212295E-01  0.17991047689E-01  0.73928190524E-01  0.00000000000E+00 0. -1.
     999901    1    1    2    0    0  0.30448107082E-01  0.68497434598E-01 -0.48679214443E-01  0.88452736062E+00  0.88000000000E+00 0.  1.
        -11    1    3    3    0    0 -0.26920769139E-01 -0.83303594274E-02  0.17738043229E-02  0.28240577225E-01  0.51100000000E-03 0.  1.
         11    1    3    3    0    0 -0.49151837347E-01 -0.48488628761E-02  0.28914362431E-01  0.57233871628E-01  0.51100000000E-03 0. -1.
</event>
<event>
 8    1  0.1114333E+005  0.1043930E+01  0.7957747E-01            NaN
         13   -1    0    0    0    0  0.00000000000E+00  0.00000000000E+00  0.74505805969E-08  0.10566000000E+00  0.10566000000E+00 0.  1.
     999900   -1    0    0    0    0 -0.00000000000E+00 -0.00000000000E+00 -0.74505805969E-08  0.93827000000E+00  0.93827000000E+00 0. -1.
     999902    2    1    2    0    0 -0.11965459993E-01  0.16844434377E-01  0.10094349004E-01  0.10209342812E+01  0.10206752683E+01 0.  0.
     999903    2    3    3    0    0  0.12716713017E-01  0.84510249610E-01 -0.97858239227E-01  0.13141664025E+00  0.19758574618E-01 0.  0.
         14    1    1    2    0    0  0.11965459993E-01 -0.16844434377E-01 -0.10094349004E-01  0.22995718822E-01  0.00000000000E+00 0.  1.
     999901    1    3    3    0    0 -0.24682173010E-01 -0.67665815232E-01  0.10795258823E+00  0.88951764093E+00  0.88000000000E+00 0.  1.
        -11    1    4    4    0    0  0.17781221567E-01  0.60477835049E-01 -0.67396880464E-01  0.92284023481E-01  0.51100000000E-03 0. -1.
         11    1    4    4    0    0 -0.50645085500E-02  0.24032414561E-01 -0.30461358764E-01  0.39132616769E-01  0.51100000000E-03 0.  1.
</event>
<event>
 8    1  0.1114333E+005  0.1043930E+01  0.7957747E-01            NaN
         13   -1    0    0    0    0  0.00000000000E+00  0.00000000000E+00  0.74505805969E-08  0.10566000000E+00  0.10566000000E+00 0. -1.
     999900   -1    0    0    0    0 -0.00000000000E+00 -0.00000000000E+00 -0.74505805969E-08  0.93827000000E+00  0.93827000000E+00 0.  1.
     999902    2    1    2    0    0 -0.10790687828E-01  0.21424809254E-01  0.11446821354E-02  0.10199139285E+01  0.10196311342E+01 0.  0.
     999903    2    3    3    0    0 -0.10554318465E+00 -0.19608845225E-01  0.72301365222E-01  0.13102413213E+00  0.20395223740E-01 0.  0.
         14    1    1    2    0    0  0.10790687828E-01 -0.21424809254E-01 -0.11446821354E-02  0.24016071548E-01  0.00000000000E+00 0. -1.
     999901    1    3    3    0    0  0.94752496820E-01  0.41033654479E-01 -0.71156683087E-01  0.88888979632E+00  0.88000000000E+00 0.  1.
        -11    1    4    4    0    0 -0.42754393640E-01 -0.11557990580E-01  0.18712303440E-01  0.48082603328E-01  0.51100000000E-03 0. -1.
         11    1    4    4    0    0 -0.62788791008E-01 -0.80508546451E-02  0.53589061782E-01  0.82941528804E-01  0.51100000000E-03 0.  1.
</event>
<event>
 8    1  0.1114333E+005  0.1043930E+01  0.7957747E-01            NaN
         13   -1    0    0    0    0  0.00000000000E+00  0.00000000000E+00  0.74505805969E-08  0.10566000000E+00  0.10566000000E+00 0.  1.
     999900   -1    0    0    0    0 -0.00000000000E+00 -0.00000000000E+00 -0.74505805969E-08  0.93827000000E+00  0.93827000000E+00 0.  1.
     999902    2    1    2    0    0  0.13202570940E-01 -0.18889224961E-01  0.38848217963E-02  0.10205590236E+01  0.10202913888E+01 0.  0.
     999903    2    3    3    0    0  0.86181465759E-01 -0.12048516422E-01  0.98257191164E-01  0.13248309298E+00  0.18024497842E-01 0.  0.
         14    1    1    2    0    0 -0.13202570940E-01  0.18889224961E-01 -0.38848217963E-02  0.23370976433E-01  0.00000000000E+00 0. -1.
     999901    1    3    3    0    0 -0.72978894819E-01 -0.68407085395E-02 -0.94372369368E-01  0.88807593058E+00  0.88000000000E+00 0.  1.
        -11    1    4    4    0    0  0.51215024704E-01 -0.12740597419E-01  0.69078061156E-01  0.86932969765E-01  0.51100000000E-03 0. -1.
         11    1    4    4    0    0  0.34966441055E-01  0.69208099679E-03  0.29179130008E-01  0.45550123218E-01  0.51100000000E-03 0.  1.
</event>
<event>
 8    1  0.1114333E+005  0.1043930E+01  0.7957747E-01            NaN
         13   -1    0    0    0    0  0.00000000000E+00  0.00000000000E+00  0.74505805969E-08  0.10566000000E+00  0.10566000000E+00 0. -1.
     999900   -1    0    0    0    0 -0.00000000000E+00 -0.00000000000E+00 -0.74505805969E-08  0.93827000000E+00  0.93827000000E+00 0. -1.
     999902    2    1    2    0    0 -0.14464242862E-01 -0.83422578297E-02 -0.15665049169E-01  0.10210345561E+01  0.10207778227E+01 0.  0.
     999903    2    3    3    0    0  0.35037469998E-01  0.23641859792E-01 -0.12219448721E+00  0.13265292382E+00  0.29643610702E-01 0.  0.
         14    1    1    2    0    0  0.14464242862E-01  0.83422578297E-02  0.15665049169E-01  0.22895443930E-01  0.00000000000E+00 0. -1.
     999901    1    3    3    0    0 -0.49501712860E-01 -0.31984117622E-01  0.10652943804E+00  0.88838163225E+00  0.88000000000E+00 0. -1.
        -11    1    4    4    0    0  0.14190421808E-02  0.16413000735E-01 -0.29621356492E-01  0.33898173332E-01  0.51100000000E-03 0.  1.
         11    1    4    4    0    0  0.33618427817E-01  0.72288590572E-02 -0.92573130714E-01  0.98754750485E-01  0.51100000000E-03 0. -1.
</event>
<event>
 8    1  0.1114333E+005  0.1043930E+01  0.7957747E-01            NaN
         13   -1    0    0    0    0  0.00000000000E+00  0.00000000000E+00  0.74505805969E-08  0.10566000000E+00  0.10566000000E+00 0.  1.
     999900   -1    0    0    0    0 -0.00000000000E+00 -0.00000000000E+00 -0.74505805969E-08  0.93827000000E+00  0.93827000000E+00 0.  1.
     999902    2    1    2    0    0 -0.20736114949E-01 -0.92455141974E-02  0.96193261931E-02  0.10192723961E+01  0.10189741017E+01 0.  0.
     999903    2    3    3    0    0  0.62946764909E-01 -0.79265398945E-01  0.78785159830E-01  0.12984026195E+00  0.20151762466E-01 0.  0.
         14    1    1    2    0    0  0.20736114949E-01  0.92455141974E-02 -0.96193261931E-02  0.24657603946E-01  0.00000000000E+00 0. -1.
     999901    1    3    3    0    0 -0.83682879858E-01  0.70019884748E-01 -0.69165833637E-01  0.88943213411E+00  0.88000000000E+00 0. -1.
        -11    1    4    4    0    0  0.26197000707E-01 -0.33206323570E-01  0.20675193602E-01  0.47081498729E-01  0.51100000000E-03 0.  1.
         11    1    4    4    0    0  0.36749764202E-01 -0.46059075375E-01  0.58109966227E-01  0.82758763217E-01  0.51100000000E-03 0. -1.
</event>
<event>
 8    1  0.1114333E+005  0.1043930E+01  0.7957747E-01            NaN
         13   -1    0    0    0    0  0.00000000000E+00  0.00000000000E+00  0.74505805969E-08  0.10566000000E+00  0.10566000000E+00 0. -1.
     999900   -1    0    0    0    0 -0.00000000000E+00 -0.00000000000E+00 -0.74505805969E-08  0.93827000000E+00  0.93827000000E+00 0. -1.
     999902    2    1    2    0    0  0.21350132173E-01  0.52504475220E-02  0.93383869311E-02  0.10200427479E+01  0.10197630150E+01 0.  0.
     999903    2    3    3    0    0 -0.11023173857E+00  0.32549127498E-01  0.54409033591E-01  0.12870085511E+00  0.19826378369E-01 0.  0.
         14    1    1    2    0    0 -0.21350132173E-01 -0.52504475220E-02 -0.93383869311E-02  0.23887252112E-01  0.00000000000E+00 0.  1.
     999901    1    3    3    0    0  0.13158187075E+00 -0.27298679976E-01 -0.45070646660E-01  0.89134189278E+00  0.88000000000E+00 0. -1.
        -11    1    4    4    0    0 -0.93035328952E-02 -0.93907498915E-03  0.26097124064E-03  0.93683943745E-02  0.51100000000E-03 0. -1.
         11    1    4    4    0    0 -0.10092820568E+00  0.33488202487E-01  0.54148062351E-01  0.11933246073E+00  0.51100000000E-03 0.  1.
</event>
<event>
 8    1  0.1114333E+005  0.1043930E+01  0.7957747E-01            NaN
         13   -1    0    0    0    0  0.00000000000E+00  0.00000000000E+00  0.74505805969E-08  0.10566000000E+00  0.10566000000E+00 0.  1.
     999900   -1    0    0    0    0 -0.00000000000E+00 -0.00000000000E+00 -0.74505805969E-08  0.93827000000E+00  0.93827000000E+00 0. -1.
     999902    2    1    2    0    0  0.31728328833E-03  0.59867097998E-03  0.24955127414E-01  0.10189656763E+01  0.10186598215E+01 0.  0.
     999903    2    3    3    0    0  0.68233548318E-01  0.10646625789E+00  0.23879613307E-01  0.13002151505E+00  0.18560098600E-01 0.  0.
         14    1    1    2    0    0 -0.31728328833E-03 -0.59867097998E-03 -0.24955127414E-01  0.24964323742E-01  0.00000000000E+00 0. -1.
     999901    1    3    3    0    0 -0.67916265029E-01 -0.10586758691E+00  0.10755141076E-02  0.88894416121E+00  0.88000000000E+00 0.  1.
        -11    1    4    4    0    0  0.21415534680E-01  0.46530439490E-01  0.15427735062E-01  0.53497505128E-01  0.51100000000E-03 0.  1.
         11    1    4    4    0    0  0.46818013638E-01  0.59935818397E-01  0.84518782451E-02  0.76524009924E-01  0.51100000000E-03 0. -1.
</event>
<event>
 7    1  0.1114333E+005  0.1043930E+01  0.7957747E-01            NaN
         13   -1    0    0    0    0  0.00000000000E+00  0.00000000000E+00  0.74505805969E-08  0.10566000000E+00  0.10566000000E+00 0. -1.
     999900   -1    0    0    0    0 -0.00000000000E+00 -0.00000000000E+00 -0.74505805969E-08  0.93827000000E+00  0.93827000000E+00 0. -1.
     999903    2    1    2    0    0 -0.15897612416E-01  0.44886721880E-01  0.10010960712E+00  0.11245298561E+00  0.18872960924E-01 0.  0.
         14    1    1    2    0    0 -0.40091731349E-01  0.33444577956E-03 -0.20299415867E-01  0.44939126172E-01  0.00000000000E+00 0.  1.
     999901    1    1    2    0    0  0.55989343765E-01 -0.45221167659E-01 -0.79810191249E-01  0.88653788822E+00  0.88000000000E+00 0.  1.
        -11    1    3    3    0    0  0.33451128617E-02  0.93630989705E-02  0.12538310647E-01  0.16010239139E-01  0.51100000000E-03 0.  1.
         11    1    3    3    0    0 -0.19242725278E-01  0.35523622909E-01  0.87571296468E-01  0.96442746471E-01  0.51100000000E-03 0. -1.
</event>
<event>
 7    1  0.1114333E+005  0.1043930E+01  0.7957747E-01            NaN
         13   -1    0    0    0    0  0.00000000000E+00  0.00000000000E+00  0.74505805969E-08  0.10566000000E+00  0.10566000000E+00 0.  1.
     999900   -1    0    0    0    0 -0.00000000000E+00 -0.00000000000E+00 -0.74505805969E-08  0.93827000000E+00  0.93827000000E+00 0. -1.
     999903    2    1    2    0    0 -0.87828608228E-02  0.60747641517E-01 -0.93844068582E-02  0.65298725846E-01  0.20209945841E-01 0.  0.
         14    1    1    2    0    0 -0.53588806866E-01 -0.66420750923E-01 -0.41582220162E-01  0.94934490087E-01  0.00000000000E+00 0.  1.
     999901    1    1    2    0    0  0.62371667688E-01  0.56731094052E-02  0.50966627020E-01  0.88369678407E+00  0.88000000000E+00 0. -1.
        -11    1    3    3    0    0 -0.13491186270E-01  0.37982058357E-01 -0.11584878851E-01  0.41941857410E-01  0.51100000000E-03 0.  1.
         11    1    3    3    0    0  0.47083254471E-02  0.22765583161E-01  0.22004719932E-02  0.23356868436E-01  0.51100000000E-03 0. -1.
</event>
<event>
 8    1  0.1114333E+005  0.1043930E+01  0.7957747E-01            NaN
         13   -1    0    0    0    0  0.00000000000E+00  0.00000000000E+00  0.74505805969E-08  0.10566000000E+00  0.10566000000E+00 0. -1.
     999900   -1    0    0    0    0 -0.00000000000E+00 -0.00000000000E+00 -0.74505805969E-08  0.93827000000E+00  0.93827000000E+00 0.  1.
     999902    2    1    2    0    0  0.22863277151E-01  0.17335813627E-02 -0.40830894914E-03  0.10209974584E+01  0.10207398830E+01 0.  0.
     999903    2    3    3    0    0  0.77002458493E-01  0.61673348364E-01 -0.87074581992E-01  0.13305890791E+00  0.19741064633E-01 0.  0.
         14    1    1    2    0    0 -0.22863277151E-01 -0.17335813627E-02  0.40830894914E-03  0.22932541565E-01  0.00000000000E+00 0. -1.
     999901    1    3    3    0    0 -0.54139181342E-01 -0.59939767001E-01  0.86666273043E-01  0.88793855052E+00  0.88000000000E+00 0.  1.
        -11    1    4    4    0    0  0.19300674919E-01  0.18993260550E-01 -0.13451480055E-01  0.30240096483E-01  0.51100000000E-03 0. -1.
         11    1    4    4    0    0  0.57701783574E-01  0.42680087814E-01 -0.73623101938E-01  0.10281881143E+00  0.51100000000E-03 0.  1.
</event>
<event>
 8    1  0.1114333E+005  0.1043930E+01  0.7957747E-01            NaN
         13   -1    0    0    0    0  0.00000000000E+00  0.00000000000E+00  0.74505805969E-08  0.10566000000E+00  0.10566000000E+00 0. -1.
     999900   -1    0    0    0    0 -0.00000000000E+00 -0.00000000000E+00 -0.74505805969E-08  0.93827000000E+00  0.93827000000E+00 0. -1.
     999902    2    1    2    0    0  0.10747641499E-01 -0.20150685201E-01 -0.41645836997E-02  0.10207156581E+01  0.10204516397E+01 0.  0.
     999903    2    3    3    0    0 -0.75984747835E-03 -0.87058354455E-01 -0.98640053552E-01  0.13305881399E+00  0.19875949490E-01 0.  0.
         14    1    1    2    0    0 -0.10747641499E-01  0.20150685201E-01  0.41645836997E-02  0.23214341887E-01  0.00000000000E+00 0. -1.
     999901    1    3    3    0    0  0.11507488977E-01  0.66907669254E-01  0.94475469852E-01  0.88765684412E+00  0.88000000000E+00 0.  1.
        -11    1    4    4    0    0  0.12802461471E-02 -0.81462970795E-01 -0.97346761337E-01  0.12694293090E+00  0.51100000000E-03 0.  1.
         11    1    4    4    0    0 -0.20400936255E-02 -0.55953836597E-02 -0.12932922153E-02  0.61158830968E-02  0.51100000000E-03 0. -1.
</event>
<event>
 8    1  0.1114333E+005  0.1043930E+01  0.7957747E-01            NaN
         13   -1    0    0    0    0  0.00000000000E+00  0.00000000000E+00  0.74505805969E-08  0.10566000000E+00  0.10566000000E+00 0.  1.
     999900   -1    0    0    0    0 -0.00000000000E+00 -0.00000000000E+00 -0.74505805969E-08  0.93827000000E+00  0.93827000000E+00 0.  1.
     999902    2    1    2    0    0  0.22616058566E-01  0.39845977404E-02  0.35107071300E-02  0.10206988100E+01  0.10204344038E+01 0.  0.
     999903    2    3    3    0    0  0.11867585994E+00  0.28102727647E-01  0.51488620455E-01  0.13384422790E+00  0.19735153190E-01 0.  0.
         14    1    1    2    0    0 -0.22616058566E-01 -0.39845977404E-02 -0.35107071300E-02  0.23231189999E-01  0.00000000000E+00 0.  1.
     999901    1    3    3    0    0 -0.96059801374E-01 -0.24118129906E-01 -0.47977913326E-01  0.88685458210E+00  0.88000000000E+00 0.  1.
        -11    1    4    4    0    0  0.68140333321E-01  0.21276670926E-01  0.38979196424E-01  0.81335359012E-01  0.51100000000E-03 0. -1.
         11    1    4    4    0    0  0.50535526620E-01  0.68260567204E-02  0.12509424031E-01  0.52508868886E-01  0.51100000000E-03 0.  1.
</event>
<event>
 8    1  0.1114333E+005  0.1043930E+01  0.7957747E-01            NaN
         13   -1    0    0    0    0  0.00000000000E+00  0.00000000000E+00  0.74505805969E-08  0.10566000000E+00  0.10566000000E+00 0.  1.
     999900   -1    0    0    0    0 -0.00000000000E+00 -0.00000000000E+00 -0.74505805969E-08  0.93827000000E+00  0.93827000000E+00 0. -1.
     999902    2    1    2    0    0  0.12235632171E-01  0.73219308205E-02  0.77988053417E-02  0.10276775316E+01  0.10275490091E+01 0.  0.
     999903    2    3    3    0    0  0.81693903525E-02 -0.11799603939E+00 -0.63680810828E-01  0.13592057840E+00  0.20720852210E-01 0.  0.
         14    1    1    2    0    0 -0.12235632171E-01 -0.73219308205E-02 -0.77988053417E-02  0.16252468438E-01  0.00000000000E+00 0. -1.
     999901    1    3    3    0    0  0.40662418184E-02  0.12531797021E+00  0.71479616169E-01  0.89175695316E+00  0.88000000000E+00 0. -1.
        -11    1    4    4    0    0  0.52878630963E-02 -0.33365803836E-01 -0.28581286982E-01  0.44253694177E-01  0.51100000000E-03 0.  1.
         11    1    4    4    0    0  0.28815272562E-02 -0.84630235551E-01 -0.35099523846E-01  0.91666884227E-01  0.51100000000E-03 0. -1.
</event>
<event>
 8    1  0.1114333E+005  0.1043930E+01  0.7957747E-01            NaN
         13   -1    0    0    0    0  0.00000000000E+00  0.00000000000E+00  0.74505805969E-08  0.10566000000E+00  0.10566000000E+00 0. -1.
     999900   -1    0    0    0    0 -0.00000000000E+00 -0.00000000000E+00 -0.74505805969E-08  0.93827000000E+00  0.93827000000E+00 0.  1.
     999902    2    1    2    0    0 -0.80821656784E-02 -0.15247157517E-02  0.22608705685E-01  0.10198717429E+01  0.10195879424E+01 0.  0.
     999903    2    3    3    0    0  0.77126019968E-01  0.92449676715E-01  0.47704770770E-01  0.13042166911E+00  0.15449949495E-01 0.  0.
         14    1    1    2    0    0  0.80821656784E-02  0.15247157517E-02 -0.22608705685E-01  0.24058257063E-01  0.00000000000E+00 0.  1.
     999901    1    3    3    0    0 -0.85208185646E-01 -0.93974392467E-01 -0.25096065086E-01  0.88945007382E+00  0.88000000000E+00 0. -1.
        -11    1    4    4    0    0  0.45451186413E-01  0.46481318017E-01  0.31803201606E-01  0.72374222098E-01  0.51100000000E-03 0.  1.
         11    1    4    4    0    0  0.31674833554E-01  0.45968358699E-01  0.15901569165E-01  0.58047447016E-01  0.51100000000E-03 0. -1.
</event>
<event>
 8    1  0.1114333E+005  0.1043930E+01  0.7957747E-01            NaN
         13   -1    0    0    0    0  0.00000000000E+00  0.00000000000E+00  0.74505805969E-08  0.10566000000E+00  0.10566000000E+00 0. -1.
     999900   -1    0    0    0    0 -0.00000000000E+00 -0.00000000000E+00 -0.74505805969E-08  0.93827000000E+00  0.93827000000E+00 0. -1.
     999902    2    1    2    0    0 -0.12946263517E-01  0.44383139218E-02  0.19231603835E-01  0.10203257852E+01  0.10200527187E+01 0.  0.
     999903    2    3    3    0    0  0.30052747328E-01  0.57903022103E-01  0.11345997713E+00  0.13263981806E+00  0.21545935431E-01 0.  0.
         14    1    1    2    0    0  0.12946263517E-01 -0.44383139218E-02 -0.19231603835E-01  0.23604214784E-01  0.00000000000E+00 0.  1.
     999901    1    3    3    0    0 -0.42999010845E-01 -0.53464708181E-01 -0.94228373296E-01  0.88768596716E+00  0.88000000000E+00 0. -1.
        -11    1    4    4    0    0 -0.25759577945E-02  0.12584393752E-01  0.21703079378E-01  0.25224735879E-01  0.51100000000E-03 0. -1.
         11    1    4    4    0    0  0.32628705122E-01  0.45318628351E-01  0.91756897752E-01  0.10741508218E+00  0.51100000000E-03 0.  1.
</event>
<event>
 8    1  0.1114333E+005  0.1043930E+01  0.7957747E-01            NaN
         13   -1    0    0    0    0  0.00000000000E+00  0.00000000000E+00  0.74505805969E-08  0.10566000000E+00  0.10566000000E+00 0. -1.
     999900   -1    0    0    0    0 -0.00000000000E+00 -0.00000000000E+00 -0.74505805969E-08  0.93827000000E+00  0.93827000000E+00 0. -1.
     999902    2    1    2    0    0 -0.22335032223E-01 -0.16256505032E-01  0.80911074375E-02  0.10151446975E+01  0.10147364994E+01 0.  0.
     999903    2    3    3    0    0  0.11717805972E+00 -0.26406565680E-01  0.22415106745E-01  0.12398135473E+00  0.20998450383E-01 0.  0.
         14    1    1    2    0    0  0.22335032223E-01  0.16256505032E-01 -0.80911074375E-02  0.28785302497E-01  0.00000000000E+00 0.  1.
     999901    1    3    3    0    0 -0.13951309194E+00  0.10150060648E-01 -0.14323999308E-01  0.89116334278E+00  0.88000000000E+00 0.  1.
        -11    1    4    4    0    0  0.30296726771E-01 -0.21547657889E-02 -0.22651250847E-02  0.30461887356E-01  0.51100000000E-03 0.  1.
         11    1    4    4    0    0  0.86881332949E-01 -0.24251799891E-01  0.24680231830E-01  0.93519467369E-01  0.51100000000E-03 0. -1.
</event>
<event>
 8    1  0.1114333E+005  0.1043930E+01  0.7957747E-01            NaN
         13   -1    0    0    0    0  0.00000000000E+00  0.00000000000E+00  0.74505805969E-08  0.10566000000E+00  0.10566000000E+00 0.  1.
     999900   -1    0    0    0    0 -0.00000000000E+00 -0.00000000000E+00 -0.74505805969E-08  0.93827000000E+00  0.93827000000E+00 0.  1.
     999902    2    1    2    0    0 -0.22076926306E-01 -0.80789741506E-03 -0.21885695151E-02  0.10217301529E+01  0.10214889486E+01 0.  0.
     999903    2    3    3    0    0  0.22687798755E-01  0.11217394155E+00  0.60259429186E-01  0.13118620169E+00  0.21929234690E-01 0.  0.
         14    1    1    2    0    0  0.22076926306E-01  0.80789741506E-03  0.21885695151E-02  0.22199847069E-01  0.00000000000E+00 0.  1.
     999901    1    3    3    0    0 -0.44764725061E-01 -0.11298183896E+00 -0.62447998701E-01  0.89054395124E+00  0.88000000000E+00 0.  1.
        -11    1    4    4    0    0  0.21250968358E-01  0.71566806112E-01  0.47940966176E-01  0.88724341373E-01  0.51100000000E-03 0.  1.
         11    1    4    4    0    0  0.14368303970E-02  0.40607135436E-01  0.12318463011E-01  0.42461860320E-01  0.51100000000E-03 0. -1.
</event>
<event>
 8    1  0.1114333E+005  0.1043930E+01  0.7957747E-01            NaN
         13   -1    0    0    0    0  0.00000000000E+00  0.00000000000E+00  0.74505805969E-08  0.10566000000E+00  0.10566000000E+00 0. -1.
     999900   -1    0    0    0    0 -0.00000000000E+00 -0.00000000000E+00 -0.74505805969E-08  0.93827000000E+00  0.93827000000E+00 0.  1.
     999902    2    1    2    0    0 -0.69632113703E-02 -0.17933477588E-01 -0.13741019950E-01  0.10202886895E+01  0.10200147540E+01 0.  0.
     999903    2    3    3    0    0  0.88832932999E-03 -0.37592972218E-01  0.12231922614E+00  0.12958080646E+00  0.20375760831E-01 0.  0.
         14    1    1    2    0    0  0.69632113703E-02  0.17933477588E-01  0.13741019950E-01  0.23641310460E-01  0.00000000000E+00 0. -1.
     999901    1    3    3    0    0 -0.78515407003E-02  0.19659494630E-01 -0.13606024609E+00  0.89070788308E+00  0.88000000000E+00 0.  1.
        -11    1    4    4    0    0 -0.60207863089E-02 -0.63912002155E-02  0.46098492525E-01  0.46930048392E-01  0.51100000000E-03 0.  1.
         11    1    4    4    0    0  0.69091156389E-02 -0.31201772002E-01  0.76220733615E-01  0.82650758066E-01  0.51100000000E-03 0. -1.
</event>
<event>
 8    1  0.1114333E+005  0.1043930E+01  0.7957747E-01            NaN
         13   -1    0    0    0    0  0.00000000000E+00  0.00000000000E+00  0.74505805969E-08  0.10566000000E+00  0.10566000000E+00 0.  1.
     999900   -1    0    0    0    0 -0.00000000000E+00 -0.00000000000E+00 -0.74505805969E-08  0.93827000000E+00  0.93827000000E+00 0.  1.
     999902    2    1    2    0    0 -0.12484499642E-01  0.11942969157E-01  0.15583586347E-01  0.10206631694E+01  0.10203979419E+01 0.  0.
     999903    2    3    3    0    0 -0.13913852596E-01 -0.12242949117E+00  0.37013806672E-01  0.13020415545E+00  0.20013110991E-01 0.  0.
         14    1    1    2    0    0  0.12484499642E-01 -0.11942969157E-01 -0.15583586347E-01  0.23266830619E-01  0.00000000000E+00 0. -1.
     999901    1    3    3    0    0  0.14293529537E-02  0.13437246032E+00 -0.21430220325E-01  0.89045901393E+00  0.88000000000E+00 0.  1.
        -11    1    4    4    0    0 -0.15599167788E-02 -0.42235198524E-01  0.34937978297E-02  0.42411237650E-01  0.51100000000E-03 0.  1.
         11    1    4    4    0    0 -0.12353935817E-01 -0.80194292642E-01  0.33520008843E-01  0.87792917802E-01  0.51100000000E-03 0. -1.
</event>
<event>
 8    1  0.1114333E+005  0.1043930E+01  0.7957747E-01            NaN
         13   -1    0    0    0    0  0.00000000000E+00  0.00000000000E+00  0.74505805969E-08  0.10566000000E+00  0.10566000000E+00 0. -1.
     999900   -1    0    0    0    0 -0.00000000000E+00 -0.00000000000E+00 -0.74505805969E-08  0.93827000000E+00  0.93827000000E+00 0.  1.
     999902    2    1    2    0    0  0.13138053869E-01  0.19322752665E-01  0.41549557514E-02  0.10201973034E+01  0.10199212210E+01 0.  0.
     999903    2    3    3    0    0 -0.11370244848E+00 -0.50146603599E-01 -0.23371674603E-01  0.12796850995E+00  0.19666614440E-01 0.  0.
         14    1    1    2    0    0 -0.13138053869E-01 -0.19322752665E-01 -0.41549557514E-02  0.23732696588E-01  0.00000000000E+00 0.  1.
     999901    1    3    3    0    0  0.12684050235E+00  0.69469356264E-01  0.27526630355E-01  0.89222879346E+00  0.88000000000E+00 0. -1.
        -11    1    4    4    0    0 -0.68590341715E-02 -0.13845638914E-02  0.29472043078E-02  0.76098949511E-02  0.51100000000E-03 0. -1.
         11    1    4    4    0    0 -0.10684341431E+00 -0.48762039708E-01 -0.26318878911E-01  0.12035861500E+00  0.51100000000E-03 0.  1.
</event>
<event>
 8    1  0.1114333E+005  0.1043930E+01  0.7957747E-01            NaN
         13   -1    0    0    0    0  0.00000000000E+00  0.00000000000E+00  0.74505805969E-08  0.10566000000E+00  0.10566000000E+00 0. -1.
     999900   -1    0    0    0    0 -0.00000000000E+00 -0.00000000000E+00 -0.74505805969E-08  0.93827000000E+00  0.93827000000E+00 0. -1.
     999902    2    1    2    0    0  0.21352048117E-01 -0.48058227652E-02 -0.98313345189E-02  0.10199370629E+01  0.10196548197E+01 0.  0.
     999903    2    3    3    0    0  0.12245720743E+00 -0.25001647978E-01 -0.41731536874E-01  0.13334372463E+00  0.20449393042E-01 0.  0.
         14    1    1    2    0    0 -0.21352048117E-01  0.48058227652E-02  0.98313345189E-02  0.23992937079E-01  0.00000000000E+00 0. -1.
     999901    1    3    3    0    0 -0.10110515931E+00  0.20195825213E-01  0.31900202355E-01  0.88659333829E+00  0.88000000000E+00 0.  1.
        -11    1    4    4    0    0  0.77407986493E-01 -0.25353068251E-01 -0.29816216237E-01  0.86741237681E-01  0.51100000000E-03 0.  1.
         11    1    4    4    0    0  0.45049220933E-01  0.35142027281E-03 -0.11915320636E-01  0.46602486948E-01  0.51100000000E-03 0. -1.
</event>
<event>
 8    1  0.1114333E+005  0.1043930E+01  0.7957747E-01            NaN
         13   -1    0    0    0    0  0.00000000000E+00  0.00000000000E+00  0.74505805969E-08  0.10566000000E+00  0.10566000000E+00 0. -1.
     999900   -1    0    0    0    0 -0.00000000000E+00 -0.00000000000E+00 -0.74505805969E-08  0.93827000000E+00  0.93827000000E+00 0. -1.
     999902    2    1    2    0    0  0.13298931527E-02 -0.56889901282E-02  0.21575114341E-01  0.10215778461E+01  0.10213332839E+01 0.  0.
     999903    2    3    3    0    0 -0.11744428024E+00  0.51836043066E-01  0.22375496890E-01  0.13173680732E+00  0.19333629259E-01 0.  0.
         14    1    1    2    0    0 -0.13298931527E-02  0.56889901282E-02 -0.21575114341E-01  0.22352153885E-01  0.00000000000E+00 0.  1.
     999901    1    3    3    0    0  0.11877417339E+00 -0.57525033194E-01 -0.80038254868E-03  0.88984103879E+00  0.88000000000E+00 0.  1.
        -11    1    4    4    0    0 -0.79149210732E-01  0.33412146583E-01  0.24009411191E-01  0.89205840871E-01  0.51100000000E-03 0.  1.
         11    1    4    4    0    0 -0.38295069508E-01  0.18423896483E-01 -0.16339143014E-02  0.42530966450E-01  0.51100000000E-03 0. -1.
</event>
<event>
 8    1  0.1114333E+005  0.1043930E+01  0.7957747E-01            NaN
         13   -1    0    0    0    0  0.00000000000E+00  0.00000000000E+00  0.74505805969E-08  0.10566000000E+00  0.10566000000E+00 0.  1.
     999900   -1    0    0    0    0 -0.00000000000E+00 -0.00000000000E+00 -0.74505805969E-08  0.93827000000E+00  0.93827000000E+00 0.  1.
     999902    2    1    2    0    0 -0.15267937051E-01 -0.19985436653E-01 -0.82068877464E-02  0.10174747437E+01  0.10171307553E+01 0.  0.
     999903    2    3    3    0    0  0.64560882226E-01  0.84935957420E-01 -0.63852033324E-01  0.12591570383E+00  0.19886124201E-01 0.  0.
         14    1    1    2    0    0  0.15267937051E-01  0.19985436653E-01  0.82068877464E-02  0.26455256311E-01  0.00000000000E+00 0. -1.
     999901    1    3    3    0    0 -0.79828819277E-01 -0.10492139407E+00  0.55645145577E-01  0.89155903986E+00  0.88000000000E+00 0. -1.
        -11    1    4    4    0    0  0.91658748005E-02  0.18307770680E-01 -0.47355815082E-02  0.21020813052E-01  0.51100000000E-03 0.  1.
         11    1    4    4    0    0  0.55395007425E-01  0.66628186740E-01 -0.59116451815E-01  0.10489489078E+00  0.51100000000E-03 0. -1.
</event>
<event>
 8    1  0.1114333E+005  0.1043930E+01  0.7957747E-01            NaN
         13   -1    0    0    0    0  0.00000000000E+00  0.00000000000E+00  0.74505805969E-08  0.10566000000E+00  0.10566000000E+00 0. -1.
     999900   -1    0    0    0    0 -0.00000000000E+00 -0.00000000000E+00 -0.74505805969E-08  0.93827000000E+00  0.93827000000E+00 0. -1.
     999902    2    1    2    0    0 -0.88091751216E-02  0.99500943225E-02  0.19285659170E-01  0.10205090138E+01  0.10202402191E+01 0.  0.
     999903    2    3    3    0    0  0.25088218085E-01  0.11647446841E+00 -0.50144144105E-01  0.13072422349E+00  0.19459366459E-01 0.  0.
         14    1    1    2    0    0  0.88091751216E-02 -0.99500943225E-02 -0.19285659170E-01  0.23420986165E-01  0.00000000000E+00 0.  1.
     999901    1    3    3    0    0 -0.33897393206E-01 -0.10652437408E+00  0.69429803275E-01  0.88978479034E+00  0.88000000000E+00 0.  1.
        -11    1    4    4    0    0  0.16998327434E-01  0.52924120874E-01 -0.14666088335E-01  0.57491399129E-01  0.51100000000E-03 0.  1.
         11    1    4    4    0    0  0.80898906507E-02  0.63550347531E-01 -0.35478055770E-01  0.73232824364E-01  0.51100000000E-03 0. -1.
</event>
<event>
 8    1  0.1114333E+005  0.1043930E+01  0.7957747E-01            NaN
         13   -1    0    0    0    0  0.00000000000E+00  0.00000000000E+00  0.74505805969E-08  0.10566000000E+00  0.10566000000E+00 0. -1.
     999900   -1    0    0    0    0 -0.00000000000E+00 -0.00000000000E+00 -0.74505805969E-08  0.93827000000E+00  0.93827000000E+00 0.  1.
     999902    2    1    2    0    0 -0.66369357411E-02 -0.69261957289E-02 -0.12243733026E-01  0.10283758976E+01  0.10282582636E+01 0.  0.
     999903    2    3    3    0    0  0.83808153751E-01  0.48471426978E-01  0.92897778087E-01  0.13579315735E+00  0.20892547516E-01 0.  0.
         14    1    1    2    0    0  0.66369357411E-02  0.69261957289E-02  0.12243733026E-01  0.15554102408E-01  0.00000000000E+00 0. -1.
     999901    1    3    3    0    0 -0.90445089492E-01 -0.55397622707E-01 -0.10514151111E+00  0.89258274024E+00  0.88000000000E+00 0.  1.
        -11    1    4    4    0    0  0.23838638171E-01  0.24397440132E-01  0.27103744032E-01  0.43570515448E-01  0.51100000000E-03 0. -1.
         11    1    4    4    0    0  0.59969515580E-01  0.24073986846E-01  0.65794034055E-01  0.92222641904E-01  0.51100000000E-03 0.  1.
</event>
<event>
 8    1  0.1114333E+005  0.1043930E+01  0.7957747E-01            NaN
         13   -1    0    0    0    0  0.00000000000E+00  0.00000000000E+00  0.74505805969E-08  0.10566000000E+00  0.10566000000E+00 0. -1.
     999900   -1    0    0    0    0 -0.00000000000E+00 -0.00000000000E+00 -0.74505805969E-08  0.93827000000E+00  0.93827000000E+00 0.  1.
     999902    2    1    2    0    0  0.82590014977E-02  0.19300844117E-02  0.29959421749E-01  0.10127931523E+01  0.10123144107E+01 0.  0.
     999903    2    3    3    0    0  0.68787412378E-01 -0.76447846404E-01  0.70588925840E-01  0.12630708635E+00  0.19867115791E-01 0.  0.
         14    1    1    2    0    0 -0.82590014977E-02 -0.19300844117E-02 -0.29959421749E-01  0.31136847675E-01  0.00000000000E+00 0.  1.
     999901    1    3    3    0    0 -0.60528410880E-01  0.78377930816E-01 -0.40629504091E-01  0.88648606597E+00  0.88000000000E+00 0.  1.
        -11    1    4    4    0    0  0.40537127027E-01 -0.42892502715E-01  0.28602066989E-01  0.65584791025E-01  0.51100000000E-03 0. -1.
         11    1    4    4    0    0  0.28250285351E-01 -0.33555343689E-01  0.41986858851E-01  0.60722295326E-01  0.51100000000E-03 0.  1.
</event>
<event>
 8    1  0.1114333E+005  0.1043930E+01  0.7957747E-01            NaN
         13   -1    0    0    0    0  0.00000000000E+00  0.00000000000E+00  0.74505805969E-08  0.10566000000E+00  0.10566000000E+00 0.  1.
     999900   -1    0    0    0    0 -0.00000000000E+00 -0.00000000000E+00 -0.74505805969E-08  0.93827000000E+00  0.93827000000E+00 0. -1.
     999902    2    1    2    0    0  0.96806756551E-02  0.91209514256E-02 -0.22784785112E-01  0.10175471710E+01  0.10172050882E+01 0.  0.
     999903    2    3    3    0    0  0.24175400722E-01 -0.98848765764E-01  0.71045431333E-01  0.12587925833E+00  0.21038200269E-01 0.  0.
         14    1    1    2    0    0 -0.96806756551E-02 -0.91209514256E-02  0.22784785112E-01  0.26382829049E-01  0.00000000000E+00 0.  1.
     999901    1    3    3    0    0 -0.14494725067E-01  0.10796971719E+00 -0.93830216445E-01  0.89166791262E+00  0.88000000000E+00 0. -1.
        -11    1    4    4    0    0  0.93747852035E-02 -0.10443534722E-01  0.12633857418E-01  0.18889930898E-01  0.51100000000E-03 0. -1.
         11    1    4    4    0    0  0.14800615518E-01 -0.88405231042E-01  0.58411573915E-01  0.10698932743E+00  0.51100000000E-03 0.  1.
</event>
<event>
 8    1  0.1114333E+005  0.1043930E+01  0.7957747E-01            NaN
         13   -1    0    0    0    0  0.00000000000E+00  0.00000000000E+00  0.74505805969E-08  0.10566000000E+00  0.10566000000E+00 0. -1.
     999900   -1    0    0    0    0 -0.00000000000E+00 -0.00000000000E+00 -0.74505805969E-08  0.93827000000E+00  0.93827000000E+00 0. -1.
     999902    2    1    2    0    0  0.13062063687E-01  0.18976452423E-01 -0.62929261884E-02  0.10200485391E+01  0.10197689434E+01 0.  0.
     999903    2    3    3    0    0  0.44519789336E-01 -0.50167275308E-01  0.10933334730E+00  0.12923998577E+00  0.15824851805E-01 0.  0.
         14    1    1    2    0    0 -0.13062063687E-01 -0.18976452423E-01  0.62929261884E-02  0.23881460892E-01  0.00000000000E+00 0.  1.
     999901    1    3    3    0    0 -0.31457725649E-01  0.69143727731E-01 -0.11562627349E+00  0.89080855334E+00  0.88000000000E+00 0. -1.
        -11    1    4    4    0    0  0.13676284306E-01 -0.27013642986E-01  0.50804961702E-01  0.59145438660E-01  0.51100000000E-03 0. -1.
         11    1    4    4    0    0  0.30843505030E-01 -0.23153632322E-01  0.58528385597E-01  0.70094547105E-01  0.51100000000E-03 0.  1.
</event>
<event>
 8    1  0.1114333E+005  0.1043930E+01  0.7957747E-01            NaN
         13   -1    0    0    0    0  0.00000000000E+00  0.00000000000E+00  0.74505805969E-08  0.10566000000E+00  0.10566000000E+00 0.  1.
     999900   -1    0    0    0    0 -0.00000000000E+00 -0.00000000000E+00 -0.74505805969E-08  0.93827000000E+00  0.93827000000E+00 0. -1.
     999902    2    1    2    0    0  0.76950814709E-03  0.90097395391E-02 -0.21959785591E-01  0.10201813215E+01  0.10199048627E+01 0.  0.
     999903    2    3    3    0    0  0.38350259789E-01  0.30969319329E-01  0.11671762690E+00  0.12825870106E+00  0.19936118068E-01 0.  0.
         14    1    1    2    0    0 -0.76950814709E-03 -0.90097395391E-02  0.21959785591E-01  0.23748678544E-01  0.00000000000E+00 0.  1.
     999901    1    3    3    0    0 -0.37580751642E-01 -0.21959579790E-01 -0.13867741249E+00  0.89192262040E+00  0.88000000000E+00 0. -1.
        -11    1    4    4    0    0  0.11732236214E-01  0.21505672406E-01  0.46303418770E-01  0.52387088323E-01  0.51100000000E-03 0. -1.
         11    1    4    4    0    0  0.26618023575E-01  0.94636469228E-02  0.70414208128E-01  0.75871612737E-01  0.51100000000E-03 0.  1.
</event>
<event>
 8    1  0.1114333E+005  0.1043930E+01  0.7957747E-01            NaN
         13   -1    0    0    0    0  0.00000000000E+00  0.00000000000E+00  0.74505805969E-08  0.10566000000E+00  0.10566000000E+00 0. -1.
     999900   -1    0    0    0    0 -0.00000000000E+00 -0.00000000000E+00 -0.74505805969E-08  0.93827000000E+00  0.93827000000E+00 0. -1.
     999902    2    1    2    0    0  0.48226795986E-02 -0.16639016439E-01 -0.16014085731E-01  0.10203383479E+01  0.10200655754E+01 0.  0.
     999903    2    3    3    0    0  0.47395059152E-01  0.41052974780E-01  0.11028304519E+00  0.12843491220E+00  0.20038419203E-01 0.  0.
         14    1    1    2    0    0 -0.48226795986E-02  0.16639016439E-01  0.16014085731E-01  0.23591652091E-01  0.00000000000E+00 0. -1.
     999901    1    3    3    0    0 -0.42572379554E-01 -0.57691991219E-01 -0.12629713092E+00  0.89190343571E+00  0.88000000000E+00 0. -1.
        -11    1    4    4    0    0  0.19766213239E-01  0.76366645058E-02  0.25117943499E-01  0.32866305500E-01  0.51100000000E-03 0.  1.
         11    1    4    4    0    0  0.27628845913E-01  0.33416310274E-01  0.85165101694E-01  0.95568606699E-01  0.51100000000E-03 0. -1.
</event>
<event>
 8    1  0.1114333E+005  0.1043930E+01  0.7957747E-01            NaN
         13   -1    0    0    0    0  0.00000000000E+00  0.00000000000E+00  0.74505805969E-08  0.10566000000E+00  0.10566000000E+00 0.  1.
     999900   -1    0    0    0    0 -0.00000000000E+00 -0.00000000000E+00 -0.74505805969E-08  0.93827000000E+00  0.93827000000E+00 0.  1.
     999902    2    1    2    0    0 -0.14631675175E-01 -0.15814693686E-01  0.95482079911E-02  0.10203639496E+01  0.10200917757E+01 0.  0.
     999903    2    3    3    0    0  0.27494551433E-01 -0.97598485729E-01  0.83020517679E-01  0.13252309231E+00  0.19711642884E-01 0.  0.
         14    1    1    2    0    0  0.14631675175E-01  0.15814693686E-01 -0.95482079911E-02  0.23566050383E-01  0.00000000000E+00 0. -1.
     999901    1    3    3    0    0 -0.42126226608E-01  0.81783792043E-01 -0.73472309688E-01  0.88784085730E+00  0.88000000000E+00 0.  1.
        -11    1    4    4    0    0  0.17170807819E-01 -0.27398317334E-01  0.26098096336E-01  0.41555699817E-01  0.51100000000E-03 0. -1.
         11    1    4    4    0    0  0.10323743614E-01 -0.70200168395E-01  0.56922421343E-01  0.90967392495E-01  0.51100000000E-03 0.  1.
</event>
<event>
 8    1  0.1114333E+005  0.1043930E+01  0.7957747E-01            NaN
         13   -1    0    0    0    0  0.00000000000E+00  0.00000000000E+00  0.74505805969E-08  0.10566000000E+00  0.10566000000E+00 0. -1.
     999900   -1    0    0    0    0 -0.00000000000E+00 -0.00000000000E+00 -0.74505805969E-08  0.93827000000E+00  0.93827000000E+00 0. -1.
     999902    2    1    2    0    0 -0.16129725730E-01 -0.17367482487E-01  0.61736205676E-02  0.10194369175E+01  0.10191426385E+01 0.  0.
     999903    2    3    3    0    0  0.39889656656E-01  0.11074626392E-01  0.12127076565E+00  0.12972096418E+00  0.20176666929E-01 0.  0.
         14    1    1    2    0    0  0.16129725730E-01  0.17367482487E-01 -0.61736205676E-02  0.24493082512E-01  0.00000000000E+00 0.  1.
     999901    1    3    3    0    0 -0.56019382386E-01 -0.28442108879E-01 -0.11509714509E+00  0.88971595331E+00  0.88000000000E+00 0.  1.
        -11    1    4    4    0    0  0.95789448294E-02  0.19868806826E-02  0.59641983041E-01  0.60441137819E-01  0.51100000000E-03 0.  1.
         11    1    4    4    0    0  0.30310711827E-01  0.90877457096E-02  0.61628782612E-01  0.69279826362E-01  0.51100000000E-03 0. -1.
</event>
<event>
 8    1  0.1114333E+005  0.1043930E+01  0.7957747E-01            NaN
         13   -1    0    0    0    0  0.00000000000E+00  0.00000000000E+00  0.74505805969E-08  0.10566000000E+00  0.10566000000E+00 0. -1.
     999900   -1    0    0    0    0 -0.00000000000E+00 -0.00000000000E+00 -0.74505805969E-08  0.93827000000E+00  0.93827000000E+00 0. -1.
     999902    2    1    2    0    0  0.37423073181E-02  0.94815698864E-02  0.21586531955E-01  0.10200577694E+01  0.10197783924E+01 0.  0.
     999903    2    3    3    0    0 -0.11914544559E+00  0.34525337684E-01 -0.31665682188E-01  0.12957229034E+00  0.19965641711E-01 0.  0.
         14    1    1    2    0    0 -0.37423073181E-02 -0.94815698864E-02 -0.21586531955E-01  0.23872230591E-01  0.00000000000E+00 0. -1.
     999901    1    3    3    0    0  0.12288775291E+00 -0.25043767797E-01  0.53252214142E-01  0.89048547907E+00  0.88000000000E+00 0. -1.
        -11    1    4    4    0    0 -0.97003593098E-01  0.35101219713E-01 -0.29589184769E-01  0.10731995935E+00  0.51100000000E-03 0. -1.
         11    1    4    4    0    0 -0.22141852491E-01 -0.57588202970E-03 -0.20764974190E-02  0.22252330988E-01  0.51100000000E-03 0.  1.
</event>
<event>
 8    1  0.1114333E+005  0.1043930E+01  0.7957747E-01            NaN
         13   -1    0    0    0    0  0.00000000000E+00  0.00000000000E+00  0.74505805969E-08  0.10566000000E+00  0.10566000000E+00 0. -1.
     999900   -1    0    0    0    0 -0.00000000000E+00 -0.00000000000E+00 -0.74505805969E-08  0.93827000000E+00  0.93827000000E+00 0.  1.
     999902    2    1    2    0    0  0.20560658667E-01  0.11418363912E-01 -0.32881779156E-02  0.10201827510E+01  0.10199063259E+01 0.  0.
     999903    2    3    3    0    0  0.70183821028E-01 -0.10696665979E+00 -0.70720610231E-02  0.13086177982E+00  0.26592411122E-01 0.  0.
         14    1    1    2    0    0 -0.20560658667E-01 -0.11418363912E-01  0.32881779156E-02  0.23747248962E-01  0.00000000000E+00 0.  1.
     999901    1    3    3    0    0 -0.49623162361E-01  0.11838502370E+00  0.37838831075E-02  0.88932097122E+00  0.88000000000E+00 0. -1.
        -11    1    4    4    0    0  0.15011323866E-01 -0.14425089442E-01  0.75104784957E-02  0.22138009347E-01  0.51100000000E-03 0.  1.
         11    1    4    4    0    0  0.55172497162E-01 -0.92541570349E-01 -0.14582539519E-01  0.10872377047E+00  0.51100000000E-03 0. -1.
</event>
<event>
 8    1  0.1114333E+005  0.1043930E+01  0.7957747E-01            NaN
         13   -1    0    0    0    0  0.00000000000E+00  0.00000000000E+00  0.74505805969E-08  0.10566000000E+00  0.10566000000E+00 0.  1.
     999900   -1    0    0    0    0 -0.00000000000E+00 -0.00000000000E+00 -0.74505805969E-08  0.93827000000E+00  0.93827000000E+00 0.  1.
     999902    2    1    2    0    0  0.23383859736E-01  0.23723906114E-02 -0.32378263287E-02  0.10202041354E+01  0.10199282137E+01 0.  0.
     999903    2    3    3    0    0  0.11952291238E+00 -0.37188904688E-01 -0.41342163481E-01  0.13326571922E+00  0.19540629990E-01 0.  0.
         14    1    1    2    0    0 -0.23383859736E-01 -0.23723906114E-02  0.32378263287E-02  0.23725864635E-01  0.00000000000E+00 0.  1.
     999901    1    3    3    0    0 -0.96139052648E-01  0.39561295299E-01  0.38104337153E-01  0.88693841615E+00  0.88000000000E+00 0. -1.
        -11    1    4    4    0    0  0.10105863586E+00 -0.38112672693E-01 -0.37826743342E-01  0.11444014739E+00  0.51100000000E-03 0. -1.
         11    1    4    4    0    0  0.18464276520E-01  0.92376800454E-03 -0.35154201390E-02  0.18825571824E-01  0.51100000000E-03 0.  1.
</event>
<event>
 8    1  0.1114333E+005  0.1043930E+01  0.7957747E-01            NaN
         13   -1    0    0    0    0  0.00000000000E+00  0.00000000000E+00  0.74505805969E-08  0.10566000000E+00  0.10566000000E+00 0. -1.
     999900   -1    0    0    0    0 -0.00000000000E+00 -0.00000000000E+00 -0.74505805969E-08  0.93827000000E+00  0.93827000000E+00 0. -1.
     999902    2    1    2    0    0 -0.17550292933E-01 -0.14154754252E-01 -0.74123813729E-02  0.10201957790E+01  0.10199196607E+01 0.  0.
     999903    2    3    3    0    0  0.52102863811E-02 -0.12133893398E+00  0.47024446499E-01  0.13173088908E+00  0.19784958569E-01 0.  0.
         14    1    1    2    0    0  0.17550292933E-01  0.14154754252E-01  0.74123813729E-02  0.23734221023E-01  0.00000000000E+00 0. -1.
     999901    1    3    3    0    0 -0.22760579314E-01  0.10718417973E+00 -0.54436827872E-01  0.88846488990E+00  0.88000000000E+00 0.  1.
        -11    1    4    4    0    0 -0.70108017981E-02 -0.64806842728E-01  0.23602879043E-01  0.69328458993E-01  0.51100000000E-03 0. -1.
         11    1    4    4    0    0  0.12221088179E-01 -0.56532091250E-01  0.23421567457E-01  0.62402430085E-01  0.51100000000E-03 0.  1.
</event>
<event>
 8    1  0.1178040E+005  0.1043930E+01  0.7957747E-01            NaN
         13   -1    0    0    0    0  0.00000000000E+00  0.00000000000E+00  0.74505805969E-08  0.10566000000E+00  0.10566000000E+00 0. -1.
     999900   -1    0    0    0    0 -0.00000000000E+00 -0.00000000000E+00 -0.74505805969E-08  0.93827000000E+00  0.93827000000E+00 0. -1.
     999902    2    1    2    0    0  0.34825753637E-01  0.50670807905E-02  0.10530830822E-01  0.10071957269E+01  0.10065256208E+01 0.  0.
     999903    2    3    3    0    0 -0.84653326043E-01 -0.54197648552E-01  0.54379533877E-01  0.11606707882E+00  0.20269740078E-01 0.  0.
         14    1    1    2    0    0 -0.34825753637E-01 -0.50670807905E-02 -0.10530830822E-01  0.36734273123E-01  0.00000000000E+00 0.  1.
     999901    1    3    3    0    0  0.11947907968E+00  0.59264729343E-01 -0.43848703055E-01  0.89112864806E+00  0.88000000000E+00 0.  1.
        -11    1    4    4    0    0 -0.33257673698E-01 -0.32735982945E-01  0.28147198795E-01  0.54499939085E-01  0.51100000000E-03 0.  1.
         11    1    4    4    0    0 -0.51395652345E-01 -0.21461665607E-01  0.26232335081E-01  0.61567139737E-01  0.51100000000E-03 0. -1.
</event>
<event>
 8    1  0.1114333E+005  0.1043930E+01  0.7957747E-01            NaN
         13   -1    0    0    0    0  0.00000000000E+00  0.00000000000E+00  0.74505805969E-08  0.10566000000E+00  0.10566000000E+00 0.  1.
     999900   -1    0    0    0    0 -0.00000000000E+00 -0.00000000000E+00 -0.74505805969E-08  0.93827000000E+00  0.93827000000E+00 0.  1.
     999902    2    1    2    0    0 -0.14013078046E-01  0.80090993933E-02 -0.19512407111E-01  0.10186071633E+01  0.10182923485E+01 0.  0.
     999903    2    3    3    0    0 -0.25647507554E-01 -0.56516462003E-01  0.10931750996E+00  0.12681343399E+00  0.16715978483E-01 0.  0.
         14    1    1    2    0    0  0.14013078046E-01 -0.80090993933E-02  0.19512407111E-01  0.25322836742E-01  0.00000000000E+00 0.  1.
     999901    1    3    3    0    0  0.11634429509E-01  0.64525561396E-01 -0.12882991707E+00  0.89179372926E+00  0.88000000000E+00 0.  1.
        -11    1    4    4    0    0 -0.25251073362E-01 -0.39983082795E-01  0.87112143667E-01  0.99121391792E-01  0.51100000000E-03 0. -1.
         11    1    4    4    0    0 -0.39643419287E-03 -0.16533379208E-01  0.22205366292E-01  0.27692042201E-01  0.51100000000E-03 0.  1.
</event>
<event>
 8    1  0.1114333E+005  0.1043930E+01  0.7957747E-01            NaN
         13   -1    0    0    0    0  0.00000000000E+00  0.00000000000E+00  0.74505805969E-08  0.10566000000E+00  0.10566000000E+00 0.  1.
     999900   -1    0    0    0    0 -0.00000000000E+00 -0.00000000000E+00 -0.74505805969E-08  0.93827000000E+00  0.93827000000E+00 0. -1.
     999902    2    1    2    0    0 -0.13968893261E-02  0.23493014693E-01  0.31308961694E-02  0.10201881477E+01  0.10199118497E+01 0.  0.
     999903    2    3    3    0    0  0.66630522852E-01 -0.28404699399E-01  0.10608470154E+00  0.13006423074E+00  0.20403105002E-01 0.  0.
         14    1    1    2    0    0  0.13968893261E-02 -0.23493014693E-01 -0.31308961694E-02  0.23741852286E-01  0.00000000000E+00 0. -1.
     999901    1    3    3    0    0 -0.68027412178E-01  0.51897714091E-01 -0.10295380537E+00  0.89012391698E+00  0.88000000000E+00 0. -1.
        -11    1    4    4    0    0  0.38057132494E-01 -0.10438373502E-01  0.71914288517E-01  0.82031890073E-01  0.51100000000E-03 0. -1.
         11    1    4    4    0    0  0.28573390358E-01 -0.17966325896E-01  0.34170413019E-01  0.48032340664E-01  0.51100000000E-03 0.  1.
</event>
<event>
 8    1  0.1114333E+005  0.1043930E+01  0.7957747E-01            NaN
         13   -1    0    0    0    0  0.00000000000E+00  0.00000000000E+00  0.74505805969E-08  0.10566000000E+00  0.10566000000E+00 0.  1.
     999900   -1    0    0    0    0 -0.00000000000E+00 -0.00000000000E+00 -0.74505805969E-08  0.93827000000E+00  0.93827000000E+00 0.  1.
     999902    2    1    2    0    0 -0.87437549040E-02 -0.17356501641E-01 -0.14904807756E-01  0.10194380688E+01  0.10191438178E+01 0.  0.
     999903    2    3    3    0    0 -0.58689788252E-01  0.95051961826E-01  0.58928809257E-01  0.12782062175E+00  0.19650447628E-01 0.  0.
         14    1    1    2    0    0  0.87437549040E-02  0.17356501641E-01  0.14904807756E-01  0.24491931187E-01  0.00000000000E+00 0.  1.
     999901    1    3    3    0    0  0.49946033348E-01 -0.11240846347E+00 -0.73833617013E-01  0.89161744706E+00  0.88000000000E+00 0.  1.
        -11    1    4    4    0    0 -0.16773633636E-01  0.44530623932E-01  0.21123651135E-01  0.52065353272E-01  0.51100000000E-03 0. -1.
         11    1    4    4    0    0 -0.41916154616E-01  0.50521337895E-01  0.37805158122E-01  0.75755268478E-01  0.51100000000E-03 0.  1.
</event>
<event>
 8    1  0.1114333E+005  0.1043930E+01  0.7957747E-01            NaN
         13   -1    0    0    0    0  0.00000000000E+00  0.00000000000E+00  0.74505805969E-08  0.10566000000E+00  0.10566000000E+00 0.  1.
     999900   -1    0    0    0    0 -0.00000000000E+00 -0.00000000000E+00 -0.74505805969E-08  0.93827000000E+00  0.93827000000E+00 0.  1.
     999902    2    1    2    0    0  0.18051215552E-01  0.13887207140E-01 -0.66263611727E-02  0.10202106078E+01  0.10199348384E+01 0.  0.
     999903    2    3    3    0    0  0.99577822451E-01  0.63804731774E-01  0.56985251837E-01  0.13275087111E+00  0.19715180250E-01 0.  0.
         14    1    1    2    0    0 -0.18051215552E-01 -0.13887207140E-01  0.66263611727E-02  0.23719392224E-01  0.00000000000E+00 0.  1.
     999901    1    3    3    0    0 -0.81526606898E-01 -0.49917524633E-01 -0.63611613009E-01  0.88745973667E+00  0.88000000000E+00 0.  1.
        -11    1    4    4    0    0  0.81008087338E-01  0.46705732375E-01  0.37052309625E-01  0.10058265467E+00  0.51100000000E-03 0.  1.
         11    1    4    4    0    0  0.18569735112E-01  0.17098999399E-01  0.19932942212E-01  0.32168216438E-01  0.51100000000E-03 0. -1.
</event>
<event>
 8    1  0.1114333E+005  0.1043930E+01  0.7957747E-01            NaN
         13   -1    0    0    0    0  0.00000000000E+00  0.00000000000E+00  0.74505805969E-08  0.10566000000E+00  0.10566000000E+00 0. -1.
     999900   -1    0    0    0    0 -0.00000000000E+00 -0.00000000000E+00 -0.74505805969E-08  0.93827000000E+00  0.93827000000E+00 0.  1.
     999902    2    1    2    0    0 -0.11202743510E-01 -0.18319602702E-01  0.92043291420E-02  0.10205670169E+01  0.10202995673E+01 0.  0.
     999903    2    3    3    0    0  0.84880351970E-01 -0.46766012062E-01  0.86644960772E-01  0.13150109645E+00  0.19835702803E-01 0.  0.
         14    1    1    2    0    0  0.11202743510E-01  0.18319602702E-01 -0.92043291420E-02  0.23362983120E-01  0.00000000000E+00 0. -1.
     999901    1    3    3    0    0 -0.96083095481E-01  0.28446409360E-01 -0.77440631630E-01  0.88906592043E+00  0.88000000000E+00 0.  1.
        -11    1    4    4    0    0  0.61467364355E-01 -0.41121344537E-01  0.72504911762E-01  0.10356845663E+00  0.51100000000E-03 0. -1.
         11    1    4    4    0    0  0.23412987616E-01 -0.56446675242E-02  0.14140049010E-01  0.27932639825E-01  0.51100000000E-03 0.  1.
</event>
<event>
 8    1  0.1114333E+005  0.1043930E+01  0.7957747E-01            NaN
         13   -1    0    0    0    0  0.00000000000E+00  0.00000000000E+00  0.74505805969E-08  0.10566000000E+00  0.10566000000E+00 0.  1.
     999900   -1    0    0    0    0 -0.00000000000E+00 -0.00000000000E+00 -0.74505805969E-08  0.93827000000E+00  0.93827000000E+00 0.  1.
     999902    2    1    2    0    0 -0.22800212058E-02  0.10420907074E-01  0.18995668516E-01  0.10221440131E+01  0.10219118134E+01 0.  0.
     999903    2    3    3    0    0 -0.10011879601E+00 -0.74496955826E-01 -0.34314892957E-01  0.13106293644E+00  0.20649738182E-01 0.  0.
         14    1    1    2    0    0  0.22800212058E-02 -0.10420907074E-01 -0.18995668516E-01  0.21785986857E-01  0.00000000000E+00 0. -1.
     999901    1    3    3    0    0  0.97838774808E-01  0.84917862899E-01  0.53310561473E-01  0.89108107670E+00  0.88000000000E+00 0. -1.
        -11    1    4    4    0    0 -0.42611511863E-01 -0.28594108014E-01 -0.24369696925E-01  0.56811153884E-01  0.51100000000E-03 0.  1.
         11    1    4    4    0    0 -0.57507284150E-01 -0.45902847811E-01 -0.99451960313E-02  0.74251782555E-01  0.51100000000E-03 0. -1.
</event>
<event>
 7    1  0.1114333E+005  0.1043930E+01  0.7957747E-01            NaN
         13   -1    0    0    0    0  0.00000000000E+00  0.00000000000E+00  0.74505805969E-08  0.10566000000E+00  0.10566000000E+00 0. -1.
     999900   -1    0    0    0    0 -0.00000000000E+00 -0.00000000000E+00 -0.74505805969E-08  0.93827000000E+00  0.93827000000E+00 0.  1.
     999903    2    1    2    0    0  0.41668094261E-01  0.75098335613E-01  0.68554448065E-01  0.11221005417E+00  0.22702286600E-01 0.  0.
         14    1    1    2    0    0  0.21458265312E-01  0.34008270400E-01 -0.28521895798E-02  0.40313206163E-01  0.00000000000E+00 0. -1.
     999901    1    1    2    0    0 -0.63126359572E-01 -0.10910660601E+00 -0.65702258485E-01  0.89140673966E+00  0.88000000000E+00 0. -1.
        -11    1    3    3    0    0  0.15473002076E-01  0.21849041263E-01  0.34887960489E-01  0.43979828393E-01  0.51100000000E-03 0. -1.
         11    1    3    3    0    0  0.26195092185E-01  0.53249294350E-01  0.33666487576E-01  0.68230225780E-01  0.51100000000E-03 0.  1.
</event>
<event>
 8    1  0.1114333E+005  0.1043930E+01  0.7957747E-01            NaN
         13   -1    0    0    0    0  0.00000000000E+00  0.00000000000E+00  0.74505805969E-08  0.10566000000E+00  0.10566000000E+00 0.  1.
     999900   -1    0    0    0    0 -0.00000000000E+00 -0.00000000000E+00 -0.74505805969E-08  0.93827000000E+00  0.93827000000E+00 0. -1.
     999902    2    1    2    0    0 -0.24602602916E-01 -0.21569081660E-02  0.33132928606E-02  0.10190117691E+01  0.10187070567E+01 0.  0.
     999903    2    3    3    0    0  0.25235008244E-01 -0.75942260932E-01 -0.98674695646E-01  0.12865812272E+00  0.20302323626E-01 0.  0.
         14    1    1    2    0    0  0.24602602916E-01  0.21569081660E-02 -0.33132928606E-02  0.24918230930E-01  0.00000000000E+00 0.  1.
     999901    1    3    3    0    0 -0.49837611160E-01  0.73785352766E-01  0.10198798851E+00  0.89035364635E+00  0.88000000000E+00 0.  1.
        -11    1    4    4    0    0  0.11051567584E-01 -0.30962344167E-01 -0.25541015788E-01  0.41634222833E-01  0.51100000000E-03 0.  1.
         11    1    4    4    0    0  0.14183440659E-01 -0.44979916765E-01 -0.73133679858E-01  0.87023899888E-01  0.51100000000E-03 0. -1.
</event>
<event>
 8    1  0.1114333E+005  0.1043930E+01  0.7957747E-01            NaN
         13   -1    0    0    0    0  0.00000000000E+00  0.00000000000E+00  0.74505805969E-08  0.10566000000E+00  0.10566000000E+00 0.  1.
     999900   -1    0    0    0    0 -0.00000000000E+00 -0.00000000000E+00 -0.74505805969E-08  0.93827000000E+00  0.93827000000E+00 0. -1.
     999902    2    1    2    0    0  0.61007644871E-02  0.14174667925E-01  0.21001545131E-01  0.10178684299E+01  0.10175347341E+01 0.  0.
     999903    2    3    3    0    0 -0.43260809021E-01  0.60773512001E-02 -0.11634676912E+00  0.12581086959E+00  0.19579898571E-01 0.  0.
         14    1    1    2    0    0 -0.61007644871E-02 -0.14174667925E-01 -0.21001545131E-01  0.26061570098E-01  0.00000000000E+00 0. -1.
     999901    1    3    3    0    0  0.49361573508E-01  0.80973167248E-02  0.13734831425E+00  0.89205756031E+00  0.88000000000E+00 0.  1.
        -11    1    4    4    0    0 -0.37898524643E-01 -0.37241209289E-03 -0.80282141236E-01  0.88780179000E-01  0.51100000000E-03 0.  1.
         11    1    4    4    0    0 -0.53622843783E-02  0.64497632930E-02 -0.36064627884E-01  0.37030690592E-01  0.51100000000E-03 0. -1.
</event>
<event>
 8    1  0.1114333E+005  0.1043930E+01  0.7957747E-01            NaN
         13   -1    0    0    0    0  0.00000000000E+00  0.00000000000E+00  0.74505805969E-08  0.10566000000E+00  0.10566000000E+00 0. -1.
     999900   -1    0    0    0    0 -0.00000000000E+00 -0.00000000000E+00 -0.74505805969E-08  0.93827000000E+00  0.93827000000E+00 0.  1.
     999902    2    1    2    0    0  0.46251374336E-03  0.37273516887E-02  0.23885642848E-01  0.10197508560E+01  0.10194641619E+01 0.  0.
     999903    2    3    3    0    0  0.61656469359E-01 -0.11202310689E+00 -0.47235074397E-02  0.12960404096E+00  0.20596097209E-01 0.  0.
         14    1    1    2    0    0 -0.46251374336E-03 -0.37273516887E-02 -0.23885642848E-01  0.24179143985E-01  0.00000000000E+00 0.  1.
     999901    1    3    3    0    0 -0.61193955615E-01  0.11575045858E+00  0.28609150288E-01  0.89014681505E+00  0.88000000000E+00 0.  1.
        -11    1    4    4    0    0  0.42986937434E-01 -0.62663301573E-01  0.40710990914E-02  0.76101255724E-01  0.51100000000E-03 0.  1.
         11    1    4    4    0    0  0.18669531925E-01 -0.49359805319E-01 -0.87946065311E-02  0.53502785240E-01  0.51100000000E-03 0. -1.
</event>
<event>
 8    1  0.1114333E+005  0.1043930E+01  0.7957747E-01            NaN
         13   -1    0    0    0    0  0.00000000000E+00  0.00000000000E+00  0.74505805969E-08  0.10566000000E+00  0.10566000000E+00 0.  1.
     999900   -1    0    0    0    0 -0.00000000000E+00 -0.00000000000E+00 -0.74505805969E-08  0.93827000000E+00  0.93827000000E+00 0.  1.
     999902    2    1    2    0    0  0.13230599423E-01 -0.19682465990E-01 -0.48742787423E-02  0.10197182916E+01  0.10194308154E+01 0.  0.
     999903    2    3    3    0    0  0.11005962903E+00  0.66053191982E-01 -0.99136553254E-02  0.13025111443E+00  0.19771852082E-01 0.  0.
         14    1    1    2    0    0 -0.13230599423E-01  0.19682465990E-01  0.48742787423E-02  0.24211708362E-01  0.00000000000E+00 0. -1.
     999901    1    3    3    0    0 -0.96829029604E-01 -0.85735657972E-01  0.50393765830E-02  0.88946717721E+00  0.88000000000E+00 0.  1.
        -11    1    4    4    0    0  0.89429374464E-01  0.51784967271E-01 -0.18514697424E-03  0.10334210784E+00  0.51100000000E-03 0. -1.
         11    1    4    4    0    0  0.20630254562E-01  0.14268224712E-01 -0.97285083511E-02  0.26909006586E-01  0.51100000000E-03 0.  1.
</event>
<event>
 8    1  0.1114333E+005  0.1043930E+01  0.7957747E-01            NaN
         13   -1    0    0    0    0  0.00000000000E+00  0.00000000000E+00  0.74505805969E-08  0.10566000000E+00  0.10566000000E+00 0.  1.
     999900   -1    0    0    0    0 -0.00000000000E+00 -0.00000000000E+00 -0.74505805969E-08  0.93827000000E+00  0.93827000000E+00 0. -1.
     999902    2    1    2    0    0 -0.83932483851E-02  0.20451311158E-01 -0.88693832866E-02  0.10201104974E+01  0.10198323676E+01 0.  0.
     999903    2    3    3    0    0 -0.12534919403E-01 -0.42980989079E-01  0.11878139087E+00  0.12863109193E+00  0.20795416938E-01 0.  0.
         14    1    1    2    0    0  0.83932483851E-02 -0.20451311158E-01  0.88693832866E-02  0.23819502648E-01  0.00000000000E+00 0. -1.
     999901    1    3    3    0    0  0.41416710175E-02  0.63432300236E-01 -0.12765077416E+00  0.89147940542E+00  0.88000000000E+00 0. -1.
        -11    1    4    4    0    0 -0.35007671741E-02 -0.39355770099E-01  0.98442227513E-01  0.10607669532E+00  0.51100000000E-03 0.  1.
         11    1    4    4    0    0 -0.90341522285E-02 -0.36252189794E-02  0.20339163362E-01  0.22554396609E-01  0.51100000000E-03 0. -1.
</event>
<event>
 8    1  0.1114333E+005  0.1043930E+01  0.7957747E-01            NaN
         13   -1    0    0    0    0  0.00000000000E+00  0.00000000000E+00  0.74505805969E-08  0.10566000000E+00  0.10566000000E+00 0. -1.
     999900   -1    0    0    0    0 -0.00000000000E+00 -0.00000000000E+00 -0.74505805969E-08  0.93827000000E+00  0.93827000000E+00 0. -1.
     999902    2    1    2    0    0  0.63526263356E-02 -0.63915376413E-02  0.14879101291E-01  0.10265347343E+01  0.10263873369E+01 0.  0.
     999903    2    3    3    0    0 -0.13237196072E-01  0.47167546570E-01  0.12692789736E+00  0.13759870206E+00  0.20559933636E-01 0.  0.
         14    1    1    2    0    0 -0.63526263356E-02  0.63915376413E-02 -0.14879101291E-01  0.17395265735E-01  0.00000000000E+00 0.  1.
     999901    1    3    3    0    0  0.19589822408E-01 -0.53559084212E-01 -0.11204879607E+00  0.88893603220E+00  0.88000000000E+00 0. -1.
        -11    1    4    4    0    0 -0.16315643362E-02  0.38456597528E-01  0.88010853371E-01  0.96061143694E-01  0.51100000000E-03 0. -1.
         11    1    4    4    0    0 -0.11605631736E-01  0.87109490418E-02  0.38917043993E-01  0.41537558370E-01  0.51100000000E-03 0.  1.
</event>
<event>
 8    1  0.1114333E+005  0.1043930E+01  0.7957747E-01            NaN
         13   -1    0    0    0    0  0.00000000000E+00  0.00000000000E+00  0.74505805969E-08  0.10566000000E+00  0.10566000000E+00 0.  1.
     999900   -1    0    0    0    0 -0.00000000000E+00 -0.00000000000E+00 -0.74505805969E-08  0.93827000000E+00  0.93827000000E+00 0.  1.
     999902    2    1    2    0    0  0.13561013337E-01  0.19470035957E-01 -0.98264904461E-03  0.10201823900E+01  0.10199059564E+01 0.  0.
     999903    2    3    3    0    0 -0.10588717806E+00  0.12903561222E-01  0.70197016961E-01  0.12924045367E+00  0.19921779639E-01 0.  0.
         14    1    1    2    0    0 -0.13561013337E-01 -0.19470035957E-01  0.98264904461E-03  0.23747610028E-01  0.00000000000E+00 0.  1.
     999901    1    3    3    0    0  0.11944819140E+00  0.65664747345E-02 -0.71179666006E-01  0.89094193631E+00  0.88000000000E+00 0. -1.
        -11    1    4    4    0    0 -0.61779482190E-01  0.12841145672E-01  0.50994191359E-01  0.81131178441E-01  0.51100000000E-03 0.  1.
         11    1    4    4    0    0 -0.44107695868E-01  0.62415550337E-04  0.19202825602E-01  0.48109275224E-01  0.51100000000E-03 0. -1.
</event>
<event>
 8    1  0.1114333E+005  0.1043930E+01  0.7957747E-01            NaN
         13   -1    0    0    0    0  0.00000000000E+00  0.00000000000E+00  0.74505805969E-08  0.10566000000E+00  0.10566000000E+00 0. -1.
     999900   -1    0    0    0    0 -0.00000000000E+00 -0.00000000000E+00 -0.74505805969E-08  0.93827000000E+00  0.93827000000E+00 0. -1.
     999902    2    1    2    0    0  0.19599969920E-01 -0.26207999827E-02  0.12348285410E-01  0.10206167513E+01  0.10203504523E+01 0.  0.
     999903    2    3    3    0    0 -0.16973039115E-01  0.12022414775E+00 -0.41235115751E-01  0.12971852642E+00  0.19612026058E-01 0.  0.
         14    1    1    2    0    0 -0.19599969920E-01  0.26207999827E-02 -0.12348285410E-01  0.23313248722E-01  0.00000000000E+00 0.  1.
     999901    1    3    3    0    0  0.36573009035E-01 -0.12284494774E+00  0.53583401161E-01  0.89089822486E+00  0.88000000000E+00 0.  1.
        -11    1    4    4    0    0 -0.20149752022E-01  0.80988406712E-01 -0.24876199273E-01  0.87087432730E-01  0.51100000000E-03 0. -1.
         11    1    4    4    0    0  0.31767129070E-02  0.39235741040E-01 -0.16358916477E-01  0.42631093690E-01  0.51100000000E-03 0.  1.
</event>
<event>
 8    1  0.1114333E+005  0.1043930E+01  0.7957747E-01            NaN
         13   -1    0    0    0    0  0.00000000000E+00  0.00000000000E+00  0.74505805969E-08  0.10566000000E+00  0.10566000000E+00 0. -1.
     999900   -1    0    0    0    0 -0.00000000000E+00 -0.00000000000E+00 -0.74505805969E-08  0.93827000000E+00  0.93827000000E+00 0.  1.
     999902    2    1    2    0    0 -0.64878919786E-02  0.21055275353E-01  0.15343515290E-01  0.10170815210E+01  0.10167270920E+01 0.  0.
     999903    2    3    3    0    0 -0.25121932748E-01  0.93369007017E-01  0.86132625248E-01  0.13108626067E+00  0.20393519254E-01 0.  0.
         14    1    1    2    0    0  0.64878919786E-02 -0.21055275353E-01 -0.15343515290E-01  0.26848478988E-01  0.00000000000E+00 0.  1.
     999901    1    3    3    0    0  0.18634040770E-01 -0.72313731664E-01 -0.70789109958E-01  0.88599526034E+00  0.88000000000E+00 0.  1.
        -11    1    4    4    0    0 -0.92929304215E-02  0.69395258681E-01  0.58841304858E-01  0.91458300671E-01  0.51100000000E-03 0.  1.
         11    1    4    4    0    0 -0.15829002327E-01  0.23973748336E-01  0.27291320390E-01  0.39627959998E-01  0.51100000000E-03 0. -1.
</event>
<event>
 8    1  0.1114333E+005  0.1043930E+01  0.7957747E-01            NaN
         13   -1    0    0    0    0  0.00000000000E+00  0.00000000000E+00  0.74505805969E-08  0.10566000000E+00  0.10566000000E+00 0. -1.
     999900   -1    0    0    0    0 -0.00000000000E+00 -0.00000000000E+00 -0.74505805969E-08  0.93827000000E+00  0.93827000000E+00 0. -1.
     999902    2    1    2    0    0 -0.20829465173E-01 -0.86434139944E-02 -0.67749529543E-02  0.10203827027E+01  0.10201109668E+01 0.  0.
     999903    2    3    3    0    0  0.28528057718E-01  0.10681232222E+00 -0.64606221448E-01  0.12959055647E+00  0.19925516812E-01 0.  0.
         14    1    1    2    0    0  0.20829465173E-01  0.86434139944E-02  0.67749529543E-02  0.23547297348E-01  0.00000000000E+00 0. -1.
     999901    1    3    3    0    0 -0.49357522890E-01 -0.11545573621E+00  0.57831268494E-01  0.89079214619E+00  0.88000000000E+00 0.  1.
        -11    1    4    4    0    0  0.25705471683E-01  0.96707926129E-01 -0.50743152895E-01  0.11219769578E+00  0.51100000000E-03 0.  1.
         11    1    4    4    0    0  0.28225860349E-02  0.10104396091E-01 -0.13863068553E-01  0.17392860691E-01  0.51100000000E-03 0. -1.
</event>
<event>
 8    1  0.1114333E+005  0.1043930E+01  0.7957747E-01            NaN
         13   -1    0    0    0    0  0.00000000000E+00  0.00000000000E+00  0.74505805969E-08  0.10566000000E+00  0.10566000000E+00 0.  1.
     999900   -1    0    0    0    0 -0.00000000000E+00 -0.00000000000E+00 -0.74505805969E-08  0.93827000000E+00  0.93827000000E+00 0.  1.
     999902    2    1    2    0    0 -0.14939920300E-01 -0.15634933174E-01 -0.97188391002E-02  0.10202211791E+01  0.10199456584E+01 0.  0.
     999903    2    3    3    0    0  0.98650847974E-01  0.46221138979E-01 -0.66132856946E-01  0.12897958578E+00  0.19844275872E-01 0.  0.
         14    1    1    2    0    0  0.14939920300E-01  0.15634933174E-01  0.97188391002E-02  0.23708820877E-01  0.00000000000E+00 0. -1.
     999901    1    3    3    0    0 -0.11359076827E+00 -0.61856072153E-01  0.56414017846E-01  0.89124159335E+00  0.88000000000E+00 0. -1.
        -11    1    4    4    0    0  0.43052773078E-01  0.10839901363E-01 -0.32253303473E-01  0.54877877484E-01  0.51100000000E-03 0. -1.
         11    1    4    4    0    0  0.55598074897E-01  0.35381237616E-01 -0.33879553473E-01  0.74101708293E-01  0.51100000000E-03 0.  1.
</event>
<event>
 8    1  0.1114333E+005  0.1043930E+01  0.7957747E-01            NaN
         13   -1    0    0    0    0  0.00000000000E+00  0.00000000000E+00  0.74505805969E-08  0.10566000000E+00  0.10566000000E+00 0. -1.
     999900   -1    0    0    0    0 -0.00000000000E+00 -0.00000000000E+00 -0.74505805969E-08  0.93827000000E+00  0.93827000000E+00 0.  1.
     999902    2    1    2    0    0  0.22745621826E-01 -0.46755675008E-02 -0.65867245031E-02  0.10197927014E+01  0.10195070106E+01 0.  0.
     999903    2    3    3    0    0 -0.36688645276E-01  0.99693599023E-01  0.69590466570E-01  0.12837342886E+00  0.18762564367E-01 0.  0.
         14    1    1    2    0    0 -0.22745621826E-01  0.46755675008E-02  0.65867245031E-02  0.24137298593E-01  0.00000000000E+00 0. -1.
     999901    1    3    3    0    0  0.59434267102E-01 -0.10436916652E+00 -0.76177191073E-01  0.89141927255E+00  0.88000000000E+00 0.  1.
        -11    1    4    4    0    0 -0.17501936818E-01  0.72118836452E-01  0.49929662841E-01  0.89446501977E-01  0.51100000000E-03 0.  1.
         11    1    4    4    0    0 -0.19186708458E-01  0.27574762572E-01  0.19660803729E-01  0.38926926884E-01  0.51100000000E-03 0. -1.
</event>
<event>
 8    1  0.1114333E+005  0.1043930E+01  0.7957747E-01            NaN
         13   -1    0    0    0    0  0.00000000000E+00  0.00000000000E+00  0.74505805969E-08  0.10566000000E+00  0.10566000000E+00 0. -1.
     999900   -1    0    0    0    0 -0.00000000000E+00 -0.00000000000E+00 -0.74505805969E-08  0.93827000000E+00  0.93827000000E+00 0.  1.
     999902    2    1    2    0    0  0.16768870370E-02  0.48748609396E-02  0.22207571466E-01  0.10211319200E+01  0.10208773901E+01 0.  0.
     999903    2    3    3    0    0 -0.17992237649E-01  0.53278621888E-01  0.12045772917E+00  0.13412408917E+00  0.17800972244E-01 0.  0.
         14    1    1    2    0    0 -0.16768870370E-02 -0.48748609396E-02 -0.22207571466E-01  0.22798079957E-01  0.00000000000E+00 0.  1.
     999901    1    3    3    0    0  0.19669124686E-01 -0.48403760948E-01 -0.98250157706E-01  0.88700783087E+00  0.88000000000E+00 0.  1.
        -11    1    4    4    0    0 -0.14775096683E-01  0.53702106864E-01  0.11375063839E+00  0.12665578794E+00  0.51100000000E-03 0.  1.
         11    1    4    4    0    0 -0.32171409663E-02 -0.42348497555E-03  0.67070907805E-02  0.74683012299E-02  0.51100000000E-03 0. -1.
</event>
<event>
 8    1  0.1114333E+005  0.1043930E+01  0.7957747E-01            NaN
         13   -1    0    0    0    0  0.00000000000E+00  0.00000000000E+00  0.74505805969E-08  0.10566000000E+00  0.10566000000E+00 0.  1.
     999900   -1    0    0    0    0 -0.00000000000E+00 -0.00000000000E+00 -0.74505805969E-08  0.93827000000E+00  0.93827000000E+00 0. -1.
     999902    2    1    2    0    0 -0.42361890781E-03 -0.23818254618E-01 -0.56089058145E-02  0.10194565750E+01  0.10191627740E+01 0.  0.
     999903    2    3    3    0    0  0.64383666777E-01  0.16569904941E-01 -0.11005626235E+00  0.12999581815E+00  0.19149766529E-01 0.  0.
         14    1    1    2    0    0  0.42361890781E-03  0.23818254618E-01  0.56089058145E-02  0.24473424985E-01  0.00000000000E+00 0. -1.
     999901    1    3    3    0    0 -0.64807285685E-01 -0.40388159560E-01  0.10444735653E+00  0.88946075686E+00  0.88000000000E+00 0. -1.
        -11    1    4    4    0    0  0.73685856609E-02  0.26354816681E-02 -0.28201957662E-01  0.29272057584E-01  0.51100000000E-03 0.  1.
         11    1    4    4    0    0  0.57015081116E-01  0.13934423273E-01 -0.81854304686E-01  0.10072376057E+00  0.51100000000E-03 0. -1.
</event>
<event>
 8    1  0.1114333E+005  0.1043930E+01  0.7957747E-01            NaN
         13   -1    0    0    0    0  0.00000000000E+00  0.00000000000E+00  0.74505805969E-08  0.10566000000E+00  0.10566000000E+00 0.  1.
     999900   -1    0    0    0    0 -0.00000000000E+00 -0.00000000000E+00 -0.74505805969E-08  0.93827000000E+00  0.93827000000E+00 0.  1.
     999902    2    1    2    0    0  0.19308665151E-01 -0.89516501258E-02  0.11612095793E-01  0.10196854674E+01  0.10193972019E+01 0.  0.
     999903    2    3    3    0    0  0.91007987235E-01 -0.76425862316E-01  0.57526695120E-01  0.13300530384E+00  0.16053785476E-01 0.  0.
         14    1    1    2    0    0 -0.19308665151E-01  0.89516501258E-02 -0.11612095793E-01  0.24244532551E-01  0.00000000000E+00 0. -1.
     999901    1    3    3    0    0 -0.71699322084E-01  0.67474212190E-01 -0.45914599327E-01  0.88668016360E+00  0.88000000000E+00 0.  1.
        -11    1    4    4    0    0  0.55028631624E-01 -0.50042904336E-01  0.27881747035E-01  0.79436109619E-01  0.51100000000E-03 0. -1.
         11    1    4    4    0    0  0.35979355611E-01 -0.26382957980E-01  0.29644948086E-01  0.53569194226E-01  0.51100000000E-03 0.  1.
</event>
<event>
 8    1  0.1114333E+005  0.1043930E+01  0.7957747E-01            NaN
         13   -1    0    0    0    0  0.00000000000E+00  0.00000000000E+00  0.74505805969E-08  0.10566000000E+00  0.10566000000E+00 0. -1.
     999900   -1    0    0    0    0 -0.00000000000E+00 -0.00000000000E+00 -0.74505805969E-08  0.93827000000E+00  0.93827000000E+00 0.  1.
     999902    2    1    2    0    0 -0.67878527350E-02  0.91567884042E-02 -0.21548677687E-01  0.10195524031E+01  0.10192609261E+01 0.  0.
     999903    2    3    3    0    0  0.80665289077E-01  0.90718993011E-01  0.39612689423E-01  0.12936076194E+00  0.20693405028E-01 0.  0.
         14    1    1    2    0    0  0.67878527350E-02 -0.91567884042E-02  0.21548677687E-01  0.24377596861E-01  0.00000000000E+00 0. -1.
     999901    1    3    3    0    0 -0.87453141812E-01 -0.81562204607E-01 -0.61161367110E-01  0.89019164120E+00  0.88000000000E+00 0. -1.
        -11    1    4    4    0    0  0.33587043425E-01  0.29829665745E-01  0.58147603661E-02  0.45298686555E-01  0.51100000000E-03 0.  1.
         11    1    4    4    0    0  0.47078245653E-01  0.60889327266E-01  0.33797929057E-01  0.84062075386E-01  0.51100000000E-03 0. -1.
</event>
<event>
 8    1  0.1114333E+005  0.1043930E+01  0.7957747E-01            NaN
         13   -1    0    0    0    0  0.00000000000E+00  0.00000000000E+00  0.74505805969E-08  0.10566000000E+00  0.10566000000E+00 0.  1.
     999900   -1    0    0    0    0 -0.00000000000E+00 -0.00000000000E+00 -0.74505805969E-08  0.93827000000E+00  0.93827000000E+00 0.  1.
     999902    2    1    2    0    0 -0.39143233309E-02  0.21211247464E-01 -0.70846161788E-02  0.10212269004E+01  0.10209745106E+01 0.  0.
     999903    2    3    3    0    0  0.37393111480E-01  0.12675630976E+00 -0.10599459944E-01  0.13395105912E+00  0.19108397109E-01 0.  0.
         14    1    1    2    0    0  0.39143233309E-02 -0.21211247464E-01  0.70846161788E-02  0.22703099624E-01  0.00000000000E+00 0. -1.
     999901    1    3    3    0    0 -0.41307434811E-01 -0.10554506229E+00  0.35148437648E-02  0.88727584125E+00  0.88000000000E+00 0. -1.
        -11    1    4    4    0    0  0.10135592582E-01  0.58751142604E-01  0.17728529989E-02  0.59647557561E-01  0.51100000000E-03 0.  1.
         11    1    4    4    0    0  0.27257518898E-01  0.68005167151E-01 -0.12372312943E-01  0.74303501562E-01  0.51100000000E-03 0. -1.
</event>
<event>
 8    1  0.1114333E+005  0.1043930E+01  0.7957747E-01            NaN
         13   -1    0    0    0    0  0.00000000000E+00  0.00000000000E+00  0.74505805969E-08  0.10566000000E+00  0.10566000000E+00 0. -1.
     999900   -1    0    0    0    0 -0.00000000000E+00 -0.00000000000E+00 -0.74505805969E-08  0.93827000000E+00  0.93827000000E+00 0. -1.
     999902    2    1    2    0    0 -0.70464903018E-02  0.10083573263E-01 -0.19139021731E-01  0.10211784368E+01  0.10209249562E+01 0.  0.
     999903    2    3    3    0    0  0.63726041464E-01 -0.39968198663E-01 -0.10744265301E+00  0.13252132496E+00  0.18960817983E-01 0.  0.
         14    1    1    2    0    0  0.70464903018E-02 -0.10083573263E-01  0.19139021731E-01  0.22751563202E-01  0.00000000000E+00 0. -1.
     999901    1    3    3    0    0 -0.70772531766E-01  0.50051771926E-01  0.88303631277E-01  0.88865711184E+00  0.88000000000E+00 0.  1.
        -11    1    4    4    0    0  0.53814585096E-01 -0.29838645694E-01 -0.97149125879E-01  0.11499812227E+00  0.51100000000E-03 0.  1.
         11    1    4    4    0    0  0.99114563681E-02 -0.10129552969E-01 -0.10293527128E-01  0.17523202687E-01  0.51100000000E-03 0. -1.
</event>
<event>
 8    1  0.1114333E+005  0.1043930E+01  0.7957747E-01            NaN
         13   -1    0    0    0    0  0.00000000000E+00  0.00000000000E+00  0.74505805969E-08  0.10566000000E+00  0.10566000000E+00 0. -1.
     999900   -1    0    0    0    0 -0.00000000000E+00 -0.00000000000E+00 -0.74505805969E-08  0.93827000000E+00  0.93827000000E+00 0. -1.
     999902    2    1    2    0    0  0.22092722375E-01  0.97821729362E-02  0.29629138458E-03  0.10197666584E+01  0.10194803434E+01 0.  0.
     999903    2    3    3    0    0  0.18777824775E-01  0.12999037753E-01  0.12720286323E+00  0.13065102207E+00  0.19171318870E-01 0.  0.
         14    1    1    2    0    0 -0.22092722375E-01 -0.97821729362E-02 -0.29629138458E-03  0.24163341613E-01  0.00000000000E+00 0.  1.
     999901    1    3    3    0    0  0.33148975998E-02 -0.32168648172E-02 -0.12690657185E+00  0.88911563632E+00  0.88000000000E+00 0. -1.
        -11    1    4    4    0    0  0.94979296012E-02  0.17137051049E-01  0.87075071885E-01  0.89253674715E-01  0.51100000000E-03 0. -1.
         11    1    4    4    0    0  0.92798951742E-02 -0.41380132957E-02  0.40127791349E-01  0.41397347355E-01  0.51100000000E-03 0.  1.
</event>
<event>
 8    1  0.1114333E+005  0.1043930E+01  0.7957747E-01            NaN
         13   -1    0    0    0    0  0.00000000000E+00  0.00000000000E+00  0.74505805969E-08  0.10566000000E+00  0.10566000000E+00 0. -1.
     999900   -1    0    0    0    0 -0.00000000000E+00 -0.00000000000E+00 -0.74505805969E-08  0.93827000000E+00  0.93827000000E+00 0. -1.
     999902    2    1    2    0    0  0.48238936689E-02 -0.10252962114E-01 -0.18886944352E-01  0.10219047906E+01  0.10216674073E+01 0.  0.
     999903    2    3    3    0    0  0.53733835082E-01 -0.10621101872E+00  0.54102985515E-01  0.13233879481E+00  0.20452824733E-01 0.  0.
         14    1    1    2    0    0 -0.48238936689E-02  0.10252962114E-01  0.18886944352E-01  0.22025209402E-01  0.00000000000E+00 0. -1.
     999901    1    3    3    0    0 -0.48909941413E-01  0.95958056611E-01 -0.72989929866E-01  0.88956599579E+00  0.88000000000E+00 0. -1.
        -11    1    4    4    0    0  0.42493152338E-01 -0.69751272069E-01  0.44411230038E-01  0.92970567522E-01  0.51100000000E-03 0.  1.
         11    1    4    4    0    0  0.11240682744E-01 -0.36459746656E-01  0.96917554765E-02  0.39368227290E-01  0.51100000000E-03 0. -1.
</event>
<event>
 8    1  0.1114333E+005  0.1043930E+01  0.7957747E-01            NaN
         13   -1    0    0    0    0  0.00000000000E+00  0.00000000000E+00  0.74505805969E-08  0.10566000000E+00  0.10566000000E+00 0.  1.
     999900   -1    0    0    0    0 -0.00000000000E+00 -0.00000000000E+00 -0.74505805969E-08  0.93827000000E+00  0.93827000000E+00 0.  1.
     999902    2    1    2    0    0 -0.23977087589E-01 -0.22476235347E-02 -0.37349951082E-02  0.10195598804E+01  0.10192685843E+01 0.  0.
     999903    2    3    3    0    0 -0.11493932020E+00 -0.34137842960E-01 -0.54023995966E-01  0.13286934957E+00  0.18953423612E-01 0.  0.
         14    1    1    2    0    0  0.23977087589E-01  0.22476235347E-02  0.37349951082E-02  0.24370119599E-01  0.00000000000E+00 0.  1.
     999901    1    3    3    0    0  0.90962232606E-01  0.31890219425E-01  0.50289000857E-01  0.88669053083E+00  0.88000000000E+00 0. -1.
        -11    1    4    4    0    0 -0.52355465815E-01 -0.23749245959E-01 -0.19947972451E-01  0.60854779683E-01  0.51100000000E-03 0. -1.
         11    1    4    4    0    0 -0.62583854380E-01 -0.10388597001E-01 -0.34076023514E-01  0.72014569889E-01  0.51100000000E-03 0.  1.
</event>
<event>
 8    1  0.1114333E+005  0.1043930E+01  0.7957747E-01            NaN
         13   -1    0    0    0    0  0.00000000000E+00  0.00000000000E+00  0.74505805969E-08  0.10566000000E+00  0.10566000000E+00 0.  1.
     999900   -1    0    0    0    0 -0.00000000000E+00 -0.00000000000E+00 -0.74505805969E-08  0.93827000000E+00  0.93827000000E+00 0.  1.
     999902    2    1    2    0    0  0.12338516302E-01 -0.19954877362E-01  0.34246536387E-03  0.10204661257E+01  0.10201963342E+01 0.  0.
     999903    2    3    3    0    0 -0.34826654082E-01 -0.90340390466E-01 -0.85527986053E-01  0.13223619590E+00  0.28232837679E-01 0.  0.
         14    1    1    2    0    0 -0.12338516302E-01  0.19954877362E-01 -0.34246536387E-03  0.23463874309E-01  0.00000000000E+00 0.  1.
     999901    1    3    3    0    0  0.47165170384E-01  0.70385513104E-01  0.85870451417E-01  0.88822992979E+00  0.88000000000E+00 0. -1.
        -11    1    4    4    0    0 -0.35537586247E-01 -0.66933616922E-01 -0.54437678043E-01  0.93309972792E-01  0.51100000000E-03 0.  1.
         11    1    4    4    0    0  0.71093216508E-03 -0.23406773544E-01 -0.31090308009E-01  0.38926223107E-01  0.51100000000E-03 0. -1.
</event>
<event>
 8    1  0.1114333E+005  0.1043930E+01  0.7957747E-01            NaN
         13   -1    0    0    0    0  0.00000000000E+00  0.00000000000E+00  0.74505805969E-08  0.10566000000E+00  0.10566000000E+00 0. -1.
     999900   -1    0    0    0    0 -0.00000000000E+00 -0.00000000000E+00 -0.74505805969E-08  0.93827000000E+00  0.93827000000E+00 0.  1.
     999902    2    1    2    0    0 -0.12920086586E-01  0.58417049107E-03  0.18862491771E-01  0.10210594187E+01  0.10208032489E+01 0.  0.
     999903    2    3    3    0    0  0.96721254082E-01  0.44840507975E-01  0.74507423124E-01  0.13140993415E+00  0.18749467923E-01 0.  0.
         14    1    1    2    0    0  0.12920086586E-01 -0.58417049107E-03 -0.18862491771E-01  0.22870581286E-01  0.00000000000E+00 0.  1.
     999901    1    3    3    0    0 -0.10964134067E+00 -0.44256337484E-01 -0.55644931353E-01  0.88964948456E+00  0.88000000000E+00 0.  1.
        -11    1    4    4    0    0  0.31981804146E-01  0.15109204815E-01  0.35811026055E-01  0.50337009990E-01  0.51100000000E-03 0. -1.
         11    1    4    4    0    0  0.64739449936E-01  0.29731303160E-01  0.38696397068E-01  0.81072924165E-01  0.51100000000E-03 0.  1.
</event>
<event>
 8    1  0.1114333E+005  0.1043930E+01  0.7957747E-01            NaN
         13   -1    0    0    0    0  0.00000000000E+00  0.00000000000E+00  0.74505805969E-08  0.10566000000E+00  0.10566000000E+00 0. -1.
     999900   -1    0    0    0    0 -0.00000000000E+00 -0.00000000000E+00 -0.74505805969E-08  0.93827000000E+00  0.93827000000E+00 0.  1.
     999902    2    1    2    0    0  0.21919212706E-02 -0.22174223056E-01  0.80879393415E-02  0.10202252442E+01  0.10199498190E+01 0.  0.
     999903    2    3    3    0    0  0.60176695082E-01 -0.11686777268E+00 -0.58597205630E-02  0.13313807845E+00  0.20300263217E-01 0.  0.
         14    1    1    2    0    0 -0.21919212706E-02  0.22174223056E-01 -0.80879393415E-02  0.23704755847E-01  0.00000000000E+00 0.  1.
     999901    1    3    3    0    0 -0.57984773811E-01  0.94693549624E-01  0.13947659905E-01  0.88708716570E+00  0.88000000000E+00 0.  1.
        -11    1    4    4    0    0  0.20822320801E-01 -0.29742193424E-01  0.59997311788E-02  0.36802513616E-01  0.51100000000E-03 0. -1.
         11    1    4    4    0    0  0.39354374280E-01 -0.87125579256E-01 -0.11859451742E-01  0.96335564836E-01  0.51100000000E-03 0.  1.
</event>
<event>
 8    1  0.1114333E+005  0.1043930E+01  0.7957747E-01            NaN
         13   -1    0    0    0    0  0.00000000000E+00  0.00000000000E+00  0.74505805969E-08  0.10566000000E+00  0.10566000000E+00 0.  1.
     999900   -1    0    0    0    0 -0.00000000000E+00 -0.00000000000E+00 -0.74505805969E-08  0.93827000000E+00  0.93827000000E+00 0. -1.
     999902    2    1    2    0    0 -0.92915202488E-02 -0.19370637960E-01 -0.74519153166E-02  0.10211904968E+01  0.10209372879E+01 0.  0.
     999903    2    3    3    0    0  0.60503379869E-01  0.45473051413E-01  0.10260119989E+00  0.12923325551E+00  0.21113283264E-01 0.  0.
         14    1    1    2    0    0  0.92915202488E-02  0.19370637960E-01  0.74519153166E-02  0.22739503191E-01  0.00000000000E+00 0.  1.
     999901    1    3    3    0    0 -0.69794900118E-01 -0.64843689373E-01 -0.11005311521E+00  0.89195724130E+00  0.88000000000E+00 0. -1.
        -11    1    4    4    0    0  0.22976452767E-01  0.24085565705E-01  0.59686053063E-01  0.68342650727E-01  0.51100000000E-03 0. -1.
         11    1    4    4    0    0  0.37526927102E-01  0.21387485708E-01  0.42915146831E-01  0.60890604786E-01  0.51100000000E-03 0.  1.
</event>
<event>
 8    1  0.1114333E+005  0.1043930E+01  0.7957747E-01            NaN
         13   -1    0    0    0    0  0.00000000000E+00  0.00000000000E+00  0.74505805969E-08  0.10566000000E+00  0.10566000000E+00 0. -1.
     999900   -1    0    0    0    0 -0.00000000000E+00 -0.00000000000E+00 -0.74505805969E-08  0.93827000000E+00  0.93827000000E+00 0.  1.
     999902    2    1    2    0    0 -0.85118145005E-02  0.23482887262E-01  0.38014929674E-03  0.10189491775E+01  0.10186429133E+01 0.  0.
     999903    2    3    3    0    0 -0.37297684983E-01 -0.64632587664E-01 -0.10219193797E+00  0.12815515171E+00  0.20299311075E-01 0.  0.
         14    1    1    2    0    0  0.85118145005E-02 -0.23482887262E-01 -0.38014929674E-03  0.24980822519E-01  0.00000000000E+00 0.  1.
     999901    1    3    3    0    0  0.28785870482E-01  0.88115474925E-01  0.10257208727E+00  0.89079402577E+00  0.88000000000E+00 0. -1.
        -11    1    4    4    0    0 -0.99796093035E-02 -0.34763417428E-01 -0.39795611275E-01  0.53777686738E-01  0.51100000000E-03 0.  1.
         11    1    4    4    0    0 -0.27318075679E-01 -0.29869170236E-01 -0.62396326698E-01  0.74377464973E-01  0.51100000000E-03 0. -1.
</event>
<event>
 8    1  0.1114333E+005  0.1043930E+01  0.7957747E-01            NaN
         13   -1    0    0    0    0  0.00000000000E+00  0.00000000000E+00  0.74505805969E-08  0.10566000000E+00  0.10566000000E+00 0.  1.
     999900   -1    0    0    0    0 -0.00000000000E+00 -0.00000000000E+00 -0.74505805969E-08  0.93827000000E+00  0.93827000000E+00 0.  1.
     999902    2    1    2    0    0  0.19634960285E-01  0.93154113247E-02  0.84802219704E-02  0.10206014184E+01  0.10203347650E+01 0.  0.
     999903    2    3    3    0    0  0.10044299612E+00  0.61354689740E-01 -0.58067733588E-01  0.13287023415E+00  0.20723031032E-01 0.  0.
         14    1    1    2    0    0 -0.19634960285E-01 -0.93154113247E-02 -0.84802219704E-02  0.23328581573E-01  0.00000000000E+00 0. -1.
     999901    1    3    3    0    0 -0.80808035838E-01 -0.52039278415E-01  0.66547955558E-01  0.88773118428E+00  0.88000000000E+00 0. -1.
        -11    1    4    4    0    0  0.50922674193E-01  0.19570009974E-01 -0.29954321070E-01  0.62238464868E-01  0.51100000000E-03 0. -1.
         11    1    4    4    0    0  0.49520321930E-01  0.41784679766E-01 -0.28113412518E-01  0.70631769280E-01  0.51100000000E-03 0.  1.
</event>
<event>
 8    1  0.1114333E+005  0.1043930E+01  0.7957747E-01            NaN
         13   -1    0    0    0    0  0.00000000000E+00  0.00000000000E+00  0.74505805969E-08  0.10566000000E+00  0.10566000000E+00 0. -1.
     999900   -1    0    0    0    0 -0.00000000000E+00 -0.00000000000E+00 -0.74505805969E-08  0.93827000000E+00  0.93827000000E+00 0.  1.
     999902    2    1    2    0    0  0.65613171349E-02 -0.15243134107E-01  0.17864217470E-01  0.10195469262E+01  0.10192553167E+01 0.  0.
     999903    2    3    3    0    0  0.80461255631E-01  0.90860057094E-01  0.41422318650E-01  0.12978624369E+00  0.19977410633E-01 0.  0.
         14    1    1    2    0    0 -0.65613171349E-02  0.15243134107E-01 -0.17864217470E-01  0.24383073755E-01  0.00000000000E+00 0.  1.
     999901    1    3    3    0    0 -0.73899938496E-01 -0.10610319120E+00 -0.23558101180E-01  0.88976068256E+00  0.88000000000E+00 0.  1.
        -11    1    4    4    0    0  0.50466795859E-01  0.42625852579E-01  0.19236336890E-01  0.68805221970E-01  0.51100000000E-03 0.  1.
         11    1    4    4    0    0  0.29994459772E-01  0.48234204515E-01  0.22185981759E-01  0.60981021718E-01  0.51100000000E-03 0. -1.
</event>
<event>
 8    1  0.1114333E+005  0.1043930E+01  0.7957747E-01            NaN
         13   -1    0    0    0    0  0.00000000000E+00  0.00000000000E+00  0.74505805969E-08  0.10566000000E+00  0.10566000000E+00 0. -1.
     999900   -1    0    0    0    0 -0.00000000000E+00 -0.00000000000E+00 -0.74505805969E-08  0.93827000000E+00  0.93827000000E+00 0.  1.
     999902    2    1    2    0    0  0.78327200448E-03 -0.88623708828E-02  0.21596614834E-01  0.10205725835E+01  0.10203052628E+01 0.  0.
     999903    2    3    3    0    0 -0.99056503512E-01 -0.72694413680E-01 -0.39451051861E-01  0.13053363601E+00  0.19646271115E-01 0.  0.
         14    1    1    2    0    0 -0.78327200448E-03  0.88623708828E-02 -0.21596614834E-01  0.23357416488E-01  0.00000000000E+00 0.  1.
     999901    1    3    3    0    0  0.99839775516E-01  0.63832042797E-01  0.61047666695E-01  0.89003894750E+00  0.88000000000E+00 0. -1.
        -11    1    4    4    0    0 -0.88990412390E-01 -0.60339810320E-01 -0.28636583692E-01  0.11126770085E+00  0.51100000000E-03 0.  1.
         11    1    4    4    0    0 -0.10066091122E-01 -0.12354603360E-01 -0.10814468168E-01  0.19265935155E-01  0.51100000000E-03 0. -1.
</event>
<event>
 8    1  0.1114333E+005  0.1043930E+01  0.7957747E-01            NaN
         13   -1    0    0    0    0  0.00000000000E+00  0.00000000000E+00  0.74505805969E-08  0.10566000000E+00  0.10566000000E+00 0. -1.
     999900   -1    0    0    0    0 -0.00000000000E+00 -0.00000000000E+00 -0.74505805969E-08  0.93827000000E+00  0.93827000000E+00 0.  1.
     999902    2    1    2    0    0  0.17597645971E-02 -0.23473882258E-01  0.41040984951E-03  0.10203866707E+01  0.10201150275E+01 0.  0.
     999903    2    3    3    0    0  0.12328533417E-01 -0.48646420714E-01 -0.11966825233E+00  0.13181239652E+00  0.23141959247E-01 0.  0.
         14    1    1    2    0    0 -0.17597645971E-02  0.23473882258E-01 -0.41040984951E-03  0.23543329330E-01  0.00000000000E+00 0. -1.
     999901    1    3    3    0    0 -0.10568768820E-01  0.25172538456E-01  0.12007866218E+00  0.88857427415E+00  0.88000000000E+00 0. -1.
        -11    1    4    4    0    0  0.16009250715E-01 -0.33741580465E-01 -0.64382029196E-01  0.74431828979E-01  0.51100000000E-03 0.  1.
         11    1    4    4    0    0 -0.36807172976E-02 -0.14904840248E-01 -0.55286223130E-01  0.57380567544E-01  0.51100000000E-03 0. -1.
</event>
<event>
 8    1  0.1114333E+005  0.1043930E+01  0.7957747E-01            NaN
         13   -1    0    0    0    0  0.00000000000E+00  0.00000000000E+00  0.74505805969E-08  0.10566000000E+00  0.10566000000E+00 0. -1.
     999900   -1    0    0    0    0 -0.00000000000E+00 -0.00000000000E+00 -0.74505805969E-08  0.93827000000E+00  0.93827000000E+00 0.  1.
     999902    2    1    2    0    0  0.98522508510E-02  0.71135539581E-02  0.19902235871E-01  0.10206111559E+01  0.10203447276E+01 0.  0.
     999903    2    3    3    0    0 -0.66280035898E-01  0.85614239917E-01 -0.68774522917E-01  0.12941979020E+00  0.17225151875E-01 0.  0.
         14    1    1    2    0    0 -0.98522508510E-02 -0.71135539581E-02 -0.19902235871E-01  0.23318844084E-01  0.00000000000E+00 0.  1.
     999901    1    3    3    0    0  0.76132286749E-01 -0.78500685959E-01  0.88676758788E-01  0.89119136572E+00  0.88000000000E+00 0.  1.
        -11    1    4    4    0    0 -0.40011604887E-01  0.38003508478E-01 -0.36936569307E-01  0.66406072428E-01  0.51100000000E-03 0.  1.
         11    1    4    4    0    0 -0.26268431011E-01  0.47610731440E-01 -0.31837953610E-01  0.63013717769E-01  0.51100000000E-03 0. -1.
</event>
<event>
 8    1  0.1114333E+005  0.1043930E+01  0.7957747E-01            NaN
         13   -1    0    0    0    0  0.00000000000E+00  0.00000000000E+00  0.74505805969E-08  0.10566000000E+00  0.10566000000E+00 0. -1.
     999900   -1    0    0    0    0 -0.00000000000E+00 -0.00000000000E+00 -0.74505805969E-08  0.93827000000E+00  0.93827000000E+00 0. -1.
     999902    2    1    2    0    0  0.23407431342E-02  0.21587243898E-01  0.12933850870E-01  0.10186560475E+01  0.10183424622E+01 0.  0.
     999903    2    3    3    0    0  0.94087705968E-01  0.56305584225E-01 -0.66278536371E-01  0.12966928119E+00  0.19961534821E-01 0.  0.
         14    1    1    2    0    0 -0.23407431342E-02 -0.21587243898E-01 -0.12933850870E-01  0.25273952518E-01  0.00000000000E+00 0.  1.
     999901    1    3    3    0    0 -0.91746962834E-01 -0.34718340326E-01  0.79212387241E-01  0.88898676629E+00  0.88000000000E+00 0.  1.
        -11    1    4    4    0    0  0.39894872326E-01  0.21185274396E-01 -0.38555832570E-01  0.59390487751E-01  0.51100000000E-03 0. -1.
         11    1    4    4    0    0  0.54192833643E-01  0.35120309829E-01 -0.27722703801E-01  0.70278793443E-01  0.51100000000E-03 0.  1.
</event>
<event>
 8    1  0.1559499E+005  0.1043930E+01  0.7957747E-01            NaN
         13   -1    0    0    0    0  0.00000000000E+00  0.00000000000E+00  0.74505805969E-08  0.10566000000E+00  0.10566000000E+00 0.  1.
     999900   -1    0    0    0    0 -0.00000000000E+00 -0.00000000000E+00 -0.74505805969E-08  0.93827000000E+00  0.93827000000E+00 0.  1.
     999902    2    1    2    0    0  0.24330003095E-01  0.10050670998E-02  0.41154568874E-02  0.10192339235E+01  0.10189346861E+01 0.  0.
     999903    2    3    3    0    0 -0.49322557584E-01 -0.94267379792E-01 -0.67227301379E-01  0.12817201317E+00  0.24279648482E-01 0.  0.
         14    1    1    2    0    0 -0.24330003095E-01 -0.10050670998E-02 -0.41154568874E-02  0.24696076528E-01  0.00000000000E+00 0. -1.
     999901    1    3    3    0    0  0.73652560679E-01  0.95272446891E-01  0.71342758266E-01  0.89106191030E+00  0.88000000000E+00 0. -1.
        -11    1    4    4    0    0 -0.28205924899E-01 -0.38091551143E-01 -0.18563547398E-01  0.50905862932E-01  0.51100000000E-03 0. -1.
         11    1    4    4    0    0 -0.21116632685E-01 -0.56175828648E-01 -0.48663753981E-01  0.77266150239E-01  0.51100000000E-03 0.  1.
</event>
<event>
 7    1  0.1114333E+005  0.1043930E+01  0.7957747E-01            NaN
         13   -1    0    0    0    0  0.00000000000E+00  0.00000000000E+00  0.74505805969E-08  0.10566000000E+00  0.10566000000E+00 0. -1.
     999900   -1    0    0    0    0 -0.00000000000E+00 -0.00000000000E+00 -0.74505805969E-08  0.93827000000E+00  0.93827000000E+00 0.  1.
     999903    2    1    2    0    0 -0.67087801591E-01 -0.51150329387E-01  0.28308542086E-01  0.91229175568E-01  0.20106208024E-01 0.  0.
         14    1    1    2    0    0 -0.54047386381E-02 -0.34385261849E-02  0.63008856517E-01  0.63333645574E-01  0.00000000000E+00 0. -1.
     999901    1    1    2    0    0  0.72492540229E-01  0.54588855572E-01 -0.91317398604E-01  0.88936717886E+00  0.88000000000E+00 0.  1.
        -11    1    3    3    0    0 -0.18251141983E-01 -0.20227182653E-01  0.92333959595E-03  0.27264570027E-01  0.51100000000E-03 0.  1.
         11    1    3    3    0    0 -0.48836659608E-01 -0.30923146735E-01  0.27385202490E-01  0.63964605541E-01  0.51100000000E-03 0. -1.
</event>
<event>
 8    1  0.1114333E+005  0.1043930E+01  0.7957747E-01            NaN
         13   -1    0    0    0    0  0.00000000000E+00  0.00000000000E+00  0.74505805969E-08  0.10566000000E+00  0.10566000000E+00 0. -1.
     999900   -1    0    0    0    0 -0.00000000000E+00 -0.00000000000E+00 -0.74505805969E-08  0.93827000000E+00  0.93827000000E+00 0.  1.
     999902    2    1    2    0    0 -0.55757874775E-02  0.22675739715E-01  0.23473022207E-02  0.10204611184E+01  0.10201912104E+01 0.  0.
     999903    2    3    3    0    0 -0.98409497954E-02  0.10466475218E+00  0.79481884781E-01  0.13328011451E+00  0.19866158987E-01 0.  0.
         14    1    1    2    0    0  0.55757874775E-02 -0.22675739715E-01 -0.23473022207E-02  0.23468881638E-01  0.00000000000E+00 0. -1.
     999901    1    3    3    0    0  0.42651623179E-02 -0.81989012465E-01 -0.77134582560E-01  0.88718100386E+00  0.88000000000E+00 0.  1.
        -11    1    4    4    0    0 -0.49521728228E-03  0.86862036252E-01  0.63864019069E-01  0.10781527088E+00  0.51100000000E-03 0. -1.
         11    1    4    4    0    0 -0.93457325131E-02  0.17802715928E-01  0.15617865712E-01  0.25464843628E-01  0.51100000000E-03 0.  1.
</event>
<event>
 8    1  0.1114333E+005  0.1043930E+01  0.7957747E-01            NaN
         13   -1    0    0    0    0  0.00000000000E+00  0.00000000000E+00  0.74505805969E-08  0.10566000000E+00  0.10566000000E+00 0.  1.
     999900   -1    0    0    0    0 -0.00000000000E+00 -0.00000000000E+00 -0.74505805969E-08  0.93827000000E+00  0.93827000000E+00 0. -1.
     999902    2    1    2    0    0 -0.99640011618E-02  0.12287460944E-01  0.85683784529E-02  0.10259388876E+01  0.10257811272E+01 0.  0.
     999903    2    3    3    0    0  0.12381616406E-01  0.12046252529E+00  0.58026184481E-01  0.13765557372E+00  0.30290171086E-01 0.  0.
         14    1    1    2    0    0  0.99640011618E-02 -0.12287460944E-01 -0.85683784529E-02  0.17991112386E-01  0.00000000000E+00 0. -1.
     999901    1    3    3    0    0 -0.22345617568E-01 -0.10817506435E+00 -0.49457806028E-01  0.88828331390E+00  0.88000000000E+00 0. -1.
        -11    1    4    4    0    0  0.18110131284E-02  0.10412720414E+00  0.41450098615E-01  0.11208981313E+00  0.51100000000E-03 0.  1.
         11    1    4    4    0    0  0.10570603277E-01  0.16335321155E-01  0.16576085866E-01  0.25565760589E-01  0.51100000000E-03 0. -1.
</event>
<event>
 8    1  0.1114333E+005  0.1043930E+01  0.7957747E-01            NaN
         13   -1    0    0    0    0  0.00000000000E+00  0.00000000000E+00  0.74505805969E-08  0.10566000000E+00  0.10566000000E+00 0. -1.
     999900   -1    0    0    0    0 -0.00000000000E+00 -0.00000000000E+00 -0.74505805969E-08  0.93827000000E+00  0.93827000000E+00 0.  1.
     999902    2    1    2    0    0 -0.79025109774E-02 -0.10203353561E-01 -0.19874494858E-01  0.10202328768E+01  0.10199576311E+01 0.  0.
     999903    2    3    3    0    0 -0.79480953189E-01 -0.79558429447E-02 -0.10507058850E+00  0.13322278716E+00  0.18109806591E-01 0.  0.
         14    1    1    2    0    0  0.79025109774E-02  0.10203353561E-01  0.19874494858E-01  0.23697123233E-01  0.00000000000E+00 0. -1.
     999901    1    3    3    0    0  0.71578442212E-01 -0.22475106166E-02  0.85196093639E-01  0.88701008961E+00  0.88000000000E+00 0. -1.
        -11    1    4    4    0    0 -0.34776285221E-01 -0.12223167328E-01 -0.51104189490E-01  0.63013452038E-01  0.51100000000E-03 0. -1.
         11    1    4    4    0    0 -0.44704667968E-01  0.42673243831E-02 -0.53966399007E-01  0.70209335122E-01  0.51100000000E-03 0.  1.
</event>
<event>
 8    1  0.1128146E+005  0.1043930E+01  0.7957747E-01            NaN
         13   -1    0    0    0    0  0.00000000000E+00  0.00000000000E+00  0.74505805969E-08  0.10566000000E+00  0.10566000000E+00 0.  1.
     999900   -1    0    0    0    0 -0.00000000000E+00 -0.00000000000E+00 -0.74505805969E-08  0.93827000000E+00  0.93827000000E+00 0. -1.
     999902    2    1    2    0    0 -0.20256137831E-02 -0.22726723758E-01  0.71246962587E-02  0.10200266868E+01  0.10197465732E+01 0.  0.
     999903    2    3    3    0    0 -0.11567214301E-01 -0.13093373889E+00 -0.79547929092E-02  0.13321938461E+00  0.20166340295E-01 0.  0.
         14    1    1    2    0    0  0.20256137831E-02  0.22726723758E-01 -0.71246962587E-02  0.23903313175E-01  0.00000000000E+00 0.  1.
     999901    1    3    3    0    0  0.95416005183E-02  0.10820701513E+00  0.15079489168E-01  0.88680730221E+00  0.88000000000E+00 0.  1.
        -11    1    4    4    0    0  0.41521652429E-02 -0.61833440339E-01 -0.67036705781E-03  0.61978426354E-01  0.51100000000E-03 0.  1.
         11    1    4    4    0    0 -0.15719379544E-01 -0.69100298547E-01 -0.72844258514E-02  0.71240958258E-01  0.51100000000E-03 0. -1.
</event>
<event>
 7    1  0.1114333E+005  0.1043930E+01  0.7957747E-01            NaN
         13   -1    0    0    0    0  0.00000000000E+00  0.00000000000E+00  0.74505805969E-08  0.10566000000E+00  0.10566000000E+00 0.  1.
     999900   -1    0    0    0    0 -0.00000000000E+00 -0.00000000000E+00 -0.74505805969E-08  0.93827000000E+00  0.93827000000E+00 0.  1.
     999902    2    1    2    0    0  0.24487852533E-02  0.72234870603E-02  0.19739690630E-01  0.10227679892E+01  0.10225490350E+01 0.  0.
         14    1    1    2    0    0 -0.24487852533E-02 -0.72234870603E-02 -0.19739690630E-01  0.21162010791E-01  0.00000000000E+00 0. -1.
     999901    1    3    3    0    0 -0.11055251827E+00  0.45061778977E-01 -0.26547754291E-01  0.88845776854E+00  0.88000000000E+00 0.  1.
        -11    1    3    3    0    0  0.79544979943E-01 -0.20754857521E-01  0.11318431091E-01  0.82985154987E-01  0.51100000000E-03 0.  1.
         11    1    3    3    0    0  0.33456323578E-01 -0.17083434396E-01  0.34969013830E-01  0.51325065683E-01  0.51100000000E-03 0. -1.
</event>
<event>
 8    1  0.1114333E+005  0.1043930E+01  0.7957747E-01            NaN
         13   -1    0    0    0    0  0.00000000000E+00  0.00000000000E+00  0.74505805969E-08  0.10566000000E+00  0.10566000000E+00 0. -1.
     999900   -1    0    0    0    0 -0.00000000000E+00 -0.00000000000E+00 -0.74505805969E-08  0.93827000000E+00  0.93827000000E+00 0. -1.
     999902    2    1    2    0    0 -0.18349101288E-01 -0.12614387123E-01 -0.68509209563E-02  0.10206330603E+01  0.10203671381E+01 0.  0.
     999903    2    3    3    0    0 -0.21343568604E-01 -0.95536440205E-01 -0.87841605028E-01  0.13302699644E+00  0.19931755594E-01 0.  0.
         14    1    1    2    0    0  0.18349101288E-01  0.12614387123E-01  0.68509209563E-02  0.23296939682E-01  0.00000000000E+00 0.  1.
     999901    1    3    3    0    0  0.29944673158E-02  0.82922053081E-01  0.80990684072E-01  0.88760606388E+00  0.88000000000E+00 0.  1.
        -11    1    4    4    0    0 -0.15267767705E-02 -0.26123180624E-01 -0.13679099898E-01  0.29531855822E-01  0.51100000000E-03 0. -1.
         11    1    4    4    0    0 -0.19816791833E-01 -0.69413259580E-01 -0.74162505130E-01  0.10349514062E+00  0.51100000000E-03 0.  1.
</event>
<event>
 8    1  0.1114333E+005  0.1043930E+01  0.7957747E-01            NaN
         13   -1    0    0    0    0  0.00000000000E+00  0.00000000000E+00  0.74505805969E-08  0.10566000000E+00  0.10566000000E+00 0. -1.
     999900   -1    0    0    0    0 -0.00000000000E+00 -0.00000000000E+00 -0.74505805969E-08  0.93827000000E+00  0.93827000000E+00 0. -1.
     999902    2    1    2    0    0 -0.17403681596E-01 -0.42423458427E-02  0.15495704441E-01  0.10202445089E+01  0.10199695366E+01 0.  0.
     999903    2    3    3    0    0  0.55041634382E-01  0.11452743141E+00 -0.11249353167E-01  0.12891410896E+00  0.18606060341E-01 0.  0.
         14    1    1    2    0    0  0.17403681596E-01  0.42423458427E-02 -0.15495704441E-01  0.23685491075E-01  0.00000000000E+00 0.  1.
     999901    1    3    3    0    0 -0.72445315978E-01 -0.11876977725E+00  0.26745057608E-01  0.89133039997E+00  0.88000000000E+00 0.  1.
        -11    1    4    4    0    0  0.11946552921E-01  0.37544153684E-01  0.31186296017E-02  0.39525568612E-01  0.51100000000E-03 0. -1.
         11    1    4    4    0    0  0.43095081462E-01  0.76983277726E-01 -0.14367982769E-01  0.89388540347E-01  0.51100000000E-03 0.  1.
</event>
<event>
 8    1  0.1114333E+005  0.1043930E+01  0.7957747E-01            NaN
         13   -1    0    0    0    0  0.00000000000E+00  0.00000000000E+00  0.74505805969E-08  0.10566000000E+00  0.10566000000E+00 0. -1.
     999900   -1    0    0    0    0 -0.00000000000E+00 -0.00000000000E+00 -0.74505805969E-08  0.93827000000E+00  0.93827000000E+00 0.  1.
     999902    2    1    2    0    0 -0.20017974174E-01 -0.41216408938E-02 -0.12674659812E-01  0.10198810039E+01  0.10195974244E+01 0.  0.
     999903    2    3    3    0    0  0.29180466579E-01 -0.10288171075E+00 -0.73593060174E-01  0.13090120124E+00  0.16823791020E-01 0.  0.
         14    1    1    2    0    0  0.20017974174E-01  0.41216408938E-02  0.12674659812E-01  0.24048996133E-01  0.00000000000E+00 0. -1.
     999901    1    3    3    0    0 -0.49198440752E-01  0.98760069857E-01  0.60918400362E-01  0.88897980262E+00  0.88000000000E+00 0.  1.
        -11    1    4    4    0    0  0.24203017537E-01 -0.66009205467E-01 -0.55226374706E-01  0.89404780903E-01  0.51100000000E-03 0. -1.
         11    1    4    4    0    0  0.49774490412E-02 -0.36872505284E-01 -0.18366685468E-01  0.41496420340E-01  0.51100000000E-03 0.  1.
</event>
<event>
 8    1  0.1114333E+005  0.1043930E+01  0.7957747E-01            NaN
         13   -1    0    0    0    0  0.00000000000E+00  0.00000000000E+00  0.74505805969E-08  0.10566000000E+00  0.10566000000E+00 0. -1.
     999900   -1    0    0    0    0 -0.00000000000E+00 -0.00000000000E+00 -0.74505805969E-08  0.93827000000E+00  0.93827000000E+00 0.  1.
     999902    2    1    2    0    0 -0.13932377858E-01 -0.16941981210E-01 -0.87237606697E-02  0.10203239440E+01  0.10200508344E+01 0.  0.
     999903    2    3    3    0    0  0.11878897812E+00  0.19497851114E-01 -0.42226247382E-01  0.12899615001E+00  0.19130165408E-01 0.  0.
         14    1    1    2    0    0  0.13932377858E-01  0.16941981210E-01  0.87237606697E-02  0.23606056009E-01  0.00000000000E+00 0. -1.
     999901    1    3    3    0    0 -0.13272135598E+00 -0.36439832324E-01  0.33502486712E-01  0.89132779398E+00  0.88000000000E+00 0.  1.
        -11    1    4    4    0    0  0.34190989824E-01  0.86175291826E-02 -0.38803939243E-02  0.35476811756E-01  0.51100000000E-03 0.  1.
         11    1    4    4    0    0  0.84597988294E-01  0.10880321932E-01 -0.38345853457E-01  0.93519338252E-01  0.51100000000E-03 0. -1.
</event>
<event>
 8    1  0.1114333E+005  0.1043930E+01  0.7957747E-01            NaN
         13   -1    0    0    0    0  0.00000000000E+00  0.00000000000E+00  0.74505805969E-08  0.10566000000E+00  0.10566000000E+00 0. -1.
     999900   -1    0    0    0    0 -0.00000000000E+00 -0.00000000000E+00 -0.74505805969E-08  0.93827000000E+00  0.93827000000E+00 0.  1.
     999902    2    1    2    0    0 -0.18755240573E-01  0.10151990840E-02 -0.13547174243E-01  0.10207715111E+01  0.10205087762E+01 0.  0.
     999903    2    3    3    0    0 -0.37292782244E-01  0.89986211757E-01  0.84627423460E-01  0.13066043198E+00  0.20544531358E-01 0.  0.
         14    1    1    2    0    0  0.18755240573E-01 -0.10151990840E-02  0.13547174243E-01  0.23158488899E-01  0.00000000000E+00 0. -1.
     999901    1    3    3    0    0  0.18537541671E-01 -0.88971012673E-01 -0.98174597703E-01  0.89011107913E+00  0.88000000000E+00 0.  1.
        -11    1    4    4    0    0 -0.15169449009E-01  0.57944322739E-01  0.43540626939E-01  0.74052036003E-01  0.51100000000E-03 0. -1.
         11    1    4    4    0    0 -0.22123333235E-01  0.32041889018E-01  0.41086796520E-01  0.56608395973E-01  0.51100000000E-03 0.  1.
</event>
<event>
 8    1  0.1114333E+005  0.1043930E+01  0.7957747E-01            NaN
         13   -1    0    0    0    0  0.00000000000E+00  0.00000000000E+00  0.74505805969E-08  0.10566000000E+00  0.10566000000E+00 0. -1.
     999900   -1    0    0    0    0 -0.00000000000E+00 -0.00000000000E+00 -0.74505805969E-08  0.93827000000E+00  0.93827000000E+00 0. -1.
     999902    2    1    2    0    0 -0.82293202734E-02 -0.13308697255E-01  0.12234774583E-01  0.10240671492E+01  0.10238745007E+01 0.  0.
     999903    2    3    3    0    0 -0.89761115076E-01  0.56895730528E-01 -0.76676393653E-01  0.13306698581E+00  0.23094835689E-01 0.  0.
         14    1    1    2    0    0  0.82293202734E-02  0.13308697255E-01 -0.12234774583E-01  0.19862850850E-01  0.00000000000E+00 0.  1.
     999901    1    3    3    0    0  0.81531794803E-01 -0.70204427784E-01  0.88911168235E-01  0.89100016335E+00  0.88000000000E+00 0.  1.
        -11    1    4    4    0    0 -0.54057779967E-01  0.23440325841E-01 -0.33324995459E-01  0.67694230875E-01  0.51100000000E-03 0.  1.
         11    1    4    4    0    0 -0.35703335110E-01  0.33455404687E-01 -0.43351398194E-01  0.65372754930E-01  0.51100000000E-03 0. -1.
</event>
<event>
 8    1  0.1506829E+005  0.1043930E+01  0.7957747E-01            NaN
         13   -1    0    0    0    0  0.00000000000E+00  0.00000000000E+00  0.74505805969E-08  0.10566000000E+00  0.10566000000E+00 0.  1.
     999900   -1    0    0    0    0 -0.00000000000E+00 -0.00000000000E+00 -0.74505805969E-08  0.93827000000E+00  0.93827000000E+00 0. -1.
     999902    2    1    2    0    0  0.19902340368E-01 -0.95487195096E-02 -0.93099256776E-02  0.10199726230E+01  0.10196912257E+01 0.  0.
     999903    2    3    3    0    0 -0.11059434852E+00  0.33541220844E-01  0.49586842467E-01  0.12736130890E+00  0.20147571501E-01 0.  0.
         14    1    1    2    0    0 -0.19902340368E-01  0.95487195096E-02  0.93099256776E-02  0.23957376995E-01  0.00000000000E+00 0.  1.
     999901    1    3    3    0    0  0.13049668889E+00 -0.43089940354E-01 -0.58896768145E-01  0.89261131411E+00  0.88000000000E+00 0. -1.
        -11    1    4    4    0    0 -0.47714250791E-01  0.14266743446E-01  0.32287807009E-01  0.59354471605E-01  0.51100000000E-03 0.  1.
         11    1    4    4    0    0 -0.62880097733E-01  0.19274477398E-01  0.17299035458E-01  0.68006837294E-01  0.51100000000E-03 0. -1.
</event>
<event>
 8    1  0.1114333E+005  0.1043930E+01  0.7957747E-01            NaN
         13   -1    0    0    0    0  0.00000000000E+00  0.00000000000E+00  0.74505805969E-08  0.10566000000E+00  0.10566000000E+00 0.  1.
     999900   -1    0    0    0    0 -0.00000000000E+00 -0.00000000000E+00 -0.74505805969E-08  0.93827000000E+00  0.93827000000E+00 0.  1.
     999902    2    1    2    0    0 -0.21433118189E-01 -0.52089642991E-02 -0.77471543579E-02  0.10205520132E+01  0.10202842160E+01 0.  0.
     999903    2    3    3    0    0 -0.79872646389E-01  0.10067432404E+00  0.11717258149E-01  0.13206717231E+00  0.28097770411E-01 0.  0.
         14    1    1    2    0    0  0.21433118189E-01  0.52089642991E-02  0.77471543579E-02  0.23377986761E-01  0.00000000000E+00 0.  1.
     999901    1    3    3    0    0  0.58439528200E-01 -0.10588328834E+00 -0.19464412507E-01  0.88848484093E+00  0.88000000000E+00 0. -1.
        -11    1    4    4    0    0 -0.14353283919E-01  0.10654312033E-01 -0.69255248004E-02  0.19176942898E-01  0.51100000000E-03 0. -1.
         11    1    4    4    0    0 -0.65519362470E-01  0.90020012004E-01  0.18642782950E-01  0.11289022941E+00  0.51100000000E-03 0.  1.
</event>
<event>
 8    1  0.1114333E+005  0.1043930E+01  0.7957747E-01            NaN
         13   -1    0    0    0    0  0.00000000000E+00  0.00000000000E+00  0.74505805969E-08  0.10566000000E+00  0.10566000000E+00 0. -1.
     999900   -1    0    0    0    0 -0.00000000000E+00 -0.00000000000E+00 -0.74505805969E-08  0.93827000000E+00  0.93827000000E+00 0.  1.
     999902    2    1    2    0    0 -0.11816466393E-01 -0.20829852910E-02  0.20648786534E-01  0.10200482059E+01  0.10197686023E+01 0.  0.
     999903    2    3    3    0    0  0.20271301414E-01 -0.93381651571E-01 -0.79836247358E-01  0.12905869227E+00  0.33930239408E-01 0.  0.
         14    1    1    2    0    0  0.11816466393E-01  0.20829852910E-02 -0.20648786534E-01  0.23881794134E-01  0.00000000000E+00 0. -1.
     999901    1    3    3    0    0 -0.32087767806E-01  0.91298666280E-01  0.10048503389E+00  0.89098951360E+00  0.88000000000E+00 0. -1.
        -11    1    4    4    0    0 -0.74521472392E-02 -0.33597664312E-01 -0.36595724336E-01  0.50237891142E-01  0.51100000000E-03 0. -1.
         11    1    4    4    0    0  0.27723448653E-01 -0.59783987259E-01 -0.43240523022E-01  0.78820801125E-01  0.51100000000E-03 0.  1.
</event>
<event>
 8    1  0.1114333E+005  0.1043930E+01  0.7957747E-01            NaN
         13   -1    0    0    0    0  0.00000000000E+00  0.00000000000E+00  0.74505805969E-08  0.10566000000E+00  0.10566000000E+00 0.  1.
     999900   -1    0    0    0    0 -0.00000000000E+00 -0.00000000000E+00 -0.74505805969E-08  0.93827000000E+00  0.93827000000E+00 0. -1.
     999902    2    1    2    0    0  0.55301013817E-02 -0.12201354880E-01 -0.19780760343E-01  0.10200399694E+01  0.10197601706E+01 0.  0.
     999903    2    3    3    0    0 -0.85226610998E-01 -0.74921447647E-01  0.59519847946E-01  0.12961356742E+00  0.19500410747E-01 0.  0.
         14    1    1    2    0    0 -0.55301013817E-02  0.12201354880E-01  0.19780760343E-01  0.23890030597E-01  0.00000000000E+00 0.  1.
     999901    1    3    3    0    0  0.90756712379E-01  0.62720092768E-01 -0.79300608289E-01  0.89042640199E+00  0.88000000000E+00 0. -1.
        -11    1    4    4    0    0 -0.36216646428E-01 -0.22954043263E-01  0.29930015089E-01  0.52293407852E-01  0.51100000000E-03 0. -1.
         11    1    4    4    0    0 -0.49009964570E-01 -0.51967404384E-01  0.29589832858E-01  0.77320159565E-01  0.51100000000E-03 0.  1.
</event>
<event>
 8    1  0.1114333E+005  0.1043930E+01  0.7957747E-01            NaN
         13   -1    0    0    0    0  0.00000000000E+00  0.00000000000E+00  0.74505805969E-08  0.10566000000E+00  0.10566000000E+00 0. -1.
     999900   -1    0    0    0    0 -0.00000000000E+00 -0.00000000000E+00 -0.74505805969E-08  0.93827000000E+00  0.93827000000E+00 0.  1.
     999902    2    1    2    0    0 -0.14332873382E-01 -0.11611226951E-01 -0.61648489441E-02  0.10244811642E+01  0.10242965384E+01 0.  0.
     999903    2    3    3    0    0  0.19735261255E-01  0.12457001661E+00  0.34527211497E-01  0.13242633817E+00  0.20914997770E-01 0.  0.
         14    1    1    2    0    0  0.14332873382E-01  0.11611226951E-01  0.61648489441E-02  0.19448835780E-01  0.00000000000E+00 0. -1.
     999901    1    3    3    0    0 -0.34068134637E-01 -0.13618124356E+00 -0.40692060441E-01  0.89205482605E+00  0.88000000000E+00 0.  1.
        -11    1    4    4    0    0  0.12472513599E-01  0.83220010223E-01  0.33067443137E-01  0.90414880488E-01  0.51100000000E-03 0. -1.
         11    1    4    4    0    0  0.72627476565E-02  0.41350006390E-01  0.14597683601E-02  0.42011457683E-01  0.51100000000E-03 0.  1.
</event>
<event>
 7    1  0.1114333E+005  0.1043930E+01  0.7957747E-01            NaN
         13   -1    0    0    0    0  0.00000000000E+00  0.00000000000E+00  0.74505805969E-08  0.10566000000E+00  0.10566000000E+00 0. -1.
     999900   -1    0    0    0    0 -0.00000000000E+00 -0.00000000000E+00 -0.74505805969E-08  0.93827000000E+00  0.93827000000E+00 0.  1.
     999903    2    1    2    0    0 -0.92502294469E-01  0.20347328547E-01  0.50603357722E-01  0.11001535715E+00  0.23916327812E-01 0.  0.
         14    1    1    2    0    0 -0.33758715138E-01 -0.94867378655E-02  0.22775606578E-01  0.41813601831E-01  0.00000000000E+00 0. -1.
     999901    1    1    2    0    0  0.12626100961E+00 -0.10860590681E-01 -0.73378964300E-01  0.89210104101E+00  0.88000000000E+00 0.  1.
        -11    1    3    3    0    0 -0.81357097150E-01  0.25665925932E-01  0.44851492448E-01  0.96382750047E-01  0.51100000000E-03 0. -1.
         11    1    3    3    0    0 -0.11145197319E-01 -0.53185973859E-02  0.57518652734E-02  0.13632607108E-01  0.51100000000E-03 0.  1.
</event>
<event>
 8    1  0.1114333E+005  0.1043930E+01  0.7957747E-01            NaN
         13   -1    0    0    0    0  0.00000000000E+00  0.00000000000E+00  0.74505805969E-08  0.10566000000E+00  0.10566000000E+00 0. -1.
     999900   -1    0    0    0    0 -0.00000000000E+00 -0.00000000000E+00 -0.74505805969E-08  0.93827000000E+00  0.93827000000E+00 0.  1.
     999902    2    1    2    0    0  0.16992305651E-01  0.43802321872E-02 -0.14016751035E-01  0.10214712780E+01  0.10212243522E+01 0.  0.
     999903    2    3    3    0    0  0.66952338252E-01 -0.72522078674E-01 -0.88179613066E-01  0.13360298798E+00  0.18222149833E-01 0.  0.
         14    1    1    2    0    0 -0.16992305651E-01 -0.43802321872E-02  0.14016751035E-01  0.22458722024E-01  0.00000000000E+00 0. -1.
     999901    1    3    3    0    0 -0.49960032601E-01  0.76902310861E-01  0.74162862030E-01  0.88786828999E+00  0.88000000000E+00 0. -1.
        -11    1    4    4    0    0  0.73367634310E-02 -0.14260600136E-01 -0.79479168398E-02  0.17905957583E-01  0.51100000000E-03 0.  1.
         11    1    4    4    0    0  0.59615574821E-01 -0.58261478538E-01 -0.80231696226E-01  0.11569703040E+00  0.51100000000E-03 0. -1.
</event>
<event>
 8    1  0.1114333E+005  0.1043930E+01  0.7957747E-01            NaN
         13   -1    0    0    0    0  0.00000000000E+00  0.00000000000E+00  0.74505805969E-08  0.10566000000E+00  0.10566000000E+00 0. -1.
     999900   -1    0    0    0    0 -0.00000000000E+00 -0.00000000000E+00 -0.74505805969E-08  0.93827000000E+00  0.93827000000E+00 0. -1.
     999902    2    1    2    0    0  0.18234619487E-01  0.98783747087E-02  0.11807245567E-01  0.10200659123E+01  0.10197867281E+01 0.  0.
     999903    2    3    3    0    0  0.46361888960E-01  0.57071891929E-02  0.12271790027E+00  0.13264847083E+00  0.18813213720E-01 0.  0.
         14    1    1    2    0    0 -0.18234619487E-01 -0.98783747087E-02 -0.11807245567E-01  0.23864087717E-01  0.00000000000E+00 0.  1.
     999901    1    3    3    0    0 -0.28127269473E-01  0.41711855158E-02 -0.11091065470E+00  0.88741744146E+00  0.88000000000E+00 0. -1.
        -11    1    4    4    0    0  0.28507696521E-01  0.11717458516E-01  0.86357270750E-01  0.91694203347E-01  0.51100000000E-03 0. -1.
         11    1    4    4    0    0  0.17854192439E-01 -0.60102693234E-02  0.36360629515E-01  0.40954267479E-01  0.51100000000E-03 0.  1.
</event>
<event>
 8    1  0.1114333E+005  0.1043930E+01  0.7957747E-01            NaN
         13   -1    0    0    0    0  0.00000000000E+00  0.00000000000E+00  0.74505805969E-08  0.10566000000E+00  0.10566000000E+00 0.  1.
     999900   -1    0    0    0    0 -0.00000000000E+00 -0.00000000000E+00 -0.74505805969E-08  0.93827000000E+00  0.93827000000E+00 0. -1.
     999902    2    1    2    0    0  0.78522016227E-02 -0.15343484294E-01 -0.13769690197E-01  0.10218690855E+01  0.10216309235E+01 0.  0.
     999903    2    3    3    0    0  0.12071636373E+00 -0.41354598994E-01 -0.35730962069E-01  0.13400806336E+00  0.19970379685E-01 0.  0.
         14    1    1    2    0    0 -0.78522016227E-02  0.15343484294E-01  0.13769690197E-01  0.22060914503E-01  0.00000000000E+00 0.  1.
     999901    1    3    3    0    0 -0.11286416210E+00  0.26011114701E-01  0.21961271873E-01  0.88786102214E+00  0.88000000000E+00 0.  1.
        -11    1    4    4    0    0  0.24756337558E-01 -0.25957433608E-02 -0.12841414316E-01  0.28013874696E-01  0.51100000000E-03 0.  1.
         11    1    4    4    0    0  0.95960026168E-01 -0.38758855634E-01 -0.22889547754E-01  0.10599418866E+00  0.51100000000E-03 0. -1.
</event>
<event>
 8    1  0.1114333E+005  0.1043930E+01  0.7957747E-01            NaN
         13   -1    0    0    0    0  0.00000000000E+00  0.00000000000E+00  0.74505805969E-08  0.10566000000E+00  0.10566000000E+00 0. -1.
     999900   -1    0    0    0    0 -0.00000000000E+00 -0.00000000000E+00 -0.74505805969E-08  0.93827000000E+00  0.93827000000E+00 0. -1.
     999902    2    1    2    0    0 -0.82035428216E-02  0.27257007106E-01 -0.63550988601E-02  0.10147644410E+01  0.10143452276E+01 0.  0.
     999903    2    3    3    0    0  0.18555437133E-01  0.97847951973E-01  0.76690525062E-01  0.12763665979E+00  0.22162002090E-01 0.  0.
         14    1    1    2    0    0  0.82035428216E-02 -0.27257007106E-01  0.63550988601E-02  0.29165559016E-01  0.00000000000E+00 0. -1.
     999901    1    3    3    0    0 -0.26758979955E-01 -0.70590944867E-01 -0.83045623923E-01  0.88712778119E+00  0.88000000000E+00 0.  1.
        -11    1    4    4    0    0  0.13412716538E-01  0.42838745977E-01  0.22379174730E-01  0.50161217135E-01  0.51100000000E-03 0. -1.
         11    1    4    4    0    0  0.51427205946E-02  0.55009205996E-01  0.54311350332E-01  0.77475442660E-01  0.51100000000E-03 0.  1.
</event>
<event>
 8    1  0.1114333E+005  0.1043930E+01  0.7957747E-01            NaN
         13   -1    0    0    0    0  0.00000000000E+00  0.00000000000E+00  0.74505805969E-08  0.10566000000E+00  0.10566000000E+00 0. -1.
     999900   -1    0    0    0    0 -0.00000000000E+00 -0.00000000000E+00 -0.74505805969E-08  0.93827000000E+00  0.93827000000E+00 0. -1.
     999902    2    1    2    0    0 -0.22645694314E-01  0.82046094079E-02  0.39849679418E-02  0.10195164166E+01  0.10192240679E+01 0.  0.
     999903    2    3    3    0    0 -0.59254751241E-01 -0.11182838451E+00  0.23562060564E-01  0.13039808629E+00  0.20779246470E-01 0.  0.
         14    1    1    2    0    0  0.22645694314E-01 -0.82046094079E-02 -0.39849679418E-02  0.24413583432E-01  0.00000000000E+00 0.  1.
     999901    1    3    3    0    0  0.36609056926E-01  0.12003299392E+00 -0.19577092622E-01  0.88911833028E+00  0.88000000000E+00 0.  1.
        -11    1    4    4    0    0 -0.19320114454E-01 -0.49522106015E-01  0.18230040816E-01  0.56198766142E-01  0.51100000000E-03 0. -1.
         11    1    4    4    0    0 -0.39934636787E-01 -0.62306278494E-01  0.53320197480E-02  0.74199320150E-01  0.51100000000E-03 0.  1.
</event>
<event>
 8    1  0.1114333E+005  0.1043930E+01  0.7957747E-01            NaN
         13   -1    0    0    0    0  0.00000000000E+00  0.00000000000E+00  0.74505805969E-08  0.10566000000E+00  0.10566000000E+00 0.  1.
     999900   -1    0    0    0    0 -0.00000000000E+00 -0.00000000000E+00 -0.74505805969E-08  0.93827000000E+00  0.93827000000E+00 0.  1.
     999902    2    1    2    0    0 -0.81548365219E-02 -0.20303984304E-01  0.94029679112E-02  0.10201146910E+01  0.10198366604E+01 0.  0.
     999903    2    3    3    0    0 -0.13203463911E-01  0.12354233830E+00  0.26060969524E-01  0.12826563304E+00  0.18326420100E-01 0.  0.
         14    1    1    2    0    0  0.81548365219E-02  0.20303984304E-01 -0.94029679112E-02  0.23815309002E-01  0.00000000000E+00 0. -1.
     999901    1    3    3    0    0  0.50486273890E-02 -0.14384632261E+00 -0.16658001613E-01  0.89184905796E+00  0.88000000000E+00 0.  1.
        -11    1    4    4    0    0  0.40082806909E-02  0.43312406847E-01  0.76375042915E-02  0.44165863445E-01  0.51100000000E-03 0.  1.
         11    1    4    4    0    0 -0.17211744602E-01  0.80229931455E-01  0.18423465233E-01  0.84099769594E-01  0.51100000000E-03 0. -1.
</event>
<event>
 8    1  0.1114333E+005  0.1043930E+01  0.7957747E-01            NaN
         13   -1    0    0    0    0  0.00000000000E+00  0.00000000000E+00  0.74505805969E-08  0.10566000000E+00  0.10566000000E+00 0. -1.
     999900   -1    0    0    0    0 -0.00000000000E+00 -0.00000000000E+00 -0.74505805969E-08  0.93827000000E+00  0.93827000000E+00 0. -1.
     999902    2    1    2    0    0  0.11895172139E-02  0.17776138196E-01  0.15909374909E-01  0.10200445599E+01  0.10197648699E+01 0.  0.
     999903    2    3    3    0    0 -0.85783192726E-01 -0.93797394581E-01  0.94328777188E-03  0.12862048051E+00  0.19637485349E-01 0.  0.
         14    1    1    2    0    0 -0.11895172139E-02 -0.17776138196E-01 -0.15909374909E-01  0.23885440133E-01  0.00000000000E+00 0. -1.
     999901    1    3    3    0    0  0.86972709940E-01  0.11157353278E+00  0.14966087137E-01  0.89142407936E+00  0.88000000000E+00 0. -1.
        -11    1    4    4    0    0 -0.23001712377E-02 -0.10095779340E-01  0.84956671116E-03  0.10401847567E-01  0.51100000000E-03 0.  1.
         11    1    4    4    0    0 -0.83483021488E-01 -0.83701615241E-01  0.93721060713E-04  0.11821863295E+00  0.51100000000E-03 0. -1.
</event>
<event>
 8    1  0.1114333E+005  0.1043930E+01  0.7957747E-01            NaN
         13   -1    0    0    0    0  0.00000000000E+00  0.00000000000E+00  0.74505805969E-08  0.10566000000E+00  0.10566000000E+00 0. -1.
     999900   -1    0    0    0    0 -0.00000000000E+00 -0.00000000000E+00 -0.74505805969E-08  0.93827000000E+00  0.93827000000E+00 0. -1.
     999902    2    1    2    0    0 -0.62404350932E-02  0.98315256305E-02  0.23146571262E-01  0.10180192747E+01  0.10176894801E+01 0.  0.
     999903    2    3    3    0    0 -0.21547794254E-01  0.95911038440E-01  0.84863936123E-01  0.13153575485E+00  0.20893358230E-01 0.  0.
         14    1    1    2    0    0  0.62404350932E-02 -0.98315256305E-02 -0.23146571262E-01  0.25910725338E-01  0.00000000000E+00 0.  1.
     999901    1    3    3    0    0  0.15307359161E-01 -0.86079512810E-01 -0.61717364861E-01  0.88648351981E+00  0.88000000000E+00 0. -1.
        -11    1    4    4    0    0 -0.21356489671E-01  0.60432076190E-01  0.45902411875E-01  0.78837985899E-01  0.51100000000E-03 0. -1.
         11    1    4    4    0    0 -0.19130458287E-03  0.35478962250E-01  0.38961524248E-01  0.52697768952E-01  0.51100000000E-03 0.  1.
</event>
<event>
 8    1  0.1114333E+005  0.1043930E+01  0.7957747E-01            NaN
         13   -1    0    0    0    0  0.00000000000E+00  0.00000000000E+00  0.74505805969E-08  0.10566000000E+00  0.10566000000E+00 0. -1.
     999900   -1    0    0    0    0 -0.00000000000E+00 -0.00000000000E+00 -0.74505805969E-08  0.93827000000E+00  0.93827000000E+00 0. -1.
     999902    2    1    2    0    0 -0.12674846380E-01  0.78682308638E-03 -0.14780691919E-02  0.10311450280E+01  0.10310657657E+01 0.  0.
     999903    2    3    3    0    0  0.45030190641E-01 -0.78125718145E-01  0.10431090470E+00  0.13943410650E+00  0.20730637056E-01 0.  0.
         14    1    1    2    0    0  0.12674846380E-01 -0.78682308638E-03  0.14780691919E-02  0.12784972032E-01  0.00000000000E+00 0. -1.
     999901    1    3    3    0    0 -0.57705037021E-01  0.78912541231E-01 -0.10578897389E+00  0.89171092146E+00  0.88000000000E+00 0.  1.
        -11    1    4    4    0    0  0.31681047771E-01 -0.60237633062E-01  0.64388802774E-01  0.93693330972E-01  0.51100000000E-03 0.  1.
         11    1    4    4    0    0  0.13349142869E-01 -0.17888085083E-01  0.39922101924E-01  0.45740775532E-01  0.51100000000E-03 0. -1.
</event>
<event>
 8    1  0.1114333E+005  0.1043930E+01  0.7957747E-01            NaN
         13   -1    0    0    0    0  0.00000000000E+00  0.00000000000E+00  0.74505805969E-08  0.10566000000E+00  0.10566000000E+00 0.  1.
     999900   -1    0    0    0    0 -0.00000000000E+00 -0.00000000000E+00 -0.74505805969E-08  0.93827000000E+00  0.93827000000E+00 0. -1.
     999902    2    1    2    0    0  0.13688888424E-01  0.91596478421E-02  0.17253112752E-01  0.10200772284E+01  0.10197983120E+01 0.  0.
     999903    2    3    3    0    0 -0.99229776391E-01 -0.78092254120E-01  0.11820644129E-01  0.12856557338E+00  0.21081516916E-01 0.  0.
         14    1    1    2    0    0 -0.13688888424E-01 -0.91596478421E-02 -0.17253112752E-01  0.23852771632E-01  0.00000000000E+00 0. -1.
     999901    1    3    3    0    0  0.11291866481E+00  0.87251901962E-01  0.54324686233E-02  0.89151165499E+00  0.88000000000E+00 0. -1.
        -11    1    4    4    0    0 -0.77590346499E-02 -0.11098420481E-01 -0.38956018215E-02  0.14100155688E-01  0.51100000000E-03 0.  1.
         11    1    4    4    0    0 -0.91470741741E-01 -0.66993833640E-01  0.15716245950E-01  0.11446541770E+00  0.51100000000E-03 0. -1.
</event>
<event>
 8    1  0.1114333E+005  0.1043930E+01  0.7957747E-01            NaN
         13   -1    0    0    0    0  0.00000000000E+00  0.00000000000E+00  0.74505805969E-08  0.10566000000E+00  0.10566000000E+00 0. -1.
     999900   -1    0    0    0    0 -0.00000000000E+00 -0.00000000000E+00 -0.74505805969E-08  0.93827000000E+00  0.93827000000E+00 0. -1.
     999902    2    1    2    0    0  0.53415347249E-02 -0.10487805547E-01 -0.20095011045E-01  0.10206419016E+01  0.10203761835E+01 0.  0.
     999903    2    3    3    0    0 -0.75309089106E-01  0.95379568588E-01  0.38207508574E-01  0.12872732731E+00  0.18498380429E-01 0.  0.
         14    1    1    2    0    0 -0.53415347249E-02  0.10487805547E-01  0.20095011045E-01  0.23288098405E-01  0.00000000000E+00 0. -1.
     999901    1    3    3    0    0  0.80650623831E-01 -0.10586737414E+00 -0.58302519620E-01  0.89191457429E+00  0.88000000000E+00 0.  1.
        -11    1    4    4    0    0 -0.12691022377E-01  0.11006962699E-01 -0.33328025604E-03  0.16810338294E-01  0.51100000000E-03 0. -1.
         11    1    4    4    0    0 -0.62618066729E-01  0.84372605889E-01  0.38540788830E-01  0.11191698901E+00  0.51100000000E-03 0.  1.
</event>
<event>
 8    1  0.1114333E+005  0.1043930E+01  0.7957747E-01            NaN
         13   -1    0    0    0    0  0.00000000000E+00  0.00000000000E+00  0.74505805969E-08  0.10566000000E+00  0.10566000000E+00 0.  1.
     999900   -1    0    0    0    0 -0.00000000000E+00 -0.00000000000E+00 -0.74505805969E-08  0.93827000000E+00  0.93827000000E+00 0.  1.
     999902    2    1    2    0    0  0.63713357736E-03 -0.14147619960E-02 -0.24549821877E-01  0.10193311942E+01  0.10190343381E+01 0.  0.
     999903    2    3    3    0    0  0.51790442139E-01 -0.10988525708E+00  0.38323933885E-01  0.12897417683E+00  0.20213727061E-01 0.  0.
         14    1    1    2    0    0 -0.63713357736E-03  0.14147619960E-02  0.24549821877E-01  0.24598805761E-01  0.00000000000E+00 0.  1.
     999901    1    3    3    0    0 -0.51153308562E-01  0.10847049508E+00 -0.62873755762E-01  0.89035701741E+00  0.88000000000E+00 0.  1.
        -11    1    4    4    0    0  0.16460551729E-01 -0.33397000761E-01  0.21688745768E-01  0.43092600723E-01  0.51100000000E-03 0.  1.
         11    1    4    4    0    0  0.35329890410E-01 -0.76488256315E-01  0.16635188117E-01  0.85881576110E-01  0.51100000000E-03 0. -1.
</event>
<event>
 8    1  0.1114333E+005  0.1043930E+01  0.7957747E-01            NaN
         13   -1    0    0    0    0  0.00000000000E+00  0.00000000000E+00  0.74505805969E-08  0.10566000000E+00  0.10566000000E+00 0.  1.
     999900   -1    0    0    0    0 -0.00000000000E+00 -0.00000000000E+00 -0.74505805969E-08  0.93827000000E+00  0.93827000000E+00 0. -1.
     999902    2    1    2    0    0 -0.96641729615E-02  0.76888856860E-02 -0.19881624951E-01  0.10205249960E+01  0.10202565723E+01 0.  0.
     999903    2    3    3    0    0 -0.82356364014E-01 -0.11051862662E-01 -0.10262959408E+00  0.13346096409E+00  0.19346343136E-01 0.  0.
         14    1    1    2    0    0  0.96641729615E-02 -0.76888856860E-02  0.19881624951E-01  0.23405004012E-01  0.00000000000E+00 0.  1.
     999901    1    3    3    0    0  0.72692191053E-01  0.18740748348E-01  0.82747969132E-01  0.88706403190E+00  0.88000000000E+00 0.  1.
        -11    1    4    4    0    0 -0.73836238662E-01 -0.55946634193E-02 -0.82057033415E-01  0.11052921900E+00  0.51100000000E-03 0. -1.
         11    1    4    4    0    0 -0.85201253522E-02 -0.54571992424E-02 -0.20572560668E-01  0.22931745094E-01  0.51100000000E-03 0.  1.
</event>
<event>
 8    1  0.1114333E+005  0.1043930E+01  0.7957747E-01            NaN
         13   -1    0    0    0    0  0.00000000000E+00  0.00000000000E+00  0.74505805969E-08  0.10566000000E+00  0.10566000000E+00 0.  1.
     999900   -1    0    0    0    0 -0.00000000000E+00 -0.00000000000E+00 -0.74505805969E-08  0.93827000000E+00  0.93827000000E+00 0. -1.
     999902    2    1    2    0    0 -0.46624908753E-02 -0.22020098400E-01 -0.39788306900E-03  0.10214181839E+01  0.10211700762E+01 0.  0.
     999903    2    3    3    0    0  0.59221145055E-01  0.79546142533E-02 -0.11508396512E+00  0.13117523963E+00  0.19804154998E-01 0.  0.
         14    1    1    2    0    0  0.46624908753E-02  0.22020098400E-01  0.39788306900E-03  0.22511816134E-01  0.00000000000E+00 0. -1.
     999901    1    3    3    0    0 -0.63883635931E-01 -0.29974712653E-01  0.11468608205E+00  0.89024294423E+00  0.88000000000E+00 0.  1.
        -11    1    4    4    0    0  0.45728144699E-01  0.20807678597E-02 -0.10057427844E+00  0.11050266702E+00  0.51100000000E-03 0. -1.
         11    1    4    4    0    0  0.13493000357E-01  0.58738463936E-02 -0.14509686678E-01  0.20672572616E-01  0.51100000000E-03 0.  1.
</event>
<event>
 8    1  0.1114333E+005  0.1043930E+01  0.7957747E-01            NaN
         13   -1    0    0    0    0  0.00000000000E+00  0.00000000000E+00  0.74505805969E-08  0.10566000000E+00  0.10566000000E+00 0.  1.
     999900   -1    0    0    0    0 -0.00000000000E+00 -0.00000000000E+00 -0.74505805969E-08  0.93827000000E+00  0.93827000000E+00 0. -1.
     999902    2    1    2    0    0 -0.21434889195E-01 -0.77223907252E-02  0.10276687087E-01  0.10189359989E+01  0.10186294075E+01 0.  0.
     999903    2    3    3    0    0 -0.32138923173E-01 -0.27230916774E-02  0.12556003034E+00  0.13133821918E+00  0.21073229202E-01 0.  0.
         14    1    1    2    0    0  0.21434889195E-01  0.77223907252E-02 -0.10276687087E-01  0.24994001096E-01  0.00000000000E+00 0. -1.
     999901    1    3    3    0    0  0.10704033978E-01 -0.49992990478E-02 -0.11528334325E+00  0.88759777972E+00  0.88000000000E+00 0. -1.
        -11    1    4    4    0    0 -0.25542260451E-02  0.58522534349E-02  0.11210610086E-01  0.12911693942E-01  0.51100000000E-03 0. -1.
         11    1    4    4    0    0 -0.29584697128E-01 -0.85753451123E-02  0.11434942025E+00  0.11842652524E+00  0.51100000000E-03 0.  1.
</event>
<event>
 8    1  0.1114333E+005  0.1043930E+01  0.7957747E-01            NaN
         13   -1    0    0    0    0  0.00000000000E+00  0.00000000000E+00  0.74505805969E-08  0.10566000000E+00  0.10566000000E+00 0.  1.
     999900   -1    0    0    0    0 -0.00000000000E+00 -0.00000000000E+00 -0.74505805969E-08  0.93827000000E+00  0.93827000000E+00 0.  1.
     999902    2    1    2    0    0 -0.14211962909E-02  0.63189272188E-02  0.23022045823E-01  0.10200142472E+01  0.10197338384E+01 0.  0.
     999903    2    3    3    0    0  0.11177353562E+00  0.50310263427E-01  0.42768628529E-01  0.13145461915E+00  0.20657091756E-01 0.  0.
         14    1    1    2    0    0  0.14211962909E-02 -0.63189272188E-02 -0.23022045823E-01  0.23915752841E-01  0.00000000000E+00 0. -1.
     999901    1    3    3    0    0 -0.11319473191E+00 -0.43991336208E-01 -0.19746582707E-01  0.88855962801E+00  0.88000000000E+00 0.  1.
        -11    1    4    4    0    0  0.20501416411E-02  0.48565047865E-02  0.23511713069E-03  0.53014262755E-02  0.51100000000E-03 0.  1.
         11    1    4    4    0    0  0.10972339398E+00  0.45453758641E-01  0.42533511398E-01  0.12615319288E+00  0.51100000000E-03 0. -1.
</event>
<event>
 8    1  0.1114333E+005  0.1043930E+01  0.7957747E-01            NaN
         13   -1    0    0    0    0  0.00000000000E+00  0.00000000000E+00  0.74505805969E-08  0.10566000000E+00  0.10566000000E+00 0. -1.
     999900   -1    0    0    0    0 -0.00000000000E+00 -0.00000000000E+00 -0.74505805969E-08  0.93827000000E+00  0.93827000000E+00 0.  1.
     999902    2    1    2    0    0  0.90405081903E-02  0.33840425331E-02  0.21887018418E-01  0.10200087938E+01  0.10197282556E+01 0.  0.
     999903    2    3    3    0    0 -0.93498848834E-01 -0.67717211988E-01 -0.47010547836E-01  0.12854001542E+00  0.31382932059E-01 0.  0.
         14    1    1    2    0    0 -0.90405081903E-02 -0.33840425331E-02 -0.21887018418E-01  0.23921206228E-01  0.00000000000E+00 0.  1.
     999901    1    3    3    0    0  0.10253935702E+00  0.71101254521E-01  0.68897566253E-01  0.89146877835E+00  0.88000000000E+00 0. -1.
        -11    1    4    4    0    0 -0.31979622053E-01 -0.26479788890E-01 -0.33281924922E-01  0.53214876622E-01  0.51100000000E-03 0. -1.
         11    1    4    4    0    0 -0.61519226781E-01 -0.41237423097E-01 -0.13728622913E-01  0.75325138802E-01  0.51100000000E-03 0.  1.
</event>
<event>
 8    1  0.1114333E+005  0.1043930E+01  0.7957747E-01            NaN
         13   -1    0    0    0    0  0.00000000000E+00  0.00000000000E+00  0.74505805969E-08  0.10566000000E+00  0.10566000000E+00 0. -1.
     999900   -1    0    0    0    0 -0.00000000000E+00 -0.00000000000E+00 -0.74505805969E-08  0.93827000000E+00  0.93827000000E+00 0.  1.
     999902    2    1    2    0    0  0.16051661924E-02 -0.48657802450E-02  0.19796056823E-01  0.10234816201E+01  0.10232773282E+01 0.  0.
     999903    2    3    3    0    0 -0.13147439257E+00 -0.44062781891E-02 -0.60619542541E-02  0.13310023166E+00  0.19338903512E-01 0.  0.
         14    1    1    2    0    0 -0.16051661924E-02  0.48657802450E-02 -0.19796056823E-01  0.20448379927E-01  0.00000000000E+00 0.  1.
     999901    1    3    3    0    0  0.13307955876E+00 -0.45950205588E-03  0.25858011077E-01  0.89038138842E+00  0.88000000000E+00 0.  1.
        -11    1    4    4    0    0 -0.10948007448E+00 -0.75667631601E-02 -0.11124540225E-01  0.11030484635E+00  0.51100000000E-03 0.  1.
         11    1    4    4    0    0 -0.21994318090E-01  0.31604849709E-02  0.50625859704E-02  0.22795385305E-01  0.51100000000E-03 0. -1.
</event>
<event>
 8    1  0.1114333E+005  0.1043930E+01  0.7957747E-01            NaN
         13   -1    0    0    0    0  0.00000000000E+00  0.00000000000E+00  0.74505805969E-08  0.10566000000E+00  0.10566000000E+00 0. -1.
     999900   -1    0    0    0    0 -0.00000000000E+00 -0.00000000000E+00 -0.74505805969E-08  0.93827000000E+00  0.93827000000E+00 0. -1.
     999902    2    1    2    0    0  0.19463331621E-01  0.16502900567E-01 -0.71801203094E-02  0.10174211122E+01  0.10170757093E+01 0.  0.
     999903    2    3    3    0    0 -0.52937016658E-01  0.11074495465E+00  0.32639369919E-01  0.12854037386E+00  0.19761744061E-01 0.  0.
         14    1    1    2    0    0 -0.19463331621E-01 -0.16502900567E-01  0.71801203094E-02  0.26508887804E-01  0.00000000000E+00 0.  1.
     999901    1    3    3    0    0  0.72400348279E-01 -0.94242054087E-01 -0.39819490229E-01  0.88888073834E+00  0.88000000000E+00 0.  1.
        -11    1    4    4    0    0 -0.12071991247E-01  0.31419074627E-01  0.17805265379E-01  0.38081226599E-01  0.51100000000E-03 0.  1.
         11    1    4    4    0    0 -0.40865025411E-01  0.79325880028E-01  0.14834104540E-01  0.90459147257E-01  0.51100000000E-03 0. -1.
</event>
<event>
 8    1  0.1114333E+005  0.1043930E+01  0.7957747E-01            NaN
         13   -1    0    0    0    0  0.00000000000E+00  0.00000000000E+00  0.74505805969E-08  0.10566000000E+00  0.10566000000E+00 0.  1.
     999900   -1    0    0    0    0 -0.00000000000E+00 -0.00000000000E+00 -0.74505805969E-08  0.93827000000E+00  0.93827000000E+00 0. -1.
     999902    2    1    2    0    0  0.16206568494E-01 -0.11384155644E-01  0.86573042972E-02  0.10223151722E+01  0.10220866453E+01 0.  0.
     999903    2    3    3    0    0  0.51612534463E-01  0.72069024175E-01 -0.94920025583E-01  0.13161529072E+00  0.21330155539E-01 0.  0.
         14    1    1    2    0    0 -0.16206568494E-01  0.11384155644E-01 -0.86573042972E-02  0.21614827775E-01  0.00000000000E+00 0. -1.
     999901    1    3    3    0    0 -0.35405965969E-01 -0.83453179819E-01  0.10357732988E+00  0.89069988151E+00  0.88000000000E+00 0.  1.
        -11    1    4    4    0    0  0.39259660440E-01  0.37899353654E-01 -0.61847598740E-01  0.82480716147E-01  0.51100000000E-03 0. -1.
         11    1    4    4    0    0  0.12352874023E-01  0.34169670521E-01 -0.33072426843E-01  0.49134574572E-01  0.51100000000E-03 0.  1.
</event>
<event>
 8    1  0.1114333E+005  0.1043930E+01  0.7957747E-01            NaN
         13   -1    0    0    0    0  0.00000000000E+00  0.00000000000E+00  0.74505805969E-08  0.10566000000E+00  0.10566000000E+00 0. -1.
     999900   -1    0    0    0    0 -0.00000000000E+00 -0.00000000000E+00 -0.74505805969E-08  0.93827000000E+00  0.93827000000E+00 0. -1.
     999902    2    1    2    0    0  0.39433999487E-02 -0.15599546704E-01 -0.12165690825E-01  0.10237582303E+01  0.10235594823E+01 0.  0.
     999903    2    3    3    0    0 -0.27517783461E-01 -0.13014085814E+00 -0.20752684862E-01  0.13573612776E+00  0.17313321122E-01 0.  0.
         14    1    1    2    0    0 -0.39433999487E-02  0.15599546704E-01  0.12165690825E-01  0.20171769724E-01  0.00000000000E+00 0. -1.
     999901    1    3    3    0    0  0.31461183409E-01  0.11454131143E+00  0.85869940364E-02  0.88802210251E+00  0.88000000000E+00 0.  1.
        -11    1    4    4    0    0 -0.28694479437E-01 -0.10618476234E+00 -0.19525890527E-01  0.11171436087E+00  0.51100000000E-03 0.  1.
         11    1    4    4    0    0  0.11766959757E-02 -0.23956095798E-01 -0.12267943348E-02  0.24021766893E-01  0.51100000000E-03 0. -1.
</event>
<event>
 8    1  0.1114333E+005  0.1043930E+01  0.7957747E-01            NaN
         13   -1    0    0    0    0  0.00000000000E+00  0.00000000000E+00  0.74505805969E-08  0.10566000000E+00  0.10566000000E+00 0. -1.
     999900   -1    0    0    0    0 -0.00000000000E+00 -0.00000000000E+00 -0.74505805969E-08  0.93827000000E+00  0.93827000000E+00 0.  1.
     999902    2    1    2    0    0  0.21960213713E-01 -0.23815895311E-02  0.55636366866E-02  0.10211511280E+01  0.10208970317E+01 0.  0.
     999903    2    3    3    0    0  0.93019879253E-01  0.85584352303E-01 -0.36267757217E-01  0.13292967563E+00  0.19431138776E-01 0.  0.
         14    1    1    2    0    0 -0.21960213713E-01  0.23815895311E-02 -0.55636366866E-02  0.22778871969E-01  0.00000000000E+00 0. -1.
     999901    1    3    3    0    0 -0.71059665540E-01 -0.87965941834E-01  0.41831393904E-01  0.88822145240E+00  0.88000000000E+00 0.  1.
        -11    1    4    4    0    0  0.59438005176E-01  0.60061659396E-01 -0.15500191333E-01  0.85911561742E-01  0.51100000000E-03 0. -1.
         11    1    4    4    0    0  0.33581874077E-01  0.25522692907E-01 -0.20767565885E-01  0.47018113887E-01  0.51100000000E-03 0.  1.
</event>
<event>
 8    1  0.1114333E+005  0.1043930E+01  0.7957747E-01            NaN
         13   -1    0    0    0    0  0.00000000000E+00  0.00000000000E+00  0.74505805969E-08  0.10566000000E+00  0.10566000000E+00 0.  1.
     999900   -1    0    0    0    0 -0.00000000000E+00 -0.00000000000E+00 -0.74505805969E-08  0.93827000000E+00  0.93827000000E+00 0.  1.
     999902    2    1    2    0    0  0.17727480441E-02 -0.23995164673E-01  0.56962793185E-02  0.10192043420E+01  0.10189043786E+01 0.  0.
     999903    2    3    3    0    0  0.83540103999E-01  0.88587408117E-01  0.33380372560E-01  0.12784182027E+00  0.20064991552E-01 0.  0.
         14    1    1    2    0    0 -0.17727480441E-02  0.23995164673E-01 -0.56962793185E-02  0.24725657956E-01  0.00000000000E+00 0.  1.
     999901    1    3    3    0    0 -0.81767355955E-01 -0.11258257279E+00 -0.27684093242E-01  0.89136252177E+00  0.88000000000E+00 0. -1.
        -11    1    4    4    0    0  0.26245296593E-01  0.31245667750E-01  0.18095838233E-02  0.40849027663E-01  0.51100000000E-03 0. -1.
         11    1    4    4    0    0  0.57294807406E-01  0.57341740366E-01  0.31570788737E-01  0.86992792612E-01  0.51100000000E-03 0.  1.
</event>
<event>
 8    1  0.1114333E+005  0.1043930E+01  0.7957747E-01            NaN
         13   -1    0    0    0    0  0.00000000000E+00  0.00000000000E+00  0.74505805969E-08  0.10566000000E+00  0.10566000000E+00 0.  1.
     999900   -1    0    0    0    0 -0.00000000000E+00 -0.00000000000E+00 -0.74505805969E-08  0.93827000000E+00  0.93827000000E+00 0.  1.
     999902    2    1    2    0    0  0.22550385418E-01 -0.58003978477E-02 -0.29570754948E-02  0.10204585537E+01  0.10201885860E+01 0.  0.
     999903    2    3    3    0    0 -0.17028330290E-01 -0.12422028670E+00  0.32265116524E-01  0.13094725659E+00  0.19634220214E-01 0.  0.
         14    1    1    2    0    0 -0.22550385418E-01  0.58003978477E-02  0.29570754948E-02  0.23471446338E-01  0.00000000000E+00 0.  1.
     999901    1    3    3    0    0  0.39578715708E-01  0.11841988885E+00 -0.35222192018E-01  0.88951129707E+00  0.88000000000E+00 0. -1.
        -11    1    4    4    0    0 -0.12922596090E-01 -0.57803429003E-01  0.65007893961E-02  0.59588180691E-01  0.51100000000E-03 0.  1.
         11    1    4    4    0    0 -0.41057341999E-02 -0.66416857696E-01  0.25764327128E-01  0.71359075897E-01  0.51100000000E-03 0. -1.
</event>
<event>
 8    1  0.1114333E+005  0.1043930E+01  0.7957747E-01            NaN
         13   -1    0    0    0    0  0.00000000000E+00  0.00000000000E+00  0.74505805969E-08  0.10566000000E+00  0.10566000000E+00 0.  1.
     999900   -1    0    0    0    0 -0.00000000000E+00 -0.00000000000E+00 -0.74505805969E-08  0.93827000000E+00  0.93827000000E+00 0.  1.
     999902    2    1    2    0    0  0.51372031335E-02  0.93812506200E-02  0.28369778404E-01  0.10136109788E+01  0.10131574277E+01 0.  0.
     999903    2    3    3    0    0  0.86120471669E-01 -0.72984620617E-01 -0.44707267803E-01  0.12305908183E+00  0.20032656840E-01 0.  0.
         14    1    1    2    0    0 -0.51372031335E-02 -0.93812506200E-02 -0.28369778404E-01  0.30319021190E-01  0.00000000000E+00 0. -1.
     999901    1    3    3    0    0 -0.80983268535E-01  0.82365871237E-01  0.73077046206E-01  0.89055189698E+00  0.88000000000E+00 0.  1.
        -11    1    4    4    0    0  0.34184293898E-01 -0.20880974503E-01 -0.23714622484E-01  0.46553469108E-01  0.51100000000E-03 0.  1.
         11    1    4    4    0    0  0.51936177771E-01 -0.52103646114E-01 -0.20992645319E-01  0.76505612725E-01  0.51100000000E-03 0. -1.
</event>
<event>
 8    1  0.1114333E+005  0.1043930E+01  0.7957747E-01            NaN
         13   -1    0    0    0    0  0.00000000000E+00  0.00000000000E+00  0.74505805969E-08  0.10566000000E+00  0.10566000000E+00 0. -1.
     999900   -1    0    0    0    0 -0.00000000000E+00 -0.00000000000E+00 -0.74505805969E-08  0.93827000000E+00  0.93827000000E+00 0.  1.
     999902    2    1    2    0    0 -0.65848000466E-02  0.22980591977E-02  0.23148111424E-01  0.10197540671E+01  0.10194674500E+01 0.  0.
     999903    2    3    3    0    0  0.10685257267E+00  0.55634293455E-01 -0.40011611231E-01  0.12863009036E+00  0.20787597685E-01 0.  0.
         14    1    1    2    0    0  0.65848000466E-02 -0.22980591977E-02 -0.23148111424E-01  0.24175932872E-01  0.00000000000E+00 0.  1.
     999901    1    3    3    0    0 -0.11343737271E+00 -0.53336234257E-01  0.63159722655E-01  0.89112397677E+00  0.88000000000E+00 0. -1.
        -11    1    4    4    0    0  0.76446918705E-01  0.49867961385E-01 -0.28825807094E-01  0.95719032736E-01  0.51100000000E-03 0. -1.
         11    1    4    4    0    0  0.30405653963E-01  0.57663320696E-02 -0.11185804137E-01  0.32911057620E-01  0.51100000000E-03 0.  1.
</event>
<event>
 7    1  0.1114333E+005  0.1043930E+01  0.7957747E-01            NaN
         13   -1    0    0    0    0  0.00000000000E+00  0.00000000000E+00  0.74505805969E-08  0.10566000000E+00  0.10566000000E+00 0. -1.
     999900   -1    0    0    0    0 -0.00000000000E+00 -0.00000000000E+00 -0.74505805969E-08  0.93827000000E+00  0.93827000000E+00 0. -1.
     999902    2    1    2    0    0 -0.19780393655E-01  0.15018562547E-01 -0.45863199703E-02  0.10186741982E+01  0.10183610688E+01 0.  0.
         14    1    1    2    0    0  0.19780393655E-01 -0.15018562547E-01  0.45863199703E-02  0.25255801809E-01  0.00000000000E+00 0.  1.
     999901    1    3    3    0    0  0.73732933210E-01 -0.64824756185E-01 -0.38058670593E-01  0.88627718963E+00  0.88000000000E+00 0. -1.
        -11    1    3    3    0    0 -0.69427548539E-02  0.16172682539E-01  0.15463575897E-01  0.23433753561E-01  0.51100000000E-03 0. -1.
         11    1    3    3    0    0 -0.86570572011E-01  0.63670636194E-01  0.18008774726E-01  0.10896325500E+00  0.51100000000E-03 0.  1.
</event>
<event>
 8    1  0.1114333E+005  0.1043930E+01  0.7957747E-01            NaN
         13   -1    0    0    0    0  0.00000000000E+00  0.00000000000E+00  0.74505805969E-08  0.10566000000E+00  0.10566000000E+00 0.  1.
     999900   -1    0    0    0    0 -0.00000000000E+00 -0.00000000000E+00 -0.74505805969E-08  0.93827000000E+00  0.93827000000E+00 0.  1.
     999902    2    1    2    0    0  0.50198847680E-02  0.20117107367E-01 -0.13272974151E-01  0.10193115294E+01  0.10190141927E+01 0.  0.
     999903    2    3    3    0    0 -0.56626589563E-01 -0.95725926552E-01 -0.60626450890E-01  0.12832205243E+00  0.20517283770E-01 0.  0.
         14    1    1    2    0    0 -0.50198847680E-02 -0.20117107367E-01  0.13272974151E-01  0.24618470601E-01  0.00000000000E+00 0.  1.
     999901    1    3    3    0    0  0.61646474331E-01  0.11584303392E+00  0.47353476738E-01  0.89098947697E+00  0.88000000000E+00 0. -1.
        -11    1    4    4    0    0 -0.31018850369E-01 -0.41574375522E-01 -0.37937082968E-01  0.64265707522E-01  0.51100000000E-03 0.  1.
         11    1    4    4    0    0 -0.25607739194E-01 -0.54151551030E-01 -0.22689367922E-01  0.64056344910E-01  0.51100000000E-03 0. -1.
</event>
<event>
 8    1  0.1114333E+005  0.1043930E+01  0.7957747E-01            NaN
         13   -1    0    0    0    0  0.00000000000E+00  0.00000000000E+00  0.74505805969E-08  0.10566000000E+00  0.10566000000E+00 0. -1.
     999900   -1    0    0    0    0 -0.00000000000E+00 -0.00000000000E+00 -0.74505805969E-08  0.93827000000E+00  0.93827000000E+00 0. -1.
     999902    2    1    2    0    0 -0.22822723391E-01 -0.14017201446E-01  0.12903628809E-01  0.10142001787E+01  0.10137643415E+01 0.  0.
     999903    2    3    3    0    0 -0.11585873556E+00  0.12543031418E-01  0.49463996680E-01  0.12814272793E+00  0.19831729924E-01 0.  0.
         14    1    1    2    0    0  0.22822723391E-01  0.14017201446E-01 -0.12903628809E-01  0.29729821321E-01  0.00000000000E+00 0.  1.
     999901    1    3    3    0    0  0.93036012166E-01 -0.26560232864E-01 -0.36560367871E-01  0.88605745075E+00  0.88000000000E+00 0. -1.
        -11    1    4    4    0    0 -0.95807225922E-01  0.17432631117E-01  0.38042682657E-01  0.10454868718E+00  0.51100000000E-03 0.  1.
         11    1    4    4    0    0 -0.20051509634E-01 -0.48895996988E-02  0.11421314023E-01  0.23594040748E-01  0.51100000000E-03 0. -1.
</event>
<event>
 8    1  0.1114333E+005  0.1043930E+01  0.7957747E-01            NaN
         13   -1    0    0    0    0  0.00000000000E+00  0.00000000000E+00  0.74505805969E-08  0.10566000000E+00  0.10566000000E+00 0.  1.
     999900   -1    0    0    0    0 -0.00000000000E+00 -0.00000000000E+00 -0.74505805969E-08  0.93827000000E+00  0.93827000000E+00 0.  1.
     999902    2    1    2    0    0 -0.86378837176E-02 -0.16459200708E-01  0.15142778523E-01  0.10199545529E+01  0.10196727259E+01 0.  0.
     999903    2    3    3    0    0  0.10324075066E-01  0.56805853017E-01 -0.11201752174E+00  0.12759976585E+00  0.20007088898E-01 0.  0.
         14    1    1    2    0    0  0.86378837176E-02  0.16459200708E-01 -0.15142778523E-01  0.23975447117E-01  0.00000000000E+00 0. -1.
     999901    1    3    3    0    0 -0.18961958784E-01 -0.73265053725E-01  0.12716030026E+00  0.89235478703E+00  0.88000000000E+00 0. -1.
        -11    1    4    4    0    0  0.12193104137E-01  0.45946415589E-01 -0.10266551266E+00  0.11313802855E+00  0.51100000000E-03 0. -1.
         11    1    4    4    0    0 -0.18690290706E-02  0.10859437428E-01 -0.93520090768E-02  0.14461737299E-01  0.51100000000E-03 0.  1.
</event>
<event>
 8    1  0.1114333E+005  0.1043930E+01  0.7957747E-01            NaN
         13   -1    0    0    0    0  0.00000000000E+00  0.00000000000E+00  0.74505805969E-08  0.10566000000E+00  0.10566000000E+00 0. -1.
     999900   -1    0    0    0    0 -0.00000000000E+00 -0.00000000000E+00 -0.74505805969E-08  0.93827000000E+00  0.93827000000E+00 0.  1.
     999902    2    1    2    0    0  0.18391290342E-01  0.13454930985E-01 -0.48706649515E-02  0.10206276803E+01  0.10203616337E+01 0.  0.
     999903    2    3    3    0    0  0.64208942371E-01 -0.53281925927E-02 -0.11414102157E+00  0.13248801005E+00  0.19331892917E-01 0.  0.
         14    1    1    2    0    0 -0.18391290342E-01 -0.13454930985E-01  0.48706649515E-02  0.23302319742E-01  0.00000000000E+00 0. -1.
     999901    1    3    3    0    0 -0.45817652029E-01  0.18783123578E-01  0.10927035662E+00  0.88813967021E+00  0.88000000000E+00 0. -1.
        -11    1    4    4    0    0  0.25200856119E-01 -0.67948437334E-02 -0.30242523785E-01  0.39951525833E-01  0.51100000000E-03 0. -1.
         11    1    4    4    0    0  0.39008086252E-01  0.14666511407E-02 -0.83898497787E-01  0.92536484213E-01  0.51100000000E-03 0.  1.
</event>
<event>
 8    1  0.1114333E+005  0.1043930E+01  0.7957747E-01            NaN
         13   -1    0    0    0    0  0.00000000000E+00  0.00000000000E+00  0.74505805969E-08  0.10566000000E+00  0.10566000000E+00 0. -1.
     999900   -1    0    0    0    0 -0.00000000000E+00 -0.00000000000E+00 -0.74505805969E-08  0.93827000000E+00  0.93827000000E+00 0.  1.
     999902    2    1    2    0    0 -0.15735398701E-02  0.52417263721E-02  0.22694853057E-01  0.10205845919E+01  0.10203175492E+01 0.  0.
     999903    2    3    3    0    0  0.32888823904E-01 -0.26417667746E-01  0.12495964846E+00  0.13342730027E+00  0.20207988677E-01 0.  0.
         14    1    1    2    0    0  0.15735398701E-02 -0.52417263721E-02 -0.22694853057E-01  0.23345408078E-01  0.00000000000E+00 0.  1.
     999901    1    3    3    0    0 -0.34462363774E-01  0.31659394118E-01 -0.10226479541E+00  0.88715729165E+00  0.88000000000E+00 0.  1.
        -11    1    4    4    0    0  0.22176678864E-01 -0.27705516288E-01  0.10323511507E+00  0.10916570351E+00  0.51100000000E-03 0. -1.
         11    1    4    4    0    0  0.10712145040E-01  0.12878485416E-02  0.21724533395E-01  0.24261596763E-01  0.51100000000E-03 0.  1.
</event>
<event>
 8    1  0.1114333E+005  0.1043930E+01  0.7957747E-01            NaN
         13   -1    0    0    0    0  0.00000000000E+00  0.00000000000E+00  0.74505805969E-08  0.10566000000E+00  0.10566000000E+00 0.  1.
     999900   -1    0    0    0    0 -0.00000000000E+00 -0.00000000000E+00 -0.74505805969E-08  0.93827000000E+00  0.93827000000E+00 0. -1.
     999902    2    1    2    0    0  0.15665031017E-01 -0.32084250260E-02 -0.16700140912E-01  0.10208089729E+01  0.10205470970E+01 0.  0.
     999903    2    3    3    0    0  0.86834710354E-01  0.43481897287E-01  0.85338330643E-01  0.13083315349E+00  0.20093308844E-01 0.  0.
         14    1    1    2    0    0 -0.15665031017E-01  0.32084250260E-02  0.16700140912E-01  0.23121027105E-01  0.00000000000E+00 0.  1.
     999901    1    3    3    0    0 -0.71169679337E-01 -0.46690322313E-01 -0.10203847156E+00  0.88997581941E+00  0.88000000000E+00 0. -1.
        -11    1    4    4    0    0  0.14497323065E-01  0.75222078016E-02  0.25559589091E-01  0.30336606629E-01  0.51100000000E-03 0.  1.
         11    1    4    4    0    0  0.72337387289E-01  0.35959689486E-01  0.59778741552E-01  0.10049654686E+00  0.51100000000E-03 0. -1.
</event>
<event>
 8    1  0.1114333E+005  0.1043930E+01  0.7957747E-01            NaN
         13   -1    0    0    0    0  0.00000000000E+00  0.00000000000E+00  0.74505805969E-08  0.10566000000E+00  0.10566000000E+00 0.  1.
     999900   -1    0    0    0    0 -0.00000000000E+00 -0.00000000000E+00 -0.74505805969E-08  0.93827000000E+00  0.93827000000E+00 0. -1.
     999902    2    1    2    0    0 -0.11990603706E-01 -0.51959586145E-02  0.21129484807E-01  0.10190859325E+01  0.10187830535E+01 0.  0.
     999903    2    3    3    0    0  0.94116590580E-01  0.70490597511E-01 -0.43669800729E-01  0.12712957767E+00  0.20688669944E-01 0.  0.
         14    1    1    2    0    0  0.11990603706E-01  0.51959586145E-02 -0.21129484807E-01  0.24844067529E-01  0.00000000000E+00 0.  1.
     999901    1    3    3    0    0 -0.10610719429E+00 -0.75686556126E-01  0.64799285536E-01  0.89195635480E+00  0.88000000000E+00 0.  1.
        -11    1    4    4    0    0  0.40126043870E-02  0.13825036525E-02  0.20183371594E-02  0.47272736545E-02  0.51100000000E-03 0. -1.
         11    1    4    4    0    0  0.90103986193E-01  0.69108093858E-01 -0.45688137889E-01  0.12240230402E+00  0.51100000000E-03 0.  1.
</event>
<event>
 7    1  0.1114333E+005  0.1043930E+01  0.7957747E-01            NaN
         13   -1    0    0    0    0  0.00000000000E+00  0.00000000000E+00  0.74505805969E-08  0.10566000000E+00  0.10566000000E+00 0.  1.
     999900   -1    0    0    0    0 -0.00000000000E+00 -0.00000000000E+00 -0.74505805969E-08  0.93827000000E+00  0.93827000000E+00 0.  1.
     999902    2    1    2    0    0  0.21761596215E-01  0.47801159448E-02 -0.78303168455E-02  0.10203136828E+01  0.10200403329E+01 0.  0.
         14    1    1    2    0    0 -0.21761596215E-01 -0.47801159448E-02  0.78303168455E-02  0.23616317244E-01  0.00000000000E+00 0. -1.
     999901    1    3    3    0    0  0.31422801863E-01  0.11486744441E+00 -0.59293552849E-01  0.88999867847E+00  0.88000000000E+00 0. -1.
        -11    1    3    3    0    0  0.84926682767E-02 -0.92656528548E-01  0.31655512589E-01  0.98283723450E-01  0.51100000000E-03 0. -1.
         11    1    3    3    0    0 -0.18153873924E-01 -0.17430799920E-01  0.19807723414E-01  0.32031280839E-01  0.51100000000E-03 0.  1.
</event>
<event>
 8    1  0.1114333E+005  0.1043930E+01  0.7957747E-01            NaN
         13   -1    0    0    0    0  0.00000000000E+00  0.00000000000E+00  0.74505805969E-08  0.10566000000E+00  0.10566000000E+00 0.  1.
     999900   -1    0    0    0    0 -0.00000000000E+00 -0.00000000000E+00 -0.74505805969E-08  0.93827000000E+00  0.93827000000E+00 0.  1.
     999902    2    1    2    0    0 -0.17053514826E-01 -0.10958612206E-01  0.14709567609E-01  0.10188843431E+01  0.10185764673E+01 0.  0.
     999903    2    3    3    0    0 -0.10282503783E+00 -0.10555155213E-01  0.79995190254E-01  0.13230714430E+00  0.20531689250E-01 0.  0.
         14    1    1    2    0    0  0.17053514826E-01  0.10958612206E-01 -0.14709567609E-01  0.25045656882E-01  0.00000000000E+00 0. -1.
     999901    1    3    3    0    0  0.85771523004E-01 -0.40345699336E-03 -0.65285622645E-01  0.88657719882E+00  0.88000000000E+00 0.  1.
        -11    1    4    4    0    0 -0.46808780181E-01 -0.15084791655E-01  0.37661329185E-01  0.61945538001E-01  0.51100000000E-03 0.  1.
         11    1    4    4    0    0 -0.56016257649E-01  0.45296364421E-02  0.42333861069E-01  0.70361606301E-01  0.51100000000E-03 0. -1.
</event>
<event>
 8    1  0.1114333E+005  0.1043930E+01  0.7957747E-01            NaN
         13   -1    0    0    0    0  0.00000000000E+00  0.00000000000E+00  0.74505805969E-08  0.10566000000E+00  0.10566000000E+00 0. -1.
     999900   -1    0    0    0    0 -0.00000000000E+00 -0.00000000000E+00 -0.74505805969E-08  0.93827000000E+00  0.93827000000E+00 0. -1.
     999902    2    1    2    0    0  0.43500475885E-02 -0.56059640710E-02 -0.22978649675E-01  0.10198807154E+01  0.10195971291E+01 0.  0.
     999903    2    3    3    0    0  0.10630330956E+00 -0.66044904874E-01  0.30165966721E-01  0.13034618353E+00  0.20440619608E-01 0.  0.
         14    1    1    2    0    0 -0.43500475885E-02  0.56059640710E-02  0.22978649675E-01  0.24049284565E-01  0.00000000000E+00 0. -1.
     999901    1    3    3    0    0 -0.10195326197E+00  0.60438940803E-01 -0.53144616396E-01  0.88953453190E+00  0.88000000000E+00 0. -1.
        -11    1    4    4    0    0  0.31770067500E-01 -0.24975516858E-01  0.11389722646E-02  0.40431077281E-01  0.51100000000E-03 0. -1.
         11    1    4    4    0    0  0.74533242062E-01 -0.41069388016E-01  0.29026994457E-01  0.89915106253E-01  0.51100000000E-03 0.  1.
</event>
<event>
 8    1  0.1114333E+005  0.1043930E+01  0.7957747E-01            NaN
         13   -1    0    0    0    0  0.00000000000E+00  0.00000000000E+00  0.74505805969E-08  0.10566000000E+00  0.10566000000E+00 0.  1.
     999900   -1    0    0    0    0 -0.00000000000E+00 -0.00000000000E+00 -0.74505805969E-08  0.93827000000E+00  0.93827000000E+00 0. -1.
     999902    2    1    2    0    0 -0.13717331396E-02  0.18986359847E-01 -0.13639576175E-01  0.10205120251E+01  0.10202433003E+01 0.  0.
     999903    2    3    3    0    0  0.61818798697E-01 -0.98145545557E-01  0.50814234519E-01  0.12817396116E+00  0.19808228188E-01 0.  0.
         14    1    1    2    0    0  0.13717331396E-02 -0.18986359847E-01  0.13639576175E-01  0.23417974940E-01  0.00000000000E+00 0.  1.
     999901    1    3    3    0    0 -0.63190531836E-01  0.11713190540E+00 -0.64453810694E-01  0.89233806390E+00  0.88000000000E+00 0. -1.
        -11    1    4    4    0    0  0.13764564398E-01 -0.34234975622E-01  0.23143620179E-01  0.43558983745E-01  0.51100000000E-03 0.  1.
         11    1    4    4    0    0  0.48054234299E-01 -0.63910569934E-01  0.27670614339E-01  0.84614977411E-01  0.51100000000E-03 0. -1.
</event>
<event>
 8    1  0.1114333E+005  0.1043930E+01  0.7957747E-01            NaN
         13   -1    0    0    0    0  0.00000000000E+00  0.00000000000E+00  0.74505805969E-08  0.10566000000E+00  0.10566000000E+00 0.  1.
     999900   -1    0    0    0    0 -0.00000000000E+00 -0.00000000000E+00 -0.74505805969E-08  0.93827000000E+00  0.93827000000E+00 0.  1.
     999902    2    1    2    0    0  0.21421504295E-01 -0.78175194266E-02  0.51151255880E-02  0.10205599558E+01  0.10202923426E+01 0.  0.
     999903    2    3    3    0    0 -0.79984230839E-02 -0.10528991269E+00 -0.75058510596E-01  0.13106897129E+00  0.19883529289E-01 0.  0.
         14    1    1    2    0    0 -0.21421504295E-01  0.78175194266E-02 -0.51151255880E-02  0.23370044202E-01  0.00000000000E+00 0. -1.
     999901    1    3    3    0    0  0.29419927379E-01  0.97472393263E-01  0.80173636184E-01  0.88949098450E+00  0.88000000000E+00 0. -1.
        -11    1    4    4    0    0 -0.10782911467E-01 -0.33624919373E-01 -0.19462416896E-01  0.40323109689E-01  0.51100000000E-03 0.  1.
         11    1    4    4    0    0  0.27844883832E-02 -0.71664993316E-01 -0.55596093700E-01  0.90745861605E-01  0.51100000000E-03 0. -1.
</event>
<event>
 8    1  0.1114333E+005  0.1043930E+01  0.7957747E-01            NaN
         13   -1    0    0    0    0  0.00000000000E+00  0.00000000000E+00  0.74505805969E-08  0.10566000000E+00  0.10566000000E+00 0. -1.
     999900   -1    0    0    0    0 -0.00000000000E+00 -0.00000000000E+00 -0.74505805969E-08  0.93827000000E+00  0.93827000000E+00 0. -1.
     999902    2    1    2    0    0 -0.51348077287E-02 -0.21675094475E-02 -0.22388508987E-01  0.10208581626E+01  0.10205974125E+01 0.  0.
     999903    2    3    3    0    0 -0.53449490278E-01 -0.67261493004E-01 -0.10028217017E+00  0.13370600105E+00  0.20971995852E-01 0.  0.
         14    1    1    2    0    0  0.51348077287E-02  0.21675094475E-02  0.22388508987E-01  0.23071837428E-01  0.00000000000E+00 0. -1.
     999901    1    3    3    0    0  0.48314682549E-01  0.65093983557E-01  0.77893661183E-01  0.88715216152E+00  0.88000000000E+00 0.  1.
        -11    1    4    4    0    0 -0.40536058246E-01 -0.55639757683E-01 -0.66502906444E-01  0.95717565471E-01  0.51100000000E-03 0. -1.
         11    1    4    4    0    0 -0.12913432032E-01 -0.11621735321E-01 -0.33779263726E-01  0.37988435577E-01  0.51100000000E-03 0.  1.
</event>
<event>
 8    1  0.1114333E+005  0.1043930E+01  0.7957747E-01            NaN
         13   -1    0    0    0    0  0.00000000000E+00  0.00000000000E+00  0.74505805969E-08  0.10566000000E+00  0.10566000000E+00 0.  1.
     999900   -1    0    0    0    0 -0.00000000000E+00 -0.00000000000E+00 -0.74505805969E-08  0.93827000000E+00  0.93827000000E+00 0.  1.
     999902    2    1    2    0    0  0.97218821232E-03  0.16872957304E-01 -0.16594525353E-01  0.10202441369E+01  0.10199691558E+01 0.  0.
     999903    2    3    3    0    0  0.10448891879E+00  0.17900589873E-01  0.72232762307E-01  0.12973470038E+00  0.19368925211E-01 0.  0.
         14    1    1    2    0    0 -0.97218821232E-03 -0.16872957304E-01  0.16594525353E-01  0.23685863079E-01  0.00000000000E+00 0. -1.
     999901    1    3    3    0    0 -0.10351673058E+00 -0.10276325689E-02 -0.88827287660E-01  0.89050943654E+00  0.88000000000E+00 0.  1.
        -11    1    4    4    0    0  0.68767285694E-01  0.32830430675E-02  0.51006048451E-01  0.85683114166E-01  0.51100000000E-03 0. -1.
         11    1    4    4    0    0  0.35721633097E-01  0.14617546806E-01  0.21226713856E-01  0.44051586212E-01  0.51100000000E-03 0.  1.
</event>
<event>
 8    1  0.1114333E+005  0.1043930E+01  0.7957747E-01            NaN
         13   -1    0    0    0    0  0.00000000000E+00  0.00000000000E+00  0.74505805969E-08  0.10566000000E+00  0.10566000000E+00 0. -1.
     999900   -1    0    0    0    0 -0.00000000000E+00 -0.00000000000E+00 -0.74505805969E-08  0.93827000000E+00  0.93827000000E+00 0.  1.
     999902    2    1    2    0    0  0.94778497037E-02  0.23534009577E-02  0.21621821030E-01  0.10202050917E+01  0.10199291925E+01 0.  0.
     999903    2    3    3    0    0  0.58233812652E-01 -0.26029680813E-01  0.11535287121E+00  0.13343102065E+00  0.20708238848E-01 0.  0.
         14    1    1    2    0    0 -0.94778497037E-02 -0.23534009577E-02 -0.21621821030E-01  0.23724908339E-01  0.00000000000E+00 0.  1.
     999901    1    3    3    0    0 -0.48755962948E-01  0.28383081771E-01 -0.93731050177E-01  0.88677407101E+00  0.88000000000E+00 0.  1.
        -11    1    4    4    0    0  0.52910958867E-01 -0.26840834426E-01  0.11279552739E+00  0.12744838987E+00  0.51100000000E-03 0. -1.
         11    1    4    4    0    0  0.53228537847E-02  0.81115361316E-03  0.25573438179E-02  0.59826307758E-02  0.51100000000E-03 0.  1.
</event>
<event>
 8    1  0.1114333E+005  0.1043930E+01  0.7957747E-01            NaN
         13   -1    0    0    0    0  0.00000000000E+00  0.00000000000E+00  0.74505805969E-08  0.10566000000E+00  0.10566000000E+00 0.  1.
     999900   -1    0    0    0    0 -0.00000000000E+00 -0.00000000000E+00 -0.74505805969E-08  0.93827000000E+00  0.93827000000E+00 0.  1.
     999902    2    1    2    0    0 -0.29362740762E-02 -0.16589371237E-01 -0.13865341315E-01  0.10221108196E+01  0.10218779041E+01 0.  0.
     999903    2    3    3    0    0 -0.68804221515E-01  0.97292948472E-01  0.48407794098E-01  0.13015470373E+00  0.19924699586E-01 0.  0.
         14    1    1    2    0    0  0.29362740762E-02  0.16589371237E-01  0.13865341315E-01  0.21819180399E-01  0.00000000000E+00 0.  1.
     999901    1    3    3    0    0  0.65867947439E-01 -0.11388231971E+00 -0.62273135413E-01  0.89195611587E+00  0.88000000000E+00 0. -1.
        -11    1    4    4    0    0 -0.31878988708E-01  0.50087196404E-01  0.34348278297E-01  0.68593458198E-01  0.51100000000E-03 0.  1.
         11    1    4    4    0    0 -0.36925232807E-01  0.47205752067E-01  0.14059515801E-01  0.61561245534E-01  0.51100000000E-03 0. -1.
</event>
<event>
 8    1  0.1114333E+005  0.1043930E+01  0.7957747E-01            NaN
         13   -1    0    0    0    0  0.00000000000E+00  0.00000000000E+00  0.74505805969E-08  0.10566000000E+00  0.10566000000E+00 0. -1.
     999900   -1    0    0    0    0 -0.00000000000E+00 -0.00000000000E+00 -0.74505805969E-08  0.93827000000E+00  0.93827000000E+00 0. -1.
     999902    2    1    2    0    0 -0.41694584421E-02  0.14520680981E-01  0.19830388931E-01  0.10190005218E+01  0.10186955308E+01 0.  0.
     999903    2    3    3    0    0 -0.60248751456E-01 -0.54873868217E-01  0.99759617248E-01  0.13088500445E+00  0.23191586633E-01 0.  0.
         14    1    1    2    0    0  0.41694584421E-02 -0.14520680981E-01 -0.19830388931E-01  0.24929478233E-01  0.00000000000E+00 0.  1.
     999901    1    3    3    0    0  0.56079293014E-01  0.69394549198E-01 -0.79929228318E-01  0.88811551732E+00  0.88000000000E+00 0. -1.
        -11    1    4    4    0    0 -0.39426597005E-01 -0.48936016973E-01  0.69892422006E-01  0.93991500059E-01  0.51100000000E-03 0.  1.
         11    1    4    4    0    0 -0.20822154451E-01 -0.59378512441E-02  0.29867195243E-01  0.36893504388E-01  0.51100000000E-03 0. -1.
</event>
<event>
 8    1  0.1114333E+005  0.1043930E+01  0.7957747E-01            NaN
         13   -1    0    0    0    0  0.00000000000E+00  0.00000000000E+00  0.74505805969E-08  0.10566000000E+00  0.10566000000E+00 0.  1.
     999900   -1    0    0    0    0 -0.00000000000E+00 -0.00000000000E+00 -0.74505805969E-08  0.93827000000E+00  0.93827000000E+00 0.  1.
     999902    2    1    2    0    0  0.23731297267E-01 -0.21412646692E-02  0.17231439257E-02  0.10200400710E+01  0.10197602746E+01 0.  0.
     999903    2    3    3    0    0  0.92519201542E-01 -0.29334188017E-01 -0.87948915015E-01  0.13239582409E+00  0.19322146444E-01 0.  0.
         14    1    1    2    0    0 -0.23731297267E-01  0.21412646692E-02 -0.17231439257E-02  0.23889929036E-01  0.00000000000E+00 0. -1.
     999901    1    3    3    0    0 -0.68787904275E-01  0.27192923348E-01  0.89672058941E-01  0.88764424687E+00  0.88000000000E+00 0. -1.
        -11    1    4    4    0    0  0.60095726691E-01 -0.28272980743E-01 -0.61872531568E-01  0.90770750191E-01  0.51100000000E-03 0.  1.
         11    1    4    4    0    0  0.32423474852E-01 -0.10612072733E-02 -0.26076383448E-01  0.41625073898E-01  0.51100000000E-03 0. -1.
</event>
<event>
 8    1  0.1114333E+005  0.1043930E+01  0.7957747E-01            NaN
         13   -1    0    0    0    0  0.00000000000E+00  0.00000000000E+00  0.74505805969E-08  0.10566000000E+00  0.10566000000E+00 0.  1.
     999900   -1    0    0    0    0 -0.00000000000E+00 -0.00000000000E+00 -0.74505805969E-08  0.93827000000E+00  0.93827000000E+00 0.  1.
     999902    2    1    2    0    0 -0.19755972635E-01 -0.31378951511E-02  0.11988767090E-01  0.10206088642E+01  0.10203423828E+01 0.  0.
     999903    2    3    3    0    0 -0.38035251444E-01 -0.11772518493E+00  0.43947665701E-01  0.13241645808E+00  0.17228509260E-01 0.  0.
         14    1    1    2    0    0  0.19755972635E-01  0.31378951511E-02 -0.11988767090E-01  0.23321135844E-01  0.00000000000E+00 0. -1.
     999901    1    3    3    0    0  0.18279278809E-01  0.11458728978E+00 -0.31958898611E-01  0.88819240608E+00  0.88000000000E+00 0.  1.
        -11    1    4    4    0    0 -0.14076679385E-01 -0.68322625458E-01  0.28682517593E-01  0.75426003397E-01  0.51100000000E-03 0. -1.
         11    1    4    4    0    0 -0.23958572059E-01 -0.49402559469E-01  0.15265148108E-01  0.56990454682E-01  0.51100000000E-03 0.  1.
</event>
<event>
 8    1  0.1114333E+005  0.1043930E+01  0.7957747E-01            NaN
         13   -1    0    0    0    0  0.00000000000E+00  0.00000000000E+00  0.74505805969E-08  0.10566000000E+00  0.10566000000E+00 0.  1.
     999900   -1    0    0    0    0 -0.00000000000E+00 -0.00000000000E+00 -0.74505805969E-08  0.93827000000E+00  0.93827000000E+00 0.  1.
     999902    2    1    2    0    0 -0.21335416069E-01  0.27358117862E-02  0.12029738975E-01  0.10192845285E+01  0.10189865312E+01 0.  0.
     999903    2    3    3    0    0 -0.85403626340E-01  0.88401612700E-01 -0.41684090312E-01  0.13118062667E+00  0.19030735885E-01 0.  0.
         14    1    1    2    0    0  0.21335416069E-01 -0.27358117862E-02 -0.12029738975E-01  0.24645471486E-01  0.00000000000E+00 0. -1.
     999901    1    3    3    0    0  0.64068210271E-01 -0.85665800914E-01  0.53713829288E-01  0.88810390184E+00  0.88000000000E+00 0. -1.
        -11    1    4    4    0    0 -0.23720510700E-01  0.19022658707E-01 -0.18125182762E-01  0.35402083884E-01  0.51100000000E-03 0.  1.
         11    1    4    4    0    0 -0.61683115640E-01  0.69378953993E-01 -0.23558907550E-01  0.95778542786E-01  0.51100000000E-03 0. -1.
</event>
<event>
 8    1  0.1114333E+005  0.1043930E+01  0.7957747E-01            NaN
         13   -1    0    0    0    0  0.00000000000E+00  0.00000000000E+00  0.74505805969E-08  0.10566000000E+00  0.10566000000E+00 0.  1.
     999900   -1    0    0    0    0 -0.00000000000E+00 -0.00000000000E+00 -0.74505805969E-08  0.93827000000E+00  0.93827000000E+00 0. -1.
     999902    2    1    2    0    0 -0.12955471159E-01 -0.22215274169E-01  0.82544429046E-02  0.10169207707E+01  0.10165620273E+01 0.  0.
     999903    2    3    3    0    0 -0.64976451256E-01  0.33539026132E-01 -0.10162934248E+00  0.12681450140E+00  0.20164052679E-01 0.  0.
         14    1    1    2    0    0  0.12955471159E-01  0.22215274169E-01 -0.82544429046E-02  0.27009229294E-01  0.00000000000E+00 0. -1.
     999901    1    3    3    0    0  0.52020980096E-01 -0.55754300301E-01  0.10988378538E+00  0.89010626931E+00  0.88000000000E+00 0.  1.
        -11    1    4    4    0    0 -0.30470032275E-01  0.51996801022E-02 -0.36277742820E-01  0.47663353691E-01  0.51100000000E-03 0. -1.
         11    1    4    4    0    0 -0.34506418981E-01  0.28339346030E-01 -0.65351599659E-01  0.79151147706E-01  0.51100000000E-03 0.  1.
</event>
<event>
 8    1  0.1114333E+005  0.1043930E+01  0.7957747E-01            NaN
         13   -1    0    0    0    0  0.00000000000E+00  0.00000000000E+00  0.74505805969E-08  0.10566000000E+00  0.10566000000E+00 0. -1.
     999900   -1    0    0    0    0 -0.00000000000E+00 -0.00000000000E+00 -0.74505805969E-08  0.93827000000E+00  0.93827000000E+00 0. -1.
     999902    2    1    2    0    0 -0.19330655457E-01  0.21595484545E-02  0.13875163135E-01  0.10200373643E+01  0.10197575038E+01 0.  0.
     999903    2    3    3    0    0  0.11828846356E+00 -0.26014405803E-01  0.37840864028E-01  0.12857387740E+00  0.20746108976E-01 0.  0.
         14    1    1    2    0    0  0.19330655457E-01 -0.21595484545E-02 -0.13875163135E-01  0.23892635726E-01  0.00000000000E+00 0.  1.
     999901    1    3    3    0    0 -0.13761911902E+00  0.28173954257E-01 -0.23965700893E-01  0.89146348688E+00  0.88000000000E+00 0.  1.
        -11    1    4    4    0    0  0.19190305207E-01 -0.34554489846E-02 -0.15627302024E-02  0.19568116627E-01  0.51100000000E-03 0.  1.
         11    1    4    4    0    0  0.99098158353E-01 -0.22558956818E-01  0.39403594230E-01  0.10900576077E+00  0.51100000000E-03 0. -1.
</event>
<event>
 8    1  0.1114333E+005  0.1043930E+01  0.7957747E-01            NaN
         13   -1    0    0    0    0  0.00000000000E+00  0.00000000000E+00  0.74505805969E-08  0.10566000000E+00  0.10566000000E+00 0.  1.
     999900   -1    0    0    0    0 -0.00000000000E+00 -0.00000000000E+00 -0.74505805969E-08  0.93827000000E+00  0.93827000000E+00 0. -1.
     999902    2    1    2    0    0 -0.15038357545E-01 -0.42128139624E-02 -0.17656701897E-01  0.10203575771E+01  0.10200852543E+01 0.  0.
     999903    2    3    3    0    0  0.79418700659E-01 -0.97963264974E-01 -0.26065896311E-01  0.13031151231E+00  0.19938104009E-01 0.  0.
         14    1    1    2    0    0  0.15038357545E-01  0.42128139624E-02  0.17656701897E-01  0.23572422892E-01  0.00000000000E+00 0.  1.
     999901    1    3    3    0    0 -0.94457058204E-01  0.93750451012E-01  0.84091944135E-02  0.89004606480E+00  0.88000000000E+00 0. -1.
        -11    1    4    4    0    0  0.46970367979E-01 -0.46412212374E-01 -0.20495353400E-01  0.69142096855E-01  0.51100000000E-03 0. -1.
         11    1    4    4    0    0  0.32448332680E-01 -0.51551052600E-01 -0.55705429114E-02  0.61169415456E-01  0.51100000000E-03 0.  1.
</event>
<event>
 8    1  0.1114333E+005  0.1043930E+01  0.7957747E-01            NaN
         13   -1    0    0    0    0  0.00000000000E+00  0.00000000000E+00  0.74505805969E-08  0.10566000000E+00  0.10566000000E+00 0. -1.
     999900   -1    0    0    0    0 -0.00000000000E+00 -0.00000000000E+00 -0.74505805969E-08  0.93827000000E+00  0.93827000000E+00 0.  1.
     999902    2    1    2    0    0  0.16799428665E-01 -0.15487379012E-01 -0.67723786290E-02  0.10200984070E+01  0.10198199915E+01 0.  0.
     999903    2    3    3    0    0 -0.11560054956E+00  0.14755503824E-01 -0.49160586910E-01  0.12867193983E+00  0.23632453145E-01 0.  0.
         14    1    1    2    0    0 -0.16799428665E-01  0.15487379012E-01  0.67723786290E-02  0.23831592990E-01  0.00000000000E+00 0. -1.
     999901    1    3    3    0    0  0.13239997822E+00 -0.30242882836E-01  0.42388208281E-01  0.89142646718E+00  0.88000000000E+00 0.  1.
        -11    1    4    4    0    0 -0.43104389031E-01 -0.23333004811E-02 -0.27169693829E-01  0.51008685816E-01  0.51100000000E-03 0. -1.
         11    1    4    4    0    0 -0.72496160528E-01  0.17088804305E-01 -0.21990893081E-01  0.77663254010E-01  0.51100000000E-03 0.  1.
</event>
<event>
 7    1  0.1114333E+005  0.1043930E+01  0.7957747E-01            NaN
         13   -1    0    0    0    0  0.00000000000E+00  0.00000000000E+00  0.74505805969E-08  0.10566000000E+00  0.10566000000E+00 0. -1.
     999900   -1    0    0    0    0 -0.00000000000E+00 -0.00000000000E+00 -0.74505805969E-08  0.93827000000E+00  0.93827000000E+00 0.  1.
     999903    2    1    2    0    0 -0.85350295725E-01 -0.67546796151E-01  0.38268931701E-01  0.11717890737E+00  0.20472971179E-01 0.  0.
         14    1    1    2    0    0  0.39583284484E-01  0.69397527012E-02 -0.15837600595E-01  0.43195210043E-01  0.00000000000E+00 0.  1.
     999901    1    1    2    0    0  0.45767011242E-01  0.60607043450E-01 -0.22431331106E-01  0.88355588258E+00  0.88000000000E+00 0. -1.
        -11    1    3    3    0    0 -0.51066872496E-01 -0.31075784659E-01  0.13313613178E-01  0.61245761286E-01  0.51100000000E-03 0. -1.
         11    1    3    3    0    0 -0.34283423230E-01 -0.36471011491E-01  0.24955318523E-01  0.55933146086E-01  0.51100000000E-03 0.  1.
</event>
<event>
 8    1  0.1114333E+005  0.1043930E+01  0.7957747E-01            NaN
         13   -1    0    0    0    0  0.00000000000E+00  0.00000000000E+00  0.74505805969E-08  0.10566000000E+00  0.10566000000E+00 0.  1.
     999900   -1    0    0    0    0 -0.00000000000E+00 -0.00000000000E+00 -0.74505805969E-08  0.93827000000E+00  0.93827000000E+00 0. -1.
     999902    2    1    2    0    0 -0.18968081425E-01 -0.11491328020E-01 -0.97954351694E-02  0.10196856340E+01  0.10193973724E+01 0.  0.
     999903    2    3    3    0    0 -0.34104745861E-01 -0.20271328393E-01  0.12189487329E+00  0.12971454213E+00  0.19835368981E-01 0.  0.
         14    1    1    2    0    0  0.18968081425E-01  0.11491328020E-01  0.97954351694E-02  0.24244366000E-01  0.00000000000E+00 0.  1.
     999901    1    3    3    0    0  0.15136664436E-01  0.87800003731E-02 -0.13169030845E+00  0.88997109187E+00  0.88000000000E+00 0. -1.
        -11    1    4    4    0    0 -0.26922674694E-01 -0.53769820943E-02  0.83752346789E-01  0.88138862387E-01  0.51100000000E-03 0. -1.
         11    1    4    4    0    0 -0.71820711674E-02 -0.14894346299E-01  0.38142526496E-01  0.41575679747E-01  0.51100000000E-03 0.  1.
</event>
<event>
 8    1  0.1114333E+005  0.1043930E+01  0.7957747E-01            NaN
         13   -1    0    0    0    0  0.00000000000E+00  0.00000000000E+00  0.74505805969E-08  0.10566000000E+00  0.10566000000E+00 0.  1.
     999900   -1    0    0    0    0 -0.00000000000E+00 -0.00000000000E+00 -0.74505805969E-08  0.93827000000E+00  0.93827000000E+00 0. -1.
     999902    2    1    2    0    0 -0.40449722652E-02 -0.16148979615E-01  0.16855132544E-01  0.10202393513E+01  0.10199642577E+01 0.  0.
     999903    2    3    3    0    0  0.75821809163E-01  0.65327289754E-01  0.81915327200E-01  0.13049224442E+00  0.17363855949E-01 0.  0.
         14    1    1    2    0    0  0.40449722652E-02  0.16148979615E-01 -0.16855132544E-01  0.23690648710E-01  0.00000000000E+00 0. -1.
     999901    1    3    3    0    0 -0.79866781428E-01 -0.81476269369E-01 -0.65060194657E-01  0.88974710687E+00  0.88000000000E+00 0. -1.
        -11    1    4    4    0    0  0.71355650011E-01  0.57354421556E-01  0.68897234781E-01  0.11457856930E+00  0.51100000000E-03 0.  1.
         11    1    4    4    0    0  0.44661591521E-02  0.79728681981E-02  0.13018092419E-01  0.15913675129E-01  0.51100000000E-03 0. -1.
</event>
<event>
 8    1  0.1114333E+005  0.1043930E+01  0.7957747E-01            NaN
         13   -1    0    0    0    0  0.00000000000E+00  0.00000000000E+00  0.74505805969E-08  0.10566000000E+00  0.10566000000E+00 0.  1.
     999900   -1    0    0    0    0 -0.00000000000E+00 -0.00000000000E+00 -0.74505805969E-08  0.93827000000E+00  0.93827000000E+00 0. -1.
     999902    2    1    2    0    0 -0.98431454756E-02 -0.38136548235E-02 -0.14375710848E-01  0.10260948510E+01  0.10259398378E+01 0.  0.
     999903    2    3    3    0    0  0.87889984095E-01  0.75843039200E-01 -0.67025852744E-01  0.13555064048E+00  0.20117040046E-01 0.  0.
         14    1    1    2    0    0  0.98431454756E-02  0.38136548235E-02  0.14375710848E-01  0.17835148958E-01  0.00000000000E+00 0. -1.
     999901    1    3    3    0    0 -0.97733129571E-01 -0.79656694023E-01  0.52650141896E-01  0.89054421056E+00  0.88000000000E+00 0.  1.
        -11    1    4    4    0    0  0.50735720665E-01  0.55453829615E-01 -0.38390390570E-01  0.84399785423E-01  0.51100000000E-03 0. -1.
         11    1    4    4    0    0  0.37154263430E-01  0.20389209585E-01 -0.28635462174E-01  0.51150855061E-01  0.51100000000E-03 0.  1.
</event>
<event>
 8    1  0.1114333E+005  0.1043930E+01  0.7957747E-01            NaN
         13   -1    0    0    0    0  0.00000000000E+00  0.00000000000E+00  0.74505805969E-08  0.10566000000E+00  0.10566000000E+00 0. -1.
     999900   -1    0    0    0    0 -0.00000000000E+00 -0.00000000000E+00 -0.74505805969E-08  0.93827000000E+00  0.93827000000E+00 0. -1.
     999902    2    1    2    0    0 -0.10362768214E-01  0.17241596414E-01 -0.13191437312E-01  0.10198743639E+01  0.10195906259E+01 0.  0.
     999903    2    3    3    0    0 -0.64696886233E-01 -0.42293723463E-01  0.10110104304E+00  0.12883035722E+00  0.20034817301E-01 0.  0.
         14    1    1    2    0    0  0.10362768214E-01 -0.17241596414E-01  0.13191437312E-01  0.24055636145E-01  0.00000000000E+00 0.  1.
     999901    1    3    3    0    0  0.54334118018E-01  0.59535319878E-01 -0.11429248036E+00  0.89104400663E+00  0.88000000000E+00 0. -1.
        -11    1    4    4    0    0 -0.54285974808E-02 -0.12177702150E-01  0.15755907983E-01  0.20646449032E-01  0.51100000000E-03 0.  1.
         11    1    4    4    0    0 -0.59268288752E-01 -0.30116021314E-01  0.85345135061E-01  0.10818390819E+00  0.51100000000E-03 0. -1.
</event>
<event>
 8    1  0.1114333E+005  0.1043930E+01  0.7957747E-01            NaN
         13   -1    0    0    0    0  0.00000000000E+00  0.00000000000E+00  0.74505805969E-08  0.10566000000E+00  0.10566000000E+00 0.  1.
     999900   -1    0    0    0    0 -0.00000000000E+00 -0.00000000000E+00 -0.74505805969E-08  0.93827000000E+00  0.93827000000E+00 0. -1.
     999902    2    1    2    0    0 -0.24377614292E-01 -0.16838119691E-02  0.86868054919E-02  0.10179961632E+01  0.10176657724E+01 0.  0.
     999903    2    3    3    0    0  0.67947268617E-01 -0.94136392614E-01 -0.46100171786E-01  0.12666402727E+00  0.20977565119E-01 0.  0.
         14    1    1    2    0    0  0.24377614292E-01  0.16838119691E-02 -0.86868054919E-02  0.25933836796E-01  0.00000000000E+00 0.  1.
     999901    1    3    3    0    0 -0.92324882909E-01  0.92452580645E-01  0.54786977278E-01  0.89133213594E+00  0.88000000000E+00 0.  1.
        -11    1    4    4    0    0  0.56251510480E-02 -0.17976150676E-01 -0.12769935014E-01  0.22762176493E-01  0.51100000000E-03 0.  1.
         11    1    4    4    0    0  0.62322117569E-01 -0.76160241937E-01 -0.33330236773E-01  0.10390185078E+00  0.51100000000E-03 0. -1.
</event>
<event>
 8    1  0.1114333E+005  0.1043930E+01  0.7957747E-01            NaN
         13   -1    0    0    0    0  0.00000000000E+00  0.00000000000E+00  0.74505805969E-08  0.10566000000E+00  0.10566000000E+00 0.  1.
     999900   -1    0    0    0    0 -0.00000000000E+00 -0.00000000000E+00 -0.74505805969E-08  0.93827000000E+00  0.93827000000E+00 0. -1.
     999902    2    1    2    0    0  0.22323027340E-01 -0.25252015580E-01 -0.40059583829E-02  0.10099884393E+01  0.10094179600E+01 0.  0.
     999903    2    3    3    0    0 -0.11121482574E-01  0.60999246537E-01 -0.10066687024E+00  0.11987544235E+00  0.19791600779E-01 0.  0.
         14    1    1    2    0    0 -0.22323027340E-01  0.25252015580E-01  0.40059583829E-02  0.33941560704E-01  0.00000000000E+00 0. -1.
     999901    1    3    3    0    0  0.33444509914E-01 -0.86251262116E-01  0.96660911855E-01  0.89011299695E+00  0.88000000000E+00 0.  1.
        -11    1    4    4    0    0 -0.12539588670E-01  0.36355636901E-01 -0.46483259838E-01  0.60331817349E-01  0.51100000000E-03 0. -1.
         11    1    4    4    0    0  0.14181060955E-02  0.24643609636E-01 -0.54183610400E-01  0.59543624996E-01  0.51100000000E-03 0.  1.
</event>
<event>
 8    1  0.1114333E+005  0.1043930E+01  0.7957747E-01            NaN
         13   -1    0    0    0    0  0.00000000000E+00  0.00000000000E+00  0.74505805969E-08  0.10566000000E+00  0.10566000000E+00 0. -1.
     999900   -1    0    0    0    0 -0.00000000000E+00 -0.00000000000E+00 -0.74505805969E-08  0.93827000000E+00  0.93827000000E+00 0.  1.
     999902    2    1    2    0    0 -0.89979345654E-02 -0.68676210073E-02  0.21912227759E-01  0.10192668135E+01  0.10189683824E+01 0.  0.
     999903    2    3    3    0    0  0.69781146754E-01  0.10320201703E+00 -0.20774122152E-01  0.12789506535E+00  0.20137498079E-01 0.  0.
         14    1    1    2    0    0  0.89979345654E-02  0.68676210073E-02 -0.21912227759E-01  0.24663186536E-01  0.00000000000E+00 0.  1.
     999901    1    3    3    0    0 -0.78779081319E-01 -0.11006963803E+00  0.42686349911E-01  0.89137174812E+00  0.88000000000E+00 0. -1.
        -11    1    4    4    0    0  0.18582326055E-01  0.13831904741E-01 -0.48570297416E-02  0.23674380441E-01  0.51100000000E-03 0.  1.
         11    1    4    4    0    0  0.51198820699E-01  0.89370112284E-01 -0.15917092410E-01  0.10422068491E+00  0.51100000000E-03 0. -1.
</event>
<event>
 8    1  0.1114333E+005  0.1043930E+01  0.7957747E-01            NaN
         13   -1    0    0    0    0  0.00000000000E+00  0.00000000000E+00  0.74505805969E-08  0.10566000000E+00  0.10566000000E+00 0.  1.
     999900   -1    0    0    0    0 -0.00000000000E+00 -0.00000000000E+00 -0.74505805969E-08  0.93827000000E+00  0.93827000000E+00 0.  1.
     999902    2    1    2    0    0  0.31740456978E-02 -0.91514695220E-02 -0.21835087998E-01  0.10200428690E+01  0.10197631389E+01 0.  0.
     999903    2    3    3    0    0 -0.12486139959E+00  0.28328318539E-01  0.43459562609E-02  0.12960294577E+00  0.19625837039E-01 0.  0.
         14    1    1    2    0    0 -0.31740456978E-02  0.91514695220E-02  0.21835087998E-01  0.23887131020E-01  0.00000000000E+00 0.  1.
     999901    1    3    3    0    0  0.12803544528E+00 -0.37479788061E-01 -0.26181044259E-01  0.89043992321E+00  0.88000000000E+00 0.  1.
        -11    1    4    4    0    0 -0.33159763410E-01  0.20193645969E-02  0.78363638717E-02  0.34136746514E-01  0.51100000000E-03 0. -1.
         11    1    4    4    0    0 -0.91701636175E-01  0.26308953942E-01 -0.34904076108E-02  0.95466199260E-01  0.51100000000E-03 0.  1.
</event>
<event>
 8    1  0.1114333E+005  0.1043930E+01  0.7957747E-01            NaN
         13   -1    0    0    0    0  0.00000000000E+00  0.00000000000E+00  0.74505805969E-08  0.10566000000E+00  0.10566000000E+00 0.  1.
     999900   -1    0    0    0    0 -0.00000000000E+00 -0.00000000000E+00 -0.74505805969E-08  0.93827000000E+00  0.93827000000E+00 0.  1.
     999902    2    1    2    0    0 -0.10156250041E-01  0.11225535750E-01  0.18728337536E-01  0.10198486235E+01  0.10195642707E+01 0.  0.
     999903    2    3    3    0    0  0.17802897203E-01  0.10620942617E+00 -0.69894857508E-01  0.12987237434E+00  0.19599927376E-01 0.  0.
         14    1    1    2    0    0  0.10156250041E-01 -0.11225535750E-01 -0.18728337536E-01  0.24081376510E-01  0.00000000000E+00 0. -1.
     999901    1    3    3    0    0 -0.27959147244E-01 -0.94983890424E-01  0.88623195044E-01  0.88997624915E+00  0.88000000000E+00 0.  1.
        -11    1    4    4    0    0  0.16917985945E-01  0.98368827936E-01 -0.57562796995E-01  0.11522318029E+00  0.51100000000E-03 0.  1.
         11    1    4    4    0    0  0.88491125843E-03  0.78405982373E-02 -0.12332060514E-01  0.14649194045E-01  0.51100000000E-03 0. -1.
</event>
<event>
 8    1  0.1114333E+005  0.1043930E+01  0.7957747E-01            NaN
         13   -1    0    0    0    0  0.00000000000E+00  0.00000000000E+00  0.74505805969E-08  0.10566000000E+00  0.10566000000E+00 0.  1.
     999900   -1    0    0    0    0 -0.00000000000E+00 -0.00000000000E+00 -0.74505805969E-08  0.93827000000E+00  0.93827000000E+00 0.  1.
     999902    2    1    2    0    0 -0.39741341164E-02 -0.56831436916E-02  0.22404827757E-01  0.10204764678E+01  0.10202069169E+01 0.  0.
     999903    2    3    3    0    0  0.11114636344E+00  0.63919404429E-01 -0.38586069571E-02  0.12986599649E+00  0.20275202294E-01 0.  0.
         14    1    1    2    0    0  0.39741341164E-02  0.56831436916E-02 -0.22404827757E-01  0.23453532165E-01  0.00000000000E+00 0. -1.
     999901    1    3    3    0    0 -0.11512049756E+00 -0.69602548121E-01  0.26263434714E-01  0.89061047134E+00  0.88000000000E+00 0. -1.
        -11    1    4    4    0    0  0.12673491541E-01  0.15611858878E-01 -0.11463590093E-02  0.20147525541E-01  0.51100000000E-03 0. -1.
         11    1    4    4    0    0  0.98472871902E-01  0.48307545551E-01 -0.27122479478E-02  0.10971847095E+00  0.51100000000E-03 0.  1.
</event>
<event>
 8    1  0.1114333E+005  0.1043930E+01  0.7957747E-01            NaN
         13   -1    0    0    0    0  0.00000000000E+00  0.00000000000E+00  0.74505805969E-08  0.10566000000E+00  0.10566000000E+00 0.  1.
     999900   -1    0    0    0    0 -0.00000000000E+00 -0.00000000000E+00 -0.74505805969E-08  0.93827000000E+00  0.93827000000E+00 0. -1.
     999902    2    1    2    0    0 -0.16983944215E-01  0.73326335229E-02  0.15171616490E-01  0.10200051213E+01  0.10197244959E+01 0.  0.
     999903    2    3    3    0    0  0.89280473487E-01  0.66922278353E-01 -0.60259025889E-01  0.12841506185E+00  0.20240642847E-01 0.  0.
         14    1    1    2    0    0  0.16983944215E-01 -0.73326335229E-02 -0.15171616490E-01  0.23924878734E-01  0.00000000000E+00 0. -1.
     999901    1    3    3    0    0 -0.10626441770E+00 -0.59589644830E-01  0.75430642379E-01  0.89159005942E+00  0.88000000000E+00 0.  1.
        -11    1    4    4    0    0  0.49521988405E-01  0.48173811561E-01 -0.41691955580E-01  0.80694632641E-01  0.51100000000E-03 0. -1.
         11    1    4    4    0    0  0.39758485082E-01  0.18748466791E-01 -0.18567070308E-01  0.47720429209E-01  0.51100000000E-03 0.  1.
</event>
<event>
 8    1  0.1114333E+005  0.1043930E+01  0.7957747E-01            NaN
         13   -1    0    0    0    0  0.00000000000E+00  0.00000000000E+00  0.74505805969E-08  0.10566000000E+00  0.10566000000E+00 0. -1.
     999900   -1    0    0    0    0 -0.00000000000E+00 -0.00000000000E+00 -0.74505805969E-08  0.93827000000E+00  0.93827000000E+00 0.  1.
     999902    2    1    2    0    0 -0.11190552488E-01 -0.64714878068E-02  0.23351509816E-01  0.10172391471E+01  0.10168889225E+01 0.  0.
     999903    2    3    3    0    0  0.80637929628E-01 -0.40892349602E-01 -0.84248699365E-01  0.12527778531E+00  0.20543130173E-01 0.  0.
         14    1    1    2    0    0  0.11190552488E-01  0.64714878068E-02 -0.23351509816E-01  0.26690852930E-01  0.00000000000E+00 0.  1.
     999901    1    3    3    0    0 -0.91828482116E-01  0.34420861795E-01  0.10760020918E+00  0.89196136176E+00  0.88000000000E+00 0. -1.
        -11    1    4    4    0    0  0.65233257704E-01 -0.23522739609E-01 -0.66130386755E-01  0.95823725469E-01  0.51100000000E-03 0.  1.
         11    1    4    4    0    0  0.15404671925E-01 -0.17369609993E-01 -0.18118312610E-01  0.29454059843E-01  0.51100000000E-03 0. -1.
</event>
<event>
 8    1  0.1114333E+005  0.1043930E+01  0.7957747E-01            NaN
         13   -1    0    0    0    0  0.00000000000E+00  0.00000000000E+00  0.74505805969E-08  0.10566000000E+00  0.10566000000E+00 0. -1.
     999900   -1    0    0    0    0 -0.00000000000E+00 -0.00000000000E+00 -0.74505805969E-08  0.93827000000E+00  0.93827000000E+00 0. -1.
     999902    2    1    2    0    0  0.15334942658E-01 -0.16387149474E-01  0.83704330820E-02  0.10199766436E+01  0.10196953418E+01 0.  0.
     999903    2    3    3    0    0  0.10765427698E-01  0.19422346624E-01 -0.12553672552E+00  0.12911507879E+00  0.20447790478E-01 0.  0.
         14    1    1    2    0    0 -0.15334942658E-01  0.16387149474E-01 -0.83704330820E-02  0.23953356429E-01  0.00000000000E+00 0.  1.
     999901    1    3    3    0    0  0.45695149601E-02 -0.35809496098E-01  0.13390715860E+00  0.89086156478E+00  0.88000000000E+00 0.  1.
        -11    1    4    4    0    0 -0.20036581020E-02  0.13985628532E-01 -0.87238035744E-01  0.88376175821E-01  0.51100000000E-03 0. -1.
         11    1    4    4    0    0  0.12769085800E-01  0.54367180919E-02 -0.38298689775E-01  0.40738902971E-01  0.51100000000E-03 0.  1.
</event>
<event>
 8    1  0.1114333E+005  0.1043930E+01  0.7957747E-01            NaN
         13   -1    0    0    0    0  0.00000000000E+00  0.00000000000E+00  0.74505805969E-08  0.10566000000E+00  0.10566000000E+00 0. -1.
     999900   -1    0    0    0    0 -0.00000000000E+00 -0.00000000000E+00 -0.74505805969E-08  0.93827000000E+00  0.93827000000E+00 0.  1.
     999902    2    1    2    0    0 -0.18062207356E-01  0.15445102553E-01  0.21278263332E-02  0.10200695270E+01  0.10197904283E+01 0.  0.
     999903    2    3    3    0    0  0.55901412411E-01 -0.11260052704E+00  0.10871859161E-01  0.12768913813E+00  0.19556893282E-01 0.  0.
         14    1    1    2    0    0  0.18062207356E-01 -0.15445102553E-01 -0.21278263332E-02  0.23860473012E-01  0.00000000000E+00 0.  1.
     999901    1    3    3    0    0 -0.73963619766E-01  0.12804562960E+00 -0.87440328282E-02  0.89238038886E+00  0.88000000000E+00 0. -1.
        -11    1    4    4    0    0  0.22068937119E-01 -0.57397124025E-01 -0.26150018382E-02  0.61551337820E-01  0.51100000000E-03 0.  1.
         11    1    4    4    0    0  0.33832475292E-01 -0.55203403019E-01  0.13486861000E-01  0.66137800310E-01  0.51100000000E-03 0. -1.
</event>
<event>
 7    1  0.1114333E+005  0.1043930E+01  0.7957747E-01            NaN
         13   -1    0    0    0    0  0.00000000000E+00  0.00000000000E+00  0.74505805969E-08  0.10566000000E+00  0.10566000000E+00 0.  1.
     999900   -1    0    0    0    0 -0.00000000000E+00 -0.00000000000E+00 -0.74505805969E-08  0.93827000000E+00  0.93827000000E+00 0. -1.
     999903    2    1    2    0    0  0.26666607291E-01 -0.10954215386E-01 -0.97197620075E-01  0.10358709720E+00  0.21255742247E-01 0.  0.
         14    1    1    2    0    0  0.46175196599E-01 -0.16307290777E-01  0.22101217044E-01  0.53726532628E-01  0.00000000000E+00 0.  1.
     999901    1    1    2    0    0 -0.72841803890E-01  0.27261506163E-01  0.75096403031E-01  0.88661637017E+00  0.88000000000E+00 0.  1.
        -11    1    3    3    0    0  0.18679655937E-01 -0.14467011276E-01 -0.87018595019E-01  0.90170510486E-01  0.51100000000E-03 0. -1.
         11    1    3    3    0    0  0.79869513549E-02  0.35127958902E-02 -0.10179025056E-01  0.13416586712E-01  0.51100000000E-03 0.  1.
</event>
<event>
 8    1  0.1114333E+005  0.1043930E+01  0.7957747E-01            NaN
         13   -1    0    0    0    0  0.00000000000E+00  0.00000000000E+00  0.74505805969E-08  0.10566000000E+00  0.10566000000E+00 0.  1.
     999900   -1    0    0    0    0 -0.00000000000E+00 -0.00000000000E+00 -0.74505805969E-08  0.93827000000E+00  0.93827000000E+00 0.  1.
     999902    2    1    2    0    0  0.15498254113E-01 -0.78196200353E-02 -0.15818885498E-01  0.10204442708E+01  0.10201739706E+01 0.  0.
     999903    2    3    3    0    0 -0.11273428466E+00 -0.54706170366E-02 -0.61581471669E-01  0.12997062373E+00  0.19003652049E-01 0.  0.
         14    1    1    2    0    0 -0.15498254113E-01  0.78196200353E-02  0.15818885498E-01  0.23485729208E-01  0.00000000000E+00 0.  1.
     999901    1    3    3    0    0  0.12823253878E+00 -0.23490029988E-02  0.45762586171E-01  0.89047364706E+00  0.88000000000E+00 0. -1.
        -11    1    4    4    0    0 -0.70867853518E-01 -0.12200603277E-01 -0.35654297218E-01  0.80265792301E-01  0.51100000000E-03 0. -1.
         11    1    4    4    0    0 -0.41866431144E-01  0.67299862405E-02 -0.25927174451E-01  0.49704831430E-01  0.51100000000E-03 0.  1.
</event>
<event>
 8    1  0.1114333E+005  0.1043930E+01  0.7957747E-01            NaN
         13   -1    0    0    0    0  0.00000000000E+00  0.00000000000E+00  0.74505805969E-08  0.10566000000E+00  0.10566000000E+00 0.  1.
     999900   -1    0    0    0    0 -0.00000000000E+00 -0.00000000000E+00 -0.74505805969E-08  0.93827000000E+00  0.93827000000E+00 0.  1.
     999902    2    1    2    0    0  0.20931985576E-01 -0.31759085930E-02 -0.10761143875E-01  0.10201805446E+01  0.10199040675E+01 0.  0.
     999903    2    3    3    0    0  0.62734125605E-01 -0.43979214859E-01 -0.10652116617E+00  0.13306031000E+00  0.22103063161E-01 0.  0.
         14    1    1    2    0    0 -0.20931985576E-01  0.31759085930E-02  0.10761143875E-01  0.23749455426E-01  0.00000000000E+00 0.  1.
     999901    1    3    3    0    0 -0.41802140029E-01  0.40803306266E-01  0.95760022296E-01  0.88712023457E+00  0.88000000000E+00 0. -1.
        -11    1    4    4    0    0  0.15034085556E-01 -0.88635049370E-02 -0.41934494925E-01  0.45424095301E-01  0.51100000000E-03 0.  1.
         11    1    4    4    0    0  0.47700040049E-01 -0.35115709922E-01 -0.64586671245E-01  0.87636214703E-01  0.51100000000E-03 0. -1.
</event>
<event>
 8    1  0.1114333E+005  0.1043930E+01  0.7957747E-01            NaN
         13   -1    0    0    0    0  0.00000000000E+00  0.00000000000E+00  0.74505805969E-08  0.10566000000E+00  0.10566000000E+00 0.  1.
     999900   -1    0    0    0    0 -0.00000000000E+00 -0.00000000000E+00 -0.74505805969E-08  0.93827000000E+00  0.93827000000E+00 0.  1.
     999902    2    1    2    0    0  0.97786092272E-02  0.10941376544E-01  0.15347663497E-01  0.10226959308E+01  0.10224754673E+01 0.  0.
     999903    2    3    3    0    0  0.30190256631E-02 -0.29861472320E-01  0.12933358598E+00  0.13438103453E+00  0.20742804372E-01 0.  0.
         14    1    1    2    0    0 -0.97786092272E-02 -0.10941376544E-01 -0.15347663497E-01  0.21234069179E-01  0.00000000000E+00 0. -1.
     999901    1    3    3    0    0  0.67595835642E-02  0.40802848865E-01 -0.11398592249E+00  0.88831489629E+00  0.88000000000E+00 0.  1.
        -11    1    4    4    0    0 -0.61336606986E-02 -0.49735633131E-02  0.52626737324E-01  0.53218349542E-01  0.51100000000E-03 0.  1.
         11    1    4    4    0    0  0.91526863617E-02 -0.24887909007E-01  0.76706848659E-01  0.81162684989E-01  0.51100000000E-03 0. -1.
</event>
<event>
 8    1  0.1114333E+005  0.1043930E+01  0.7957747E-01            NaN
         13   -1    0    0    0    0  0.00000000000E+00  0.00000000000E+00  0.74505805969E-08  0.10566000000E+00  0.10566000000E+00 0.  1.
     999900   -1    0    0    0    0 -0.00000000000E+00 -0.00000000000E+00 -0.74505805969E-08  0.93827000000E+00  0.93827000000E+00 0.  1.
     999902    2    1    2    0    0  0.10815268434E-01 -0.23005287952E-01 -0.25056666603E-02  0.10183860835E+01  0.10180656773E+01 0.  0.
     999903    2    3    3    0    0  0.48321178318E-02  0.15849555379E-01 -0.12641107320E+00  0.12883673314E+00  0.18563044196E-01 0.  0.
         14    1    1    2    0    0 -0.10815268434E-01  0.23005287952E-01  0.25056666603E-02  0.25543916506E-01  0.00000000000E+00 0. -1.
     999901    1    3    3    0    0  0.59831506019E-02 -0.38854843331E-01  0.12390540654E+00  0.88954935035E+00  0.88000000000E+00 0. -1.
        -11    1    4    4    0    0 -0.43028402896E-02  0.13972006189E-01 -0.59239788164E-01  0.61019218401E-01  0.51100000000E-03 0. -1.
         11    1    4    4    0    0  0.91349581214E-02  0.18775491894E-02 -0.67171285039E-01  0.67817514741E-01  0.51100000000E-03 0.  1.
</event>
<event>
 8    1  0.1114333E+005  0.1043930E+01  0.7957747E-01            NaN
         13   -1    0    0    0    0  0.00000000000E+00  0.00000000000E+00  0.74505805969E-08  0.10566000000E+00  0.10566000000E+00 0.  1.
     999900   -1    0    0    0    0 -0.00000000000E+00 -0.00000000000E+00 -0.74505805969E-08  0.93827000000E+00  0.93827000000E+00 0. -1.
     999902    2    1    2    0    0  0.13369287520E-01 -0.34250620267E-02  0.22659865391E-01  0.10173981626E+01  0.10170521534E+01 0.  0.
     999903    2    3    3    0    0 -0.46822972378E-01  0.85479356721E-02 -0.11414426216E+00  0.12471578335E+00  0.16113847672E-01 0.  0.
         14    1    1    2    0    0 -0.13369287520E-01  0.34250620267E-02 -0.22659865391E-01  0.26531837445E-01  0.00000000000E+00 0. -1.
     999901    1    3    3    0    0  0.60192259898E-01 -0.11972997699E-01  0.13680412755E+00  0.89268237920E+00  0.88000000000E+00 0.  1.
        -11    1    4    4    0    0 -0.25730896967E-01  0.22583841648E-02 -0.42217003329E-01  0.49494604240E-01  0.51100000000E-03 0. -1.
         11    1    4    4    0    0 -0.21092075411E-01  0.62895515073E-02 -0.71927258829E-01  0.75221179112E-01  0.51100000000E-03 0.  1.
</event>
<event>
 8    1  0.1114333E+005  0.1043930E+01  0.7957747E-01            NaN
         13   -1    0    0    0    0  0.00000000000E+00  0.00000000000E+00  0.74505805969E-08  0.10566000000E+00  0.10566000000E+00 0. -1.
     999900   -1    0    0    0    0 -0.00000000000E+00 -0.00000000000E+00 -0.74505805969E-08  0.93827000000E+00  0.93827000000E+00 0. -1.
     999902    2    1    2    0    0  0.16573658918E-03  0.24826314791E-01  0.60851598560E-02  0.10183682601E+01  0.10180474010E+01 0.  0.
     999903    2    3    3    0    0  0.11045233078E+00 -0.65442604807E-02  0.63359869850E-01  0.12908335738E+00  0.20136914486E-01 0.  0.
         14    1    1    2    0    0 -0.16573658918E-03 -0.24826314791E-01 -0.60851598560E-02  0.25561739870E-01  0.00000000000E+00 0.  1.
     999901    1    3    3    0    0 -0.11028659419E+00  0.31370575271E-01 -0.57274709994E-01  0.88928490275E+00  0.88000000000E+00 0.  1.
        -11    1    4    4    0    0  0.73961938204E-01 -0.10418723847E-01  0.33919092254E-01  0.82034651519E-01  0.51100000000E-03 0. -1.
         11    1    4    4    0    0  0.36490392579E-01  0.38744633663E-02  0.29440777596E-01  0.47048705863E-01  0.51100000000E-03 0.  1.
</event>
<event>
 7    1  0.1114333E+005  0.1043930E+01  0.7957747E-01            NaN
         13   -1    0    0    0    0  0.00000000000E+00  0.00000000000E+00  0.74505805969E-08  0.10566000000E+00  0.10566000000E+00 0.  1.
     999900   -1    0    0    0    0 -0.00000000000E+00 -0.00000000000E+00 -0.74505805969E-08  0.93827000000E+00  0.93827000000E+00 0.  1.
     999903    2    1    2    0    0 -0.99943175756E-02 -0.37080626468E-01 -0.10221200270E+00  0.11103202351E+00  0.20148387161E-01 0.  0.
         14    1    1    2    0    0 -0.24863985134E-01 -0.10011515224E-01 -0.30961345888E-01  0.40951839190E-01  0.00000000000E+00 0.  1.
     999901    1    1    2    0    0  0.34858302710E-01  0.47092141692E-01  0.13317334859E+00  0.89194613730E+00  0.88000000000E+00 0. -1.
        -11    1    3    3    0    0 -0.11053605859E-02  0.24914146040E-04 -0.23768580387E-01  0.23799768430E-01  0.51100000000E-03 0. -1.
         11    1    3    3    0    0 -0.88889569897E-02 -0.37105540614E-01 -0.78443422312E-01  0.87232255076E-01  0.51100000000E-03 0.  1.
</event>
<event>
 8    1  0.1114333E+005  0.1043930E+01  0.7957747E-01            NaN
         13   -1    0    0    0    0  0.00000000000E+00  0.00000000000E+00  0.74505805969E-08  0.10566000000E+00  0.10566000000E+00 0. -1.
     999900   -1    0    0    0    0 -0.00000000000E+00 -0.00000000000E+00 -0.74505805969E-08  0.93827000000E+00  0.93827000000E+00 0. -1.
     999902    2    1    2    0    0 -0.97321379962E-02 -0.25986775467E-01 -0.55261838317E-02  0.10156357300E+01  0.10152415330E+01 0.  0.
     999903    2    3    3    0    0  0.10859194373E+00 -0.58863859415E-01 -0.21745497212E-01  0.12695999771E+00  0.19718270283E-01 0.  0.
         14    1    1    2    0    0  0.97321379962E-02  0.25986775467E-01  0.55261838317E-02  0.28294270036E-01  0.00000000000E+00 0.  1.
     999901    1    3    3    0    0 -0.11832408172E+00  0.32877083948E-01  0.16219313380E-01  0.88867573225E+00  0.88000000000E+00 0. -1.
        -11    1    4    4    0    0  0.21173067924E-01 -0.46443635322E-02 -0.82956398069E-02  0.23215246687E-01  0.51100000000E-03 0. -1.
         11    1    4    4    0    0  0.87418875801E-01 -0.54219495883E-01 -0.13449857405E-01  0.10374475103E+00  0.51100000000E-03 0.  1.
</event>
<event>
 8    1  0.1114333E+005  0.1043930E+01  0.7957747E-01            NaN
         13   -1    0    0    0    0  0.00000000000E+00  0.00000000000E+00  0.74505805969E-08  0.10566000000E+00  0.10566000000E+00 0.  1.
     999900   -1    0    0    0    0 -0.00000000000E+00 -0.00000000000E+00 -0.74505805969E-08  0.93827000000E+00  0.93827000000E+00 0.  1.
     999902    2    1    2    0    0  0.15602860600E-01  0.13406963485E-01  0.11598539041E-01  0.10203138607E+01  0.10200405150E+01 0.  0.
     999903    2    3    3    0    0 -0.10854215032E-01  0.27589573102E-01 -0.12429296326E+00  0.12937748603E+00  0.20268069654E-01 0.  0.
         14    1    1    2    0    0 -0.15602860600E-01 -0.13406963485E-01 -0.11598539041E-01  0.23616139327E-01  0.00000000000E+00 0. -1.
     999901    1    3    3    0    0  0.26457075632E-01 -0.14182609616E-01  0.13589150230E+00  0.89093637464E+00  0.88000000000E+00 0. -1.
        -11    1    4    4    0    0 -0.83231118258E-02  0.23188814643E-01 -0.59736565780E-01  0.64619762668E-01  0.51100000000E-03 0. -1.
         11    1    4    4    0    0 -0.25311032063E-02  0.44007584586E-02 -0.64556397479E-01  0.64757723361E-01  0.51100000000E-03 0.  1.
</event>
<event>
 8    1  0.1114333E+005  0.1043930E+01  0.7957747E-01            NaN
         13   -1    0    0    0    0  0.00000000000E+00  0.00000000000E+00  0.74505805969E-08  0.10566000000E+00  0.10566000000E+00 0. -1.
     999900   -1    0    0    0    0 -0.00000000000E+00 -0.00000000000E+00 -0.74505805969E-08  0.93827000000E+00  0.93827000000E+00 0. -1.
     999902    2    1    2    0    0  0.21056226724E-01  0.38999492587E-02  0.62400739451E-02  0.10216250048E+01  0.10213814849E+01 0.  0.
     999903    2    3    3    0    0  0.51243252901E-03 -0.11807102176E+00  0.54688064756E-01  0.13165524516E+00  0.20032233672E-01 0.  0.
         14    1    1    2    0    0 -0.21056226724E-01 -0.38999492587E-02 -0.62400739451E-02  0.22304995201E-01  0.00000000000E+00 0.  1.
     999901    1    3    3    0    0  0.20543794195E-01  0.12197097102E+00 -0.48447990811E-01  0.88996975963E+00  0.88000000000E+00 0. -1.
        -11    1    4    4    0    0 -0.82007632798E-02 -0.86855433158E-01  0.37421750007E-01  0.94930328568E-01  0.51100000000E-03 0. -1.
         11    1    4    4    0    0  0.87131958088E-02 -0.31215588602E-01  0.17266314749E-01  0.36724916596E-01  0.51100000000E-03 0.  1.
</event>
<event>
 8    1  0.1114333E+005  0.1043930E+01  0.7957747E-01            NaN
         13   -1    0    0    0    0  0.00000000000E+00  0.00000000000E+00  0.74505805969E-08  0.10566000000E+00  0.10566000000E+00 0.  1.
     999900   -1    0    0    0    0 -0.00000000000E+00 -0.00000000000E+00 -0.74505805969E-08  0.93827000000E+00  0.93827000000E+00 0.  1.
     999902    2    1    2    0    0 -0.35627523162E-02 -0.15168737826E-01 -0.19650659712E-01  0.10188514785E+01  0.10185427841E+01 0.  0.
     999903    2    3    3    0    0 -0.40352295319E-01  0.81815391818E-01  0.86283690305E-01  0.12644939518E+00  0.14916710536E-01 0.  0.
         14    1    1    2    0    0  0.35627523162E-02  0.15168737826E-01  0.19650659712E-01  0.25078521456E-01  0.00000000000E+00 0. -1.
     999901    1    3    3    0    0  0.36789543003E-01 -0.96984129644E-01 -0.10593435002E+00  0.89240208336E+00  0.88000000000E+00 0.  1.
        -11    1    4    4    0    0 -0.30678895635E-01  0.48658919169E-01  0.48357929114E-01  0.75150751701E-01  0.51100000000E-03 0.  1.
         11    1    4    4    0    0 -0.96733996843E-02  0.33156472649E-01  0.37925761191E-01  0.51298643480E-01  0.51100000000E-03 0. -1.
</event>
<event>
 8    1  0.1114333E+005  0.1043930E+01  0.7957747E-01            NaN
         13   -1    0    0    0    0  0.00000000000E+00  0.00000000000E+00  0.74505805969E-08  0.10566000000E+00  0.10566000000E+00 0. -1.
     999900   -1    0    0    0    0 -0.00000000000E+00 -0.00000000000E+00 -0.74505805969E-08  0.93827000000E+00  0.93827000000E+00 0. -1.
     999902    2    1    2    0    0 -0.76636257837E-02 -0.21691397852E-01 -0.76489164787E-02  0.10196863653E+01  0.10193981213E+01 0.  0.
     999903    2    3    3    0    0 -0.23209477106E-01  0.11699734066E+00 -0.42000779277E-01  0.12802707488E+00  0.19995221785E-01 0.  0.
         14    1    1    2    0    0  0.76636257837E-02  0.21691397852E-01  0.76489164787E-02  0.24243634715E-01  0.00000000000E+00 0. -1.
     999901    1    3    3    0    0  0.15545851322E-01 -0.13868873851E+00  0.34351862798E-01  0.89165929040E+00  0.88000000000E+00 0. -1.
        -11    1    4    4    0    0 -0.25497540979E-02  0.62961395040E-01 -0.24125798417E-01  0.67475579149E-01  0.51100000000E-03 0.  1.
         11    1    4    4    0    0 -0.20659723008E-01  0.54035945620E-01 -0.17874980861E-01  0.60551495733E-01  0.51100000000E-03 0. -1.
</event>
<event>
 8    1  0.1114333E+005  0.1043930E+01  0.7957747E-01            NaN
         13   -1    0    0    0    0  0.00000000000E+00  0.00000000000E+00  0.74505805969E-08  0.10566000000E+00  0.10566000000E+00 0. -1.
     999900   -1    0    0    0    0 -0.00000000000E+00 -0.00000000000E+00 -0.74505805969E-08  0.93827000000E+00  0.93827000000E+00 0. -1.
     999902    2    1    2    0    0  0.11920043184E-02 -0.68709147215E-02  0.21942414375E-01  0.10209061017E+01  0.10206464464E+01 0.  0.
     999903    2    3    3    0    0 -0.61410425587E-01  0.11304071415E+00  0.83840499167E-02  0.13046705708E+00  0.20047874296E-01 0.  0.
         14    1    1    2    0    0 -0.11920043184E-02  0.68709147215E-02 -0.21942414375E-01  0.23023898280E-01  0.00000000000E+00 0.  1.
     999901    1    3    3    0    0  0.62602429906E-01 -0.11991162887E+00  0.13558364458E-01  0.89043904464E+00  0.88000000000E+00 0.  1.
        -11    1    4    4    0    0 -0.35291914707E-01  0.44180298494E-01  0.35186376414E-02  0.56657390961E-01  0.51100000000E-03 0. -1.
         11    1    4    4    0    0 -0.26118510881E-01  0.68860415658E-01  0.48654122753E-02  0.73809666121E-01  0.51100000000E-03 0.  1.
</event>
<event>
 8    1  0.1114333E+005  0.1043930E+01  0.7957747E-01            NaN
         13   -1    0    0    0    0  0.00000000000E+00  0.00000000000E+00  0.74505805969E-08  0.10566000000E+00  0.10566000000E+00 0.  1.
     999900   -1    0    0    0    0 -0.00000000000E+00 -0.00000000000E+00 -0.74505805969E-08  0.93827000000E+00  0.93827000000E+00 0. -1.
     999902    2    1    2    0    0  0.19816880466E-03  0.21578861058E-01  0.98336498090E-02  0.10202152960E+01  0.10199396370E+01 0.  0.
     999903    2    3    3    0    0  0.41567154667E-01  0.36536569196E-01  0.11865862050E+00  0.13242140089E+00  0.19819433851E-01 0.  0.
         14    1    1    2    0    0 -0.19816880466E-03 -0.21578861058E-01 -0.98336498090E-02  0.23714703962E-01  0.00000000000E+00 0. -1.
     999901    1    3    3    0    0 -0.41368985863E-01 -0.14957708138E-01 -0.10882497069E+00  0.88779389515E+00  0.88000000000E+00 0.  1.
        -11    1    4    4    0    0  0.29646560938E-01  0.15771512512E-01  0.55446508866E-01  0.64824653094E-01  0.51100000000E-03 0. -1.
         11    1    4    4    0    0  0.11920593730E-01  0.20765056684E-01  0.63212111633E-01  0.67596747792E-01  0.51100000000E-03 0.  1.
</event>
<event>
 8    1  0.1114333E+005  0.1043930E+01  0.7957747E-01            NaN
         13   -1    0    0    0    0  0.00000000000E+00  0.00000000000E+00  0.74505805969E-08  0.10566000000E+00  0.10566000000E+00 0. -1.
     999900   -1    0    0    0    0 -0.00000000000E+00 -0.00000000000E+00 -0.74505805969E-08  0.93827000000E+00  0.93827000000E+00 0. -1.
     999902    2    1    2    0    0  0.24680178868E-02  0.22452719834E-01  0.10540432350E-01  0.10190037798E+01  0.10186988695E+01 0.  0.
     999903    2    3    3    0    0  0.70095170116E-01  0.10280136365E-01  0.10825729670E+00  0.13093273021E+00  0.20117740272E-01 0.  0.
         14    1    1    2    0    0 -0.24680178868E-02 -0.22452719834E-01 -0.10540432350E-01  0.24926220218E-01  0.00000000000E+00 0.  1.
     999901    1    3    3    0    0 -0.67627152229E-01  0.12172583469E-01 -0.97716864354E-01  0.88807104957E+00  0.88000000000E+00 0. -1.
        -11    1    4    4    0    0  0.20126723551E-01 -0.60358667274E-02  0.28567645720E-01  0.35466719485E-01  0.51100000000E-03 0. -1.
         11    1    4    4    0    0  0.49968446564E-01  0.16316003092E-01  0.79689650983E-01  0.95466010725E-01  0.51100000000E-03 0.  1.
</event>
<event>
 8    1  0.1114333E+005  0.1043930E+01  0.7957747E-01            NaN
         13   -1    0    0    0    0  0.00000000000E+00  0.00000000000E+00  0.74505805969E-08  0.10566000000E+00  0.10566000000E+00 0.  1.
     999900   -1    0    0    0    0 -0.00000000000E+00 -0.00000000000E+00 -0.74505805969E-08  0.93827000000E+00  0.93827000000E+00 0.  1.
     999902    2    1    2    0    0 -0.12047524862E-01 -0.19102138992E-01  0.47664035658E-03  0.10213410258E+01  0.10210911954E+01 0.  0.
     999903    2    3    3    0    0 -0.36680939510E-01  0.87918395148E-02 -0.12454508022E+00  0.13172576639E+00  0.20430681840E-01 0.  0.
         14    1    1    2    0    0  0.12047524862E-01  0.19102138992E-01 -0.47664035658E-03  0.22588974200E-01  0.00000000000E+00 0. -1.
     999901    1    3    3    0    0  0.24633414648E-01 -0.27893978507E-01  0.12502172057E+00  0.88961525941E+00  0.88000000000E+00 0. -1.
        -11    1    4    4    0    0 -0.20252216805E-01  0.13431026974E-01 -0.89480547461E-01  0.92723105352E-01  0.51100000000E-03 0.  1.
         11    1    4    4    0    0 -0.16428722705E-01 -0.46391874593E-02 -0.35064532755E-01  0.39002661042E-01  0.51100000000E-03 0. -1.
</event>
<event>
 8    1  0.1114333E+005  0.1043930E+01  0.7957747E-01            NaN
         13   -1    0    0    0    0  0.00000000000E+00  0.00000000000E+00  0.74505805969E-08  0.10566000000E+00  0.10566000000E+00 0.  1.
     999900   -1    0    0    0    0 -0.00000000000E+00 -0.00000000000E+00 -0.74505805969E-08  0.93827000000E+00  0.93827000000E+00 0. -1.
     999902    2    1    2    0    0 -0.18038058822E-01 -0.51454081933E-02 -0.14140751039E-01  0.10204394140E+01  0.10201690007E+01 0.  0.
     999903    2    3    3    0    0 -0.34547323480E-01  0.11363638993E+00 -0.52380174568E-01  0.13148276437E+00  0.20911431363E-01 0.  0.
         14    1    1    2    0    0  0.18038058822E-01  0.51454081933E-02  0.14140751039E-01  0.23490586018E-01  0.00000000000E+00 0.  1.
     999901    1    3    3    0    0  0.16509264657E-01 -0.11878179812E+00  0.38239423530E-01  0.88895664962E+00  0.88000000000E+00 0.  1.
        -11    1    4    4    0    0 -0.17611297334E-01  0.31237334363E-01 -0.97005865395E-02  0.37152272502E-01  0.51100000000E-03 0.  1.
         11    1    4    4    0    0 -0.16936026145E-01  0.82399055567E-01 -0.42679588029E-01  0.94330491863E-01  0.51100000000E-03 0. -1.
</event>
<event>
 8    1  0.1114333E+005  0.1043930E+01  0.7957747E-01            NaN
         13   -1    0    0    0    0  0.00000000000E+00  0.00000000000E+00  0.74505805969E-08  0.10566000000E+00  0.10566000000E+00 0.  1.
     999900   -1    0    0    0    0 -0.00000000000E+00 -0.00000000000E+00 -0.74505805969E-08  0.93827000000E+00  0.93827000000E+00 0. -1.
     999902    2    1    2    0    0  0.19620181768E-01  0.13509099791E-01 -0.45984407119E-02  0.10196690650E+01  0.10193804045E+01 0.  0.
     999903    2    3    3    0    0  0.39074722721E-01  0.24628627488E-01 -0.12186153969E+00  0.13160782982E+00  0.18357090393E-01 0.  0.
         14    1    1    2    0    0 -0.19620181768E-01 -0.13509099791E-01  0.45984407119E-02  0.24260934993E-01  0.00000000000E+00 0. -1.
     999901    1    3    3    0    0 -0.19454540953E-01 -0.11119527697E-01  0.11726309897E+00  0.88806123519E+00  0.88000000000E+00 0.  1.
        -11    1    4    4    0    0  0.18120723509E-02 -0.11352384051E-02 -0.20062166736E-01  0.20182270130E-01  0.51100000000E-03 0.  1.
         11    1    4    4    0    0  0.37262650370E-01  0.25763865893E-01 -0.10179937295E+00  0.11142555969E+00  0.51100000000E-03 0. -1.
</event>
<event>
 8    1  0.1114333E+005  0.1043930E+01  0.7957747E-01            NaN
         13   -1    0    0    0    0  0.00000000000E+00  0.00000000000E+00  0.74505805969E-08  0.10566000000E+00  0.10566000000E+00 0.  1.
     999900   -1    0    0    0    0 -0.00000000000E+00 -0.00000000000E+00 -0.74505805969E-08  0.93827000000E+00  0.93827000000E+00 0.  1.
     999902    2    1    2    0    0 -0.20697716537E-01  0.50399242900E-02 -0.10324270480E-01  0.10202575082E+01  0.10199828411E+01 0.  0.
     999903    2    3    3    0    0  0.11825781528E+00 -0.38044991334E-02 -0.46421663737E-01  0.12857937937E+00  0.19449957523E-01 0.  0.
         14    1    1    2    0    0  0.20697716537E-01 -0.50399242900E-02  0.10324270480E-01  0.23672491792E-01  0.00000000000E+00 0.  1.
     999901    1    3    3    0    0 -0.13895553181E+00  0.88444234234E-02  0.36097393257E-01  0.89167812884E+00  0.88000000000E+00 0.  1.
        -11    1    4    4    0    0  0.18592667737E-01  0.43774153429E-02 -0.21922731607E-02  0.19233206734E-01  0.51100000000E-03 0. -1.
         11    1    4    4    0    0  0.99665147539E-01 -0.81819144763E-02 -0.44229390576E-01  0.10934617264E+00  0.51100000000E-03 0.  1.
</event>
<event>
 8    1  0.1114333E+005  0.1043930E+01  0.7957747E-01            NaN
         13   -1    0    0    0    0  0.00000000000E+00  0.00000000000E+00  0.74505805969E-08  0.10566000000E+00  0.10566000000E+00 0.  1.
     999900   -1    0    0    0    0 -0.00000000000E+00 -0.00000000000E+00 -0.74505805969E-08  0.93827000000E+00  0.93827000000E+00 0.  1.
     999902    2    1    2    0    0  0.88593941171E-02 -0.26663752232E-02  0.22019303977E-01  0.10200459432E+01  0.10197662860E+01 0.  0.
     999903    2    3    3    0    0  0.47784281786E-01  0.87992820606E-02 -0.11695478039E+00  0.12821613641E+00  0.20004800177E-01 0.  0.
         14    1    1    2    0    0 -0.88593941171E-02  0.26663752232E-02 -0.22019303977E-01  0.23884056787E-01  0.00000000000E+00 0. -1.
     999901    1    3    3    0    0 -0.38924887669E-01 -0.11465657284E-01  0.13897408436E+00  0.89182980680E+00  0.88000000000E+00 0. -1.
        -11    1    4    4    0    0  0.42672983061E-01  0.37532803885E-03 -0.94767465768E-01  0.10393391190E+00  0.51100000000E-03 0.  1.
         11    1    4    4    0    0  0.51112987246E-02  0.84239540218E-02 -0.22187314619E-01  0.24282224507E-01  0.51100000000E-03 0. -1.
</event>
<event>
 8    1  0.1114333E+005  0.1043930E+01  0.7957747E-01            NaN
         13   -1    0    0    0    0  0.00000000000E+00  0.00000000000E+00  0.74505805969E-08  0.10566000000E+00  0.10566000000E+00 0. -1.
     999900   -1    0    0    0    0 -0.00000000000E+00 -0.00000000000E+00 -0.74505805969E-08  0.93827000000E+00  0.93827000000E+00 0.  1.
     999902    2    1    2    0    0  0.18508907743E-01  0.10464190373E-01  0.93899106438E-02  0.10206867350E+01  0.10204220507E+01 0.  0.
     999903    2    3    3    0    0 -0.17090036557E-01  0.31172075040E-01  0.12563024238E+00  0.13208788510E+00  0.20012095768E-01 0.  0.
         14    1    1    2    0    0 -0.18508907743E-01 -0.10464190373E-01 -0.93899106438E-02  0.23243265001E-01  0.00000000000E+00 0.  1.
     999901    1    3    3    0    0  0.35598944299E-01 -0.20707884666E-01 -0.11624033174E+00  0.88859884990E+00  0.88000000000E+00 0.  1.
        -11    1    4    4    0    0 -0.90287026466E-02  0.31294007865E-01  0.95993163377E-01  0.10136952666E+00  0.51100000000E-03 0. -1.
         11    1    4    4    0    0 -0.80613339103E-02 -0.12193282518E-03  0.29637079005E-01  0.30718358435E-01  0.51100000000E-03 0.  1.
</event>
<event>
 8    1  0.1114333E+005  0.1043930E+01  0.7957747E-01            NaN
         13   -1    0    0    0    0  0.00000000000E+00  0.00000000000E+00  0.74505805969E-08  0.10566000000E+00  0.10566000000E+00 0. -1.
     999900   -1    0    0    0    0 -0.00000000000E+00 -0.00000000000E+00 -0.74505805969E-08  0.93827000000E+00  0.93827000000E+00 0.  1.
     999902    2    1    2    0    0  0.18763473419E-01 -0.12838152143E-01 -0.22293958592E-01  0.10120880988E+01  0.10115870763E+01 0.  0.
     999903    2    3    3    0    0 -0.61764068995E-01 -0.22595383570E-01  0.98191979997E-01  0.12018185365E+00  0.21832577368E-01 0.  0.
         14    1    1    2    0    0 -0.18763473419E-01  0.12838152143E-01  0.22293958592E-01  0.31841901245E-01  0.00000000000E+00 0. -1.
     999901    1    3    3    0    0  0.80527542414E-01  0.97572314270E-02 -0.12048593859E+00  0.89190624510E+00  0.88000000000E+00 0.  1.
        -11    1    4    4    0    0 -0.47012683317E-01 -0.11519096616E-01  0.83813520789E-01  0.96787650905E-01  0.51100000000E-03 0.  1.
         11    1    4    4    0    0 -0.14751385678E-01 -0.11076286954E-01  0.14378459207E-01  0.23394202749E-01  0.51100000000E-03 0. -1.
</event>
<event>
 8    1  0.1114333E+005  0.1043930E+01  0.7957747E-01            NaN
         13   -1    0    0    0    0  0.00000000000E+00  0.00000000000E+00  0.74505805969E-08  0.10566000000E+00  0.10566000000E+00 0.  1.
     999900   -1    0    0    0    0 -0.00000000000E+00 -0.00000000000E+00 -0.74505805969E-08  0.93827000000E+00  0.93827000000E+00 0.  1.
     999902    2    1    2    0    0 -0.16803697006E-01 -0.16446074822E-01  0.14238158726E-01  0.10164424979E+01  0.10160707597E+01 0.  0.
     999903    2    3    3    0    0  0.57223439915E-01  0.10262234332E+00 -0.33952845624E-01  0.12404142317E+00  0.20678769576E-01 0.  0.
         14    1    1    2    0    0  0.16803697006E-01  0.16446074822E-01 -0.14238158726E-01  0.27487502143E-01  0.00000000000E+00 0.  1.
     999901    1    3    3    0    0 -0.74027136921E-01 -0.11906841815E+00  0.48191004351E-01  0.89240107469E+00  0.88000000000E+00 0.  1.
        -11    1    4    4    0    0  0.13107977067E-01  0.42105938841E-01 -0.82827159222E-02  0.44873083831E-01  0.51100000000E-03 0. -1.
         11    1    4    4    0    0  0.44115462848E-01  0.60516404484E-01 -0.25670129702E-01  0.79168339340E-01  0.51100000000E-03 0.  1.
</event>
<event>
 8    1  0.1114333E+005  0.1043930E+01  0.7957747E-01            NaN
         13   -1    0    0    0    0  0.00000000000E+00  0.00000000000E+00  0.74505805969E-08  0.10566000000E+00  0.10566000000E+00 0. -1.
     999900   -1    0    0    0    0 -0.00000000000E+00 -0.00000000000E+00 -0.74505805969E-08  0.93827000000E+00  0.93827000000E+00 0. -1.
     999902    2    1    2    0    0  0.63615708361E-02  0.22379319538E-01  0.80300380567E-02  0.10193172993E+01  0.10190201036E+01 0.  0.
     999903    2    3    3    0    0  0.52245501093E-02 -0.53857550502E-01 -0.11388915602E+00  0.12764603525E+00  0.19870550752E-01 0.  0.
         14    1    1    2    0    0 -0.63615708361E-02 -0.22379319538E-01 -0.80300380567E-02  0.24612700739E-01  0.00000000000E+00 0.  1.
     999901    1    3    3    0    0  0.11370207268E-02  0.76236870040E-01  0.12191919408E+00  0.89167126401E+00  0.88000000000E+00 0.  1.
        -11    1    4    4    0    0  0.10699042114E-01 -0.25251384327E-01 -0.67612645460E-01  0.72964600045E-01  0.51100000000E-03 0. -1.
         11    1    4    4    0    0 -0.54744920047E-02 -0.28606166175E-01 -0.46276510560E-01  0.54681435209E-01  0.51100000000E-03 0.  1.
</event>
<event>
 8    1  0.1114333E+005  0.1043930E+01  0.7957747E-01            NaN
         13   -1    0    0    0    0  0.00000000000E+00  0.00000000000E+00  0.74505805969E-08  0.10566000000E+00  0.10566000000E+00 0.  1.
     999900   -1    0    0    0    0 -0.00000000000E+00 -0.00000000000E+00 -0.74505805969E-08  0.93827000000E+00  0.93827000000E+00 0. -1.
     999902    2    1    2    0    0 -0.20635721958E-01 -0.10237815740E-01  0.23856437218E-02  0.10207710452E+01  0.10205082996E+01 0.  0.
     999903    2    3    3    0    0  0.79181269441E-01  0.94238792715E-01  0.30729207407E-01  0.12853668635E+00  0.20658462393E-01 0.  0.
         14    1    1    2    0    0  0.20635721958E-01  0.10237815740E-01 -0.23856437218E-02  0.23158954809E-01  0.00000000000E+00 0.  1.
     999901    1    3    3    0    0 -0.99816991400E-01 -0.10447660846E+00 -0.28343563685E-01  0.89223435884E+00  0.88000000000E+00 0. -1.
        -11    1    4    4    0    0  0.37209793580E-01  0.55276192327E-01  0.24204736161E-01  0.70895391599E-01  0.51100000000E-03 0.  1.
         11    1    4    4    0    0  0.41971475861E-01  0.38962600388E-01  0.65244712456E-02  0.57641294755E-01  0.51100000000E-03 0. -1.
</event>
<event>
 8    1  0.1114333E+005  0.1043930E+01  0.7957747E-01            NaN
         13   -1    0    0    0    0  0.00000000000E+00  0.00000000000E+00  0.74505805969E-08  0.10566000000E+00  0.10566000000E+00 0.  1.
     999900   -1    0    0    0    0 -0.00000000000E+00 -0.00000000000E+00 -0.74505805969E-08  0.93827000000E+00  0.93827000000E+00 0. -1.
     999902    2    1    2    0    0 -0.50926270355E-02  0.21156237491E-01  0.87778474113E-02  0.10204657327E+01  0.10201959320E+01 0.  0.
     999903    2    3    3    0    0  0.74150090008E-01  0.27691882515E-01 -0.10115946361E+00  0.13006788049E+00  0.20477798995E-01 0.  0.
         14    1    1    2    0    0  0.50926270355E-02 -0.21156237491E-01 -0.87778474113E-02  0.23464267303E-01  0.00000000000E+00 0. -1.
     999901    1    3    3    0    0 -0.79242717043E-01 -0.65356450243E-02  0.10993731102E+00  0.89039785221E+00  0.88000000000E+00 0.  1.
        -11    1    4    4    0    0  0.56668615465E-01  0.27073795353E-01 -0.88269384316E-01  0.10833313298E+00  0.51100000000E-03 0. -1.
         11    1    4    4    0    0  0.17481474543E-01  0.61808716204E-03 -0.12890079296E-01  0.21734747507E-01  0.51100000000E-03 0.  1.
</event>
<event>
 8    1  0.1114333E+005  0.1043930E+01  0.7957747E-01            NaN
         13   -1    0    0    0    0  0.00000000000E+00  0.00000000000E+00  0.74505805969E-08  0.10566000000E+00  0.10566000000E+00 0.  1.
     999900   -1    0    0    0    0 -0.00000000000E+00 -0.00000000000E+00 -0.74505805969E-08  0.93827000000E+00  0.93827000000E+00 0. -1.
     999902    2    1    2    0    0  0.30708296120E-04 -0.25655786432E-01 -0.14343117207E-02  0.10182341332E+01  0.10179098548E+01 0.  0.
     999903    2    3    3    0    0 -0.80720451189E-01  0.68919633907E-01  0.66233652632E-01  0.12691813240E+00  0.21344985636E-01 0.  0.
         14    1    1    2    0    0 -0.30708296120E-04  0.25655786432E-01  0.14343117207E-02  0.25695866800E-01  0.00000000000E+00 0. -1.
     999901    1    3    3    0    0  0.80751159486E-01 -0.94575420339E-01 -0.67667964353E-01  0.89131600080E+00  0.88000000000E+00 0. -1.
        -11    1    4    4    0    0 -0.13943083068E-01  0.23048410178E-01  0.20754725504E-01  0.34009682870E-01  0.51100000000E-03 0.  1.
         11    1    4    4    0    0 -0.66777368121E-01  0.45871223729E-01  0.45478927128E-01  0.92908449526E-01  0.51100000000E-03 0. -1.
</event>
<event>
 8    1  0.1114333E+005  0.1043930E+01  0.7957747E-01            NaN
         13   -1    0    0    0    0  0.00000000000E+00  0.00000000000E+00  0.74505805969E-08  0.10566000000E+00  0.10566000000E+00 0. -1.
     999900   -1    0    0    0    0 -0.00000000000E+00 -0.00000000000E+00 -0.74505805969E-08  0.93827000000E+00  0.93827000000E+00 0.  1.
     999902    2    1    2    0    0  0.18792927449E-02 -0.10415970265E-01  0.20729085403E-01  0.10206551389E+01  0.10203897262E+01 0.  0.
     999903    2    3    3    0    0 -0.70535143885E-01 -0.10950083053E+00  0.89735121175E-03  0.13191729350E+00  0.20874114939E-01 0.  0.
         14    1    1    2    0    0 -0.18792927449E-02  0.10415970265E-01 -0.20729085403E-01  0.23274861104E-01  0.00000000000E+00 0.  1.
     999901    1    3    3    0    0  0.72414436630E-01  0.99084860265E-01  0.19831734191E-01  0.88873784540E+00  0.88000000000E+00 0. -1.
        -11    1    4    4    0    0 -0.14766321219E-01 -0.36078140985E-01 -0.60515075200E-02  0.39453242750E-01  0.51100000000E-03 0. -1.
         11    1    4    4    0    0 -0.55768822666E-01 -0.73422689545E-01  0.69488587317E-02  0.92464050745E-01  0.51100000000E-03 0.  1.
</event>
<event>
 8    1  0.1114333E+005  0.1043930E+01  0.7957747E-01            NaN
         13   -1    0    0    0    0  0.00000000000E+00  0.00000000000E+00  0.74505805969E-08  0.10566000000E+00  0.10566000000E+00 0. -1.
     999900   -1    0    0    0    0 -0.00000000000E+00 -0.00000000000E+00 -0.74505805969E-08  0.93827000000E+00  0.93827000000E+00 0. -1.
     999902    2    1    2    0    0  0.24877856149E-02 -0.23070856409E-01 -0.14720023951E-02  0.10206787574E+01  0.10204138893E+01 0.  0.
     999903    2    3    3    0    0  0.33118363263E-01  0.46830029677E-01  0.11468282212E+00  0.12977118112E+00  0.19963268677E-01 0.  0.
         14    1    1    2    0    0 -0.24877856149E-02  0.23070856409E-01  0.14720023951E-02  0.23251242629E-01  0.00000000000E+00 0. -1.
     999901    1    3    3    0    0 -0.30630577648E-01 -0.69900886086E-01 -0.11615482451E+00  0.89090757625E+00  0.88000000000E+00 0. -1.
        -11    1    4    4    0    0  0.80697676688E-02  0.22861150645E-01  0.32301324677E-01  0.40390469865E-01  0.51100000000E-03 0.  1.
         11    1    4    4    0    0  0.25048595594E-01  0.23968879032E-01  0.82381497440E-01  0.89380711256E-01  0.51100000000E-03 0. -1.
</event>
<event>
 8    1  0.1396566E+005  0.1043930E+01  0.7957747E-01            NaN
         13   -1    0    0    0    0  0.00000000000E+00  0.00000000000E+00  0.74505805969E-08  0.10566000000E+00  0.10566000000E+00 0.  1.
     999900   -1    0    0    0    0 -0.00000000000E+00 -0.00000000000E+00 -0.74505805969E-08  0.93827000000E+00  0.93827000000E+00 0.  1.
     999902    2    1    2    0    0 -0.24078620955E-01 -0.42835822425E-02 -0.29532009034E-02  0.10192956650E+01  0.10189979403E+01 0.  0.
     999903    2    3    3    0    0 -0.17999418623E-01 -0.20933132275E-01 -0.12596011418E+00  0.13056349788E+00  0.20462197217E-01 0.  0.
         14    1    1    2    0    0  0.24078620955E-01  0.42835822425E-02  0.29532009034E-02  0.24634334971E-01  0.00000000000E+00 0.  1.
     999901    1    3    3    0    0 -0.60792023320E-02  0.16649550033E-01  0.12300691328E+00  0.88873216715E+00  0.88000000000E+00 0. -1.
        -11    1    4    4    0    0 -0.32365799785E-02 -0.26087421057E-02 -0.66243967660E-01  0.66376240913E-01  0.51100000000E-03 0. -1.
         11    1    4    4    0    0 -0.14762838644E-01 -0.18324390169E-01 -0.59716146523E-01  0.64187256963E-01  0.51100000000E-03 0.  1.
</event>
<event>
 8    1  0.1114333E+005  0.1043930E+01  0.7957747E-01            NaN
         13   -1    0    0    0    0  0.00000000000E+00  0.00000000000E+00  0.74505805969E-08  0.10566000000E+00  0.10566000000E+00 0. -1.
     999900   -1    0    0    0    0 -0.00000000000E+00 -0.00000000000E+00 -0.74505805969E-08  0.93827000000E+00  0.93827000000E+00 0.  1.
     999902    2    1    2    0    0 -0.13809855386E-01 -0.18984962339E-01  0.41356306063E-02  0.10200921238E+01  0.10198135598E+01 0.  0.
     999903    2    3    3    0    0 -0.11084644153E+00  0.47035483566E-01 -0.46925770324E-01  0.13083284497E+00  0.20394486738E-01 0.  0.
         14    1    1    2    0    0  0.13809855386E-01  0.18984962339E-01 -0.41356306063E-02  0.23837876191E-01  0.00000000000E+00 0.  1.
     999901    1    3    3    0    0  0.97036586145E-01 -0.66020445905E-01  0.51061400931E-01  0.88925927883E+00  0.88000000000E+00 0. -1.
        -11    1    4    4    0    0 -0.36307037463E-01  0.16260641814E-01 -0.54771108268E-02  0.40160544139E-01  0.51100000000E-03 0.  1.
         11    1    4    4    0    0 -0.74539404068E-01  0.30774841751E-01 -0.41448659498E-01  0.90672300835E-01  0.51100000000E-03 0. -1.
</event>
<event>
 8    1  0.1114333E+005  0.1043930E+01  0.7957747E-01            NaN
         13   -1    0    0    0    0  0.00000000000E+00  0.00000000000E+00  0.74505805969E-08  0.10566000000E+00  0.10566000000E+00 0.  1.
     999900   -1    0    0    0    0 -0.00000000000E+00 -0.00000000000E+00 -0.74505805969E-08  0.93827000000E+00  0.93827000000E+00 0. -1.
     999902    2    1    2    0    0 -0.22205160180E-01  0.40050457515E-02 -0.61359887260E-02  0.10205471027E+01  0.10202791916E+01 0.  0.
     999903    2    3    3    0    0  0.83745748192E-01 -0.74855884771E-01  0.58878481983E-01  0.12831869987E+00  0.19551451909E-01 0.  0.
         14    1    1    2    0    0  0.22205160180E-01 -0.40050457515E-02  0.61359887260E-02  0.23382897334E-01  0.00000000000E+00 0. -1.
     999901    1    3    3    0    0 -0.10595090837E+00  0.78860930522E-01 -0.65014470709E-01  0.89222840279E+00  0.88000000000E+00 0. -1.
        -11    1    4    4    0    0  0.46864525248E-01 -0.48684369138E-01  0.44288219211E-01  0.80797023503E-01  0.51100000000E-03 0. -1.
         11    1    4    4    0    0  0.36881222944E-01 -0.26171515633E-01  0.14590262772E-01  0.47521676371E-01  0.51100000000E-03 0.  1.
</event>
<event>
 8    1  0.1114333E+005  0.1043930E+01  0.7957747E-01            NaN
         13   -1    0    0    0    0  0.00000000000E+00  0.00000000000E+00  0.74505805969E-08  0.10566000000E+00  0.10566000000E+00 0. -1.
     999900   -1    0    0    0    0 -0.00000000000E+00 -0.00000000000E+00 -0.74505805969E-08  0.93827000000E+00  0.93827000000E+00 0. -1.
     999902    2    1    2    0    0 -0.16785397392E-01  0.92063791313E-03 -0.18158956085E-01  0.10191843978E+01  0.10188839443E+01 0.  0.
     999903    2    3    3    0    0  0.40838470301E-01 -0.36523618515E-02 -0.12233413864E+00  0.13115630645E+00  0.23562997284E-01 0.  0.
         14    1    1    2    0    0  0.16785397392E-01 -0.92063791313E-03  0.18158956085E-01  0.24745602153E-01  0.00000000000E+00 0.  1.
     999901    1    3    3    0    0 -0.57623867693E-01  0.45729997647E-02  0.10417518255E+00  0.88802809140E+00  0.88000000000E+00 0.  1.
        -11    1    4    4    0    0  0.35726934183E-02  0.61941160490E-02 -0.93812301947E-02  0.11806769789E-01  0.51100000000E-03 0. -1.
         11    1    4    4    0    0  0.37265776883E-01 -0.98464779006E-02 -0.11295290844E+00  0.11934953666E+00  0.51100000000E-03 0.  1.
</event>
<event>
 8    1  0.1114333E+005  0.1043930E+01  0.7957747E-01            NaN
         13   -1    0    0    0    0  0.00000000000E+00  0.00000000000E+00  0.74505805969E-08  0.10566000000E+00  0.10566000000E+00 0.  1.
     999900   -1    0    0    0    0 -0.00000000000E+00 -0.00000000000E+00 -0.74505805969E-08  0.93827000000E+00  0.93827000000E+00 0. -1.
     999902    2    1    2    0    0 -0.11325255916E-01  0.10504959308E-01 -0.18026697425E-01  0.10201902146E+01  0.10199139653E+01 0.  0.
     999903    2    3    3    0    0 -0.67248976033E-01  0.63592914916E-01  0.89411982356E-01  0.13030883855E+00  0.20479433816E-01 0.  0.
         14    1    1    2    0    0  0.11325255916E-01 -0.10504959308E-01  0.18026697425E-01  0.23739785418E-01  0.00000000000E+00 0.  1.
     999901    1    3    3    0    0  0.55923720117E-01 -0.53087955609E-01 -0.10743867978E+00  0.88988137604E+00  0.88000000000E+00 0. -1.
        -11    1    4    4    0    0 -0.27734320857E-01  0.23053131106E-01  0.48583631708E-01  0.60508427497E-01  0.51100000000E-03 0. -1.
         11    1    4    4    0    0 -0.39514655176E-01  0.40539783810E-01  0.40828350648E-01  0.69800411050E-01  0.51100000000E-03 0.  1.
</event>
<event>
 8    1  0.1114333E+005  0.1043930E+01  0.7957747E-01            NaN
         13   -1    0    0    0    0  0.00000000000E+00  0.00000000000E+00  0.74505805969E-08  0.10566000000E+00  0.10566000000E+00 0. -1.
     999900   -1    0    0    0    0 -0.00000000000E+00 -0.00000000000E+00 -0.74505805969E-08  0.93827000000E+00  0.93827000000E+00 0. -1.
     999902    2    1    2    0    0  0.19100882576E-02  0.15392151882E-01 -0.17352806580E-01  0.10206558368E+01  0.10203904402E+01 0.  0.
     999903    2    3    3    0    0  0.76292978607E-01  0.91007054121E-01 -0.57476274784E-01  0.13337892370E+00  0.19583478710E-01 0.  0.
         14    1    1    2    0    0 -0.19100882576E-02 -0.15392151882E-01  0.17352806580E-01  0.23274163206E-01  0.00000000000E+00 0. -1.
     999901    1    3    3    0    0 -0.74382890350E-01 -0.75614902239E-01  0.40123468204E-01  0.88727691310E+00  0.88000000000E+00 0. -1.
        -11    1    4    4    0    0  0.36540849368E-01  0.29642012261E-01 -0.26156502575E-01  0.53835920271E-01  0.51100000000E-03 0.  1.
         11    1    4    4    0    0  0.39752129239E-01  0.61365041860E-01 -0.31319772209E-01  0.79543003424E-01  0.51100000000E-03 0. -1.
</event>
<event>
 8    1  0.1114333E+005  0.1043930E+01  0.7957747E-01            NaN
         13   -1    0    0    0    0  0.00000000000E+00  0.00000000000E+00  0.74505805969E-08  0.10566000000E+00  0.10566000000E+00 0.  1.
     999900   -1    0    0    0    0 -0.00000000000E+00 -0.00000000000E+00 -0.74505805969E-08  0.93827000000E+00  0.93827000000E+00 0.  1.
     999902    2    1    2    0    0  0.16001148516E-01  0.16555301043E-01  0.78896796167E-02  0.10195915163E+01  0.10193009851E+01 0.  0.
     999903    2    3    3    0    0  0.86432951081E-01  0.22645298935E-01 -0.93653092234E-01  0.13093598040E+00  0.19744991333E-01 0.  0.
         14    1    1    2    0    0 -0.16001148516E-01 -0.16555301043E-01 -0.78896796167E-02  0.24338483743E-01  0.00000000000E+00 0. -1.
     999901    1    3    3    0    0 -0.70431802565E-01 -0.60899978916E-02  0.10154277185E+00  0.88865553585E+00  0.88000000000E+00 0. -1.
        -11    1    4    4    0    0  0.69175246743E-01  0.25701365152E-01 -0.72372005361E-01  0.10336219432E+00  0.51100000000E-03 0.  1.
         11    1    4    4    0    0  0.17257704339E-01 -0.30560662172E-02 -0.21281086873E-01  0.27573786089E-01  0.51100000000E-03 0. -1.
</event>
<event>
 8    1  0.1114333E+005  0.1043930E+01  0.7957747E-01            NaN
         13   -1    0    0    0    0  0.00000000000E+00  0.00000000000E+00  0.74505805969E-08  0.10566000000E+00  0.10566000000E+00 0. -1.
     999900   -1    0    0    0    0 -0.00000000000E+00 -0.00000000000E+00 -0.74505805969E-08  0.93827000000E+00  0.93827000000E+00 0.  1.
     999902    2    1    2    0    0 -0.53956260303E-02  0.17148747021E-01  0.15797421627E-01  0.10199977867E+01  0.10197169872E+01 0.  0.
     999903    2    3    3    0    0 -0.94304779542E-01  0.48590896895E-01 -0.73780196285E-01  0.13043744808E+00  0.17774807801E-01 0.  0.
         14    1    1    2    0    0  0.53956260303E-02 -0.17148747021E-01 -0.15797421627E-01  0.23932213327E-01  0.00000000000E+00 0.  1.
     999901    1    3    3    0    0  0.88909153511E-01 -0.31442149874E-01  0.89577617912E-01  0.88956033859E+00  0.88000000000E+00 0. -1.
        -11    1    4    4    0    0 -0.62454129341E-01  0.25480070905E-01 -0.53913512155E-01  0.86352071191E-01  0.51100000000E-03 0.  1.
         11    1    4    4    0    0 -0.31850650201E-01  0.23110825991E-01 -0.19866684130E-01  0.44085376890E-01  0.51100000000E-03 0. -1.
</event>
<event>
 8    1  0.1114333E+005  0.1043930E+01  0.7957747E-01            NaN
         13   -1    0    0    0    0  0.00000000000E+00  0.00000000000E+00  0.74505805969E-08  0.10566000000E+00  0.10566000000E+00 0. -1.
     999900   -1    0    0    0    0 -0.00000000000E+00 -0.00000000000E+00 -0.74505805969E-08  0.93827000000E+00  0.93827000000E+00 0. -1.
     999902    2    1    2    0    0  0.11570091863E-01  0.43101883128E-02  0.20150834048E-01  0.10202973772E+01  0.10200236453E+01 0.  0.
     999903    2    3    3    0    0  0.72185773189E-02  0.45561102706E-01 -0.11827021503E+00  0.12851211129E+00  0.19989923603E-01 0.  0.
         14    1    1    2    0    0 -0.11570091863E-01 -0.43101883128E-02 -0.20150834048E-01  0.23632622830E-01  0.00000000000E+00 0.  1.
     999901    1    3    3    0    0  0.43515145437E-02 -0.41250914394E-01  0.13842104908E+00  0.89178526588E+00  0.88000000000E+00 0.  1.
        -11    1    4    4    0    0  0.21085286758E-02  0.19910354755E-01 -0.27322811803E-01  0.33877208939E-01  0.51100000000E-03 0.  1.
         11    1    4    4    0    0  0.51100486431E-02  0.25650747951E-01 -0.90947403228E-01  0.94634902348E-01  0.51100000000E-03 0. -1.
</event>
<event>
 8    1  0.1114333E+005  0.1043930E+01  0.7957747E-01            NaN
         13   -1    0    0    0    0  0.00000000000E+00  0.00000000000E+00  0.74505805969E-08  0.10566000000E+00  0.10566000000E+00 0.  1.
     999900   -1    0    0    0    0 -0.00000000000E+00 -0.00000000000E+00 -0.74505805969E-08  0.93827000000E+00  0.93827000000E+00 0. -1.
     999902    2    1    2    0    0 -0.16350445078E-01 -0.38443127990E-02 -0.14577599032E-01  0.10216898968E+01  0.10214478073E+01 0.  0.
     999903    2    3    3    0    0 -0.10423640433E+00  0.61324938574E-01 -0.54412586693E-01  0.13402002611E+00  0.19356180603E-01 0.  0.
         14    1    1    2    0    0  0.16350445078E-01  0.38443127990E-02  0.14577599032E-01  0.22240103163E-01  0.00000000000E+00 0.  1.
     999901    1    3    3    0    0  0.87885959256E-01 -0.65169251373E-01  0.39834987661E-01  0.88766987073E+00  0.88000000000E+00 0.  1.
        -11    1    4    4    0    0 -0.63211895249E-01  0.35074591978E-01 -0.42565583393E-01  0.83893150578E-01  0.51100000000E-03 0.  1.
         11    1    4    4    0    0 -0.41024509086E-01  0.26250346596E-01 -0.11847003301E-01  0.50126875530E-01  0.51100000000E-03 0. -1.
</event>
<event>
 8    1  0.1114333E+005  0.1043930E+01  0.7957747E-01            NaN
         13   -1    0    0    0    0  0.00000000000E+00  0.00000000000E+00  0.74505805969E-08  0.10566000000E+00  0.10566000000E+00 0. -1.
     999900   -1    0    0    0    0 -0.00000000000E+00 -0.00000000000E+00 -0.74505805969E-08  0.93827000000E+00  0.93827000000E+00 0.  1.
     999902    2    1    2    0    0 -0.73117756589E-02 -0.22591620301E-01  0.30867494239E-02  0.10199848253E+01  0.10197037179E+01 0.  0.
     999903    2    3    3    0    0  0.11212614580E+00 -0.54617368034E-01  0.34218668238E-01  0.13079403473E+00  0.19514937903E-01 0.  0.
         14    1    1    2    0    0  0.73117756589E-02  0.22591620301E-01 -0.30867494239E-02  0.23945174735E-01  0.00000000000E+00 0.  1.
     999901    1    3    3    0    0 -0.11943792146E+00  0.32025747733E-01 -0.31131918814E-01  0.88919079053E+00  0.88000000000E+00 0.  1.
        -11    1    4    4    0    0  0.34006554730E-01 -0.73238770867E-02  0.12077894220E-01  0.36826913935E-01  0.51100000000E-03 0.  1.
         11    1    4    4    0    0  0.78119591074E-01 -0.47293490947E-01  0.22140774018E-01  0.93967120796E-01  0.51100000000E-03 0. -1.
</event>
<event>
 8    1  0.1114333E+005  0.1043930E+01  0.7957747E-01            NaN
         13   -1    0    0    0    0  0.00000000000E+00  0.00000000000E+00  0.74505805969E-08  0.10566000000E+00  0.10566000000E+00 0.  1.
     999900   -1    0    0    0    0 -0.00000000000E+00 -0.00000000000E+00 -0.74505805969E-08  0.93827000000E+00  0.93827000000E+00 0.  1.
     999902    2    1    2    0    0  0.13620336178E-01  0.70965624173E-02 -0.18284186119E-01  0.10200514276E+01  0.10197719004E+01 0.  0.
     999903    2    3    3    0    0  0.86229804220E-01  0.79293162032E-01 -0.60022196693E-01  0.13313173265E+00  0.19960196923E-01 0.  0.
         14    1    1    2    0    0 -0.13620336178E-01 -0.70965624173E-02  0.18284186119E-01  0.23878572356E-01  0.00000000000E+00 0. -1.
     999901    1    3    3    0    0 -0.72609468042E-01 -0.72196599615E-01  0.41738010574E-01  0.88691969500E+00  0.88000000000E+00 0. -1.
        -11    1    4    4    0    0  0.44103751607E-01  0.50997566169E-01 -0.41129760475E-01  0.78979813741E-01  0.51100000000E-03 0. -1.
         11    1    4    4    0    0  0.42126052613E-01  0.28295595863E-01 -0.18892436218E-01  0.54151918907E-01  0.51100000000E-03 0.  1.
</event>
<event>
 8    1  0.1114333E+005  0.1043930E+01  0.7957747E-01            NaN
         13   -1    0    0    0    0  0.00000000000E+00  0.00000000000E+00  0.74505805969E-08  0.10566000000E+00  0.10566000000E+00 0.  1.
     999900   -1    0    0    0    0 -0.00000000000E+00 -0.00000000000E+00 -0.74505805969E-08  0.93827000000E+00  0.93827000000E+00 0. -1.
     999902    2    1    2    0    0  0.13838661220E-02  0.19184394130E-01  0.13715467999E-01  0.10203064921E+01  0.10200329738E+01 0.  0.
     999903    2    3    3    0    0 -0.95535553325E-01  0.60695628535E-01 -0.61869621062E-01  0.13079558033E+00  0.21647922566E-01 0.  0.
         14    1    1    2    0    0 -0.13838661220E-02 -0.19184394130E-01 -0.13715467999E-01  0.23623507911E-01  0.00000000000E+00 0. -1.
     999901    1    3    3    0    0  0.96919419447E-01 -0.41511234405E-01  0.75585089062E-01  0.88951091176E+00  0.88000000000E+00 0. -1.
        -11    1    4    4    0    0 -0.43262607911E-01  0.31212066740E-01 -0.17454721271E-01  0.56131762570E-01  0.51100000000E-03 0.  1.
         11    1    4    4    0    0 -0.52272945414E-01  0.29483561794E-01 -0.44414899791E-01  0.74663817762E-01  0.51100000000E-03 0. -1.
</event>
<event>
 8    1  0.1114333E+005  0.1043930E+01  0.7957747E-01            NaN
         13   -1    0    0    0    0  0.00000000000E+00  0.00000000000E+00  0.74505805969E-08  0.10566000000E+00  0.10566000000E+00 0. -1.
     999900   -1    0    0    0    0 -0.00000000000E+00 -0.00000000000E+00 -0.74505805969E-08  0.93827000000E+00  0.93827000000E+00 0. -1.
     999902    2    1    2    0    0 -0.17496122580E-01  0.85626729942E-02 -0.12516968128E-01  0.10207759903E+01  0.10205133582E+01 0.  0.
     999903    2    3    3    0    0  0.45522056993E-01 -0.11903081450E+00  0.99144650613E-02  0.12906159757E+00  0.17832747300E-01 0.  0.
         14    1    1    2    0    0  0.17496122580E-01 -0.85626729942E-02  0.12516968128E-01  0.23154009702E-01  0.00000000000E+00 0. -1.
     999901    1    3    3    0    0 -0.63018179573E-01  0.12759348749E+00 -0.22431433190E-01  0.89171439273E+00  0.88000000000E+00 0. -1.
        -11    1    4    4    0    0  0.29042047538E-01 -0.88035720977E-01  0.46681040678E-03  0.92704949847E-01  0.51100000000E-03 0. -1.
         11    1    4    4    0    0  0.16480009454E-01 -0.30995093521E-01  0.94476546545E-02  0.36356647721E-01  0.51100000000E-03 0.  1.
</event>
<event>
 8    1  0.1114333E+005  0.1043930E+01  0.7957747E-01            NaN
         13   -1    0    0    0    0  0.00000000000E+00  0.00000000000E+00  0.74505805969E-08  0.10566000000E+00  0.10566000000E+00 0. -1.
     999900   -1    0    0    0    0 -0.00000000000E+00 -0.00000000000E+00 -0.74505805969E-08  0.93827000000E+00  0.93827000000E+00 0.  1.
     999902    2    1    2    0    0  0.13328187537E-01  0.11628852977E-01  0.41880579568E-02  0.10257527991E+01  0.10255917288E+01 0.  0.
     999903    2    3    3    0    0  0.71446109813E-01 -0.66009657654E-01  0.92782187479E-01  0.13600319889E+00  0.20652222230E-01 0.  0.
         14    1    1    2    0    0 -0.13328187537E-01 -0.11628852977E-01 -0.41880579568E-02  0.18177200940E-01  0.00000000000E+00 0. -1.
     999901    1    3    3    0    0 -0.58117922276E-01  0.77638510631E-01 -0.88594129522E-01  0.88974960017E+00  0.88000000000E+00 0.  1.
        -11    1    4    4    0    0  0.37358174798E-02  0.11904239911E-02  0.26445944051E-02  0.47569362082E-02  0.51100000000E-03 0.  1.
         11    1    4    4    0    0  0.67710292333E-01 -0.67200081645E-01  0.90137593074E-01  0.13124626268E+00  0.51100000000E-03 0. -1.
</event>
<event>
 8    1  0.1114333E+005  0.1043930E+01  0.7957747E-01            NaN
         13   -1    0    0    0    0  0.00000000000E+00  0.00000000000E+00  0.74505805969E-08  0.10566000000E+00  0.10566000000E+00 0.  1.
     999900   -1    0    0    0    0 -0.00000000000E+00 -0.00000000000E+00 -0.74505805969E-08  0.93827000000E+00  0.93827000000E+00 0.  1.
     999902    2    1    2    0    0 -0.11185987562E-01  0.33533773970E-02  0.20512665404E-01  0.10203261677E+01  0.10200531102E+01 0.  0.
     999903    2    3    3    0    0 -0.46095299381E-01 -0.18790180651E-02 -0.11858201430E+00  0.12870216177E+00  0.19345412755E-01 0.  0.
         14    1    1    2    0    0  0.11185987562E-01 -0.33533773970E-02 -0.20512665404E-01  0.23603832310E-01  0.00000000000E+00 0.  1.
     999901    1    3    3    0    0  0.34909311818E-01  0.52323954621E-02  0.13909467970E+00  0.89162400592E+00  0.88000000000E+00 0. -1.
        -11    1    4    4    0    0 -0.57242994837E-02 -0.70905884302E-02 -0.26336721200E-01  0.27873429166E-01  0.51100000000E-03 0.  1.
         11    1    4    4    0    0 -0.40370999897E-01  0.52115703651E-02 -0.92245293099E-01  0.10082873260E+00  0.51100000000E-03 0. -1.
</event>
<event>
 8    1  0.1114333E+005  0.1043930E+01  0.7957747E-01            NaN
         13   -1    0    0    0    0  0.00000000000E+00  0.00000000000E+00  0.74505805969E-08  0.10566000000E+00  0.10566000000E+00 0. -1.
     999900   -1    0    0    0    0 -0.00000000000E+00 -0.00000000000E+00 -0.74505805969E-08  0.93827000000E+00  0.93827000000E+00 0. -1.
     999902    2    1    2    0    0  0.76152782835E-02 -0.14904448240E-01 -0.16570889322E-01  0.10203773056E+01  0.10201054437E+01 0.  0.
     999903    2    3    3    0    0  0.24348279149E-01  0.75847707135E-02 -0.12870743168E+00  0.13281865265E+00  0.20611260940E-01 0.  0.
         14    1    1    2    0    0 -0.76152782835E-02  0.14904448240E-01  0.16570889322E-01  0.23552694402E-01  0.00000000000E+00 0. -1.
     999901    1    3    3    0    0 -0.16733000865E-01 -0.22489218954E-01  0.11213654236E+00  0.88755865295E+00  0.88000000000E+00 0.  1.
        -11    1    4    4    0    0  0.19380892290E-01 -0.34988076997E-02 -0.94043922465E-01  0.96085280428E-01  0.51100000000E-03 0. -1.
         11    1    4    4    0    0  0.49673868587E-02  0.11083578413E-01 -0.34663509218E-01  0.36733372224E-01  0.51100000000E-03 0.  1.
</event>
<event>
 8    1  0.1114333E+005  0.1043930E+01  0.7957747E-01            NaN
         13   -1    0    0    0    0  0.00000000000E+00  0.00000000000E+00  0.74505805969E-08  0.10566000000E+00  0.10566000000E+00 0.  1.
     999900   -1    0    0    0    0 -0.00000000000E+00 -0.00000000000E+00 -0.74505805969E-08  0.93827000000E+00  0.93827000000E+00 0. -1.
     999902    2    1    2    0    0 -0.54648616353E-02 -0.22480570404E-01  0.52658702679E-02  0.10202030080E+01  0.10199270599E+01 0.  0.
     999903    2    3    3    0    0  0.96579923553E-01 -0.87356379986E-01  0.66825729978E-02  0.13193276992E+00  0.20069385651E-01 0.  0.
         14    1    1    2    0    0  0.54648616353E-02  0.22480570404E-01 -0.52658702679E-02  0.23726991972E-01  0.00000000000E+00 0.  1.
     999901    1    3    3    0    0 -0.10204478519E+00  0.64875809582E-01 -0.14167027299E-02  0.88827023810E+00  0.88000000000E+00 0. -1.
        -11    1    4    4    0    0  0.49531393012E-01 -0.31618507478E-01  0.48973414194E-02  0.58968923874E-01  0.51100000000E-03 0.  1.
         11    1    4    4    0    0  0.47048530541E-01 -0.55737872508E-01  0.17852315784E-02  0.72963846051E-01  0.51100000000E-03 0. -1.
</event>
<event>
 8    1  0.1114333E+005  0.1043930E+01  0.7957747E-01            NaN
         13   -1    0    0    0    0  0.00000000000E+00  0.00000000000E+00  0.74505805969E-08  0.10566000000E+00  0.10566000000E+00 0. -1.
     999900   -1    0    0    0    0 -0.00000000000E+00 -0.00000000000E+00 -0.74505805969E-08  0.93827000000E+00  0.93827000000E+00 0.  1.
     999902    2    1    2    0    0  0.74179376889E-02 -0.61021572882E-02 -0.75335970184E-02  0.10317227396E+01  0.10316505194E+01 0.  0.
     999903    2    3    3    0    0  0.74342490642E-03 -0.12191800735E+00 -0.69880828119E-01  0.14192217907E+00  0.19849976736E-01 0.  0.
         14    1    1    2    0    0 -0.74179376889E-02  0.61021572882E-02  0.75335970184E-02  0.12207260428E-01  0.00000000000E+00 0. -1.
     999901    1    3    3    0    0  0.66745127825E-02  0.11581585006E+00  0.62347231100E-01  0.88980056050E+00  0.88000000000E+00 0. -1.
        -11    1    4    4    0    0 -0.65633685667E-02 -0.10184870842E+00 -0.59911398716E-01  0.11834641537E+00  0.51100000000E-03 0.  1.
         11    1    4    4    0    0  0.73067934731E-02 -0.20069298925E-01 -0.99694294031E-02  0.23575763695E-01  0.51100000000E-03 0. -1.
</event>
<event>
 8    1  0.1114333E+005  0.1043930E+01  0.7957747E-01            NaN
         13   -1    0    0    0    0  0.00000000000E+00  0.00000000000E+00  0.74505805969E-08  0.10566000000E+00  0.10566000000E+00 0. -1.
     999900   -1    0    0    0    0 -0.00000000000E+00 -0.00000000000E+00 -0.74505805969E-08  0.93827000000E+00  0.93827000000E+00 0. -1.
     999902    2    1    2    0    0 -0.68931438061E-02  0.24769561214E-02  0.23203284137E-01  0.10195980634E+01  0.10193076904E+01 0.  0.
     999903    2    3    3    0    0  0.82441663683E-01  0.97298604124E-01 -0.92858817627E-02  0.12941415059E+00  0.19953658737E-01 0.  0.
         14    1    1    2    0    0  0.68931438061E-02 -0.24769561214E-02 -0.23203284137E-01  0.24331936583E-01  0.00000000000E+00 0.  1.
     999901    1    3    3    0    0 -0.89334807489E-01 -0.94821648002E-01  0.32489165899E-01  0.89018391283E+00  0.88000000000E+00 0.  1.
        -11    1    4    4    0    0  0.25230441464E-01  0.21819229596E-01  0.46452655618E-02  0.33682244132E-01  0.51100000000E-03 0.  1.
         11    1    4    4    0    0  0.57211222220E-01  0.75479374528E-01 -0.13931147325E-01  0.95731906456E-01  0.51100000000E-03 0. -1.
</event>
<event>
 8    1  0.1114333E+005  0.1043930E+01  0.7957747E-01            NaN
         13   -1    0    0    0    0  0.00000000000E+00  0.00000000000E+00  0.74505805969E-08  0.10566000000E+00  0.10566000000E+00 0.  1.
     999900   -1    0    0    0    0 -0.00000000000E+00 -0.00000000000E+00 -0.74505805969E-08  0.93827000000E+00  0.93827000000E+00 0. -1.
     999902    2    1    2    0    0 -0.22702683375E-01  0.38571458702E-03  0.68934977079E-02  0.10202006739E+01  0.10199246708E+01 0.  0.
     999903    2    3    3    0    0  0.27099876250E-01 -0.12532720642E+00 -0.13110019980E-02  0.12983482363E+00  0.20348236713E-01 0.  0.
         14    1    1    2    0    0  0.22702683375E-01 -0.38571458702E-03 -0.68934977079E-02  0.23729326135E-01  0.00000000000E+00 0. -1.
     999901    1    3    3    0    0 -0.49802559626E-01  0.12571292101E+00  0.82044997058E-02  0.89036585024E+00  0.88000000000E+00 0.  1.
        -11    1    4    4    0    0  0.33307566501E-02 -0.52338896512E-02 -0.39680104203E-02  0.73819894634E-02  0.51100000000E-03 0.  1.
         11    1    4    4    0    0  0.23769119600E-01 -0.12009331677E+00  0.26570084223E-02  0.12245283416E+00  0.51100000000E-03 0. -1.
</event>
<event>
 8    1  0.1114333E+005  0.1043930E+01  0.7957747E-01            NaN
         13   -1    0    0    0    0  0.00000000000E+00  0.00000000000E+00  0.74505805969E-08  0.10566000000E+00  0.10566000000E+00 0.  1.
     999900   -1    0    0    0    0 -0.00000000000E+00 -0.00000000000E+00 -0.74505805969E-08  0.93827000000E+00  0.93827000000E+00 0.  1.
     999902    2    1    2    0    0 -0.36071446015E-02 -0.24671604432E-01 -0.20736259495E-02  0.10189100183E+01  0.10186027813E+01 0.  0.
     999903    2    3    3    0    0 -0.12501069451E+00 -0.10750106243E-01  0.27740413999E-01  0.12996597791E+00  0.19452154640E-01 0.  0.
         14    1    1    2    0    0  0.36071446015E-02  0.24671604432E-01  0.20736259495E-02  0.25019981654E-01  0.00000000000E+00 0.  1.
     999901    1    3    3    0    0  0.12140354991E+00 -0.13921498188E-01 -0.29814039949E-01  0.88894404043E+00  0.88000000000E+00 0.  1.
        -11    1    4    4    0    0 -0.27918317919E-01 -0.10335929610E-02 -0.18389148526E-02  0.28002562716E-01  0.51100000000E-03 0. -1.
         11    1    4    4    0    0 -0.97092376591E-01 -0.97165132824E-02  0.29579328852E-01  0.10196341520E+00  0.51100000000E-03 0.  1.
</event>
<event>
 8    1  0.1114333E+005  0.1043930E+01  0.7957747E-01            NaN
         13   -1    0    0    0    0  0.00000000000E+00  0.00000000000E+00  0.74505805969E-08  0.10566000000E+00  0.10566000000E+00 0.  1.
     999900   -1    0    0    0    0 -0.00000000000E+00 -0.00000000000E+00 -0.74505805969E-08  0.93827000000E+00  0.93827000000E+00 0.  1.
     999902    2    1    2    0    0 -0.28352171458E-01 -0.97770937857E-02 -0.10232050442E-02  0.10139219321E+01  0.10134777749E+01 0.  0.
     999903    2    3    3    0    0  0.43242141105E-01  0.11224928380E+00  0.52672851292E-02  0.12259945811E+00  0.23088922767E-01 0.  0.
         14    1    1    2    0    0  0.28352171458E-01  0.97770937857E-02  0.10232050442E-02  0.30008067879E-01  0.00000000000E+00 0. -1.
     999901    1    3    3    0    0 -0.71594312563E-01 -0.12202637758E+00 -0.62904901734E-02  0.89132247402E+00  0.88000000000E+00 0.  1.
        -11    1    4    4    0    0  0.27766800206E-01  0.87218003425E-01 -0.43468627088E-02  0.91635864439E-01  0.51100000000E-03 0. -1.
         11    1    4    4    0    0  0.15475340900E-01  0.25031280374E-01  0.96141478380E-02  0.30963593667E-01  0.51100000000E-03 0.  1.
</event>
<event>
 8    1  0.1114333E+005  0.1043930E+01  0.7957747E-01            NaN
         13   -1    0    0    0    0  0.00000000000E+00  0.00000000000E+00  0.74505805969E-08  0.10566000000E+00  0.10566000000E+00 0. -1.
     999900   -1    0    0    0    0 -0.00000000000E+00 -0.00000000000E+00 -0.74505805969E-08  0.93827000000E+00  0.93827000000E+00 0. -1.
     999902    2    1    2    0    0 -0.18882756099E-01 -0.19262171487E-01 -0.24461641390E-03  0.10169550196E+01  0.10165971977E+01 0.  0.
     999903    2    3    3    0    0 -0.99619740279E-01  0.73720955020E-01  0.25113828360E-01  0.12801892905E+00  0.19981740611E-01 0.  0.
         14    1    1    2    0    0  0.18882756099E-01  0.19262171487E-01  0.24461641390E-03  0.26974980361E-01  0.00000000000E+00 0. -1.
     999901    1    3    3    0    0  0.80736984181E-01 -0.92983126508E-01 -0.25358444773E-01  0.88893609059E+00  0.88000000000E+00 0.  1.
        -11    1    4    4    0    0 -0.24312640007E-01  0.28796454998E-01  0.10431081364E-01  0.39107657357E-01  0.51100000000E-03 0. -1.
         11    1    4    4    0    0 -0.75307100272E-01  0.44924500022E-01  0.14682746996E-01  0.88911271693E-01  0.51100000000E-03 0.  1.
</event>
<event>
 8    1  0.1114333E+005  0.1043930E+01  0.7957747E-01            NaN
         13   -1    0    0    0    0  0.00000000000E+00  0.00000000000E+00  0.74505805969E-08  0.10566000000E+00  0.10566000000E+00 0. -1.
     999900   -1    0    0    0    0 -0.00000000000E+00 -0.00000000000E+00 -0.74505805969E-08  0.93827000000E+00  0.93827000000E+00 0.  1.
     999902    2    1    2    0    0  0.20471099576E-01 -0.11512224133E-01  0.91301541636E-03  0.10204261531E+01  0.10201554309E+01 0.  0.
     999903    2    3    3    0    0  0.11003236895E+00  0.44977248631E-01  0.54725387568E-01  0.13244639381E+00  0.20423126035E-01 0.  0.
         14    1    1    2    0    0 -0.20471099576E-01  0.11512224133E-01 -0.91301541636E-03  0.23503846908E-01  0.00000000000E+00 0. -1.
     999901    1    3    3    0    0 -0.89561269373E-01 -0.56489472764E-01 -0.53812372152E-01  0.88797975929E+00  0.88000000000E+00 0. -1.
        -11    1    4    4    0    0  0.39008569000E-01  0.26500201334E-01  0.23465887401E-01  0.52676732233E-01  0.51100000000E-03 0. -1.
         11    1    4    4    0    0  0.71023799948E-01  0.18477047297E-01  0.31259500167E-01  0.79769661573E-01  0.51100000000E-03 0.  1.
</event>
<event>
 8    1  0.1114333E+005  0.1043930E+01  0.7957747E-01            NaN
         13   -1    0    0    0    0  0.00000000000E+00  0.00000000000E+00  0.74505805969E-08  0.10566000000E+00  0.10566000000E+00 0. -1.
     999900   -1    0    0    0    0 -0.00000000000E+00 -0.00000000000E+00 -0.74505805969E-08  0.93827000000E+00  0.93827000000E+00 0. -1.
     999902    2    1    2    0    0 -0.10008895327E-01 -0.11973006799E-01 -0.14138195077E-01  0.10228724731E+01  0.10226556981E+01 0.  0.
     999903    2    3    3    0    0 -0.17843766686E-01  0.10069585350E+00 -0.82636840049E-01  0.13301421383E+00  0.20146434601E-01 0.  0.
         14    1    1    2    0    0  0.10008895327E-01  0.11973006799E-01  0.14138195077E-01  0.21057526861E-01  0.00000000000E+00 0.  1.
     999901    1    3    3    0    0  0.78348713584E-02 -0.11266886030E+00  0.68498644972E-01  0.88985825930E+00  0.88000000000E+00 0.  1.
        -11    1    4    4    0    0 -0.26433812256E-02  0.94740182068E-02 -0.14543024695E-02  0.99559330030E-02  0.51100000000E-03 0. -1.
         11    1    4    4    0    0 -0.15200385460E-01  0.91221835292E-01 -0.81182537579E-01  0.12305828083E+00  0.51100000000E-03 0.  1.
</event>
<event>
 8    1  0.1114333E+005  0.1043930E+01  0.7957747E-01            NaN
         13   -1    0    0    0    0  0.00000000000E+00  0.00000000000E+00  0.74505805969E-08  0.10566000000E+00  0.10566000000E+00 0. -1.
     999900   -1    0    0    0    0 -0.00000000000E+00 -0.00000000000E+00 -0.74505805969E-08  0.93827000000E+00  0.93827000000E+00 0.  1.
     999902    2    1    2    0    0 -0.10075039544E-01 -0.19557083661E-01 -0.92545543806E-02  0.10200630203E+01  0.10197837676E+01 0.  0.
     999903    2    3    3    0    0 -0.40027391671E-01  0.86025907476E-01 -0.86404964476E-01  0.12989612741E+00  0.20113109902E-01 0.  0.
         14    1    1    2    0    0  0.10075039544E-01  0.19557083661E-01  0.92545543806E-02  0.23866979699E-01  0.00000000000E+00 0. -1.
     999901    1    3    3    0    0  0.29952352126E-01 -0.10558299114E+00  0.77150410095E-01  0.89016689289E+00  0.88000000000E+00 0. -1.
        -11    1    4    4    0    0 -0.14985808174E-01  0.13464715538E-01 -0.15926552833E-01  0.25686362477E-01  0.51100000000E-03 0. -1.
         11    1    4    4    0    0 -0.25041583497E-01  0.72561191938E-01 -0.70478411643E-01  0.10420976494E+00  0.51100000000E-03 0.  1.
</event>
<event>
 8    1  0.1114333E+005  0.1043930E+01  0.7957747E-01            NaN
         13   -1    0    0    0    0  0.00000000000E+00  0.00000000000E+00  0.74505805969E-08  0.10566000000E+00  0.10566000000E+00 0.  1.
     999900   -1    0    0    0    0 -0.00000000000E+00 -0.00000000000E+00 -0.74505805969E-08  0.93827000000E+00  0.93827000000E+00 0. -1.
     999902    2    1    2    0    0  0.17214163249E-01 -0.14740129296E-01  0.11314015774E-01  0.10186000616E+01  0.10182850680E+01 0.  0.
     999903    2    3    3    0    0  0.11844731989E+00 -0.46678372384E-01  0.29258610702E-01  0.13203917146E+00  0.19225984080E-01 0.  0.
         14    1    1    2    0    0 -0.17214163249E-01  0.14740129296E-01 -0.11314015774E-01  0.25329938432E-01  0.00000000000E+00 0. -1.
     999901    1    3    3    0    0 -0.10123315664E+00  0.31938243088E-01 -0.17944594928E-01  0.88656089010E+00  0.88000000000E+00 0. -1.
        -11    1    4    4    0    0  0.77866990675E-01 -0.25808467056E-01  0.10517894493E-01  0.82705697712E-01  0.51100000000E-03 0.  1.
         11    1    4    4    0    0  0.40580329213E-01 -0.20869905327E-01  0.18740716210E-01  0.49333473752E-01  0.51100000000E-03 0. -1.
</event>
<event>
 8    1  0.1114333E+005  0.1043930E+01  0.7957747E-01            NaN
         13   -1    0    0    0    0  0.00000000000E+00  0.00000000000E+00  0.74505805969E-08  0.10566000000E+00  0.10566000000E+00 0.  1.
     999900   -1    0    0    0    0 -0.00000000000E+00 -0.00000000000E+00 -0.74505805969E-08  0.93827000000E+00  0.93827000000E+00 0.  1.
     999902    2    1    2    0    0 -0.21971785438E-01  0.10171969173E-01 -0.28658464959E-04  0.10197178309E+01  0.10194303436E+01 0.  0.
     999903    2    3    3    0    0  0.11390880365E+00 -0.54106467297E-02 -0.53471255949E-01  0.12755054632E+00  0.20136434825E-01 0.  0.
         14    1    1    2    0    0  0.21971785438E-01 -0.10171969173E-01  0.28658464959E-04  0.24212169120E-01  0.00000000000E+00 0.  1.
     999901    1    3    3    0    0 -0.13588058909E+00  0.15582615903E-01  0.53442597484E-01  0.89216728456E+00  0.88000000000E+00 0.  1.
        -11    1    4    4    0    0  0.81471810439E-01 -0.51468864204E-02 -0.28000390371E-01  0.86304283312E-01  0.51100000000E-03 0. -1.
         11    1    4    4    0    0  0.32436993211E-01 -0.26376030923E-03 -0.25470865578E-01  0.41246263011E-01  0.51100000000E-03 0.  1.
</event>
<event>
 8    1  0.1114333E+005  0.1043930E+01  0.7957747E-01            NaN
         13   -1    0    0    0    0  0.00000000000E+00  0.00000000000E+00  0.74505805969E-08  0.10566000000E+00  0.10566000000E+00 0.  1.
     999900   -1    0    0    0    0 -0.00000000000E+00 -0.00000000000E+00 -0.74505805969E-08  0.93827000000E+00  0.93827000000E+00 0. -1.
     999902    2    1    2    0    0 -0.67293123361E-03  0.23301516352E-01  0.12878766644E-01  0.10172977614E+01  0.10169490938E+01 0.  0.
     999903    2    3    3    0    0  0.75295019679E-01 -0.30648508818E-01 -0.94234515524E-01  0.12591962058E+00  0.19155569660E-01 0.  0.
         14    1    1    2    0    0  0.67293123361E-03 -0.23301516352E-01 -0.12878766644E-01  0.26632238565E-01  0.00000000000E+00 0.  1.
     999901    1    3    3    0    0 -0.75967950913E-01  0.53950025169E-01  0.10711328217E+00  0.89137814086E+00  0.88000000000E+00 0.  1.
        -11    1    4    4    0    0  0.37321331628E-01 -0.24384174833E-01 -0.57015782845E-01  0.72377692635E-01  0.51100000000E-03 0.  1.
         11    1    4    4    0    0  0.37973688052E-01 -0.62643339841E-02 -0.37218732679E-01  0.53541927942E-01  0.51100000000E-03 0. -1.
</event>
<event>
 8    1  0.1114333E+005  0.1043930E+01  0.7957747E-01            NaN
         13   -1    0    0    0    0  0.00000000000E+00  0.00000000000E+00  0.74505805969E-08  0.10566000000E+00  0.10566000000E+00 0. -1.
     999900   -1    0    0    0    0 -0.00000000000E+00 -0.00000000000E+00 -0.74505805969E-08  0.93827000000E+00  0.93827000000E+00 0.  1.
     999902    2    1    2    0    0  0.15519181507E-01 -0.40485409040E-02  0.16636464334E-01  0.10208213950E+01  0.10205598037E+01 0.  0.
     999903    2    3    3    0    0  0.28261530605E-01  0.12530589051E+00  0.18169100713E-01  0.13127247262E+00  0.20051571997E-01 0.  0.
         14    1    1    2    0    0 -0.15519181507E-01  0.40485409040E-02 -0.16636464334E-01  0.23108604969E-01  0.00000000000E+00 0.  1.
     999901    1    3    3    0    0 -0.12742349098E-01 -0.12935443141E+00 -0.15326363790E-02  0.88954892241E+00  0.88000000000E+00 0. -1.
        -11    1    4    4    0    0  0.24733559698E-01  0.64236770052E-01  0.97043253077E-02  0.69516520718E-01  0.51100000000E-03 0. -1.
         11    1    4    4    0    0  0.35279709073E-02  0.61069120455E-01  0.84647754052E-02  0.61755951903E-01  0.51100000000E-03 0.  1.
</event>
<event>
 8    1  0.1114333E+005  0.1043930E+01  0.7957747E-01            NaN
         13   -1    0    0    0    0  0.00000000000E+00  0.00000000000E+00  0.74505805969E-08  0.10566000000E+00  0.10566000000E+00 0. -1.
     999900   -1    0    0    0    0 -0.00000000000E+00 -0.00000000000E+00 -0.74505805969E-08  0.93827000000E+00  0.93827000000E+00 0.  1.
     999902    2    1    2    0    0 -0.75266087403E-03  0.95003404053E-02 -0.20879716801E-01  0.10209781909E+01  0.10207201775E+01 0.  0.
     999903    2    3    3    0    0  0.10246891474E+00 -0.59356649358E-01 -0.53727418976E-01  0.13166668743E+00  0.20649230432E-01 0.  0.
         14    1    1    2    0    0  0.75266087403E-03 -0.95003404053E-02  0.20879716801E-01  0.22951809077E-01  0.00000000000E+00 0. -1.
     999901    1    3    3    0    0 -0.10322157561E+00  0.68856989763E-01  0.32847702174E-01  0.88931150350E+00  0.88000000000E+00 0.  1.
        -11    1    4    4    0    0  0.59111319942E-01 -0.23582815735E-01 -0.33522406647E-01  0.71932678329E-01  0.51100000000E-03 0. -1.
         11    1    4    4    0    0  0.43357594798E-01 -0.35773833622E-01 -0.20205012329E-01  0.59734009098E-01  0.51100000000E-03 0.  1.
</event>
<event>
 8    1  0.1114333E+005  0.1043930E+01  0.7957747E-01            NaN
         13   -1    0    0    0    0  0.00000000000E+00  0.00000000000E+00  0.74505805969E-08  0.10566000000E+00  0.10566000000E+00 0. -1.
     999900   -1    0    0    0    0 -0.00000000000E+00 -0.00000000000E+00 -0.74505805969E-08  0.93827000000E+00  0.93827000000E+00 0. -1.
     999902    2    1    2    0    0 -0.19431416948E-01  0.11228824812E-01 -0.72848763852E-02  0.10203347485E+01  0.10200618918E+01 0.  0.
     999903    2    3    3    0    0  0.47679660451E-01 -0.64306214683E-01  0.97535078819E-01  0.12837249483E+00  0.23617081954E-01 0.  0.
         14    1    1    2    0    0  0.19431416948E-01 -0.11228824812E-01  0.72848763852E-02  0.23595251539E-01  0.00000000000E+00 0. -1.
     999901    1    3    3    0    0 -0.67111077399E-01  0.75535039495E-01 -0.10481995520E+00  0.89196225364E+00  0.88000000000E+00 0. -1.
        -11    1    4    4    0    0  0.86635263079E-02 -0.25819672977E-01  0.21808502335E-01  0.34893897688E-01  0.51100000000E-03 0. -1.
         11    1    4    4    0    0  0.39016134143E-01 -0.38486541705E-01  0.75726576484E-01  0.93478597138E-01  0.51100000000E-03 0.  1.
</event>
<event>
 8    1  0.1114333E+005  0.1043930E+01  0.7957747E-01            NaN
         13   -1    0    0    0    0  0.00000000000E+00  0.00000000000E+00  0.74505805969E-08  0.10566000000E+00  0.10566000000E+00 0.  1.
     999900   -1    0    0    0    0 -0.00000000000E+00 -0.00000000000E+00 -0.74505805969E-08  0.93827000000E+00  0.93827000000E+00 0.  1.
     999902    2    1    2    0    0 -0.36249730833E-02 -0.12898966234E-01 -0.19755915476E-01  0.10200590981E+01  0.10197797526E+01 0.  0.
     999903    2    3    3    0    0 -0.16364835886E-01  0.48560094524E-01  0.11509904403E+00  0.12757639222E+00  0.20051316177E-01 0.  0.
         14    1    1    2    0    0  0.36249730833E-02  0.12898966234E-01  0.19755915476E-01  0.23870901869E-01  0.00000000000E+00 0.  1.
     999901    1    3    3    0    0  0.12739862802E-01 -0.61459060758E-01 -0.13485495951E+00  0.89248270591E+00  0.88000000000E+00 0.  1.
        -11    1    4    4    0    0 -0.38273647186E-02  0.55214112125E-02  0.36276579364E-01  0.36896965103E-01  0.51100000000E-03 0. -1.
         11    1    4    4    0    0 -0.12537471167E-01  0.43038683311E-01  0.78822464666E-01  0.90679427113E-01  0.51100000000E-03 0.  1.
</event>
<event>
 8    1  0.1114333E+005  0.1043930E+01  0.7957747E-01            NaN
         13   -1    0    0    0    0  0.00000000000E+00  0.00000000000E+00  0.74505805969E-08  0.10566000000E+00  0.10566000000E+00 0. -1.
     999900   -1    0    0    0    0 -0.00000000000E+00 -0.00000000000E+00 -0.74505805969E-08  0.93827000000E+00  0.93827000000E+00 0. -1.
     999902    2    1    2    0    0  0.10631575485E-01 -0.17217793459E-01 -0.13411660432E-01  0.10196533560E+01  0.10193643171E+01 0.  0.
     999903    2    3    3    0    0 -0.10096633003E+00 -0.44797502619E-01 -0.66787811396E-01  0.13057307482E+00  0.19690100996E-01 0.  0.
         14    1    1    2    0    0 -0.10631575485E-01  0.17217793459E-01  0.13411660432E-01  0.24276644011E-01  0.00000000000E+00 0. -1.
     999901    1    3    3    0    0  0.11159790551E+00  0.27579709160E-01  0.53376150964E-01  0.88908028117E+00  0.88000000000E+00 0.  1.
        -11    1    4    4    0    0 -0.55142711558E-02 -0.24663063437E-02  0.90857363999E-03  0.61299657765E-02  0.51100000000E-03 0. -1.
         11    1    4    4    0    0 -0.95452058870E-01 -0.42331196275E-01 -0.67696385036E-01  0.12444310904E+00  0.51100000000E-03 0.  1.
</event>
<event>
 8    1  0.1114333E+005  0.1043930E+01  0.7957747E-01            NaN
         13   -1    0    0    0    0  0.00000000000E+00  0.00000000000E+00  0.74505805969E-08  0.10566000000E+00  0.10566000000E+00 0.  1.
     999900   -1    0    0    0    0 -0.00000000000E+00 -0.00000000000E+00 -0.74505805969E-08  0.93827000000E+00  0.93827000000E+00 0.  1.
     999902    2    1    2    0    0 -0.76210091261E-02  0.19400668077E-01  0.14136371641E-01  0.10187446331E+01  0.10184332697E+01 0.  0.
     999903    2    3    3    0    0 -0.10443714455E+00  0.10123467973E-01 -0.72612374329E-01  0.12914653541E+00  0.19916549298E-01 0.  0.
         14    1    1    2    0    0  0.76210091261E-02 -0.19400668077E-01 -0.14136371641E-01  0.25185366885E-01  0.00000000000E+00 0. -1.
     999901    1    3    3    0    0  0.96816135425E-01  0.92772001043E-02  0.86748745970E-01  0.88959809771E+00  0.88000000000E+00 0. -1.
        -11    1    4    4    0    0 -0.33103010681E-01  0.48839304253E-02 -0.12535059886E-01  0.35735849506E-01  0.51100000000E-03 0. -1.
         11    1    4    4    0    0 -0.71334133870E-01  0.52395375479E-02 -0.60077314443E-01  0.93410685900E-01  0.51100000000E-03 0.  1.
</event>
<event>
 8    1  0.1114333E+005  0.1043930E+01  0.7957747E-01            NaN
         13   -1    0    0    0    0  0.00000000000E+00  0.00000000000E+00  0.74505805969E-08  0.10566000000E+00  0.10566000000E+00 0. -1.
     999900   -1    0    0    0    0 -0.00000000000E+00 -0.00000000000E+00 -0.74505805969E-08  0.93827000000E+00  0.93827000000E+00 0. -1.
     999902    2    1    2    0    0 -0.33255865382E-02 -0.23750221996E-02  0.26523797376E-01  0.10170932326E+01  0.10167391169E+01 0.  0.
     999903    2    3    3    0    0  0.39946305129E-01  0.18561039693E-01  0.12139133553E+00  0.13069003706E+00  0.20095023205E-01 0.  0.
         14    1    1    2    0    0  0.33255865382E-02  0.23750221996E-02 -0.26523797376E-01  0.26836767382E-01  0.00000000000E+00 0.  1.
     999901    1    3    3    0    0 -0.43271891668E-01 -0.20936061893E-01 -0.94867538154E-01  0.88640319556E+00  0.88000000000E+00 0. -1.
        -11    1    4    4    0    0  0.27312412579E-02 -0.35576474472E-02  0.18856628882E-01  0.19389432894E-01  0.51100000000E-03 0. -1.
         11    1    4    4    0    0  0.37215063872E-01  0.22118687140E-01  0.10253470665E+00  0.11130060417E+00  0.51100000000E-03 0.  1.
</event>
<event>
 8    1  0.1114333E+005  0.1043930E+01  0.7957747E-01            NaN
         13   -1    0    0    0    0  0.00000000000E+00  0.00000000000E+00  0.74505805969E-08  0.10566000000E+00  0.10566000000E+00 0.  1.
     999900   -1    0    0    0    0 -0.00000000000E+00 -0.00000000000E+00 -0.74505805969E-08  0.93827000000E+00  0.93827000000E+00 0. -1.
     999902    2    1    2    0    0  0.17103630231E-01  0.15226703693E-01  0.15484880901E-02  0.10209782138E+01  0.10207202010E+01 0.  0.
     999903    2    3    3    0    0  0.50643000305E-01  0.14975647574E-01  0.12004889399E+00  0.13240221902E+00  0.18155636932E-01 0.  0.
         14    1    1    2    0    0 -0.17103630231E-01 -0.15226703693E-01 -0.15484880901E-02  0.22951786157E-01  0.00000000000E+00 0. -1.
     999901    1    3    3    0    0 -0.33539370074E-01  0.25105611945E-03 -0.11850040590E+00  0.88857599482E+00  0.88000000000E+00 0. -1.
        -11    1    4    4    0    0  0.44427533150E-01  0.13889036399E-01  0.86199251049E-01  0.97965723782E-01  0.51100000000E-03 0. -1.
         11    1    4    4    0    0  0.62154671556E-02  0.10866111745E-02  0.33849642945E-01  0.34436495238E-01  0.51100000000E-03 0.  1.
</event>
<event>
 8    1  0.1114333E+005  0.1043930E+01  0.7957747E-01            NaN
         13   -1    0    0    0    0  0.00000000000E+00  0.00000000000E+00  0.74505805969E-08  0.10566000000E+00  0.10566000000E+00 0.  1.
     999900   -1    0    0    0    0 -0.00000000000E+00 -0.00000000000E+00 -0.74505805969E-08  0.93827000000E+00  0.93827000000E+00 0.  1.
     999902    2    1    2    0    0  0.50994084627E-03 -0.16556897919E-01  0.18195941717E-01  0.10193234317E+01  0.10190263859E+01 0.  0.
     999903    2    3    3    0    0 -0.10089298907E+00  0.68759738436E-01  0.37111304336E-01  0.12920025282E+00  0.20202958867E-01 0.  0.
         14    1    1    2    0    0 -0.50994084627E-03  0.16556897919E-01 -0.18195941717E-01  0.24606568297E-01  0.00000000000E+00 0.  1.
     999901    1    3    3    0    0  0.10140292992E+00 -0.85316636354E-01 -0.18915362618E-01  0.89012317888E+00  0.88000000000E+00 0.  1.
        -11    1    4    4    0    0 -0.62474842152E-01  0.49924681940E-01  0.16301472896E-01  0.81618496116E-01  0.51100000000E-03 0. -1.
         11    1    4    4    0    0 -0.38418146918E-01  0.18835056496E-01  0.20809831440E-01  0.47581756708E-01  0.51100000000E-03 0.  1.
</event>
<event>
 8    1  0.1114333E+005  0.1043930E+01  0.7957747E-01            NaN
         13   -1    0    0    0    0  0.00000000000E+00  0.00000000000E+00  0.74505805969E-08  0.10566000000E+00  0.10566000000E+00 0.  1.
     999900   -1    0    0    0    0 -0.00000000000E+00 -0.00000000000E+00 -0.74505805969E-08  0.93827000000E+00  0.93827000000E+00 0.  1.
     999902    2    1    2    0    0 -0.36092154379E-02  0.19829662419E-02 -0.23605951636E-01  0.10199675389E+01  0.10196860207E+01 0.  0.
     999903    2    3    3    0    0 -0.10139122300E+00 -0.37347708123E-01  0.68449305658E-01  0.12891064206E+00  0.16050382782E-01 0.  0.
         14    1    1    2    0    0  0.36092154379E-02 -0.19829662419E-02  0.23605951636E-01  0.23962461139E-01  0.00000000000E+00 0.  1.
     999901    1    3    3    0    0  0.97782007558E-01  0.39330674365E-01 -0.92055257295E-01  0.89105689680E+00  0.88000000000E+00 0.  1.
        -11    1    4    4    0    0 -0.81365371878E-01 -0.24013342586E-01  0.57402015147E-01  0.10243152262E+00  0.51100000000E-03 0.  1.
         11    1    4    4    0    0 -0.20025851118E-01 -0.13334365537E-01  0.11047290512E-01  0.26479119433E-01  0.51100000000E-03 0. -1.
</event>
<event>
 8    1  0.1114333E+005  0.1043930E+01  0.7957747E-01            NaN
         13   -1    0    0    0    0  0.00000000000E+00  0.00000000000E+00  0.74505805969E-08  0.10566000000E+00  0.10566000000E+00 0.  1.
     999900   -1    0    0    0    0 -0.00000000000E+00 -0.00000000000E+00 -0.74505805969E-08  0.93827000000E+00  0.93827000000E+00 0.  1.
     999902    2    1    2    0    0 -0.20460142846E-02  0.49922902892E-02  0.23171353390E-01  0.10201388093E+01  0.10198613482E+01 0.  0.
     999903    2    3    3    0    0 -0.51121021551E-01 -0.11409100494E+00  0.32717323472E-01  0.13071185160E+00  0.19622656364E-01 0.  0.
         14    1    1    2    0    0  0.20460142846E-02 -0.49922902892E-02 -0.23171353390E-01  0.23791190695E-01  0.00000000000E+00 0. -1.
     999901    1    3    3    0    0  0.49075007267E-01  0.11908329523E+00 -0.95459700826E-02  0.88942695770E+00  0.88000000000E+00 0. -1.
        -11    1    4    4    0    0 -0.14615912811E-01 -0.31425484961E-01  0.18314024566E-01  0.39202686505E-01  0.51100000000E-03 0. -1.
         11    1    4    4    0    0 -0.36505108740E-01 -0.82665519975E-01  0.14403298906E-01  0.91509165099E-01  0.51100000000E-03 0.  1.
</event>
<event>
 8    1  0.1114333E+005  0.1043930E+01  0.7957747E-01            NaN
         13   -1    0    0    0    0  0.00000000000E+00  0.00000000000E+00  0.74505805969E-08  0.10566000000E+00  0.10566000000E+00 0. -1.
     999900   -1    0    0    0    0 -0.00000000000E+00 -0.00000000000E+00 -0.74505805969E-08  0.93827000000E+00  0.93827000000E+00 0.  1.
     999902    2    1    2    0    0 -0.31053263938E-02 -0.72500487746E-02  0.22255260937E-01  0.10203185007E+01  0.10200452637E+01 0.  0.
     999903    2    3    3    0    0  0.41067350397E-01 -0.12284027882E+00  0.12007317258E-01  0.13160181526E+00  0.19964987919E-01 0.  0.
         14    1    1    2    0    0  0.31053263938E-02  0.72500487746E-02 -0.22255260937E-01  0.23611499288E-01  0.00000000000E+00 0.  1.
     999901    1    3    3    0    0 -0.44172676791E-01  0.11559023004E+00  0.10247943679E-01  0.88871668545E+00  0.88000000000E+00 0.  1.
        -11    1    4    4    0    0  0.16621402429E-01 -0.79145827527E-01  0.10013255730E-01  0.81491468541E-01  0.51100000000E-03 0. -1.
         11    1    4    4    0    0  0.24445947968E-01 -0.43694451291E-01  0.19940615282E-02  0.50110346716E-01  0.51100000000E-03 0.  1.
</event>
<event>
 8    1  0.1114333E+005  0.1043930E+01  0.7957747E-01            NaN
         13   -1    0    0    0    0  0.00000000000E+00  0.00000000000E+00  0.74505805969E-08  0.10566000000E+00  0.10566000000E+00 0.  1.
     999900   -1    0    0    0    0 -0.00000000000E+00 -0.00000000000E+00 -0.74505805969E-08  0.93827000000E+00  0.93827000000E+00 0. -1.
     999902    2    1    2    0    0 -0.64621961318E-02 -0.10113087270E-01 -0.19960570400E-01  0.10206392533E+01  0.10203734740E+01 0.  0.
     999903    2    3    3    0    0 -0.98047059264E-01  0.73861897108E-01 -0.43050267008E-01  0.13161016530E+00  0.19977598588E-01 0.  0.
         14    1    1    2    0    0  0.64621961318E-02  0.10113087270E-01  0.19960570400E-01  0.23290746740E-01  0.00000000000E+00 0.  1.
     999901    1    3    3    0    0  0.91584863132E-01 -0.83974984378E-01  0.23089696608E-01  0.88902908796E+00  0.88000000000E+00 0.  1.
        -11    1    4    4    0    0 -0.48225503600E-01  0.48176620786E-01 -0.26795574881E-01  0.73245818598E-01  0.51100000000E-03 0. -1.
         11    1    4    4    0    0 -0.49821555663E-01  0.25685276322E-01 -0.16254692126E-01  0.58364346699E-01  0.51100000000E-03 0.  1.
</event>
<event>
 8    1  0.1114333E+005  0.1043930E+01  0.7957747E-01            NaN
         13   -1    0    0    0    0  0.00000000000E+00  0.00000000000E+00  0.74505805969E-08  0.10566000000E+00  0.10566000000E+00 0.  1.
     999900   -1    0    0    0    0 -0.00000000000E+00 -0.00000000000E+00 -0.74505805969E-08  0.93827000000E+00  0.93827000000E+00 0.  1.
     999902    2    1    2    0    0  0.85497104227E-02 -0.13677703627E-01 -0.17185998570E-01  0.10203601958E+01  0.10200879342E+01 0.  0.
     999903    2    3    3    0    0 -0.53158928992E-01 -0.48484254460E-01  0.10554060941E+00  0.12902340618E+00  0.18210558613E-01 0.  0.
         14    1    1    2    0    0 -0.85497104227E-02  0.13677703627E-01  0.17185998570E-01  0.23569804235E-01  0.00000000000E+00 0.  1.
     999901    1    3    3    0    0  0.61708639415E-01  0.34806550833E-01 -0.12272660798E+00  0.89133678958E+00  0.88000000000E+00 0.  1.
        -11    1    4    4    0    0 -0.40441713313E-01 -0.35077523687E-01  0.90680742748E-01  0.10530538006E+00  0.51100000000E-03 0.  1.
         11    1    4    4    0    0 -0.12717215679E-01 -0.13406730773E-01  0.14859866665E-01  0.23718026118E-01  0.51100000000E-03 0. -1.
</event>
<event>
 8    1  0.1114333E+005  0.1043930E+01  0.7957747E-01            NaN
         13   -1    0    0    0    0  0.00000000000E+00  0.00000000000E+00  0.74505805969E-08  0.10566000000E+00  0.10566000000E+00 0. -1.
     999900   -1    0    0    0    0 -0.00000000000E+00 -0.00000000000E+00 -0.74505805969E-08  0.93827000000E+00  0.93827000000E+00 0. -1.
     999902    2    1    2    0    0 -0.13379102780E-01 -0.16159782783E-01 -0.62641051330E-02  0.10220352978E+01  0.10218007497E+01 0.  0.
     999903    2    3    3    0    0 -0.26270260685E-01 -0.84384903891E-01  0.97646540388E-01  0.13320557770E+00  0.19948445541E-01 0.  0.
         14    1    1    2    0    0  0.13379102780E-01  0.16159782783E-01  0.62641051330E-02  0.21894702188E-01  0.00000000000E+00 0.  1.
     999901    1    3    3    0    0  0.12891157905E-01  0.68225121107E-01 -0.10391064552E+00  0.88882972011E+00  0.88000000000E+00 0. -1.
        -11    1    4    4    0    0  0.14119393878E-02 -0.22592462791E-01  0.20323800767E-01  0.30425826963E-01  0.51100000000E-03 0. -1.
         11    1    4    4    0    0 -0.27682200073E-01 -0.61792441100E-01  0.77322739620E-01  0.10277975074E+00  0.51100000000E-03 0.  1.
</event>
<event>
 8    1  0.1114333E+005  0.1043930E+01  0.7957747E-01            NaN
         13   -1    0    0    0    0  0.00000000000E+00  0.00000000000E+00  0.74505805969E-08  0.10566000000E+00  0.10566000000E+00 0. -1.
     999900   -1    0    0    0    0 -0.00000000000E+00 -0.00000000000E+00 -0.74505805969E-08  0.93827000000E+00  0.93827000000E+00 0. -1.
     999902    2    1    2    0    0  0.12700901080E-02 -0.33477509712E-02 -0.23458922968E-01  0.10201993946E+01  0.10199233614E+01 0.  0.
     999903    2    3    3    0    0 -0.30720383970E-01 -0.33372190858E-01  0.11792794604E+00  0.12783450055E+00  0.19421996797E-01 0.  0.
         14    1    1    2    0    0 -0.12700901080E-02  0.33477509712E-02  0.23458922968E-01  0.23730605392E-01  0.00000000000E+00 0. -1.
     999901    1    3    3    0    0  0.31990474078E-01  0.30024439887E-01 -0.14138686901E+00  0.89236489406E+00  0.88000000000E+00 0. -1.
        -11    1    4    4    0    0 -0.12472417394E-01 -0.20366797177E-01  0.82696578523E-01  0.86077597801E-01  0.51100000000E-03 0. -1.
         11    1    4    4    0    0 -0.18247966576E-01 -0.13005393681E-01  0.35231367516E-01  0.41756902747E-01  0.51100000000E-03 0.  1.
</event>
<event>
 8    1  0.1114333E+005  0.1043930E+01  0.7957747E-01            NaN
         13   -1    0    0    0    0  0.00000000000E+00  0.00000000000E+00  0.74505805969E-08  0.10566000000E+00  0.10566000000E+00 0. -1.
     999900   -1    0    0    0    0 -0.00000000000E+00 -0.00000000000E+00 -0.74505805969E-08  0.93827000000E+00  0.93827000000E+00 0. -1.
     999902    2    1    2    0    0  0.72832660569E-03 -0.18999380542E-01 -0.18326866391E-01  0.10175220286E+01  0.10171792850E+01 0.  0.
     999903    2    3    3    0    0 -0.31230714748E-01 -0.12004432990E+00 -0.36976815272E-01  0.13096730233E+00  0.19978756865E-01 0.  0.
         14    1    1    2    0    0 -0.72832660569E-03  0.18999380542E-01  0.18326866391E-01  0.26407971379E-01  0.00000000000E+00 0. -1.
     999901    1    3    3    0    0  0.31959041354E-01  0.10104494936E+00  0.18649948881E-01  0.88655472629E+00  0.88000000000E+00 0.  1.
        -11    1    4    4    0    0 -0.31922534169E-01 -0.96106620820E-01 -0.25637134298E-01  0.10446556624E+00  0.51100000000E-03 0.  1.
         11    1    4    4    0    0  0.69181942027E-03 -0.23937709085E-01 -0.11339680974E-01  0.26501736093E-01  0.51100000000E-03 0. -1.
</event>
<event>
 8    1  0.1114333E+005  0.1043930E+01  0.7957747E-01            NaN
         13   -1    0    0    0    0  0.00000000000E+00  0.00000000000E+00  0.74505805969E-08  0.10566000000E+00  0.10566000000E+00 0. -1.
     999900   -1    0    0    0    0 -0.00000000000E+00 -0.00000000000E+00 -0.74505805969E-08  0.93827000000E+00  0.93827000000E+00 0.  1.
     999902    2    1    2    0    0 -0.23349163651E-01 -0.59171886401E-02 -0.24337462642E-02  0.10197200912E+01  0.10194326582E+01 0.  0.
     999903    2    3    3    0    0  0.78056357041E-02 -0.10801092131E+00  0.69675511581E-01  0.13034193940E+00  0.20175658178E-01 0.  0.
         14    1    1    2    0    0  0.23349163651E-01  0.59171886401E-02  0.24337462642E-02  0.24209908829E-01  0.00000000000E+00 0. -1.
     999901    1    3    3    0    0 -0.31154799356E-01  0.10209373267E+00 -0.72109257846E-01  0.88937815177E+00  0.88000000000E+00 0.  1.
        -11    1    4    4    0    0 -0.32569565468E-02 -0.17883439047E-01  0.19224768292E-01  0.26462766201E-01  0.51100000000E-03 0.  1.
         11    1    4    4    0    0  0.11062592251E-01 -0.90127482261E-01  0.50450743289E-01  0.10387917320E+00  0.51100000000E-03 0. -1.
</event>
<event>
 8    1  0.1114333E+005  0.1043930E+01  0.7957747E-01            NaN
         13   -1    0    0    0    0  0.00000000000E+00  0.00000000000E+00  0.74505805969E-08  0.10566000000E+00  0.10566000000E+00 0. -1.
     999900   -1    0    0    0    0 -0.00000000000E+00 -0.00000000000E+00 -0.74505805969E-08  0.93827000000E+00  0.93827000000E+00 0.  1.
     999902    2    1    2    0    0  0.20614023970E-02 -0.18376984680E-01 -0.15671465062E-01  0.10196904092E+01  0.10194022625E+01 0.  0.
     999903    2    3    3    0    0  0.55114455756E-01 -0.73366044376E-01  0.89935984115E-01  0.13008861260E+00  0.20356477828E-01 0.  0.
         14    1    1    2    0    0 -0.20614023970E-02  0.18376984680E-01  0.15671465062E-01  0.24239590817E-01  0.00000000000E+00 0. -1.
     999901    1    3    3    0    0 -0.53053053359E-01  0.54989059696E-01 -0.10560744918E+00  0.88960179658E+00  0.88000000000E+00 0.  1.
        -11    1    4    4    0    0  0.40462684354E-01 -0.49219294487E-01  0.49135442866E-01  0.80463163259E-01  0.51100000000E-03 0. -1.
         11    1    4    4    0    0  0.14651771402E-01 -0.24146749889E-01  0.40800541249E-01  0.49625449344E-01  0.51100000000E-03 0.  1.
</event>
<event>
 8    1  0.1114333E+005  0.1043930E+01  0.7957747E-01            NaN
         13   -1    0    0    0    0  0.00000000000E+00  0.00000000000E+00  0.74505805969E-08  0.10566000000E+00  0.10566000000E+00 0. -1.
     999900   -1    0    0    0    0 -0.00000000000E+00 -0.00000000000E+00 -0.74505805969E-08  0.93827000000E+00  0.93827000000E+00 0. -1.
     999902    2    1    2    0    0 -0.84277244109E-02  0.19757045509E-01  0.10355191447E-01  0.10200847201E+01  0.10198059809E+01 0.  0.
     999903    2    3    3    0    0  0.19121779040E-01  0.12947918385E+00  0.12352421637E-01  0.13284072221E+00  0.19067607951E-01 0.  0.
         14    1    1    2    0    0  0.84277244109E-02 -0.19757045509E-01 -0.10355191447E-01  0.23845279950E-01  0.00000000000E+00 0.  1.
     999901    1    3    3    0    0 -0.27549503451E-01 -0.10972213834E+00 -0.19972301900E-02  0.88724399784E+00  0.88000000000E+00 0.  1.
        -11    1    4    4    0    0  0.17717959226E-01  0.67489073594E-01  0.89916639693E-03  0.69783742770E-01  0.51100000000E-03 0.  1.
         11    1    4    4    0    0  0.14038198137E-02  0.61990110252E-01  0.11453255240E-01  0.63056979437E-01  0.51100000000E-03 0. -1.
</event>
<event>
 8    1  0.1114333E+005  0.1043930E+01  0.7957747E-01            NaN
         13   -1    0    0    0    0  0.00000000000E+00  0.00000000000E+00  0.74505805969E-08  0.10566000000E+00  0.10566000000E+00 0. -1.
     999900   -1    0    0    0    0 -0.00000000000E+00 -0.00000000000E+00 -0.74505805969E-08  0.93827000000E+00  0.93827000000E+00 0. -1.
     999902    2    1    2    0    0  0.59770758371E-02 -0.18086364949E-01 -0.13065731436E-01  0.10208311825E+01  0.10205698152E+01 0.  0.
     999903    2    3    3    0    0 -0.26980496869E-02  0.11230566871E+00 -0.61908267150E-01  0.12984132085E+00  0.20156695229E-01 0.  0.
         14    1    1    2    0    0 -0.59770758371E-02  0.18086364949E-01  0.13065731436E-01  0.23098817515E-01  0.00000000000E+00 0. -1.
     999901    1    3    3    0    0  0.86751255241E-02 -0.13039203366E+00  0.48842535713E-01  0.89098986164E+00  0.88000000000E+00 0. -1.
        -11    1    4    4    0    0  0.44772886282E-02  0.76641716110E-01 -0.49738294078E-01  0.91477635411E-01  0.51100000000E-03 0. -1.
         11    1    4    4    0    0 -0.71753383151E-02  0.35663952597E-01 -0.12169973072E-01  0.38363685437E-01  0.51100000000E-03 0.  1.
</event>
<event>
 8    1  0.1114333E+005  0.1043930E+01  0.7957747E-01            NaN
         13   -1    0    0    0    0  0.00000000000E+00  0.00000000000E+00  0.74505805969E-08  0.10566000000E+00  0.10566000000E+00 0.  1.
     999900   -1    0    0    0    0 -0.00000000000E+00 -0.00000000000E+00 -0.74505805969E-08  0.93827000000E+00  0.93827000000E+00 0. -1.
     999902    2    1    2    0    0  0.27895149432E-01 -0.99305386374E-02  0.92769739769E-02  0.10129007041E+01  0.10124253153E+01 0.  0.
     999903    2    3    3    0    0  0.24194118375E-01  0.11700407055E+00 -0.22800999821E-01  0.12320688649E+00  0.19614876949E-01 0.  0.
         14    1    1    2    0    0 -0.27895149432E-01  0.99305386374E-02 -0.92769739769E-02  0.31029295925E-01  0.00000000000E+00 0. -1.
     999901    1    3    3    0    0  0.37010310566E-02 -0.12693460919E+00  0.32077973798E-01  0.88969381758E+00  0.88000000000E+00 0.  1.
        -11    1    4    4    0    0  0.12397441759E-01  0.35294870041E-01 -0.14905233743E-01  0.40272217810E-01  0.51100000000E-03 0.  1.
         11    1    4    4    0    0  0.11796676616E-01  0.81709200507E-01 -0.78957660787E-02  0.82934668683E-01  0.51100000000E-03 0. -1.
</event>
<event>
 8    1  0.1114333E+005  0.1043930E+01  0.7957747E-01            NaN
         13   -1    0    0    0    0  0.00000000000E+00  0.00000000000E+00  0.74505805969E-08  0.10566000000E+00  0.10566000000E+00 0. -1.
     999900   -1    0    0    0    0 -0.00000000000E+00 -0.00000000000E+00 -0.74505805969E-08  0.93827000000E+00  0.93827000000E+00 0. -1.
     999902    2    1    2    0    0 -0.12665177867E-01 -0.17214907522E-01 -0.68091140723E-02  0.10214995786E+01  0.10212532816E+01 0.  0.
     999903    2    3    3    0    0  0.48313292843E-01  0.11484555118E+00 -0.26970449098E-01  0.12933097450E+00  0.21804149799E-01 0.  0.
         14    1    1    2    0    0  0.12665177867E-01  0.17214907522E-01  0.68091140723E-02  0.22430421437E-01  0.00000000000E+00 0. -1.
     999901    1    3    3    0    0 -0.60978470710E-01 -0.13206045871E+00  0.20161335025E-01  0.89216860406E+00  0.88000000000E+00 0. -1.
        -11    1    4    4    0    0  0.24192590574E-01  0.35415858981E-01 -0.33542670413E-02  0.43024141298E-01  0.51100000000E-03 0.  1.
         11    1    4    4    0    0  0.24120702269E-01  0.79429692204E-01 -0.23616182056E-01  0.86306833202E-01  0.51100000000E-03 0. -1.
</event>
<event>
 8    1  0.1114333E+005  0.1043930E+01  0.7957747E-01            NaN
         13   -1    0    0    0    0  0.00000000000E+00  0.00000000000E+00  0.74505805969E-08  0.10566000000E+00  0.10566000000E+00 0. -1.
     999900   -1    0    0    0    0 -0.00000000000E+00 -0.00000000000E+00 -0.74505805969E-08  0.93827000000E+00  0.93827000000E+00 0.  1.
     999902    2    1    2    0    0 -0.60389169503E-02 -0.15728600898E-01 -0.16455041254E-01  0.10203795056E+01  0.10201076951E+01 0.  0.
     999903    2    3    3    0    0  0.94885607685E-01 -0.15567808875E-01  0.83719297832E-01  0.12896451596E+00  0.19423962753E-01 0.  0.
         14    1    1    2    0    0  0.60389169503E-02  0.15728600898E-01  0.16455041254E-01  0.23550494406E-01  0.00000000000E+00 0. -1.
     999901    1    3    3    0    0 -0.10092452464E+00 -0.16079202232E-03 -0.10017433909E+00  0.89141498963E+00  0.88000000000E+00 0.  1.
        -11    1    4    4    0    0  0.70190610387E-02  0.25069231126E-02  0.11893718333E-01  0.14045409860E-01  0.51100000000E-03 0.  1.
         11    1    4    4    0    0  0.87866546647E-01 -0.18074731988E-01  0.71825579499E-01  0.11491910610E+00  0.51100000000E-03 0. -1.
</event>
<event>
 8    1  0.1114333E+005  0.1043930E+01  0.7957747E-01            NaN
         13   -1    0    0    0    0  0.00000000000E+00  0.00000000000E+00  0.74505805969E-08  0.10566000000E+00  0.10566000000E+00 0. -1.
     999900   -1    0    0    0    0 -0.00000000000E+00 -0.00000000000E+00 -0.74505805969E-08  0.93827000000E+00  0.93827000000E+00 0. -1.
     999902    2    1    2    0    0 -0.17481473943E-01  0.15038225892E-01 -0.65586123016E-02  0.10199557312E+01  0.10196739322E+01 0.  0.
     999903    2    3    3    0    0  0.41936229759E-01  0.28258198353E-01 -0.11918441480E+00  0.13069210180E+00  0.17841737644E-01 0.  0.
         14    1    1    2    0    0  0.17481473943E-01 -0.15038225892E-01  0.65586123016E-02  0.23974268801E-01  0.00000000000E+00 0.  1.
     999901    1    3    3    0    0 -0.59417703702E-01 -0.13219972461E-01  0.11262580249E+00  0.88926362940E+00  0.88000000000E+00 0.  1.
        -11    1    4    4    0    0  0.41884624456E-02  0.11630225625E-01 -0.27218524762E-01  0.29898404255E-01  0.51100000000E-03 0. -1.
         11    1    4    4    0    0  0.37747767314E-01  0.16627972728E-01 -0.91965890033E-01  0.10079369754E+00  0.51100000000E-03 0.  1.
</event>
<event>
 8    1  0.1114333E+005  0.1043930E+01  0.7957747E-01            NaN
         13   -1    0    0    0    0  0.00000000000E+00  0.00000000000E+00  0.74505805969E-08  0.10566000000E+00  0.10566000000E+00 0.  1.
     999900   -1    0    0    0    0 -0.00000000000E+00 -0.00000000000E+00 -0.74505805969E-08  0.93827000000E+00  0.93827000000E+00 0.  1.
     999902    2    1    2    0    0  0.24336278041E-01 -0.84826728547E-02 -0.57637941712E-02  0.10175210718E+01  0.10171783029E+01 0.  0.
     999903    2    3    3    0    0 -0.33908521641E-01 -0.13174798779E-01 -0.12116962326E+00  0.12806450839E+00  0.19876557679E-01 0.  0.
         14    1    1    2    0    0 -0.24336278041E-01  0.84826728547E-02  0.57637941712E-02  0.26408928242E-01  0.00000000000E+00 0. -1.
     999901    1    3    3    0    0  0.58244799682E-01  0.46921259246E-02  0.11540582909E+00  0.88945656337E+00  0.88000000000E+00 0. -1.
        -11    1    4    4    0    0 -0.11849106939E-01  0.26712543822E-02 -0.58669362659E-01  0.59915708884E-01  0.51100000000E-03 0.  1.
         11    1    4    4    0    0 -0.22059414702E-01 -0.15846053162E-01 -0.62500260600E-01  0.68148799504E-01  0.51100000000E-03 0. -1.
</event>
<event>
 8    1  0.1114333E+005  0.1043930E+01  0.7957747E-01            NaN
         13   -1    0    0    0    0  0.00000000000E+00  0.00000000000E+00  0.74505805969E-08  0.10566000000E+00  0.10566000000E+00 0.  1.
     999900   -1    0    0    0    0 -0.00000000000E+00 -0.00000000000E+00 -0.74505805969E-08  0.93827000000E+00  0.93827000000E+00 0.  1.
     999902    2    1    2    0    0  0.22568180555E-01  0.11932787366E-01 -0.37172145463E-02  0.10181320956E+01  0.10178052035E+01 0.  0.
     999903    2    3    3    0    0 -0.11854602269E+00  0.20759187949E-01 -0.32732243976E-01  0.12637372269E+00  0.20366998102E-01 0.  0.
         14    1    1    2    0    0 -0.22568180555E-01 -0.11932787366E-01  0.37172145463E-02  0.25797904409E-01  0.00000000000E+00 0. -1.
     999901    1    3    3    0    0  0.14111420324E+00 -0.88264005833E-02  0.29015029429E-01  0.89175837290E+00  0.88000000000E+00 0. -1.
        -11    1    4    4    0    0 -0.72725883982E-01  0.60592247425E-02 -0.27409590464E-01  0.77957136786E-01  0.51100000000E-03 0. -1.
         11    1    4    4    0    0 -0.45820138706E-01  0.14699963207E-01 -0.53226535115E-02  0.48416585905E-01  0.51100000000E-03 0.  1.
</event>
<event>
 8    1  0.1114333E+005  0.1043930E+01  0.7957747E-01            NaN
         13   -1    0    0    0    0  0.00000000000E+00  0.00000000000E+00  0.74505805969E-08  0.10566000000E+00  0.10566000000E+00 0.  1.
     999900   -1    0    0    0    0 -0.00000000000E+00 -0.00000000000E+00 -0.74505805969E-08  0.93827000000E+00  0.93827000000E+00 0.  1.
     999902    2    1    2    0    0 -0.17701440831E-01 -0.16062164416E-01 -0.16392200222E-02  0.10199712610E+01  0.10196898313E+01 0.  0.
     999903    2    3    3    0    0  0.11308039554E+00 -0.18953218965E-01  0.53762626995E-01  0.12857818743E+00  0.22260499895E-01 0.  0.
         14    1    1    2    0    0  0.17701440831E-01  0.16062164416E-01  0.16392200222E-02  0.23958739021E-01  0.00000000000E+00 0.  1.
     999901    1    3    3    0    0 -0.13078183637E+00  0.28910545491E-02 -0.55401847017E-01  0.89139307355E+00  0.88000000000E+00 0.  1.
        -11    1    4    4    0    0  0.76622792974E-01 -0.19428396314E-01  0.45430589705E-01  0.91174089458E-01  0.51100000000E-03 0.  1.
         11    1    4    4    0    0  0.36457602568E-01  0.47517734884E-03  0.83320372899E-02  0.37404097970E-01  0.51100000000E-03 0. -1.
</event>
<event>
 8    1  0.1243914E+005  0.1043930E+01  0.7957747E-01            NaN
         13   -1    0    0    0    0  0.00000000000E+00  0.00000000000E+00  0.74505805969E-08  0.10566000000E+00  0.10566000000E+00 0. -1.
     999900   -1    0    0    0    0 -0.00000000000E+00 -0.00000000000E+00 -0.74505805969E-08  0.93827000000E+00  0.93827000000E+00 0. -1.
     999902    2    1    2    0    0 -0.17142392101E-01 -0.14188267493E-01  0.88784382675E-02  0.10199718029E+01  0.10196903861E+01 0.  0.
     999903    2    3    3    0    0 -0.51783704681E-01 -0.88558870095E-01 -0.80409387964E-01  0.13165692463E+00  0.18537815076E-01 0.  0.
         14    1    1    2    0    0  0.17142392101E-01  0.14188267493E-01 -0.88784382675E-02  0.23958197083E-01  0.00000000000E+00 0.  1.
     999901    1    3    3    0    0  0.34641312580E-01  0.74370602602E-01  0.89287826232E-01  0.88831487828E+00  0.88000000000E+00 0.  1.
        -11    1    4    4    0    0 -0.18433329562E-01 -0.44591004392E-01 -0.29390059389E-01  0.56499398433E-01  0.51100000000E-03 0. -1.
         11    1    4    4    0    0 -0.33350375119E-01 -0.43967865703E-01 -0.51019328575E-01  0.75157526199E-01  0.51100000000E-03 0.  1.
</event>
<event>
 8    1  0.1114333E+005  0.1043930E+01  0.7957747E-01            NaN
         13   -1    0    0    0    0  0.00000000000E+00  0.00000000000E+00  0.74505805969E-08  0.10566000000E+00  0.10566000000E+00 0. -1.
     999900   -1    0    0    0    0 -0.00000000000E+00 -0.00000000000E+00 -0.74505805969E-08  0.93827000000E+00  0.93827000000E+00 0. -1.
     999902    2    1    2    0    0 -0.16978995515E-02  0.24136538926E-01  0.87247786990E-02  0.10182088582E+01  0.10178839333E+01 0.  0.
     999903    2    3    3    0    0  0.37264084529E-01  0.68323649203E-01  0.10362224356E+00  0.13114850748E+00  0.20140223849E-01 0.  0.
         14    1    1    2    0    0  0.16978995515E-02 -0.24136538926E-01 -0.87247786990E-02  0.25721141840E-01  0.00000000000E+00 0.  1.
     999901    1    3    3    0    0 -0.38961984081E-01 -0.44187110277E-01 -0.94897464860E-01  0.88706035068E+00  0.88000000000E+00 0. -1.
        -11    1    4    4    0    0  0.29588269478E-01  0.33828205165E-01  0.61250823340E-01  0.75971952958E-01  0.51100000000E-03 0.  1.
         11    1    4    4    0    0  0.76758150510E-02  0.34495444039E-01  0.42371420219E-01  0.55176554518E-01  0.51100000000E-03 0. -1.
</event>
<event>
 8    1  0.1114333E+005  0.1043930E+01  0.7957747E-01            NaN
         13   -1    0    0    0    0  0.00000000000E+00  0.00000000000E+00  0.74505805969E-08  0.10566000000E+00  0.10566000000E+00 0. -1.
     999900   -1    0    0    0    0 -0.00000000000E+00 -0.00000000000E+00 -0.74505805969E-08  0.93827000000E+00  0.93827000000E+00 0.  1.
     999902    2    1    2    0    0  0.18144515065E-01  0.92805512171E-03 -0.10622430569E-01  0.10228843177E+01  0.10226677890E+01 0.  0.
     999903    2    3    3    0    0 -0.96026341252E-01 -0.75749703846E-01 -0.42976238810E-01  0.13161486793E+00  0.22725327496E-01 0.  0.
         14    1    1    2    0    0 -0.18144515065E-01 -0.92805512171E-03  0.10622430569E-01  0.21045682323E-01  0.00000000000E+00 0. -1.
     999901    1    3    3    0    0  0.11417085632E+00  0.76677758968E-01  0.32353808241E-01  0.89126944975E+00  0.88000000000E+00 0.  1.
        -11    1    4    4    0    0 -0.41646655669E-01 -0.41999899134E-01 -0.29946342804E-01  0.66298416452E-01  0.51100000000E-03 0.  1.
         11    1    4    4    0    0 -0.54379685583E-01 -0.33749804712E-01 -0.13029896006E-01  0.65316451474E-01  0.51100000000E-03 0. -1.
</event>
<event>
 8    1  0.1114333E+005  0.1043930E+01  0.7957747E-01            NaN
         13   -1    0    0    0    0  0.00000000000E+00  0.00000000000E+00  0.74505805969E-08  0.10566000000E+00  0.10566000000E+00 0.  1.
     999900   -1    0    0    0    0 -0.00000000000E+00 -0.00000000000E+00 -0.74505805969E-08  0.93827000000E+00  0.93827000000E+00 0.  1.
     999902    2    1    2    0    0 -0.14643501593E-01  0.18315939619E-01  0.42055375706E-02  0.10201058037E+01  0.10198275631E+01 0.  0.
     999903    2    3    3    0    0  0.78371910937E-01 -0.84097361272E-02  0.10088095772E+00  0.12953729675E+00  0.19750026167E-01 0.  0.
         14    1    1    2    0    0  0.14643501593E-01 -0.18315939619E-01 -0.42055375706E-02  0.23824196299E-01  0.00000000000E+00 0. -1.
     999901    1    3    3    0    0 -0.93015412530E-01  0.26725675746E-01 -0.96675420148E-01  0.89056850695E+00  0.88000000000E+00 0.  1.
        -11    1    4    4    0    0  0.63107288228E-01 -0.87755278980E-02  0.91861579565E-01  0.11179602246E+00  0.51100000000E-03 0. -1.
         11    1    4    4    0    0  0.15264622709E-01  0.36579177074E-03  0.90193781534E-02  0.17741274288E-01  0.51100000000E-03 0.  1.
</event>
<event>
 8    1  0.1114333E+005  0.1043930E+01  0.7957747E-01            NaN
         13   -1    0    0    0    0  0.00000000000E+00  0.00000000000E+00  0.74505805969E-08  0.10566000000E+00  0.10566000000E+00 0. -1.
     999900   -1    0    0    0    0 -0.00000000000E+00 -0.00000000000E+00 -0.74505805969E-08  0.93827000000E+00  0.93827000000E+00 0. -1.
     999902    2    1    2    0    0 -0.12574217400E-01 -0.16762283908E-01 -0.10147753239E-01  0.10206477750E+01  0.10203821924E+01 0.  0.
     999903    2    3    3    0    0 -0.30819825440E-01 -0.74597245948E-01 -0.10452177668E+00  0.13352645221E+00  0.19745908350E-01 0.  0.
         14    1    1    2    0    0  0.12574217400E-01  0.16762283908E-01  0.10147753239E-01  0.23282224998E-01  0.00000000000E+00 0. -1.
     999901    1    3    3    0    0  0.18245608040E-01  0.57834962039E-01  0.94374023443E-01  0.88712132279E+00  0.88000000000E+00 0.  1.
        -11    1    4    4    0    0 -0.97554650267E-02 -0.23736536025E-01 -0.49124578119E-01  0.55426325305E-01  0.51100000000E-03 0. -1.
         11    1    4    4    0    0 -0.21064360413E-01 -0.50860709923E-01 -0.55397198563E-01  0.78100126908E-01  0.51100000000E-03 0.  1.
</event>
<event>
 8    1  0.1114333E+005  0.1043930E+01  0.7957747E-01            NaN
         13   -1    0    0    0    0  0.00000000000E+00  0.00000000000E+00  0.74505805969E-08  0.10566000000E+00  0.10566000000E+00 0. -1.
     999900   -1    0    0    0    0 -0.00000000000E+00 -0.00000000000E+00 -0.74505805969E-08  0.93827000000E+00  0.93827000000E+00 0.  1.
     999902    2    1    2    0    0 -0.13553033306E-01  0.60666709240E-02  0.18029800222E-01  0.10205727120E+01  0.10203053942E+01 0.  0.
     999903    2    3    3    0    0 -0.11176432744E+00  0.43799451357E-01  0.54956171191E-01  0.13353676124E+00  0.20055648196E-01 0.  0.
         14    1    1    2    0    0  0.13553033306E-01 -0.60666709240E-02 -0.18029800222E-01  0.23357288026E-01  0.00000000000E+00 0.  1.
     999901    1    3    3    0    0  0.98211294132E-01 -0.37732780433E-01 -0.36926370969E-01  0.88703595073E+00  0.88000000000E+00 0.  1.
        -11    1    4    4    0    0 -0.79851677596E-01  0.34153863800E-01  0.48829553817E-01  0.99636154454E-01  0.51100000000E-03 0.  1.
         11    1    4    4    0    0 -0.31912649842E-01  0.96455875575E-02  0.61266173741E-02  0.33900606790E-01  0.51100000000E-03 0. -1.
</event>
<event>
 8    1  0.1114333E+005  0.1043930E+01  0.7957747E-01            NaN
         13   -1    0    0    0    0  0.00000000000E+00  0.00000000000E+00  0.74505805969E-08  0.10566000000E+00  0.10566000000E+00 0.  1.
     999900   -1    0    0    0    0 -0.00000000000E+00 -0.00000000000E+00 -0.74505805969E-08  0.93827000000E+00  0.93827000000E+00 0. -1.
     999902    2    1    2    0    0 -0.11034581029E-01 -0.12885754371E-02  0.20755254537E-01  0.10203884836E+01  0.10201168827E+01 0.  0.
     999903    2    3    3    0    0 -0.16365079058E-01 -0.12836410875E+00  0.22341188297E-02  0.13105185560E+00  0.20601877126E-01 0.  0.
         14    1    1    2    0    0  0.11034581029E-01  0.12885754371E-02 -0.20755254537E-01  0.23541516435E-01  0.00000000000E+00 0. -1.
     999901    1    3    3    0    0  0.53304980290E-02  0.12707553331E+00  0.18521135707E-01  0.88933662797E+00  0.88000000000E+00 0. -1.
        -11    1    4    4    0    0  0.97436230290E-03 -0.15317817461E-01  0.63260521359E-02  0.16609183312E-01  0.51100000000E-03 0. -1.
         11    1    4    4    0    0 -0.17339441361E-01 -0.11304629129E+00 -0.40919333061E-02  0.11444267229E+00  0.51100000000E-03 0.  1.
</event>
<event>
 8    1  0.1114333E+005  0.1043930E+01  0.7957747E-01            NaN
         13   -1    0    0    0    0  0.00000000000E+00  0.00000000000E+00  0.74505805969E-08  0.10566000000E+00  0.10566000000E+00 0. -1.
     999900   -1    0    0    0    0 -0.00000000000E+00 -0.00000000000E+00 -0.74505805969E-08  0.93827000000E+00  0.93827000000E+00 0. -1.
     999902    2    1    2    0    0  0.64403132660E-03  0.19590985113E-01  0.13320435067E-01  0.10202307286E+01  0.10199554324E+01 0.  0.
     999903    2    3    3    0    0 -0.66881516397E-01  0.87373754149E-01  0.72870644709E-01  0.13304392143E+00  0.16829854970E-01 0.  0.
         14    1    1    2    0    0 -0.64403132660E-03 -0.19590985113E-01 -0.13320435067E-01  0.23699271390E-01  0.00000000000E+00 0.  1.
     999901    1    3    3    0    0  0.67525547724E-01 -0.67782769036E-01 -0.59550209642E-01  0.88718680718E+00  0.88000000000E+00 0. -1.
        -11    1    4    4    0    0 -0.34275372574E-01  0.53624429452E-01  0.34309045801E-01  0.72303197328E-01  0.51100000000E-03 0.  1.
         11    1    4    4    0    0 -0.32606143823E-01  0.33749324697E-01  0.38561598908E-01  0.60740724097E-01  0.51100000000E-03 0. -1.
</event>
<event>
 8    1  0.1114333E+005  0.1043930E+01  0.7957747E-01            NaN
         13   -1    0    0    0    0  0.00000000000E+00  0.00000000000E+00  0.74505805969E-08  0.10566000000E+00  0.10566000000E+00 0. -1.
     999900   -1    0    0    0    0 -0.00000000000E+00 -0.00000000000E+00 -0.74505805969E-08  0.93827000000E+00  0.93827000000E+00 0.  1.
     999902    2    1    2    0    0 -0.53549630743E-03 -0.10936271716E-01 -0.21005583009E-01  0.10202419584E+01  0.10199669262E+01 0.  0.
     999903    2    3    3    0    0 -0.10557591138E+00  0.50955509045E-01  0.50092434936E-01  0.12899619577E+00  0.19698464912E-01 0.  0.
         14    1    1    2    0    0  0.53549630743E-03  0.10936271716E-01  0.21005583009E-01  0.23688041559E-01  0.00000000000E+00 0.  1.
     999901    1    3    3    0    0  0.10504041507E+00 -0.61891780761E-01 -0.71098017945E-01  0.89124576267E+00  0.88000000000E+00 0.  1.
        -11    1    4    4    0    0 -0.44806066231E-01  0.31448271927E-01  0.18545333402E-01  0.57799376210E-01  0.51100000000E-03 0. -1.
         11    1    4    4    0    0 -0.60769845148E-01  0.19507237118E-01  0.31547101534E-01  0.71196819560E-01  0.51100000000E-03 0.  1.
</event>
<event>
 8    1  0.1114333E+005  0.1043930E+01  0.7957747E-01            NaN
         13   -1    0    0    0    0  0.00000000000E+00  0.00000000000E+00  0.74505805969E-08  0.10566000000E+00  0.10566000000E+00 0. -1.
     999900   -1    0    0    0    0 -0.00000000000E+00 -0.00000000000E+00 -0.74505805969E-08  0.93827000000E+00  0.93827000000E+00 0. -1.
     999902    2    1    2    0    0 -0.17365987201E-01 -0.24714386303E-03  0.15972563995E-01  0.10203342082E+01  0.10200613388E+01 0.  0.
     999903    2    3    3    0    0  0.41887675344E-01  0.10706707300E+00 -0.55022519289E-01  0.12900506609E+00  0.19922198239E-01 0.  0.
         14    1    1    2    0    0  0.17365987201E-01  0.24714386303E-03 -0.15972563995E-01  0.23595791831E-01  0.00000000000E+00 0.  1.
     999901    1    3    3    0    0 -0.59253662545E-01 -0.10731421686E+00  0.70995083284E-01  0.89132914208E+00  0.88000000000E+00 0. -1.
        -11    1    4    4    0    0  0.21509390501E-01  0.63768200743E-01 -0.21785854354E-01  0.70738404539E-01  0.51100000000E-03 0.  1.
         11    1    4    4    0    0  0.20378284843E-01  0.43298872254E-01 -0.33236664935E-01  0.58266661553E-01  0.51100000000E-03 0. -1.
</event>
<event>
 8    1  0.1114333E+005  0.1043930E+01  0.7957747E-01            NaN
         13   -1    0    0    0    0  0.00000000000E+00  0.00000000000E+00  0.74505805969E-08  0.10566000000E+00  0.10566000000E+00 0.  1.
     999900   -1    0    0    0    0 -0.00000000000E+00 -0.00000000000E+00 -0.74505805969E-08  0.93827000000E+00  0.93827000000E+00 0. -1.
     999902    2    1    2    0    0 -0.19652676986E-01 -0.93966002480E-02  0.10325238873E-01  0.10198232713E+01  0.10195383124E+01 0.  0.
     999903    2    3    3    0    0 -0.60977312423E-02 -0.11138781477E+00 -0.65021200928E-01  0.13063092410E+00  0.19805407245E-01 0.  0.
         14    1    1    2    0    0  0.19652676986E-01  0.93966002480E-02 -0.10325238873E-01  0.24106728661E-01  0.00000000000E+00 0.  1.
     999901    1    3    3    0    0 -0.13554945744E-01  0.10199121452E+00  0.75346439801E-01  0.88919234724E+00  0.88000000000E+00 0.  1.
        -11    1    4    4    0    0 -0.93391234663E-02 -0.29428905206E-01 -0.13023174399E-01  0.33513338855E-01  0.51100000000E-03 0.  1.
         11    1    4    4    0    0  0.32413922240E-02 -0.81958909564E-01 -0.51998026529E-01  0.97117585248E-01  0.51100000000E-03 0. -1.
</event>
<event>
 8    1  0.1114333E+005  0.1043930E+01  0.7957747E-01            NaN
         13   -1    0    0    0    0  0.00000000000E+00  0.00000000000E+00  0.74505805969E-08  0.10566000000E+00  0.10566000000E+00 0.  1.
     999900   -1    0    0    0    0 -0.00000000000E+00 -0.00000000000E+00 -0.74505805969E-08  0.93827000000E+00  0.93827000000E+00 0.  1.
     999902    2    1    2    0    0 -0.32278221099E-02 -0.18354114425E-01 -0.13683253201E-01  0.10208102299E+01  0.10205483828E+01 0.  0.
     999903    2    3    3    0    0 -0.81999276062E-01  0.69016145674E-01 -0.72667755587E-01  0.13102504467E+00  0.19996249423E-01 0.  0.
         14    1    1    2    0    0  0.32278221099E-02  0.18354114425E-01  0.13683253201E-01  0.23119770112E-01  0.00000000000E+00 0.  1.
     999901    1    3    3    0    0  0.78771453952E-01 -0.87370260098E-01  0.58984502386E-01  0.88978518522E+00  0.88000000000E+00 0. -1.
        -11    1    4    4    0    0 -0.17793898131E-01  0.17016603214E-01 -0.27299802299E-01  0.36765852665E-01  0.51100000000E-03 0.  1.
         11    1    4    4    0    0 -0.64205377931E-01  0.51999542460E-01 -0.45367953287E-01  0.94259192007E-01  0.51100000000E-03 0. -1.
</event>
<event>
 8    1  0.1114333E+005  0.1043930E+01  0.7957747E-01            NaN
         13   -1    0    0    0    0  0.00000000000E+00  0.00000000000E+00  0.74505805969E-08  0.10566000000E+00  0.10566000000E+00 0. -1.
     999900   -1    0    0    0    0 -0.00000000000E+00 -0.00000000000E+00 -0.74505805969E-08  0.93827000000E+00  0.93827000000E+00 0. -1.
     999902    2    1    2    0    0  0.14165103516E-01  0.70035904932E-03 -0.19201157706E-01  0.10200589900E+01  0.10197796419E+01 0.  0.
     999903    2    3    3    0    0 -0.73191970626E-01 -0.83163941335E-01 -0.66215758675E-01  0.13052267711E+00  0.19450882742E-01 0.  0.
         14    1    1    2    0    0 -0.14165103516E-01 -0.70035904932E-03  0.19201157706E-01  0.23871009984E-01  0.00000000000E+00 0. -1.
     999901    1    3    3    0    0  0.87357074141E-01  0.83864300384E-01  0.47014600969E-01  0.88953631291E+00  0.88000000000E+00 0.  1.
        -11    1    4    4    0    0 -0.28581063369E-01 -0.43809896088E-01 -0.23867990818E-01  0.57498924209E-01  0.51100000000E-03 0.  1.
         11    1    4    4    0    0 -0.44610907257E-01 -0.39354045247E-01 -0.42347767857E-01  0.73023752897E-01  0.51100000000E-03 0. -1.
</event>
<event>
 8    1  0.1114333E+005  0.1043930E+01  0.7957747E-01            NaN
         13   -1    0    0    0    0  0.00000000000E+00  0.00000000000E+00  0.74505805969E-08  0.10566000000E+00  0.10566000000E+00 0. -1.
     999900   -1    0    0    0    0 -0.00000000000E+00 -0.00000000000E+00 -0.74505805969E-08  0.93827000000E+00  0.93827000000E+00 0.  1.
     999902    2    1    2    0    0  0.17311056712E-01  0.98372186009E-02  0.13232969261E-01  0.10200227829E+01  0.10197425766E+01 0.  0.
     999903    2    3    3    0    0  0.54219033505E-01 -0.11659740768E+00  0.35368492771E-02  0.13016777885E+00  0.19911862723E-01 0.  0.
         14    1    1    2    0    0 -0.17311056712E-01 -0.98372186009E-02 -0.13232969261E-01  0.23907217106E-01  0.00000000000E+00 0.  1.
     999901    1    3    3    0    0 -0.36907976792E-01  0.12643462628E+00  0.96961199837E-02  0.88985500404E+00  0.88000000000E+00 0. -1.
        -11    1    4    4    0    0  0.42359066541E-01 -0.71041175254E-01  0.67031496101E-02  0.82983928778E-01  0.51100000000E-03 0.  1.
         11    1    4    4    0    0  0.11859966964E-01 -0.45556232425E-01 -0.31663003330E-02  0.47183850076E-01  0.51100000000E-03 0. -1.
</event>
<event>
 8    1  0.1114333E+005  0.1043930E+01  0.7957747E-01            NaN
         13   -1    0    0    0    0  0.00000000000E+00  0.00000000000E+00  0.74505805969E-08  0.10566000000E+00  0.10566000000E+00 0.  1.
     999900   -1    0    0    0    0 -0.00000000000E+00 -0.00000000000E+00 -0.74505805969E-08  0.93827000000E+00  0.93827000000E+00 0. -1.
     999902    2    1    2    0    0 -0.11013988503E-01 -0.80567532080E-02  0.18883663568E-01  0.10206316746E+01  0.10203657204E+01 0.  0.
     999903    2    3    3    0    0  0.21009038872E-01 -0.10905851356E+00 -0.64959079533E-01  0.13031912533E+00  0.20694282268E-01 0.  0.
         14    1    1    2    0    0  0.11013988503E-01  0.80567532080E-02 -0.18883663568E-01  0.23298325364E-01  0.00000000000E+00 0. -1.
     999901    1    3    3    0    0 -0.32023027375E-01  0.10100176036E+00  0.83842743101E-01  0.89031254930E+00  0.88000000000E+00 0.  1.
        -11    1    4    4    0    0  0.18960030378E-01 -0.71175484780E-01 -0.33011273941E-01  0.80718261340E-01  0.51100000000E-03 0.  1.
         11    1    4    4    0    0  0.20490084944E-02 -0.37883028784E-01 -0.31947805592E-01  0.49600863992E-01  0.51100000000E-03 0. -1.
</event>
<event>
 8    1  0.1114333E+005  0.1043930E+01  0.7957747E-01            NaN
         13   -1    0    0    0    0  0.00000000000E+00  0.00000000000E+00  0.74505805969E-08  0.10566000000E+00  0.10566000000E+00 0.  1.
     999900   -1    0    0    0    0 -0.00000000000E+00 -0.00000000000E+00 -0.74505805969E-08  0.93827000000E+00  0.93827000000E+00 0. -1.
     999902    2    1    2    0    0 -0.59977299675E-02 -0.21758979190E-01  0.71279476938E-02  0.10202607461E+01  0.10199861551E+01 0.  0.
     999903    2    3    3    0    0  0.95739072226E-01 -0.84765703631E-01 -0.22586412747E-01  0.13166456819E+00  0.21776547317E-01 0.  0.
         14    1    1    2    0    0  0.59977299675E-02  0.21758979190E-01 -0.71279476938E-02  0.23669253864E-01  0.00000000000E+00 0. -1.
     999901    1    3    3    0    0 -0.10173680219E+00  0.63006724441E-01  0.29714360441E-01  0.88859617795E+00  0.88000000000E+00 0. -1.
        -11    1    4    4    0    0  0.27818297765E-01 -0.17452457650E-01  0.20730548570E-02  0.32909035933E-01  0.51100000000E-03 0. -1.
         11    1    4    4    0    0  0.67920774460E-01 -0.67313245981E-01 -0.24659467604E-01  0.98755532257E-01  0.51100000000E-03 0.  1.
</event>
<event>
 8    1  0.1114333E+005  0.1043930E+01  0.7957747E-01            NaN
         13   -1    0    0    0    0  0.00000000000E+00  0.00000000000E+00  0.74505805969E-08  0.10566000000E+00  0.10566000000E+00 0. -1.
     999900   -1    0    0    0    0 -0.00000000000E+00 -0.00000000000E+00 -0.74505805969E-08  0.93827000000E+00  0.93827000000E+00 0. -1.
     999902    2    1    2    0    0  0.82208107042E-02  0.13116809625E-01  0.18575195444E-01  0.10197500432E+01  0.10194633296E+01 0.  0.
     999903    2    3    3    0    0  0.93830366138E-02 -0.12502591055E+00 -0.16295910645E-01  0.12829014176E+00  0.21755093265E-01 0.  0.
         14    1    1    2    0    0 -0.82208107042E-02 -0.13116809625E-01 -0.18575195444E-01  0.24179956765E-01  0.00000000000E+00 0. -1.
     999901    1    3    3    0    0 -0.11622259097E-02  0.13814272017E+00  0.34871106089E-01  0.89145990148E+00  0.88000000000E+00 0.  1.
        -11    1    4    4    0    0 -0.44024148156E-03 -0.11778463141E-01 -0.81211949472E-02  0.14322741878E-01  0.51100000000E-03 0. -1.
         11    1    4    4    0    0  0.98232780954E-02 -0.11324744741E+00 -0.81747156975E-02  0.11396739988E+00  0.51100000000E-03 0.  1.
</event>
<event>
 8    1  0.1114333E+005  0.1043930E+01  0.7957747E-01            NaN
         13   -1    0    0    0    0  0.00000000000E+00  0.00000000000E+00  0.74505805969E-08  0.10566000000E+00  0.10566000000E+00 0.  1.
     999900   -1    0    0    0    0 -0.00000000000E+00 -0.00000000000E+00 -0.74505805969E-08  0.93827000000E+00  0.93827000000E+00 0.  1.
     999902    2    1    2    0    0 -0.11486419178E-01 -0.18562718696E-01 -0.15015491194E-01  0.10174351453E+01  0.10170901128E+01 0.  0.
     999903    2    3    3    0    0 -0.33399726208E-01  0.85953416053E-01 -0.86552948756E-01  0.12809751351E+00  0.20347692416E-01 0.  0.
         14    1    1    2    0    0  0.11486419178E-01  0.18562718696E-01  0.15015491194E-01  0.26494854721E-01  0.00000000000E+00 0.  1.
     999901    1    3    3    0    0  0.21913307030E-01 -0.10451613475E+00  0.71537457562E-01  0.88933763177E+00  0.88000000000E+00 0. -1.
        -11    1    4    4    0    0 -0.53984207771E-03  0.20359328715E-01 -0.12755628430E-01  0.24036656856E-01  0.51100000000E-03 0. -1.
         11    1    4    4    0    0 -0.32859884130E-01  0.65594087338E-01 -0.73797320327E-01  0.10406085665E+00  0.51100000000E-03 0.  1.
</event>
<event>
 8    1  0.1114333E+005  0.1043930E+01  0.7957747E-01            NaN
         13   -1    0    0    0    0  0.00000000000E+00  0.00000000000E+00  0.74505805969E-08  0.10566000000E+00  0.10566000000E+00 0.  1.
     999900   -1    0    0    0    0 -0.00000000000E+00 -0.00000000000E+00 -0.74505805969E-08  0.93827000000E+00  0.93827000000E+00 0.  1.
     999902    2    1    2    0    0 -0.58739536586E-02 -0.17899340255E-01 -0.43374924203E-02  0.10245985864E+01  0.10244162043E+01 0.  0.
     999903    2    3    3    0    0 -0.11928689524E+00  0.31475018733E-01  0.49336475314E-01  0.13432828051E+00  0.19747378805E-01 0.  0.
         14    1    1    2    0    0  0.58739536586E-02  0.17899340255E-01  0.43374924203E-02  0.19331413649E-01  0.00000000000E+00 0.  1.
     999901    1    3    3    0    0  0.11341294158E+00 -0.49374358989E-01 -0.53673967734E-01  0.89027030584E+00  0.88000000000E+00 0.  1.
        -11    1    4    4    0    0 -0.20377346619E-01  0.42609762687E-02  0.16644260735E-01  0.26658670455E-01  0.51100000000E-03 0. -1.
         11    1    4    4    0    0 -0.98909548618E-01  0.27214042464E-01  0.32692214579E-01  0.10766961006E+00  0.51100000000E-03 0.  1.
</event>
<event>
 8    1  0.1114333E+005  0.1043930E+01  0.7957747E-01            NaN
         13   -1    0    0    0    0  0.00000000000E+00  0.00000000000E+00  0.74505805969E-08  0.10566000000E+00  0.10566000000E+00 0. -1.
     999900   -1    0    0    0    0 -0.00000000000E+00 -0.00000000000E+00 -0.74505805969E-08  0.93827000000E+00  0.93827000000E+00 0. -1.
     999902    2    1    2    0    0  0.29924412102E-02  0.68281529442E-02 -0.22833532211E-01  0.10199102462E+01  0.10196273642E+01 0.  0.
     999903    2    3    3    0    0  0.95232226871E-01 -0.33799402079E-01  0.77055211109E-01  0.12854245609E+00  0.19341169658E-01 0.  0.
         14    1    1    2    0    0 -0.29924412102E-02 -0.68281529442E-02  0.22833532211E-01  0.24019753751E-01  0.00000000000E+00 0. -1.
     999901    1    3    3    0    0 -0.92239785661E-01  0.40627555023E-01 -0.99888743319E-01  0.89136779016E+00  0.88000000000E+00 0. -1.
        -11    1    4    4    0    0  0.17194711780E-01 -0.74369349064E-02  0.24448964297E-01  0.30805504219E-01  0.51100000000E-03 0.  1.
         11    1    4    4    0    0  0.78037515091E-01 -0.26362467173E-01  0.52606246812E-01  0.97736951875E-01  0.51100000000E-03 0. -1.
</event>
<event>
 8    1  0.1114333E+005  0.1043930E+01  0.7957747E-01            NaN
         13   -1    0    0    0    0  0.00000000000E+00  0.00000000000E+00  0.74505805969E-08  0.10566000000E+00  0.10566000000E+00 0.  1.
     999900   -1    0    0    0    0 -0.00000000000E+00 -0.00000000000E+00 -0.74505805969E-08  0.93827000000E+00  0.93827000000E+00 0. -1.
     999902    2    1    2    0    0  0.20624495034E-01 -0.89747431435E-02 -0.26166882426E-02  0.10212857321E+01  0.10210346634E+01 0.  0.
     999903    2    3    3    0    0 -0.69772166915E-01 -0.28428040326E-01  0.10409666257E+00  0.13002946904E+00  0.19880616380E-01 0.  0.
         14    1    1    2    0    0 -0.20624495034E-01  0.89747431435E-02  0.26166882426E-02  0.22644267868E-01  0.00000000000E+00 0.  1.
     999901    1    3    3    0    0  0.90396661949E-01  0.19453297183E-01 -0.10671335081E+00  0.89125626309E+00  0.88000000000E+00 0. -1.
        -11    1    4    4    0    0 -0.35922662094E-01 -0.69619708429E-02  0.38212469052E-01  0.52908984133E-01  0.51100000000E-03 0. -1.
         11    1    4    4    0    0 -0.33849504821E-01 -0.21466069483E-01  0.65884193517E-01  0.77120484905E-01  0.51100000000E-03 0.  1.
</event>
<event>
 8    1  0.1114333E+005  0.1043930E+01  0.7957747E-01            NaN
         13   -1    0    0    0    0  0.00000000000E+00  0.00000000000E+00  0.74505805969E-08  0.10566000000E+00  0.10566000000E+00 0.  1.
     999900   -1    0    0    0    0 -0.00000000000E+00 -0.00000000000E+00 -0.74505805969E-08  0.93827000000E+00  0.93827000000E+00 0. -1.
     999902    2    1    2    0    0 -0.17341967002E-01 -0.11299296112E-01 -0.11551059325E-01  0.10202267326E+01  0.10199513425E+01 0.  0.
     999903    2    3    3    0    0 -0.89750904503E-01  0.62084682251E-01 -0.72071957716E-01  0.13214394277E+00  0.18918823794E-01 0.  0.
         14    1    1    2    0    0  0.17341967002E-01  0.11299296112E-01  0.11551059325E-01  0.23703267362E-01  0.00000000000E+00 0.  1.
     999901    1    3    3    0    0  0.72408937501E-01 -0.73383978362E-01  0.60520898390E-01  0.88808278986E+00  0.88000000000E+00 0.  1.
        -11    1    4    4    0    0 -0.63000683508E-01  0.33319143874E-01 -0.42586118295E-01  0.83024635280E-01  0.51100000000E-03 0. -1.
         11    1    4    4    0    0 -0.26750220994E-01  0.28765538376E-01 -0.29485839421E-01  0.49119307494E-01  0.51100000000E-03 0.  1.
</event>
<event>
 8    1  0.1114333E+005  0.1043930E+01  0.7957747E-01            NaN
         13   -1    0    0    0    0  0.00000000000E+00  0.00000000000E+00  0.74505805969E-08  0.10566000000E+00  0.10566000000E+00 0. -1.
     999900   -1    0    0    0    0 -0.00000000000E+00 -0.00000000000E+00 -0.74505805969E-08  0.93827000000E+00  0.93827000000E+00 0.  1.
     999902    2    1    2    0    0 -0.23500473526E-01  0.30871141269E-02 -0.42026445452E-03  0.10202239005E+01  0.10199484438E+01 0.  0.
     999903    2    3    3    0    0  0.61507686402E-01  0.39689637880E-01 -0.10444584691E+00  0.12927639714E+00  0.21094764287E-01 0.  0.
         14    1    1    2    0    0  0.23500473526E-01 -0.30871141269E-02  0.42026445452E-03  0.23706099463E-01  0.00000000000E+00 0.  1.
     999901    1    3    3    0    0 -0.85008159927E-01 -0.36602523753E-01  0.10402558245E+00  0.89094750339E+00  0.88000000000E+00 0. -1.
        -11    1    4    4    0    0  0.43207162454E-01  0.17613725701E-01 -0.55120336384E-01  0.72219213680E-01  0.51100000000E-03 0. -1.
         11    1    4    4    0    0  0.18300523947E-01  0.22075912179E-01 -0.49325510524E-01  0.57057183463E-01  0.51100000000E-03 0.  1.
</event>
<event>
 8    1  0.1114333E+005  0.1043930E+01  0.7957747E-01            NaN
         13   -1    0    0    0    0  0.00000000000E+00  0.00000000000E+00  0.74505805969E-08  0.10566000000E+00  0.10566000000E+00 0.  1.
     999900   -1    0    0    0    0 -0.00000000000E+00 -0.00000000000E+00 -0.74505805969E-08  0.93827000000E+00  0.93827000000E+00 0. -1.
     999902    2    1    2    0    0  0.64987992766E-02 -0.21004025921E-01 -0.11972685581E-01  0.10188950505E+01  0.10185874411E+01 0.  0.
     999903    2    3    3    0    0 -0.40042130454E-01  0.76697155437E-01  0.89988581281E-01  0.12642226159E+00  0.19970418180E-01 0.  0.
         14    1    1    2    0    0 -0.64987992766E-02  0.21004025921E-01  0.11972685581E-01  0.25034949510E-01  0.00000000000E+00 0.  1.
     999901    1    3    3    0    0  0.46540929731E-01 -0.97701181358E-01 -0.10196126686E+00  0.89247278890E+00  0.88000000000E+00 0. -1.
        -11    1    4    4    0    0 -0.17559745249E-01  0.53172389970E-01  0.61435420749E-01  0.83127731546E-01  0.51100000000E-03 0. -1.
         11    1    4    4    0    0 -0.22482385205E-01  0.23524765466E-01  0.28553160532E-01  0.43294530049E-01  0.51100000000E-03 0.  1.
</event>
<event>
 8    1  0.1114333E+005  0.1043930E+01  0.7957747E-01            NaN
         13   -1    0    0    0    0  0.00000000000E+00  0.00000000000E+00  0.74505805969E-08  0.10566000000E+00  0.10566000000E+00 0.  1.
     999900   -1    0    0    0    0 -0.00000000000E+00 -0.00000000000E+00 -0.74505805969E-08  0.93827000000E+00  0.93827000000E+00 0.  1.
     999902    2    1    2    0    0 -0.22031098283E-01  0.22769489701E-03 -0.11055179653E-01  0.10192796829E+01  0.10189815670E+01 0.  0.
     999903    2    3    3    0    0  0.31347134855E-01  0.73113970427E-01 -0.10100368003E+00  0.13009332579E+00  0.19855339339E-01 0.  0.
         14    1    1    2    0    0  0.22031098283E-01 -0.22769489701E-03  0.11055179653E-01  0.24650317111E-01  0.00000000000E+00 0.  1.
     999901    1    3    3    0    0 -0.53378233138E-01 -0.72886275530E-01  0.89948500376E-01  0.88918635710E+00  0.88000000000E+00 0. -1.
        -11    1    4    4    0    0  0.23654479104E-01  0.32079792264E-01 -0.43107163768E-01  0.58712316787E-01  0.51100000000E-03 0.  1.
         11    1    4    4    0    0  0.76926557513E-02  0.41034178162E-01 -0.57896516260E-01  0.71381009001E-01  0.51100000000E-03 0. -1.
</event>
<event>
 8    1  0.1114333E+005  0.1043930E+01  0.7957747E-01            NaN
         13   -1    0    0    0    0  0.00000000000E+00  0.00000000000E+00  0.74505805969E-08  0.10566000000E+00  0.10566000000E+00 0.  1.
     999900   -1    0    0    0    0 -0.00000000000E+00 -0.00000000000E+00 -0.74505805969E-08  0.93827000000E+00  0.93827000000E+00 0. -1.
     999902    2    1    2    0    0 -0.10016377815E-01  0.11173364093E-01  0.18150344730E-01  0.10203799065E+01  0.10201081054E+01 0.  0.
     999903    2    3    3    0    0  0.34471127120E-01  0.99940497506E-02  0.12617351785E+00  0.13265836525E+00  0.19757166542E-01 0.  0.
         14    1    1    2    0    0  0.10016377815E-01 -0.11173364093E-01 -0.18150344730E-01  0.23550093493E-01  0.00000000000E+00 0. -1.
     999901    1    3    3    0    0 -0.44487504935E-01  0.11793143422E-02 -0.10802317312E+00  0.88772154125E+00  0.88000000000E+00 0. -1.
        -11    1    4    4    0    0  0.27394278069E-01  0.35465323718E-02  0.63416095086E-01  0.69172874739E-01  0.51100000000E-03 0. -1.
         11    1    4    4    0    0  0.70768490511E-02  0.64475173788E-02  0.62757422763E-01  0.63485490513E-01  0.51100000000E-03 0.  1.
</event>
<event>
 8    1  0.1114333E+005  0.1043930E+01  0.7957747E-01            NaN
         13   -1    0    0    0    0  0.00000000000E+00  0.00000000000E+00  0.74505805969E-08  0.10566000000E+00  0.10566000000E+00 0.  1.
     999900   -1    0    0    0    0 -0.00000000000E+00 -0.00000000000E+00 -0.74505805969E-08  0.93827000000E+00  0.93827000000E+00 0. -1.
     999902    2    1    2    0    0 -0.92468875107E-02  0.20624967482E-01  0.74456188956E-02  0.10201322805E+01  0.10198546653E+01 0.  0.
     999903    2    3    3    0    0  0.61320095940E-01 -0.20278601857E-01  0.11133082138E+00  0.13027558618E+00  0.20144495683E-01 0.  0.
         14    1    1    2    0    0  0.92468875107E-02 -0.20624967482E-01 -0.74456188956E-02  0.23797719492E-01  0.00000000000E+00 0. -1.
     999901    1    3    3    0    0 -0.70566983450E-01  0.40903569339E-01 -0.10388520249E+00  0.88985669432E+00  0.88000000000E+00 0. -1.
        -11    1    4    4    0    0  0.62231692206E-02 -0.56654937933E-02  0.54930551560E-02  0.10062824207E-01  0.51100000000E-03 0. -1.
         11    1    4    4    0    0  0.55096926719E-01 -0.14613108064E-01  0.10583776623E+00  0.12021276198E+00  0.51100000000E-03 0.  1.
</event>
<event>
 8    1  0.1114333E+005  0.1043930E+01  0.7957747E-01            NaN
         13   -1    0    0    0    0  0.00000000000E+00  0.00000000000E+00  0.74505805969E-08  0.10566000000E+00  0.10566000000E+00 0.  1.
     999900   -1    0    0    0    0 -0.00000000000E+00 -0.00000000000E+00 -0.74505805969E-08  0.93827000000E+00  0.93827000000E+00 0.  1.
     999902    2    1    2    0    0  0.93687711878E-02  0.32216820429E-03 -0.21929885077E-01  0.10200805236E+01  0.10198016852E+01 0.  0.
     999903    2    3    3    0    0  0.36632436561E-01  0.11556498005E+00  0.42330497932E-01  0.12982572300E+00  0.19121905624E-01 0.  0.
         14    1    1    2    0    0 -0.93687711878E-02 -0.32216820429E-03  0.21929885077E-01  0.23849476418E-01  0.00000000000E+00 0. -1.
     999901    1    3    3    0    0 -0.27263665374E-01 -0.11524281185E+00 -0.64260383009E-01  0.89025480058E+00  0.88000000000E+00 0.  1.
        -11    1    4    4    0    0  0.57752786980E-02  0.73549182891E-02  0.76058176459E-02  0.12064752386E-01  0.51100000000E-03 0.  1.
         11    1    4    4    0    0  0.30857157863E-01  0.10821006176E+00  0.34724680286E-01  0.11776097062E+00  0.51100000000E-03 0. -1.
</event>
<event>
 8    1  0.1114333E+005  0.1043930E+01  0.7957747E-01            NaN
         13   -1    0    0    0    0  0.00000000000E+00  0.00000000000E+00  0.74505805969E-08  0.10566000000E+00  0.10566000000E+00 0. -1.
     999900   -1    0    0    0    0 -0.00000000000E+00 -0.00000000000E+00 -0.74505805969E-08  0.93827000000E+00  0.93827000000E+00 0.  1.
     999902    2    1    2    0    0 -0.19112415145E-02  0.24881262220E-01  0.40734778638E-02  0.10186451572E+01  0.10183312983E+01 0.  0.
     999903    2    3    3    0    0 -0.87315891696E-01  0.53767971576E-01 -0.78064071900E-01  0.13023366845E+00  0.18754982447E-01 0.  0.
         14    1    1    2    0    0  0.19112415145E-02 -0.24881262220E-01 -0.40734778638E-02  0.25284842805E-01  0.00000000000E+00 0.  1.
     999901    1    3    3    0    0  0.85404650181E-01 -0.28886709356E-01  0.82137549764E-01  0.88841148874E+00  0.88000000000E+00 0. -1.
        -11    1    4    4    0    0 -0.13663400727E-01  0.47385318728E-02 -0.18862986053E-01  0.23774262714E-01  0.51100000000E-03 0. -1.
         11    1    4    4    0    0 -0.73652490968E-01  0.49029439703E-01 -0.59201085847E-01  0.10645940574E+00  0.51100000000E-03 0.  1.
</event>
<event>
 8    1  0.1114333E+005  0.1043930E+01  0.7957747E-01            NaN
         13   -1    0    0    0    0  0.00000000000E+00  0.00000000000E+00  0.74505805969E-08  0.10566000000E+00  0.10566000000E+00 0. -1.
     999900   -1    0    0    0    0 -0.00000000000E+00 -0.00000000000E+00 -0.74505805969E-08  0.93827000000E+00  0.93827000000E+00 0.  1.
     999902    2    1    2    0    0 -0.27422183430E-02 -0.15770558080E-01 -0.18812523495E-01  0.10192289615E+01  0.10189296024E+01 0.  0.
     999903    2    3    3    0    0 -0.81389356795E-01  0.58389496449E-02 -0.10021209887E+00  0.13171657617E+00  0.25465092691E-01 0.  0.
         14    1    1    2    0    0  0.27422183430E-02  0.15770558080E-01  0.18812523495E-01  0.24701038518E-01  0.00000000000E+00 0. -1.
     999901    1    3    3    0    0  0.78647138452E-01 -0.21609507725E-01  0.81399575375E-01  0.88751238531E+00  0.88000000000E+00 0. -1.
        -11    1    4    4    0    0 -0.38320352914E-01  0.17934265856E-02 -0.66881972488E-01  0.77104637936E-01  0.51100000000E-03 0. -1.
         11    1    4    4    0    0 -0.43069003881E-01  0.40455230594E-02 -0.33330126382E-01  0.54611938234E-01  0.51100000000E-03 0.  1.
</event>
<event>
 8    1  0.1114333E+005  0.1043930E+01  0.7957747E-01            NaN
         13   -1    0    0    0    0  0.00000000000E+00  0.00000000000E+00  0.74505805969E-08  0.10566000000E+00  0.10566000000E+00 0.  1.
     999900   -1    0    0    0    0 -0.00000000000E+00 -0.00000000000E+00 -0.74505805969E-08  0.93827000000E+00  0.93827000000E+00 0. -1.
     999902    2    1    2    0    0 -0.30833831223E-02 -0.10423832528E-01  0.19033439033E-01  0.10220111648E+01  0.10217760937E+01 0.  0.
     999903    2    3    3    0    0 -0.88134666553E-01 -0.75417847066E-01  0.64662471578E-01  0.13435134742E+00  0.20334163839E-01 0.  0.
         14    1    1    2    0    0  0.30833831223E-02  0.10423832528E-01 -0.19033439033E-01  0.21918835222E-01  0.00000000000E+00 0. -1.
     999901    1    3    3    0    0  0.85051283430E-01  0.64994014537E-01 -0.45629032545E-01  0.88765981736E+00  0.88000000000E+00 0. -1.
        -11    1    4    4    0    0 -0.40362975265E-01 -0.41622511355E-01  0.42008242589E-01  0.71599977585E-01  0.51100000000E-03 0.  1.
         11    1    4    4    0    0 -0.47771691288E-01 -0.33795335710E-01  0.22654228989E-01  0.62751369837E-01  0.51100000000E-03 0. -1.
</event>
<event>
 8    1  0.1114333E+005  0.1043930E+01  0.7957747E-01            NaN
         13   -1    0    0    0    0  0.00000000000E+00  0.00000000000E+00  0.74505805969E-08  0.10566000000E+00  0.10566000000E+00 0. -1.
     999900   -1    0    0    0    0 -0.00000000000E+00 -0.00000000000E+00 -0.74505805969E-08  0.93827000000E+00  0.93827000000E+00 0.  1.
     999902    2    1    2    0    0 -0.34865039771E-03 -0.22882937439E-01  0.26485595866E-02  0.10208916569E+01  0.10206316720E+01 0.  0.
     999903    2    3    3    0    0 -0.11928590204E+00  0.45886802070E-01  0.14279270182E-01  0.13015565771E+00  0.20046761519E-01 0.  0.
         14    1    1    2    0    0  0.34865039771E-03  0.22882937439E-01 -0.26485595866E-02  0.23038343057E-01  0.00000000000E+00 0.  1.
     999901    1    3    3    0    0  0.11893725164E+00 -0.68769739510E-01 -0.11630710595E-01  0.89073599923E+00  0.88000000000E+00 0.  1.
        -11    1    4    4    0    0 -0.41515162620E-01  0.21975269871E-01  0.13155231718E-01  0.48782604029E-01  0.51100000000E-03 0. -1.
         11    1    4    4    0    0 -0.77770739419E-01  0.23911532199E-01  0.11240384639E-02  0.81373053681E-01  0.51100000000E-03 0.  1.
</event>
<event>
 8    1  0.1114333E+005  0.1043930E+01  0.7957747E-01            NaN
         13   -1    0    0    0    0  0.00000000000E+00  0.00000000000E+00  0.74505805969E-08  0.10566000000E+00  0.10566000000E+00 0.  1.
     999900   -1    0    0    0    0 -0.00000000000E+00 -0.00000000000E+00 -0.74505805969E-08  0.93827000000E+00  0.93827000000E+00 0. -1.
     999902    2    1    2    0    0  0.17373855144E-01 -0.79869485913E-02 -0.13343263964E-01  0.10206129487E+01  0.10203465617E+01 0.  0.
     999903    2    3    3    0    0  0.96614068998E-01  0.48915516808E-01 -0.75507276140E-01  0.13304251963E+00  0.16491123882E-01 0.  0.
         14    1    1    2    0    0 -0.17373855144E-01  0.79869485913E-02  0.13343263964E-01  0.23317051349E-01  0.00000000000E+00 0.  1.
     999901    1    3    3    0    0 -0.79240213854E-01 -0.56902465400E-01  0.62164012176E-01  0.88757042902E+00  0.88000000000E+00 0. -1.
        -11    1    4    4    0    0  0.55679061717E-01  0.21875727279E-01 -0.34221889051E-01  0.68920999477E-01  0.51100000000E-03 0.  1.
         11    1    4    4    0    0  0.40935007281E-01  0.27039789529E-01 -0.41285387089E-01  0.64121520155E-01  0.51100000000E-03 0. -1.
</event>
<event>
 8    1  0.1114333E+005  0.1043930E+01  0.7957747E-01            NaN
         13   -1    0    0    0    0  0.00000000000E+00  0.00000000000E+00  0.74505805969E-08  0.10566000000E+00  0.10566000000E+00 0. -1.
     999900   -1    0    0    0    0 -0.00000000000E+00 -0.00000000000E+00 -0.74505805969E-08  0.93827000000E+00  0.93827000000E+00 0. -1.
     999902    2    1    2    0    0  0.19554717614E-01  0.90903721101E-02 -0.10796587624E-01  0.10198138612E+01  0.10195286771E+01 0.  0.
     999903    2    3    3    0    0  0.44209768932E-02  0.10225659567E+00  0.78248727325E-01  0.13029823828E+00  0.19463072076E-01 0.  0.
         14    1    1    2    0    0 -0.19554717614E-01 -0.90903721101E-02  0.10796587624E-01  0.24116138795E-01  0.00000000000E+00 0. -1.
     999901    1    3    3    0    0  0.15133740720E-01 -0.93166223562E-01 -0.89045314948E-01  0.88951562293E+00  0.88000000000E+00 0.  1.
        -11    1    4    4    0    0 -0.14606190845E-02  0.72403860140E-01  0.64204311975E-01  0.96782783430E-01  0.51100000000E-03 0.  1.
         11    1    4    4    0    0  0.58815959776E-02  0.29852735532E-01  0.14044415350E-01  0.33515454846E-01  0.51100000000E-03 0. -1.
</event>
<event>
 8    1  0.1114333E+005  0.1043930E+01  0.7957747E-01            NaN
         13   -1    0    0    0    0  0.00000000000E+00  0.00000000000E+00  0.74505805969E-08  0.10566000000E+00  0.10566000000E+00 0. -1.
     999900   -1    0    0    0    0 -0.00000000000E+00 -0.00000000000E+00 -0.74505805969E-08  0.93827000000E+00  0.93827000000E+00 0.  1.
     999902    2    1    2    0    0 -0.12172211305E-01 -0.11062493541E-01  0.19487030072E-01  0.10184292974E+01  0.10181099882E+01 0.  0.
     999903    2    3    3    0    0 -0.20722777121E-01  0.12347348991E+00 -0.14230115933E-01  0.12752532450E+00  0.19623353126E-01 0.  0.
         14    1    1    2    0    0  0.12172211305E-01  0.11062493541E-01 -0.19487030072E-01  0.25500702586E-01  0.00000000000E+00 0.  1.
     999901    1    3    3    0    0  0.85505658164E-02 -0.13453598345E+00  0.33717146005E-01  0.89090397291E+00  0.88000000000E+00 0. -1.
        -11    1    4    4    0    0 -0.24454961625E-01  0.99861215443E-01 -0.11976754986E-01  0.10350850824E+00  0.51100000000E-03 0. -1.
         11    1    4    4    0    0  0.37321845035E-02  0.23612274464E-01 -0.22533609471E-02  0.24016816256E-01  0.51100000000E-03 0.  1.
</event>
<event>
 8    1  0.1114333E+005  0.1043930E+01  0.7957747E-01            NaN
         13   -1    0    0    0    0  0.00000000000E+00  0.00000000000E+00  0.74505805969E-08  0.10566000000E+00  0.10566000000E+00 0.  1.
     999900   -1    0    0    0    0 -0.00000000000E+00 -0.00000000000E+00 -0.74505805969E-08  0.93827000000E+00  0.93827000000E+00 0. -1.
     999902    2    1    2    0    0  0.20481548618E-01 -0.50023042636E-02  0.10900144911E-01  0.10201954252E+01  0.10199192986E+01 0.  0.
     999903    2    3    3    0    0  0.34787231741E-01  0.16137231369E-01 -0.12244585145E+00  0.12978389828E+00  0.19501589317E-01 0.  0.
         14    1    1    2    0    0 -0.20481548618E-01  0.50023042636E-02 -0.10900144911E-01  0.23734574798E-01  0.00000000000E+00 0. -1.
     999901    1    3    3    0    0 -0.14305683123E-01 -0.21139535633E-01  0.13334599636E+00  0.89041152693E+00  0.88000000000E+00 0.  1.
        -11    1    4    4    0    0  0.88403680564E-02  0.14178601789E-01 -0.40852298706E-01  0.44140189019E-01  0.51100000000E-03 0. -1.
         11    1    4    4    0    0  0.25946863684E-01  0.19586295804E-02 -0.81593552744E-01  0.85643709257E-01  0.51100000000E-03 0.  1.
</event>
<event>
 8    1  0.1114333E+005  0.1043930E+01  0.7957747E-01            NaN
         13   -1    0    0    0    0  0.00000000000E+00  0.00000000000E+00  0.74505805969E-08  0.10566000000E+00  0.10566000000E+00 0. -1.
     999900   -1    0    0    0    0 -0.00000000000E+00 -0.00000000000E+00 -0.74505805969E-08  0.93827000000E+00  0.93827000000E+00 0. -1.
     999902    2    1    2    0    0  0.25590581534E-02 -0.22837908823E-01 -0.65244604535E-02  0.10200409347E+01  0.10197611588E+01 0.  0.
     999903    2    3    3    0    0 -0.99466921299E-02 -0.36279407478E-01  0.12308911916E+00  0.13035742482E+00  0.20663853929E-01 0.  0.
         14    1    1    2    0    0 -0.25590581534E-02  0.22837908823E-01  0.65244604535E-02  0.23889065328E-01  0.00000000000E+00 0. -1.
     999901    1    3    3    0    0  0.12505750283E-01  0.13441498655E-01 -0.12961357962E+00  0.88968350985E+00  0.88000000000E+00 0. -1.
        -11    1    4    4    0    0  0.19319597040E-02 -0.24940171227E-01  0.56870556409E-01  0.62131038269E-01  0.51100000000E-03 0. -1.
         11    1    4    4    0    0 -0.11878651834E-01 -0.11339236251E-01  0.66218562753E-01  0.68226386554E-01  0.51100000000E-03 0.  1.
</event>
<event>
 8    1  0.1114333E+005  0.1043930E+01  0.7957747E-01            NaN
         13   -1    0    0    0    0  0.00000000000E+00  0.00000000000E+00  0.74505805969E-08  0.10566000000E+00  0.10566000000E+00 0.  1.
     999900   -1    0    0    0    0 -0.00000000000E+00 -0.00000000000E+00 -0.74505805969E-08  0.93827000000E+00  0.93827000000E+00 0.  1.
     999902    2    1    2    0    0  0.34904150028E-02  0.45529474116E-02 -0.22720986591E-01  0.10204959317E+01  0.10202268331E+01 0.  0.
     999903    2    3    3    0    0  0.14660590686E-01  0.23109085354E-01 -0.12936832584E+00  0.13379262275E+00  0.20379877952E-01 0.  0.
         14    1    1    2    0    0 -0.34904150028E-02 -0.45529474116E-02  0.22720986591E-01  0.23434068335E-01  0.00000000000E+00 0.  1.
     999901    1    3    3    0    0 -0.11170175684E-01 -0.18556137943E-01  0.10664733925E+00  0.88670330892E+00  0.88000000000E+00 0. -1.
        -11    1    4    4    0    0  0.17558215679E-02  0.20587515662E-01 -0.70241600324E-01  0.73219343397E-01  0.51100000000E-03 0. -1.
         11    1    4    4    0    0  0.12904769119E-01  0.25215696922E-02 -0.59126725517E-01  0.60573279349E-01  0.51100000000E-03 0.  1.
</event>
<event>
 8    1  0.1114333E+005  0.1043930E+01  0.7957747E-01            NaN
         13   -1    0    0    0    0  0.00000000000E+00  0.00000000000E+00  0.74505805969E-08  0.10566000000E+00  0.10566000000E+00 0.  1.
     999900   -1    0    0    0    0 -0.00000000000E+00 -0.00000000000E+00 -0.74505805969E-08  0.93827000000E+00  0.93827000000E+00 0.  1.
     999902    2    1    2    0    0  0.60472389009E-02  0.18893098502E-01  0.14152123790E-01  0.10195619702E+01  0.10192707247E+01 0.  0.
     999903    2    3    3    0    0 -0.68732420176E-01 -0.66875916159E-01 -0.81085845551E-01  0.12713909279E+00  0.19821726013E-01 0.  0.
         14    1    1    2    0    0 -0.60472389009E-02 -0.18893098502E-01 -0.14152123790E-01  0.24368029816E-01  0.00000000000E+00 0. -1.
     999901    1    3    3    0    0  0.74779659077E-01  0.85769014661E-01  0.95237969341E-01  0.89242287739E+00  0.88000000000E+00 0. -1.
        -11    1    4    4    0    0 -0.46032078924E-01 -0.31110832651E-01 -0.45974371236E-01  0.72116157204E-01  0.51100000000E-03 0. -1.
         11    1    4    4    0    0 -0.22700341252E-01 -0.35765083507E-01 -0.35111474315E-01  0.55022935589E-01  0.51100000000E-03 0.  1.
</event>
<event>
 8    1  0.1114333E+005  0.1043930E+01  0.7957747E-01            NaN
         13   -1    0    0    0    0  0.00000000000E+00  0.00000000000E+00  0.74505805969E-08  0.10566000000E+00  0.10566000000E+00 0.  1.
     999900   -1    0    0    0    0 -0.00000000000E+00 -0.00000000000E+00 -0.74505805969E-08  0.93827000000E+00  0.93827000000E+00 0.  1.
     999902    2    1    2    0    0  0.15011406943E-01 -0.80552887970E-02  0.16580519062E-01  0.10201572503E+01  0.10198802242E+01 0.  0.
     999903    2    3    3    0    0  0.83163569576E-01  0.64212834710E-01 -0.73875885840E-01  0.12996077753E+00  0.19816400802E-01 0.  0.
         14    1    1    2    0    0 -0.15011406943E-01  0.80552887970E-02 -0.16580519062E-01  0.23772749702E-01  0.00000000000E+00 0. -1.
     999901    1    3    3    0    0 -0.68152162633E-01 -0.72268123507E-01  0.90456404902E-01  0.89019647277E+00  0.88000000000E+00 0. -1.
        -11    1    4    4    0    0  0.65569704341E-01  0.48948942698E-01 -0.46891613241E-01  0.94310495874E-01  0.51100000000E-03 0. -1.
         11    1    4    4    0    0  0.17593865234E-01  0.15263892012E-01 -0.26984272599E-01  0.35650281653E-01  0.51100000000E-03 0.  1.
</event>
<event>
 8    1  0.1114333E+005  0.1043930E+01  0.7957747E-01            NaN
         13   -1    0    0    0    0  0.00000000000E+00  0.00000000000E+00  0.74505805969E-08  0.10566000000E+00  0.10566000000E+00 0. -1.
     999900   -1    0    0    0    0 -0.00000000000E+00 -0.00000000000E+00 -0.74505805969E-08  0.93827000000E+00  0.93827000000E+00 0.  1.
     999902    2    1    2    0    0  0.20952031116E-01  0.29173855773E-02 -0.12214045400E-01  0.10195029320E+01  0.10192102564E+01 0.  0.
     999903    2    3    3    0    0  0.93181730438E-01  0.25660223733E-01  0.85816838611E-01  0.13082727666E+00  0.20247581595E-01 0.  0.
         14    1    1    2    0    0 -0.20952031116E-01 -0.29173855773E-02  0.12214045400E-01  0.24427068009E-01  0.00000000000E+00 0. -1.
     999901    1    3    3    0    0 -0.72229699323E-01 -0.22742838156E-01 -0.98030884011E-01  0.88867565533E+00  0.88000000000E+00 0.  1.
        -11    1    4    4    0    0  0.38589683445E-01  0.62605910750E-02  0.22958216492E-01  0.45339822391E-01  0.51100000000E-03 0.  1.
         11    1    4    4    0    0  0.54592046994E-01  0.19399632658E-01  0.62858622119E-01  0.85487454272E-01  0.51100000000E-03 0. -1.
</event>
<event>
 8    1  0.1114333E+005  0.1043930E+01  0.7957747E-01            NaN
         13   -1    0    0    0    0  0.00000000000E+00  0.00000000000E+00  0.74505805969E-08  0.10566000000E+00  0.10566000000E+00 0.  1.
     999900   -1    0    0    0    0 -0.00000000000E+00 -0.00000000000E+00 -0.74505805969E-08  0.93827000000E+00  0.93827000000E+00 0. -1.
     999902    2    1    2    0    0  0.16030675722E-01  0.38000522276E-02  0.16949149383E-01  0.10202932357E+01  0.10200194068E+01 0.  0.
     999903    2    3    3    0    0  0.12919383009E+00  0.20352409003E-01 -0.77005921245E-02  0.13255031697E+00  0.20125136655E-01 0.  0.
         14    1    1    2    0    0 -0.16030675722E-01 -0.38000522276E-02 -0.16949149383E-01  0.23636764284E-01  0.00000000000E+00 0. -1.
     999901    1    3    3    0    0 -0.11316315437E+00 -0.16552356775E-01  0.24649741507E-01  0.88774291874E+00  0.88000000000E+00 0. -1.
        -11    1    4    4    0    0  0.56507493295E-01  0.43834981651E-02 -0.12255812436E-01  0.57989463820E-01  0.51100000000E-03 0.  1.
         11    1    4    4    0    0  0.72686336794E-01  0.15968910838E-01  0.45552203117E-02  0.74560853154E-01  0.51100000000E-03 0. -1.
</event>
<event>
 8    1  0.1114333E+005  0.1043930E+01  0.7957747E-01            NaN
         13   -1    0    0    0    0  0.00000000000E+00  0.00000000000E+00  0.74505805969E-08  0.10566000000E+00  0.10566000000E+00 0. -1.
     999900   -1    0    0    0    0 -0.00000000000E+00 -0.00000000000E+00 -0.74505805969E-08  0.93827000000E+00  0.93827000000E+00 0. -1.
     999902    2    1    2    0    0  0.10149617069E-01 -0.16213561182E-01 -0.13418799379E-01  0.10205642458E+01  0.10202967320E+01 0.  0.
     999903    2    3    3    0    0 -0.48943706480E-01  0.10932537002E+00 -0.42834087696E-01  0.12920724474E+00  0.22632500780E-01 0.  0.
         14    1    1    2    0    0 -0.10149617069E-01  0.16213561182E-01  0.13418799379E-01  0.23365754206E-01  0.00000000000E+00 0. -1.
     999901    1    3    3    0    0  0.59093323549E-01 -0.12553893120E+00  0.29415288317E-01  0.89135700105E+00  0.88000000000E+00 0. -1.
        -11    1    4    4    0    0 -0.28758662380E-01  0.37963701088E-01 -0.14106872024E-01  0.49674623516E-01  0.51100000000E-03 0.  1.
         11    1    4    4    0    0 -0.20185044100E-01  0.71361668932E-01 -0.28727215672E-01  0.79532621227E-01  0.51100000000E-03 0. -1.
</event>
<event>
 8    1  0.1114333E+005  0.1043930E+01  0.7957747E-01            NaN
         13   -1    0    0    0    0  0.00000000000E+00  0.00000000000E+00  0.74505805969E-08  0.10566000000E+00  0.10566000000E+00 0. -1.
     999900   -1    0    0    0    0 -0.00000000000E+00 -0.00000000000E+00 -0.74505805969E-08  0.93827000000E+00  0.93827000000E+00 0. -1.
     999902    2    1    2    0    0 -0.47737481787E-02  0.30507233540E-01  0.23567149056E-02  0.10129617247E+01  0.10124882328E+01 0.  0.
     999903    2    3    3    0    0  0.75721431396E-01 -0.43677408765E-01 -0.82791463077E-01  0.12210087849E+00  0.20316174876E-01 0.  0.
         14    1    1    2    0    0  0.47737481787E-02 -0.30507233540E-01 -0.23567149056E-02  0.30968275300E-01  0.00000000000E+00 0.  1.
     999901    1    3    3    0    0 -0.80495179575E-01  0.74184642304E-01  0.85148177983E-01  0.89086084621E+00  0.88000000000E+00 0.  1.
        -11    1    4    4    0    0  0.71633323138E-01 -0.34540273508E-01 -0.70843388848E-01  0.10650544748E+00  0.51100000000E-03 0. -1.
         11    1    4    4    0    0  0.40881082574E-02 -0.91371352567E-02 -0.11948074229E-01  0.15595431017E-01  0.51100000000E-03 0.  1.
</event>
<event>
 8    1  0.1114333E+005  0.1043930E+01  0.7957747E-01            NaN
         13   -1    0    0    0    0  0.00000000000E+00  0.00000000000E+00  0.74505805969E-08  0.10566000000E+00  0.10566000000E+00 0.  1.
     999900   -1    0    0    0    0 -0.00000000000E+00 -0.00000000000E+00 -0.74505805969E-08  0.93827000000E+00  0.93827000000E+00 0. -1.
     999902    2    1    2    0    0  0.11618332913E-01  0.57210175861E-02 -0.19368770154E-01  0.10206305374E+01  0.10203645568E+01 0.  0.
     999903    2    3    3    0    0  0.35220036903E-02  0.38906495760E-01 -0.12615045298E+00  0.13351771799E+00  0.19670391651E-01 0.  0.
         14    1    1    2    0    0 -0.11618332913E-01 -0.57210175861E-02  0.19368770154E-01  0.23299462637E-01  0.00000000000E+00 0. -1.
     999901    1    3    3    0    0  0.80963292227E-02 -0.33185478174E-01  0.10678168283E+00  0.88711281937E+00  0.88000000000E+00 0.  1.
        -11    1    4    4    0    0  0.64520784187E-02  0.31407631411E-01 -0.72651013398E-01  0.79413471751E-01  0.51100000000E-03 0.  1.
         11    1    4    4    0    0 -0.29300747284E-02  0.74988643489E-02 -0.53499439583E-01  0.54104246239E-01  0.51100000000E-03 0. -1.
</event>
<event>
 8    1  0.1114333E+005  0.1043930E+01  0.7957747E-01            NaN
         13   -1    0    0    0    0  0.00000000000E+00  0.00000000000E+00  0.74505805969E-08  0.10566000000E+00  0.10566000000E+00 0.  1.
     999900   -1    0    0    0    0 -0.00000000000E+00 -0.00000000000E+00 -0.74505805969E-08  0.93827000000E+00  0.93827000000E+00 0. -1.
     999902    2    1    2    0    0  0.75516863837E-02 -0.15695132728E-01  0.15851088508E-01  0.10203795825E+01  0.10201077738E+01 0.  0.
     999903    2    3    3    0    0 -0.97816829120E-01 -0.66346991681E-01  0.55067255946E-01  0.13178178670E+00  0.19078292998E-01 0.  0.
         14    1    1    2    0    0 -0.75516863837E-02  0.15695132728E-01 -0.15851088508E-01  0.23550417523E-01  0.00000000000E+00 0. -1.
     999901    1    3    3    0    0  0.10536851550E+00  0.50651858953E-01 -0.39216167438E-01  0.88859779578E+00  0.88000000000E+00 0. -1.
        -11    1    4    4    0    0 -0.37713001683E-01 -0.30194577002E-01  0.31978885344E-01  0.57938702136E-01  0.51100000000E-03 0.  1.
         11    1    4    4    0    0 -0.60103827437E-01 -0.36152414679E-01  0.23088370602E-01  0.73843084563E-01  0.51100000000E-03 0. -1.
</event>
<event>
 8    1  0.1114333E+005  0.1043930E+01  0.7957747E-01            NaN
         13   -1    0    0    0    0  0.00000000000E+00  0.00000000000E+00  0.74505805969E-08  0.10566000000E+00  0.10566000000E+00 0. -1.
     999900   -1    0    0    0    0 -0.00000000000E+00 -0.00000000000E+00 -0.74505805969E-08  0.93827000000E+00  0.93827000000E+00 0. -1.
     999902    2    1    2    0    0  0.21943375694E-01 -0.70017186366E-02  0.45087880096E-02  0.10204594872E+01  0.10201895413E+01 0.  0.
     999903    2    3    3    0    0 -0.47492341174E-01  0.51448002995E-01 -0.10644184755E+00  0.12886107299E+00  0.19310353133E-01 0.  0.
         14    1    1    2    0    0 -0.21943375694E-01  0.70017186366E-02 -0.45087880096E-02  0.23470512778E-01  0.00000000000E+00 0. -1.
     999901    1    3    3    0    0  0.69435716868E-01 -0.58449721631E-01  0.11095063556E+00  0.89159841424E+00  0.88000000000E+00 0.  1.
        -11    1    4    4    0    0 -0.14077567789E-01  0.46435849905E-02 -0.26713245167E-01  0.30554858612E-01  0.51100000000E-03 0. -1.
         11    1    4    4    0    0 -0.33414773384E-01  0.46804418004E-01 -0.79728602387E-01  0.98306214374E-01  0.51100000000E-03 0.  1.
</event>
<event>
 8    1  0.1114333E+005  0.1043930E+01  0.7957747E-01            NaN
         13   -1    0    0    0    0  0.00000000000E+00  0.00000000000E+00  0.74505805969E-08  0.10566000000E+00  0.10566000000E+00 0. -1.
     999900   -1    0    0    0    0 -0.00000000000E+00 -0.00000000000E+00 -0.74505805969E-08  0.93827000000E+00  0.93827000000E+00 0. -1.
     999902    2    1    2    0    0 -0.21698670979E-01 -0.26570587199E-03 -0.99313960590E-02  0.10200650561E+01  0.10197858516E+01 0.  0.
     999903    2    3    3    0    0 -0.10554038387E+00  0.76446700417E-01 -0.14890431548E-01  0.13274390893E+00  0.20404650822E-01 0.  0.
         14    1    1    2    0    0  0.21698670979E-01  0.26570587199E-03  0.99313960590E-02  0.23864943946E-01  0.00000000000E+00 0. -1.
     999901    1    3    3    0    0  0.83841712887E-01 -0.76712406289E-01  0.49590354886E-02  0.88732114712E+00  0.88000000000E+00 0.  1.
        -11    1    4    4    0    0 -0.74799330654E-01  0.50535394620E-01 -0.19246224723E-01  0.92300835656E-01  0.51100000000E-03 0.  1.
         11    1    4    4    0    0 -0.30741053212E-01  0.25911305797E-01  0.43557931751E-02  0.40443073275E-01  0.51100000000E-03 0. -1.
</event>
<event>
 8    1  0.1114333E+005  0.1043930E+01  0.7957747E-01            NaN
         13   -1    0    0    0    0  0.00000000000E+00  0.00000000000E+00  0.74505805969E-08  0.10566000000E+00  0.10566000000E+00 0. -1.
     999900   -1    0    0    0    0 -0.00000000000E+00 -0.00000000000E+00 -0.74505805969E-08  0.93827000000E+00  0.93827000000E+00 0. -1.
     999902    2    1    2    0    0 -0.18617071449E-01 -0.75761597929E-02  0.13788658536E-01  0.10195554097E+01  0.10192640055E+01 0.  0.
     999903    2    3    3    0    0 -0.22462396546E-01  0.11869174337E+00 -0.41107176475E-01  0.12884113310E+00  0.17831108170E-01 0.  0.
         14    1    1    2    0    0  0.18617071449E-01  0.75761597929E-02 -0.13788658536E-01  0.24374590269E-01  0.00000000000E+00 0.  1.
     999901    1    3    3    0    0  0.38453250970E-02 -0.12626790316E+00  0.54895835012E-01  0.89071427663E+00  0.88000000000E+00 0.  1.
        -11    1    4    4    0    0 -0.14996506685E-01  0.36352025668E-01 -0.15714353629E-01  0.42350525544E-01  0.51100000000E-03 0.  1.
         11    1    4    4    0    0 -0.74658898608E-02  0.82339717699E-01 -0.25392822846E-01  0.86490607556E-01  0.51100000000E-03 0. -1.
</event>
<event>
 8    1  0.1114333E+005  0.1043930E+01  0.7957747E-01            NaN
         13   -1    0    0    0    0  0.00000000000E+00  0.00000000000E+00  0.74505805969E-08  0.10566000000E+00  0.10566000000E+00 0. -1.
     999900   -1    0    0    0    0 -0.00000000000E+00 -0.00000000000E+00 -0.74505805969E-08  0.93827000000E+00  0.93827000000E+00 0.  1.
     999902    2    1    2    0    0  0.16539151569E-01  0.14187063466E-01  0.96454206416E-02  0.10201003873E+01  0.10198220186E+01 0.  0.
     999903    2    3    3    0    0 -0.10629792057E+00  0.11615864550E-01  0.70363930049E-01  0.12949256405E+00  0.19572053224E-01 0.  0.
         14    1    1    2    0    0 -0.16539151569E-01 -0.14187063466E-01 -0.96454206416E-02  0.23829612749E-01  0.00000000000E+00 0. -1.
     999901    1    3    3    0    0  0.12283707214E+00  0.25711989164E-02 -0.60718509407E-01  0.89060782320E+00  0.88000000000E+00 0.  1.
        -11    1    4    4    0    0 -0.60308741975E-01 -0.29124618201E-02  0.36437910876E-01  0.70523820533E-01  0.51100000000E-03 0.  1.
         11    1    4    4    0    0 -0.45989178591E-01  0.14528326370E-01  0.33926019173E-01  0.58968743522E-01  0.51100000000E-03 0. -1.
</event>
<event>
 8    1  0.1114333E+005  0.1043930E+01  0.7957747E-01            NaN
         13   -1    0    0    0    0  0.00000000000E+00  0.00000000000E+00  0.74505805969E-08  0.10566000000E+00  0.10566000000E+00 0.  1.
     999900   -1    0    0    0    0 -0.00000000000E+00 -0.00000000000E+00 -0.74505805969E-08  0.93827000000E+00  0.93827000000E+00 0.  1.
     999902    2    1    2    0    0  0.78761877930E-02 -0.17492120580E-01  0.14663708587E-01  0.10197839244E+01  0.10194980233E+01 0.  0.
     999903    2    3    3    0    0 -0.10180534282E+00  0.14799180346E-01 -0.73661711770E-01  0.12800247913E+00  0.19371198140E-01 0.  0.
         14    1    1    2    0    0 -0.78761877930E-02  0.17492120580E-01 -0.14663708587E-01  0.24146075583E-01  0.00000000000E+00 0.  1.
     999901    1    3    3    0    0  0.10968153061E+00 -0.32291300926E-01  0.88325420357E-01  0.89178144528E+00  0.88000000000E+00 0. -1.
        -11    1    4    4    0    0 -0.12264425805E-01  0.79120576177E-02 -0.13650690625E-01  0.19990479524E-01  0.51100000000E-03 0.  1.
         11    1    4    4    0    0 -0.89540917015E-01  0.68871227280E-02 -0.60011021145E-01  0.10801199961E+00  0.51100000000E-03 0. -1.
</event>
<event>
 8    1  0.1114333E+005  0.1043930E+01  0.7957747E-01            NaN
         13   -1    0    0    0    0  0.00000000000E+00  0.00000000000E+00  0.74505805969E-08  0.10566000000E+00  0.10566000000E+00 0. -1.
     999900   -1    0    0    0    0 -0.00000000000E+00 -0.00000000000E+00 -0.74505805969E-08  0.93827000000E+00  0.93827000000E+00 0. -1.
     999902    2    1    2    0    0  0.11858189473E-01 -0.18110008391E-01 -0.94918125194E-02  0.10202935120E+01  0.10200196895E+01 0.  0.
     999903    2    3    3    0    0 -0.95359272819E-01 -0.67376878172E-01  0.54374580045E-01  0.13012401981E+00  0.18510293105E-01 0.  0.
         14    1    1    2    0    0 -0.11858189473E-01  0.18110008391E-01  0.94918125194E-02  0.23636488030E-01  0.00000000000E+00 0.  1.
     999901    1    3    3    0    0  0.10721746229E+00  0.49266869781E-01 -0.63866392564E-01  0.89016949216E+00  0.88000000000E+00 0. -1.
        -11    1    4    4    0    0 -0.65371807636E-02  0.27900849651E-03  0.29649395991E-02  0.72017057635E-02  0.51100000000E-03 0. -1.
         11    1    4    4    0    0 -0.88822092055E-01 -0.67655886668E-01  0.51409640446E-01  0.12292231404E+00  0.51100000000E-03 0.  1.
</event>
<event>
 8    1  0.1114333E+005  0.1043930E+01  0.7957747E-01            NaN
         13   -1    0    0    0    0  0.00000000000E+00  0.00000000000E+00  0.74505805969E-08  0.10566000000E+00  0.10566000000E+00 0. -1.
     999900   -1    0    0    0    0 -0.00000000000E+00 -0.00000000000E+00 -0.74505805969E-08  0.93827000000E+00  0.93827000000E+00 0. -1.
     999902    2    1    2    0    0 -0.50919356339E-03 -0.13387814104E-01  0.19811416050E-01  0.10200137911E+01  0.10197333715E+01 0.  0.
     999903    2    3    3    0    0 -0.42062137131E-01  0.60631063639E-01  0.10772245898E+00  0.13156919917E+00  0.16154774572E-01 0.  0.
         14    1    1    2    0    0  0.50919356339E-03  0.13387814104E-01 -0.19811416050E-01  0.23916208948E-01  0.00000000000E+00 0.  1.
     999901    1    3    3    0    0  0.41552943568E-01 -0.74018877743E-01 -0.87911042934E-01  0.88844459189E+00  0.88000000000E+00 0. -1.
        -11    1    4    4    0    0 -0.31759049541E-01  0.33743334285E-01  0.59724590110E-01  0.75594560792E-01  0.51100000000E-03 0.  1.
         11    1    4    4    0    0 -0.10303087590E-01  0.26887729353E-01  0.47997868874E-01  0.55974638374E-01  0.51100000000E-03 0. -1.
</event>
<event>
 8    1  0.1147057E+005  0.1043930E+01  0.7957747E-01            NaN
         13   -1    0    0    0    0  0.00000000000E+00  0.00000000000E+00  0.74505805969E-08  0.10566000000E+00  0.10566000000E+00 0.  1.
     999900   -1    0    0    0    0 -0.00000000000E+00 -0.00000000000E+00 -0.74505805969E-08  0.93827000000E+00  0.93827000000E+00 0.  1.
     999902    2    1    2    0    0  0.17756148061E-01  0.12227791348E-01 -0.10401308582E-01  0.10199928553E+01  0.10197119387E+01 0.  0.
     999903    2    3    3    0    0 -0.11534647556E+00 -0.50964699709E-01 -0.16092961280E-02  0.12769979874E+00  0.20060875451E-01 0.  0.
         14    1    1    2    0    0 -0.17756148061E-01 -0.12227791348E-01  0.10401308582E-01  0.23937144680E-01  0.00000000000E+00 0. -1.
     999901    1    3    3    0    0  0.13310262362E+00  0.63192491057E-01 -0.87920124538E-02  0.89229305658E+00  0.88000000000E+00 0. -1.
        -11    1    4    4    0    0 -0.68441210882E-01 -0.40569962678E-01 -0.31928307144E-02  0.79627737050E-01  0.51100000000E-03 0. -1.
         11    1    4    4    0    0 -0.46905264675E-01 -0.10394737031E-01  0.15835345864E-02  0.48072061689E-01  0.51100000000E-03 0.  1.
</event>
<event>
 8    1  0.1114333E+005  0.1043930E+01  0.7957747E-01            NaN
         13   -1    0    0    0    0  0.00000000000E+00  0.00000000000E+00  0.74505805969E-08  0.10566000000E+00  0.10566000000E+00 0.  1.
     999900   -1    0    0    0    0 -0.00000000000E+00 -0.00000000000E+00 -0.74505805969E-08  0.93827000000E+00  0.93827000000E+00 0. -1.
     999902    2    1    2    0    0 -0.21835338399E-01  0.18899761145E-01 -0.92239450953E-02  0.10136139294E+01  0.10131604679E+01 0.  0.
     999903    2    3    3    0    0  0.93032416566E-01  0.12031645002E-01  0.75942563784E-01  0.12204502774E+00  0.18108693714E-01 0.  0.
         14    1    1    2    0    0  0.21835338399E-01 -0.18899761145E-01  0.92239450953E-02  0.30316070614E-01  0.00000000000E+00 0.  1.
     999901    1    3    3    0    0 -0.11486775497E+00  0.68681161429E-02 -0.85166508879E-01  0.89156890165E+00  0.88000000000E+00 0. -1.
        -11    1    4    4    0    0  0.59032097647E-01  0.13541560162E-01  0.40235627066E-01  0.72714023480E-01  0.51100000000E-03 0.  1.
         11    1    4    4    0    0  0.34000318919E-01 -0.15099151597E-02  0.35706936718E-01  0.49331004259E-01  0.51100000000E-03 0. -1.
</event>
<event>
 8    1  0.1114333E+005  0.1043930E+01  0.7957747E-01            NaN
         13   -1    0    0    0    0  0.00000000000E+00  0.00000000000E+00  0.74505805969E-08  0.10566000000E+00  0.10566000000E+00 0.  1.
     999900   -1    0    0    0    0 -0.00000000000E+00 -0.00000000000E+00 -0.74505805969E-08  0.93827000000E+00  0.93827000000E+00 0. -1.
     999902    2    1    2    0    0 -0.15795221531E-01 -0.14524380876E-01 -0.84848685806E-02  0.10208553460E+01  0.10205945315E+01 0.  0.
     999903    2    3    3    0    0 -0.77089047212E-01 -0.73016598126E-01  0.76881180560E-01  0.13267426372E+00  0.20435252089E-01 0.  0.
         14    1    1    2    0    0  0.15795221531E-01  0.14524380876E-01  0.84848685806E-02  0.23074654014E-01  0.00000000000E+00 0.  1.
     999901    1    3    3    0    0  0.61293825682E-01  0.58492217250E-01 -0.85366049140E-01  0.88818108226E+00  0.88000000000E+00 0. -1.
        -11    1    4    4    0    0 -0.21686373504E-01 -0.94169168651E-02  0.14177279265E-01  0.27572331917E-01  0.51100000000E-03 0. -1.
         11    1    4    4    0    0 -0.55402673708E-01 -0.63599681261E-01  0.62703901295E-01  0.10510193180E+00  0.51100000000E-03 0.  1.
</event>
<event>
 8    1  0.1114333E+005  0.1043930E+01  0.7957747E-01            NaN
         13   -1    0    0    0    0  0.00000000000E+00  0.00000000000E+00  0.74505805969E-08  0.10566000000E+00  0.10566000000E+00 0.  1.
     999900   -1    0    0    0    0 -0.00000000000E+00 -0.00000000000E+00 -0.74505805969E-08  0.93827000000E+00  0.93827000000E+00 0. -1.
     999902    2    1    2    0    0 -0.60606544670E-02  0.20768386885E-01 -0.87519528304E-02  0.10205921744E+01  0.10203253071E+01 0.  0.
     999903    2    3    3    0    0 -0.10271525870E+00  0.74139776946E-01  0.34042131313E-01  0.13266089808E+00  0.19822115902E-01 0.  0.
         14    1    1    2    0    0  0.60606544670E-02 -0.20768386885E-01  0.87519528304E-02  0.23337825621E-01  0.00000000000E+00 0.  1.
     999901    1    3    3    0    0  0.96654604233E-01 -0.53371390061E-01 -0.42794084143E-01  0.88793127630E+00  0.88000000000E+00 0.  1.
        -11    1    4    4    0    0 -0.32693956881E-01  0.24274247944E-01  0.20650513655E-01  0.45660034658E-01  0.51100000000E-03 0. -1.
         11    1    4    4    0    0 -0.70021301820E-01  0.49865529002E-01  0.13391617658E-01  0.87000863419E-01  0.51100000000E-03 0.  1.
</event>
<event>
 8    1  0.1114333E+005  0.1043930E+01  0.7957747E-01            NaN
         13   -1    0    0    0    0  0.00000000000E+00  0.00000000000E+00  0.74505805969E-08  0.10566000000E+00  0.10566000000E+00 0.  1.
     999900   -1    0    0    0    0 -0.00000000000E+00 -0.00000000000E+00 -0.74505805969E-08  0.93827000000E+00  0.93827000000E+00 0.  1.
     999902    2    1    2    0    0 -0.86148097099E-02  0.19693916285E-01  0.13383049328E-01  0.10186086396E+01  0.10182938620E+01 0.  0.
     999903    2    3    3    0    0 -0.72717937765E-01 -0.31072736191E-01  0.10163855675E+00  0.13042200455E+00  0.20641938997E-01 0.  0.
         14    1    1    2    0    0  0.86148097099E-02 -0.19693916285E-01 -0.13383049328E-01  0.25321360435E-01  0.00000000000E+00 0.  1.
     999901    1    3    3    0    0  0.64103128055E-01  0.50766652476E-01 -0.88255507421E-01  0.88818663502E+00  0.88000000000E+00 0.  1.
        -11    1    4    4    0    0 -0.54569986144E-03 -0.34746004585E-02  0.96637343166E-02  0.10296578006E-01  0.51100000000E-03 0. -1.
         11    1    4    4    0    0 -0.72172237904E-01 -0.27598135733E-01  0.91974822432E-01  0.12012542654E+00  0.51100000000E-03 0.  1.
</event>
<event>
 7    1  0.1114333E+005  0.1043930E+01  0.7957747E-01            NaN
         13   -1    0    0    0    0  0.00000000000E+00  0.00000000000E+00  0.74505805969E-08  0.10566000000E+00  0.10566000000E+00 0. -1.
     999900   -1    0    0    0    0 -0.00000000000E+00 -0.00000000000E+00 -0.74505805969E-08  0.93827000000E+00  0.93827000000E+00 0. -1.
     999903    2    1    2    0    0 -0.86095776854E-01  0.39040526036E-01  0.65398753114E-01  0.11638813919E+00  0.18236133610E-01 0.  0.
         14    1    1    2    0    0  0.35822341496E-01 -0.20024095941E-01  0.11315883083E-01  0.42570574092E-01  0.00000000000E+00 0. -1.
     999901    1    1    2    0    0  0.50273435357E-01 -0.19016430095E-01 -0.76714636197E-01  0.88497128672E+00  0.88000000000E+00 0. -1.
        -11    1    3    3    0    0 -0.25760881972E-01  0.94969854436E-02  0.29164100995E-01  0.40057729346E-01  0.51100000000E-03 0.  1.
         11    1    3    3    0    0 -0.60334894882E-01  0.29543540593E-01  0.36234652119E-01  0.76330409840E-01  0.51100000000E-03 0. -1.
</event>
<event>
 8    1  0.1114333E+005  0.1043930E+01  0.7957747E-01            NaN
         13   -1    0    0    0    0  0.00000000000E+00  0.00000000000E+00  0.74505805969E-08  0.10566000000E+00  0.10566000000E+00 0. -1.
     999900   -1    0    0    0    0 -0.00000000000E+00 -0.00000000000E+00 -0.74505805969E-08  0.93827000000E+00  0.93827000000E+00 0. -1.
     999902    2    1    2    0    0  0.13422017490E-01 -0.83234598433E-02 -0.17732599492E-01  0.10201839346E+01  0.10199075374E+01 0.  0.
     999903    2    3    3    0    0 -0.48415733100E-01  0.64416243939E-01 -0.10114210460E+00  0.13109894572E+00  0.21533057207E-01 0.  0.
         14    1    1    2    0    0 -0.13422017490E-01  0.83234598433E-02  0.17732599492E-01  0.23746065401E-01  0.00000000000E+00 0. -1.
     999901    1    3    3    0    0  0.61837750590E-01 -0.72739703783E-01  0.83409505103E-01  0.88908498888E+00  0.88000000000E+00 0.  1.
        -11    1    4    4    0    0 -0.17342953730E-01  0.23195058112E-01 -0.21033083034E-01  0.35797213129E-01  0.51100000000E-03 0.  1.
         11    1    4    4    0    0 -0.31072779370E-01  0.41221185828E-01 -0.80109021561E-01  0.95301732593E-01  0.51100000000E-03 0. -1.
</event>
<event>
 8    1  0.1114333E+005  0.1043930E+01  0.7957747E-01            NaN
         13   -1    0    0    0    0  0.00000000000E+00  0.00000000000E+00  0.74505805969E-08  0.10566000000E+00  0.10566000000E+00 0. -1.
     999900   -1    0    0    0    0 -0.00000000000E+00 -0.00000000000E+00 -0.74505805969E-08  0.93827000000E+00  0.93827000000E+00 0. -1.
     999902    2    1    2    0    0 -0.37957902467E-02 -0.71465038227E-02 -0.22202971945E-01  0.10202984003E+01  0.10200246924E+01 0.  0.
     999903    2    3    3    0    0  0.12070293551E+00  0.16317242253E-01 -0.43761124311E-01  0.13096424825E+00  0.20028661517E-01 0.  0.
         14    1    1    2    0    0  0.37957902467E-02  0.71465038227E-02  0.22202971945E-01  0.23631599685E-01  0.00000000000E+00 0. -1.
     999901    1    3    3    0    0 -0.12449872576E+00 -0.23463746076E-01  0.21558152366E-01  0.88933415207E+00  0.88000000000E+00 0. -1.
        -11    1    4    4    0    0  0.74497241394E-01  0.19323189158E-01 -0.30598639925E-01  0.82823683212E-01  0.51100000000E-03 0. -1.
         11    1    4    4    0    0  0.46205694121E-01 -0.30059469053E-02 -0.13162484386E-01  0.48140565038E-01  0.51100000000E-03 0.  1.
</event>
<event>
 8    1  0.1114333E+005  0.1043930E+01  0.7957747E-01            NaN
         13   -1    0    0    0    0  0.00000000000E+00  0.00000000000E+00  0.74505805969E-08  0.10566000000E+00  0.10566000000E+00 0. -1.
     999900   -1    0    0    0    0 -0.00000000000E+00 -0.00000000000E+00 -0.74505805969E-08  0.93827000000E+00  0.93827000000E+00 0.  1.
     999902    2    1    2    0    0  0.15490350771E-02  0.12695205035E-01  0.18855827257E-01  0.10211460152E+01  0.10208918035E+01 0.  0.
     999903    2    3    3    0    0 -0.63990364976E-01 -0.57273292151E-01 -0.93960181040E-01  0.12877924350E+00  0.19508488703E-01 0.  0.
         14    1    1    2    0    0 -0.15490350771E-02 -0.12695205035E-01 -0.18855827257E-01  0.22783984772E-01  0.00000000000E+00 0.  1.
     999901    1    3    3    0    0  0.65539400053E-01  0.69968497186E-01  0.11281600830E+00  0.89236677173E+00  0.88000000000E+00 0. -1.
        -11    1    4    4    0    0 -0.53869726610E-01 -0.38895664547E-01 -0.64454829063E-01  0.92571627814E-01  0.51100000000E-03 0.  1.
         11    1    4    4    0    0 -0.10120638366E-01 -0.18377627603E-01 -0.29505351977E-01  0.36207615685E-01  0.51100000000E-03 0. -1.
</event>
<event>
 8    1  0.1114333E+005  0.1043930E+01  0.7957747E-01            NaN
         13   -1    0    0    0    0  0.00000000000E+00  0.00000000000E+00  0.74505805969E-08  0.10566000000E+00  0.10566000000E+00 0. -1.
     999900   -1    0    0    0    0 -0.00000000000E+00 -0.00000000000E+00 -0.74505805969E-08  0.93827000000E+00  0.93827000000E+00 0.  1.
     999902    2    1    2    0    0  0.35540380245E-02  0.88799341708E-02  0.20897051922E-01  0.10209480245E+01  0.10206893247E+01 0.  0.
     999903    2    3    3    0    0 -0.10718603406E+00  0.12706582453E-01  0.74062658253E-01  0.13240731725E+00  0.19902692788E-01 0.  0.
         14    1    1    2    0    0 -0.35540380245E-02 -0.88799341708E-02 -0.20897051922E-01  0.22981975463E-01  0.00000000000E+00 0.  1.
     999901    1    3    3    0    0  0.11074007208E+00 -0.38266482824E-02 -0.53165606331E-01  0.88854070728E+00  0.88000000000E+00 0.  1.
        -11    1    4    4    0    0 -0.72526964838E-01  0.16647556860E-01  0.44693549929E-01  0.86804817287E-01  0.51100000000E-03 0. -1.
         11    1    4    4    0    0 -0.34659069220E-01 -0.39409744070E-02  0.29369108324E-01  0.45602499967E-01  0.51100000000E-03 0.  1.
</event>
<event>
 8    1  0.1114333E+005  0.1043930E+01  0.7957747E-01            NaN
         13   -1    0    0    0    0  0.00000000000E+00  0.00000000000E+00  0.74505805969E-08  0.10566000000E+00  0.10566000000E+00 0.  1.
     999900   -1    0    0    0    0 -0.00000000000E+00 -0.00000000000E+00 -0.74505805969E-08  0.93827000000E+00  0.93827000000E+00 0. -1.
     999902    2    1    2    0    0 -0.53733312282E-02 -0.11424497597E-01 -0.21479384879E-01  0.10190150284E+01  0.10187103967E+01 0.  0.
     999903    2    3    3    0    0 -0.91375473245E-01  0.50699380525E-01 -0.76330437930E-01  0.13094724797E+00  0.20023528644E-01 0.  0.
         14    1    1    2    0    0  0.53733312282E-02  0.11424497597E-01  0.21479384879E-01  0.24914971576E-01  0.00000000000E+00 0.  1.
     999901    1    3    3    0    0  0.86002142017E-01 -0.62123878123E-01  0.54851053051E-01  0.88806778046E+00  0.88000000000E+00 0.  1.
        -11    1    4    4    0    0 -0.49116835817E-01  0.27422483006E-01 -0.28717244968E-01  0.63161676786E-01  0.51100000000E-03 0.  1.
         11    1    4    4    0    0 -0.42258637428E-01  0.23276897519E-01 -0.47613192961E-01  0.67785571181E-01  0.51100000000E-03 0. -1.
</event>
<event>
 8    1  0.1114333E+005  0.1043930E+01  0.7957747E-01            NaN
         13   -1    0    0    0    0  0.00000000000E+00  0.00000000000E+00  0.74505805969E-08  0.10566000000E+00  0.10566000000E+00 0.  1.
     999900   -1    0    0    0    0 -0.00000000000E+00 -0.00000000000E+00 -0.74505805969E-08  0.93827000000E+00  0.93827000000E+00 0.  1.
     999902    2    1    2    0    0 -0.65729017543E-02  0.23117062624E-01  0.68945415896E-02  0.10189272736E+01  0.10186204655E+01 0.  0.
     999903    2    3    3    0    0  0.14578721768E-01  0.38083743091E-01  0.12263023224E+00  0.13097111324E+00  0.21268474941E-01 0.  0.
         14    1    1    2    0    0  0.65729017543E-02 -0.23117062624E-01 -0.68945415896E-02  0.25002726363E-01  0.00000000000E+00 0. -1.
     999901    1    3    3    0    0 -0.21151623522E-01 -0.14966680467E-01 -0.11573569065E+00  0.88795616040E+00  0.88000000000E+00 0.  1.
        -11    1    4    4    0    0  0.25130221246E-02  0.16677788336E-01  0.80029275067E-01  0.81788812760E-01  0.51100000000E-03 0. -1.
         11    1    4    4    0    0  0.12065699643E-01  0.21405954755E-01  0.42600957176E-01  0.49182300477E-01  0.51100000000E-03 0.  1.
</event>
<event>
 8    1  0.1114333E+005  0.1043930E+01  0.7957747E-01            NaN
         13   -1    0    0    0    0  0.00000000000E+00  0.00000000000E+00  0.74505805969E-08  0.10566000000E+00  0.10566000000E+00 0.  1.
     999900   -1    0    0    0    0 -0.00000000000E+00 -0.00000000000E+00 -0.74505805969E-08  0.93827000000E+00  0.93827000000E+00 0. -1.
     999902    2    1    2    0    0  0.83768382923E-02 -0.20663788356E-01  0.13583459688E-01  0.10178211137E+01  0.10174861893E+01 0.  0.
     999903    2    3    3    0    0  0.28605731281E-01  0.20559647445E-01 -0.11986223094E+00  0.12657685302E+00  0.20341050852E-01 0.  0.
         14    1    1    2    0    0 -0.83768382923E-02  0.20663788356E-01 -0.13583459688E-01  0.26108886343E-01  0.00000000000E+00 0. -1.
     999901    1    3    3    0    0 -0.20228892989E-01 -0.41223435801E-01  0.13344569063E+00  0.89124426064E+00  0.88000000000E+00 0.  1.
        -11    1    4    4    0    0  0.20451760188E-01  0.95073413166E-02 -0.43647605356E-01  0.49132866882E-01  0.51100000000E-03 0. -1.
         11    1    4    4    0    0  0.81539710929E-02  0.11052306128E-01 -0.76214625582E-01  0.77443986138E-01  0.51100000000E-03 0.  1.
</event>
<event>
 8    1  0.1114333E+005  0.1043930E+01  0.7957747E-01            NaN
         13   -1    0    0    0    0  0.00000000000E+00  0.00000000000E+00  0.74505805969E-08  0.10566000000E+00  0.10566000000E+00 0.  1.
     999900   -1    0    0    0    0 -0.00000000000E+00 -0.00000000000E+00 -0.74505805969E-08  0.93827000000E+00  0.93827000000E+00 0. -1.
     999902    2    1    2    0    0 -0.13762639545E-01  0.14607682110E-03 -0.19345759186E-01  0.10201878437E+01  0.10199115386E+01 0.  0.
     999903    2    3    3    0    0  0.96267704788E-01  0.80549477649E-01  0.20956313571E-01  0.12878690106E+00  0.19779015909E-01 0.  0.
         14    1    1    2    0    0  0.13762639545E-01 -0.14607682110E-03  0.19345759186E-01  0.23742156266E-01  0.00000000000E+00 0.  1.
     999901    1    3    3    0    0 -0.11003034433E+00 -0.80403400828E-01 -0.40302072757E-01  0.89140094268E+00  0.88000000000E+00 0. -1.
        -11    1    4    4    0    0  0.52277490316E-01  0.49100796672E-01  0.29242868819E-02  0.71781869593E-01  0.51100000000E-03 0. -1.
         11    1    4    4    0    0  0.43990214472E-01  0.31448680977E-01  0.18032026689E-01  0.57005031462E-01  0.51100000000E-03 0.  1.
</event>
<event>
 8    1  0.1114333E+005  0.1043930E+01  0.7957747E-01            NaN
         13   -1    0    0    0    0  0.00000000000E+00  0.00000000000E+00  0.74505805969E-08  0.10566000000E+00  0.10566000000E+00 0. -1.
     999900   -1    0    0    0    0 -0.00000000000E+00 -0.00000000000E+00 -0.74505805969E-08  0.93827000000E+00  0.93827000000E+00 0. -1.
     999902    2    1    2    0    0  0.22406948778E-01 -0.72874970524E-02  0.96664967895E-03  0.10203479437E+01  0.10200753957E+01 0.  0.
     999903    2    3    3    0    0  0.11058318056E+00  0.20140086795E-01 -0.68028998511E-01  0.13283021450E+00  0.19536077592E-01 0.  0.
         14    1    1    2    0    0 -0.22406948778E-01  0.72874970524E-02 -0.96664967895E-03  0.23582056281E-01  0.00000000000E+00 0. -1.
     999901    1    3    3    0    0 -0.88176231780E-01 -0.27427583847E-01  0.68995648190E-01  0.88751772922E+00  0.88000000000E+00 0.  1.
        -11    1    4    4    0    0  0.26569897674E-01  0.97116345721E-02 -0.25497618820E-01  0.38087596340E-01  0.51100000000E-03 0.  1.
         11    1    4    4    0    0  0.84013282883E-01  0.10428452222E-01 -0.42531379692E-01  0.94742618161E-01  0.51100000000E-03 0. -1.
</event>
<event>
 8    1  0.1114333E+005  0.1043930E+01  0.7957747E-01            NaN
         13   -1    0    0    0    0  0.00000000000E+00  0.00000000000E+00  0.74505805969E-08  0.10566000000E+00  0.10566000000E+00 0.  1.
     999900   -1    0    0    0    0 -0.00000000000E+00 -0.00000000000E+00 -0.74505805969E-08  0.93827000000E+00  0.93827000000E+00 0.  1.
     999902    2    1    2    0    0  0.11528288777E-02  0.17428290916E-01 -0.16646836416E-01  0.10198013552E+01  0.10195158716E+01 0.  0.
     999903    2    3    3    0    0 -0.11332871574E+00 -0.55500838827E-01 -0.20393346154E-01  0.12938644157E+00  0.20030521064E-01 0.  0.
         14    1    1    2    0    0 -0.11528288777E-02 -0.17428290916E-01  0.16646836416E-01  0.24128644830E-01  0.00000000000E+00 0. -1.
     999901    1    3    3    0    0  0.11448154462E+00  0.72929129742E-01  0.37465097378E-02  0.89041491360E+00  0.88000000000E+00 0. -1.
        -11    1    4    4    0    0 -0.62755348490E-01 -0.22318202872E-01 -0.40655428766E-02  0.66731744345E-01  0.51100000000E-03 0.  1.
         11    1    4    4    0    0 -0.50573367248E-01 -0.33182635955E-01 -0.16327803277E-01  0.62654697227E-01  0.51100000000E-03 0. -1.
</event>
<event>
 8    1  0.1114333E+005  0.1043930E+01  0.7957747E-01            NaN
         13   -1    0    0    0    0  0.00000000000E+00  0.00000000000E+00  0.74505805969E-08  0.10566000000E+00  0.10566000000E+00 0.  1.
     999900   -1    0    0    0    0 -0.00000000000E+00 -0.00000000000E+00 -0.74505805969E-08  0.93827000000E+00  0.93827000000E+00 0. -1.
     999902    2    1    2    0    0 -0.15696801152E-01 -0.71075736067E-02  0.13230306466E-01  0.10222056317E+01  0.10219747577E+01 0.  0.
     999903    2    3    3    0    0  0.12060005345E-01  0.39613942241E-01 -0.12185527593E+00  0.13024069129E+00  0.19980521665E-01 0.  0.
         14    1    1    2    0    0  0.15696801152E-01  0.71075736067E-02 -0.13230306466E-01  0.21724368303E-01  0.00000000000E+00 0. -1.
     999901    1    3    3    0    0 -0.27756806497E-01 -0.46721515847E-01  0.13508558240E+00  0.89196494041E+00  0.88000000000E+00 0.  1.
        -11    1    4    4    0    0  0.40335553043E-02  0.19335285982E-01 -0.30678873484E-01  0.36490783106E-01  0.51100000000E-03 0. -1.
         11    1    4    4    0    0  0.80264500407E-02  0.20278656258E-01 -0.91176402447E-01  0.93749908181E-01  0.51100000000E-03 0.  1.
</event>
<event>
 8    1  0.1114333E+005  0.1043930E+01  0.7957747E-01            NaN
         13   -1    0    0    0    0  0.00000000000E+00  0.00000000000E+00  0.74505805969E-08  0.10566000000E+00  0.10566000000E+00 0.  1.
     999900   -1    0    0    0    0 -0.00000000000E+00 -0.00000000000E+00 -0.74505805969E-08  0.93827000000E+00  0.93827000000E+00 0.  1.
     999902    2    1    2    0    0  0.16833841899E-01  0.16197807400E-01 -0.27581560307E-02  0.10204065091E+01  0.10201353289E+01 0.  0.
     999903    2    3    3    0    0 -0.49690100032E-01 -0.11575635362E+00  0.11858319854E-01  0.12796548765E+00  0.19128691433E-01 0.  0.
         14    1    1    2    0    0 -0.16833841899E-01 -0.16197807400E-01  0.27581560307E-02  0.23523490862E-01  0.00000000000E+00 0. -1.
     999901    1    3    3    0    0  0.66523941931E-01  0.13195416102E+00 -0.14616475885E-01  0.89244102148E+00  0.88000000000E+00 0. -1.
        -11    1    4    4    0    0 -0.41630523042E-01 -0.85311580806E-01  0.19586551842E-02  0.94948742590E-01  0.51100000000E-03 0.  1.
         11    1    4    4    0    0 -0.80595769897E-02 -0.30444772815E-01  0.98996646700E-02  0.33016745064E-01  0.51100000000E-03 0. -1.
</event>
<event>
 8    1  0.1114333E+005  0.1043930E+01  0.7957747E-01            NaN
         13   -1    0    0    0    0  0.00000000000E+00  0.00000000000E+00  0.74505805969E-08  0.10566000000E+00  0.10566000000E+00 0.  1.
     999900   -1    0    0    0    0 -0.00000000000E+00 -0.00000000000E+00 -0.74505805969E-08  0.93827000000E+00  0.93827000000E+00 0. -1.
     999902    2    1    2    0    0  0.20657934838E-01  0.90999953894E-03  0.10021496365E-02  0.10232277616E+01  0.10230183133E+01 0.  0.
     999903    2    3    3    0    0 -0.65628347038E-01 -0.51761003611E-01 -0.99234477817E-01  0.13178682778E+00  0.23108547291E-01 0.  0.
         14    1    1    2    0    0 -0.20657934838E-01 -0.90999953894E-03 -0.10021496365E-02  0.20702238401E-01  0.00000000000E+00 0. -1.
     999901    1    3    3    0    0  0.86286281875E-01  0.52671003150E-01  0.10023662745E+00  0.89144093382E+00  0.88000000000E+00 0.  1.
        -11    1    4    4    0    0 -0.16307836354E-01 -0.26924698166E-01 -0.37165871749E-01  0.48707782148E-01  0.51100000000E-03 0.  1.
         11    1    4    4    0    0 -0.49320510684E-01 -0.24836305445E-01 -0.62068606067E-01  0.83079045628E-01  0.51100000000E-03 0. -1.
</event>
<event>
 8    1  0.1114333E+005  0.1043930E+01  0.7957747E-01            NaN
         13   -1    0    0    0    0  0.00000000000E+00  0.00000000000E+00  0.74505805969E-08  0.10566000000E+00  0.10566000000E+00 0. -1.
     999900   -1    0    0    0    0 -0.00000000000E+00 -0.00000000000E+00 -0.74505805969E-08  0.93827000000E+00  0.93827000000E+00 0.  1.
     999902    2    1    2    0    0 -0.13427604413E-01 -0.21985487891E-01 -0.14980217380E-01  0.10141295109E+01  0.10136915683E+01 0.  0.
     999903    2    3    3    0    0 -0.79703956957E-01 -0.96728536984E-01 -0.19972241912E-01  0.12846366047E+00  0.19871864376E-01 0.  0.
         14    1    1    2    0    0  0.13427604413E-01  0.21985487891E-01  0.14980217380E-01  0.29800489104E-01  0.00000000000E+00 0. -1.
     999901    1    3    3    0    0  0.66276352544E-01  0.74743049092E-01  0.49920245321E-02  0.88566585042E+00  0.88000000000E+00 0.  1.
        -11    1    4    4    0    0 -0.44786420791E-01 -0.68797811125E-01 -0.15258608488E-01  0.83498793745E-01  0.51100000000E-03 0.  1.
         11    1    4    4    0    0 -0.34917536167E-01 -0.27930725858E-01 -0.47136334241E-02  0.44964866729E-01  0.51100000000E-03 0. -1.
</event>
<event>
 8    1  0.1114333E+005  0.1043930E+01  0.7957747E-01            NaN
         13   -1    0    0    0    0  0.00000000000E+00  0.00000000000E+00  0.74505805969E-08  0.10566000000E+00  0.10566000000E+00 0.  1.
     999900   -1    0    0    0    0 -0.00000000000E+00 -0.00000000000E+00 -0.74505805969E-08  0.93827000000E+00  0.93827000000E+00 0.  1.
     999902    2    1    2    0    0 -0.26460438092E-02 -0.22083436029E-01 -0.12206709147E-01  0.10185590827E+01  0.10182430562E+01 0.  0.
     999903    2    3    3    0    0  0.90933709462E-01 -0.45815645030E-01  0.76320428098E-01  0.12886394282E+00  0.20324742729E-01 0.  0.
         14    1    1    2    0    0  0.26460438092E-02  0.22083436029E-01  0.12206709147E-01  0.25370917265E-01  0.00000000000E+00 0.  1.
     999901    1    3    3    0    0 -0.93579753271E-01  0.23732209001E-01 -0.88527137245E-01  0.88969513992E+00  0.88000000000E+00 0.  1.
        -11    1    4    4    0    0  0.33501852114E-01 -0.10448528364E-01  0.36019142656E-01  0.50291009124E-01  0.51100000000E-03 0. -1.
         11    1    4    4    0    0  0.57431857348E-01 -0.35367116666E-01  0.40301285443E-01  0.78572933692E-01  0.51100000000E-03 0.  1.
</event>
<event>
 8    1  0.1114333E+005  0.1043930E+01  0.7957747E-01            NaN
         13   -1    0    0    0    0  0.00000000000E+00  0.00000000000E+00  0.74505805969E-08  0.10566000000E+00  0.10566000000E+00 0.  1.
     999900   -1    0    0    0    0 -0.00000000000E+00 -0.00000000000E+00 -0.74505805969E-08  0.93827000000E+00  0.93827000000E+00 0. -1.
     999902    2    1    2    0    0 -0.23690284792E-01 -0.55933325300E-02  0.68725109551E-02  0.10186367920E+01  0.10183227228E+01 0.  0.
     999903    2    3    3    0    0  0.11373369426E+00 -0.50427419269E-01 -0.12738947009E-01  0.12662779285E+00  0.19850423836E-01 0.  0.
         14    1    1    2    0    0  0.23690284792E-01  0.55933325300E-02 -0.68725109551E-02  0.25293207964E-01  0.00000000000E+00 0. -1.
     999901    1    3    3    0    0 -0.13742397905E+00  0.44834086739E-01  0.19611457964E-01  0.89200899919E+00  0.88000000000E+00 0.  1.
        -11    1    4    4    0    0  0.79338202837E-01 -0.24954197622E-01 -0.91496218622E-02  0.83673407422E-01  0.51100000000E-03 0. -1.
         11    1    4    4    0    0  0.34395491421E-01 -0.25473221647E-01 -0.35893251468E-02  0.42954385424E-01  0.51100000000E-03 0.  1.
</event>
<event>
 8    1  0.1114333E+005  0.1043930E+01  0.7957747E-01            NaN
         13   -1    0    0    0    0  0.00000000000E+00  0.00000000000E+00  0.74505805969E-08  0.10566000000E+00  0.10566000000E+00 0. -1.
     999900   -1    0    0    0    0 -0.00000000000E+00 -0.00000000000E+00 -0.74505805969E-08  0.93827000000E+00  0.93827000000E+00 0. -1.
     999902    2    1    2    0    0  0.38284830864E-02 -0.69136056090E-02  0.24504612974E-01  0.10181825480E+01  0.10178569496E+01 0.  0.
     999903    2    3    3    0    0  0.11219922759E+00  0.11843656273E-01  0.62504510350E-01  0.13052267775E+00  0.20010415469E-01 0.  0.
         14    1    1    2    0    0 -0.38284830864E-02  0.69136056090E-02 -0.24504612974E-01  0.25747451956E-01  0.00000000000E+00 0.  1.
     999901    1    3    3    0    0 -0.10837074450E+00 -0.18757261882E-01 -0.37999897376E-01  0.88765987030E+00  0.88000000000E+00 0. -1.
        -11    1    4    4    0    0  0.68168934261E-01 -0.14945939434E-03  0.44786638547E-01  0.81566721460E-01  0.51100000000E-03 0. -1.
         11    1    4    4    0    0  0.44030293324E-01  0.11993115668E-01  0.17717871803E-01  0.48955956286E-01  0.51100000000E-03 0.  1.
</event>
<event>
 8    1  0.1114333E+005  0.1043930E+01  0.7957747E-01            NaN
         13   -1    0    0    0    0  0.00000000000E+00  0.00000000000E+00  0.74505805969E-08  0.10566000000E+00  0.10566000000E+00 0. -1.
     999900   -1    0    0    0    0 -0.00000000000E+00 -0.00000000000E+00 -0.74505805969E-08  0.93827000000E+00  0.93827000000E+00 0. -1.
     999902    2    1    2    0    0  0.12800776406E-01 -0.14877578839E-01 -0.13152041628E-01  0.10203042000E+01  0.10200306280E+01 0.  0.
     999903    2    3    3    0    0  0.78730954035E-01  0.97391368620E-01 -0.31216638295E-01  0.13054162795E+00  0.19570291700E-01 0.  0.
         14    1    1    2    0    0 -0.12800776406E-01  0.14877578839E-01  0.13152041628E-01  0.23625800044E-01  0.00000000000E+00 0. -1.
     999901    1    3    3    0    0 -0.65930177629E-01 -0.11226894746E+00  0.18064596667E-01  0.88976257200E+00  0.88000000000E+00 0. -1.
        -11    1    4    4    0    0  0.68693322050E-01  0.72409145510E-01 -0.25421148949E-01  0.10299685812E+00  0.51100000000E-03 0.  1.
         11    1    4    4    0    0  0.10037631985E-01  0.24982223109E-01 -0.57954893460E-02  0.27544769832E-01  0.51100000000E-03 0. -1.
</event>
<event>
 8    1  0.1114333E+005  0.1043930E+01  0.7957747E-01            NaN
         13   -1    0    0    0    0  0.00000000000E+00  0.00000000000E+00  0.74505805969E-08  0.10566000000E+00  0.10566000000E+00 0. -1.
     999900   -1    0    0    0    0 -0.00000000000E+00 -0.00000000000E+00 -0.74505805969E-08  0.93827000000E+00  0.93827000000E+00 0. -1.
     999902    2    1    2    0    0  0.18076382051E-01  0.14300504059E-01 -0.37278895432E-02  0.10205813991E+01  0.10203142825E+01 0.  0.
     999903    2    3    3    0    0  0.79637754366E-02 -0.12009374819E+00 -0.43619307682E-01  0.12942742524E+00  0.19049523084E-01 0.  0.
         14    1    1    2    0    0 -0.18076382051E-01 -0.14300504059E-01  0.37278895432E-02  0.23348600918E-01  0.00000000000E+00 0. -1.
     999901    1    3    3    0    0  0.10112606614E-01  0.13439425224E+00  0.39891418139E-01  0.89115397384E+00  0.88000000000E+00 0.  1.
        -11    1    4    4    0    0  0.80486759022E-02 -0.96681466733E-01 -0.42680950656E-01  0.10599062158E+00  0.51100000000E-03 0.  1.
         11    1    4    4    0    0 -0.84900465602E-04 -0.23412281453E-01 -0.93835702578E-03  0.23436803661E-01  0.51100000000E-03 0. -1.
</event>
<event>
 8    1  0.1114333E+005  0.1043930E+01  0.7957747E-01            NaN
         13   -1    0    0    0    0  0.00000000000E+00  0.00000000000E+00  0.74505805969E-08  0.10566000000E+00  0.10566000000E+00 0. -1.
     999900   -1    0    0    0    0 -0.00000000000E+00 -0.00000000000E+00 -0.74505805969E-08  0.93827000000E+00  0.93827000000E+00 0.  1.
     999902    2    1    2    0    0 -0.13001017424E-01  0.15284105626E-01 -0.13293223559E-01  0.10198605145E+01  0.10195764459E+01 0.  0.
     999903    2    3    3    0    0 -0.84126897073E-01 -0.23189258937E-01  0.93689400241E-01  0.12970076912E+00  0.20724604952E-01 0.  0.
         14    1    1    2    0    0  0.13001017424E-01 -0.15284105626E-01  0.13293223559E-01  0.24069485484E-01  0.00000000000E+00 0. -1.
     999901    1    3    3    0    0  0.71125879649E-01  0.38473364563E-01 -0.10698262380E+00  0.89015974540E+00  0.88000000000E+00 0.  1.
        -11    1    4    4    0    0 -0.24173273851E-01 -0.10546935264E-01  0.16369087335E-01  0.31045018172E-01  0.51100000000E-03 0.  1.
         11    1    4    4    0    0 -0.59953623222E-01 -0.12642323673E-01  0.77320312906E-01  0.98655750943E-01  0.51100000000E-03 0. -1.
</event>
<event>
 8    1  0.1114333E+005  0.1043930E+01  0.7957747E-01            NaN
         13   -1    0    0    0    0  0.00000000000E+00  0.00000000000E+00  0.74505805969E-08  0.10566000000E+00  0.10566000000E+00 0.  1.
     999900   -1    0    0    0    0 -0.00000000000E+00 -0.00000000000E+00 -0.74505805969E-08  0.93827000000E+00  0.93827000000E+00 0.  1.
     999902    2    1    2    0    0  0.30277777624E-03  0.13780609173E-02  0.23134075207E-01  0.10207529389E+01  0.10204897775E+01 0.  0.
     999903    2    3    3    0    0 -0.38545718757E-01 -0.29404311512E-01 -0.11707756168E+00  0.12827545275E+00  0.19926122535E-01 0.  0.
         14    1    1    2    0    0 -0.30277777624E-03 -0.13780609173E-02 -0.23134075207E-01  0.23177061116E-01  0.00000000000E+00 0. -1.
     999901    1    3    3    0    0  0.38848496533E-01  0.30782372430E-01  0.14021163689E+00  0.89247748613E+00  0.88000000000E+00 0. -1.
        -11    1    4    4    0    0 -0.14192360862E-01 -0.23288647921E-01 -0.59010049326E-01  0.65009470627E-01  0.51100000000E-03 0. -1.
         11    1    4    4    0    0 -0.24353357895E-01 -0.61156635914E-02 -0.58067512355E-01  0.63265982124E-01  0.51100000000E-03 0.  1.
</event>
<event>
 8    1  0.1114333E+005  0.1043930E+01  0.7957747E-01            NaN
         13   -1    0    0    0    0  0.00000000000E+00  0.00000000000E+00  0.74505805969E-08  0.10566000000E+00  0.10566000000E+00 0.  1.
     999900   -1    0    0    0    0 -0.00000000000E+00 -0.00000000000E+00 -0.74505805969E-08  0.93827000000E+00  0.93827000000E+00 0.  1.
     999902    2    1    2    0    0 -0.19812517709E-01 -0.88945007439E-02 -0.10179836088E-01  0.10199450659E+01  0.10196630131E+01 0.  0.
     999903    2    3    3    0    0 -0.56155646071E-01  0.10330864493E+00 -0.53650030549E-01  0.13101310748E+00  0.21447047619E-01 0.  0.
         14    1    1    2    0    0  0.19812517709E-01  0.88945007439E-02  0.10179836088E-01  0.23984934109E-01  0.00000000000E+00 0. -1.
     999901    1    3    3    0    0  0.36343128362E-01 -0.11220314567E+00  0.43470194461E-01  0.88893195841E+00  0.88000000000E+00 0. -1.
        -11    1    4    4    0    0 -0.37783320259E-01  0.54261204335E-01 -0.21381439071E-01  0.69493054642E-01  0.51100000000E-03 0. -1.
         11    1    4    4    0    0 -0.18372325812E-01  0.49047440591E-01 -0.32268591478E-01  0.61520052839E-01  0.51100000000E-03 0.  1.
</event>
<event>
 8    1  0.1155350E+005  0.1043930E+01  0.7957747E-01            NaN
         13   -1    0    0    0    0  0.00000000000E+00  0.00000000000E+00  0.74505805969E-08  0.10566000000E+00  0.10566000000E+00 0. -1.
     999900   -1    0    0    0    0 -0.00000000000E+00 -0.00000000000E+00 -0.74505805969E-08  0.93827000000E+00  0.93827000000E+00 0.  1.
     999902    2    1    2    0    0  0.18739627402E-01 -0.67350187415E-02  0.15036947586E-01  0.10189771664E+01  0.10186715966E+01 0.  0.
     999903    2    3    3    0    0 -0.65864576713E-02  0.93391817728E-01 -0.84197625452E-01  0.12739750396E+00  0.19377069967E-01 0.  0.
         14    1    1    2    0    0 -0.18739627402E-01  0.67350187415E-02 -0.15036947586E-01  0.24952833613E-01  0.00000000000E+00 0.  1.
     999901    1    3    3    0    0  0.25326085074E-01 -0.10012683647E+00  0.99234573038E-01  0.89157966243E+00  0.88000000000E+00 0. -1.
        -11    1    4    4    0    0 -0.84829445429E-03  0.44093638039E-01 -0.27197526676E-01  0.51816359360E-01  0.51100000000E-03 0.  1.
         11    1    4    4    0    0 -0.57381632170E-02  0.49298179689E-01 -0.57000098776E-01  0.75581144601E-01  0.51100000000E-03 0. -1.
</event>
<event>
 8    1  0.1114333E+005  0.1043930E+01  0.7957747E-01            NaN
         13   -1    0    0    0    0  0.00000000000E+00  0.00000000000E+00  0.74505805969E-08  0.10566000000E+00  0.10566000000E+00 0.  1.
     999900   -1    0    0    0    0 -0.00000000000E+00 -0.00000000000E+00 -0.74505805969E-08  0.93827000000E+00  0.93827000000E+00 0.  1.
     999902    2    1    2    0    0  0.29521782098E-02 -0.23270238174E-01 -0.65557062740E-02  0.10195743718E+01  0.10192834262E+01 0.  0.
     999903    2    3    3    0    0 -0.10444387501E+00 -0.72279571185E-01 -0.27501943183E-01  0.13144455481E+00  0.19709253464E-01 0.  0.
         14    1    1    2    0    0 -0.29521782098E-02  0.23270238174E-01  0.65557062740E-02  0.24355628212E-01  0.00000000000E+00 0.  1.
     999901    1    3    3    0    0  0.10739605322E+00  0.49009333011E-01  0.20946236909E-01  0.88812981698E+00  0.88000000000E+00 0. -1.
        -11    1    4    4    0    0 -0.70872464797E-01 -0.38188083504E-01 -0.13891351394E-01  0.81697409706E-01  0.51100000000E-03 0. -1.
         11    1    4    4    0    0 -0.33571410213E-01 -0.34091487680E-01 -0.13610591788E-01  0.49747145102E-01  0.51100000000E-03 0.  1.
</event>
<event>
 8    1  0.1114333E+005  0.1043930E+01  0.7957747E-01            NaN
         13   -1    0    0    0    0  0.00000000000E+00  0.00000000000E+00  0.74505805969E-08  0.10566000000E+00  0.10566000000E+00 0. -1.
     999900   -1    0    0    0    0 -0.00000000000E+00 -0.00000000000E+00 -0.74505805969E-08  0.93827000000E+00  0.93827000000E+00 0. -1.
     999902    2    1    2    0    0  0.21567130999E-01  0.44902921661E-02 -0.74803986904E-02  0.10206649999E+01  0.10203998147E+01 0.  0.
     999903    2    3    3    0    0 -0.11739707675E+00 -0.19698369305E-01 -0.44297570540E-01  0.12867192456E+00  0.20593446326E-01 0.  0.
         14    1    1    2    0    0 -0.21567130999E-01 -0.44902921661E-02  0.74803986904E-02  0.23265000061E-01  0.00000000000E+00 0.  1.
     999901    1    3    3    0    0  0.13896420775E+00  0.24188661472E-01  0.36817171850E-01  0.89199307538E+00  0.88000000000E+00 0. -1.
        -11    1    4    4    0    0 -0.10687385038E+00 -0.23455963192E-01 -0.42293504889E-01  0.11730815735E+00  0.51100000000E-03 0.  1.
         11    1    4    4    0    0 -0.10523226370E-01  0.37575938868E-02 -0.20040656511E-02  0.11363767209E-01  0.51100000000E-03 0. -1.
</event>
<event>
 8    1  0.1114333E+005  0.1043930E+01  0.7957747E-01            NaN
         13   -1    0    0    0    0  0.00000000000E+00  0.00000000000E+00  0.74505805969E-08  0.10566000000E+00  0.10566000000E+00 0. -1.
     999900   -1    0    0    0    0 -0.00000000000E+00 -0.00000000000E+00 -0.74505805969E-08  0.93827000000E+00  0.93827000000E+00 0. -1.
     999902    2    1    2    0    0  0.21533080445E-02  0.20116453143E-01 -0.13970618604E-01  0.10193436907E+01  0.10190471398E+01 0.  0.
     999903    2    3    3    0    0  0.70733180878E-01 -0.88642951065E-01  0.54284258663E-01  0.12738487142E+00  0.20478502797E-01 0.  0.
         14    1    1    2    0    0 -0.21533080445E-02 -0.20116453143E-01  0.13970618604E-01  0.24586309336E-01  0.00000000000E+00 0.  1.
     999901    1    3    3    0    0 -0.68579872833E-01  0.10875940421E+00 -0.68254877267E-01  0.89195881925E+00  0.88000000000E+00 0. -1.
        -11    1    4    4    0    0  0.23131652945E-01 -0.16389652074E-01  0.17823785268E-01  0.33490931688E-01  0.51100000000E-03 0. -1.
         11    1    4    4    0    0  0.47601527933E-01 -0.72253298991E-01  0.36460473395E-01  0.93893939729E-01  0.51100000000E-03 0.  1.
</event>
<event>
 8    1  0.1114333E+005  0.1043930E+01  0.7957747E-01            NaN
         13   -1    0    0    0    0  0.00000000000E+00  0.00000000000E+00  0.74505805969E-08  0.10566000000E+00  0.10566000000E+00 0. -1.
     999900   -1    0    0    0    0 -0.00000000000E+00 -0.00000000000E+00 -0.74505805969E-08  0.93827000000E+00  0.93827000000E+00 0. -1.
     999902    2    1    2    0    0  0.20045955276E-01  0.12782092402E-01 -0.10498344211E-01  0.10179408207E+01  0.10176090001E+01 0.  0.
     999903    2    3    3    0    0  0.10432304882E+00  0.52250181201E-01  0.55194833025E-01  0.13059874909E+00  0.19904364358E-01 0.  0.
         14    1    1    2    0    0 -0.20045955276E-01 -0.12782092402E-01  0.10498344211E-01  0.25989179292E-01  0.00000000000E+00 0. -1.
     999901    1    3    3    0    0 -0.84277093543E-01 -0.39468088799E-01 -0.65693177235E-01  0.88734207162E+00  0.88000000000E+00 0.  1.
        -11    1    4    4    0    0  0.29480327469E-01  0.25110721014E-01  0.19203493547E-01  0.43228154054E-01  0.51100000000E-03 0. -1.
         11    1    4    4    0    0  0.74842721350E-01  0.27139460187E-01  0.35991339478E-01  0.87370595035E-01  0.51100000000E-03 0.  1.
</event>
<event>
 8    1  0.1114333E+005  0.1043930E+01  0.7957747E-01            NaN
         13   -1    0    0    0    0  0.00000000000E+00  0.00000000000E+00  0.74505805969E-08  0.10566000000E+00  0.10566000000E+00 0.  1.
     999900   -1    0    0    0    0 -0.00000000000E+00 -0.00000000000E+00 -0.74505805969E-08  0.93827000000E+00  0.93827000000E+00 0. -1.
     999902    2    1    2    0    0  0.13054515850E-01 -0.16179366751E-01  0.13936464378E-01  0.10189016694E+01  0.10185942247E+01 0.  0.
     999903    2    3    3    0    0 -0.34900354409E-01 -0.34139049828E-01 -0.11640219007E+00  0.12782906595E+00  0.20181446637E-01 0.  0.
         14    1    1    2    0    0 -0.13054515850E-01  0.16179366751E-01 -0.13936464378E-01  0.25028330586E-01  0.00000000000E+00 0. -1.
     999901    1    3    3    0    0  0.47954870259E-01  0.17959683077E-01  0.13033865445E+00  0.89107260346E+00  0.88000000000E+00 0.  1.
        -11    1    4    4    0    0 -0.20741825783E-01 -0.23564729517E-01 -0.49395550160E-01  0.58529490948E-01  0.51100000000E-03 0.  1.
         11    1    4    4    0    0 -0.14158528626E-01 -0.10574320311E-01 -0.67006639909E-01  0.69299575004E-01  0.51100000000E-03 0. -1.
</event>
<event>
 8    1  0.1114333E+005  0.1043930E+01  0.7957747E-01            NaN
         13   -1    0    0    0    0  0.00000000000E+00  0.00000000000E+00  0.74505805969E-08  0.10566000000E+00  0.10566000000E+00 0.  1.
     999900   -1    0    0    0    0 -0.00000000000E+00 -0.00000000000E+00 -0.74505805969E-08  0.93827000000E+00  0.93827000000E+00 0. -1.
     999902    2    1    2    0    0 -0.62270692222E-02 -0.23874055008E-02  0.22188949075E-01  0.10207605037E+01  0.10204975161E+01 0.  0.
     999903    2    3    3    0    0 -0.76018523653E-01 -0.95988070646E-01  0.47659976775E-01  0.13268353360E+00  0.18464047724E-01 0.  0.
         14    1    1    2    0    0  0.62270692222E-02  0.23874055008E-02 -0.22188949075E-01  0.23169496265E-01  0.00000000000E+00 0. -1.
     999901    1    3    3    0    0  0.69791454431E-01  0.93600665145E-01 -0.25471027700E-01  0.88807697013E+00  0.88000000000E+00 0. -1.
        -11    1    4    4    0    0 -0.16567936979E-01 -0.10537697481E-01  0.94220180637E-02  0.21784745795E-01  0.51100000000E-03 0. -1.
         11    1    4    4    0    0 -0.59450586674E-01 -0.85450373165E-01  0.38237958711E-01  0.11089878781E+00  0.51100000000E-03 0.  1.
</event>
<event>
 8    1  0.1114333E+005  0.1043930E+01  0.7957747E-01            NaN
         13   -1    0    0    0    0  0.00000000000E+00  0.00000000000E+00  0.74505805969E-08  0.10566000000E+00  0.10566000000E+00 0.  1.
     999900   -1    0    0    0    0 -0.00000000000E+00 -0.00000000000E+00 -0.74505805969E-08  0.93827000000E+00  0.93827000000E+00 0.  1.
     999902    2    1    2    0    0 -0.17653314266E-01  0.47233461725E-02 -0.15330863875E-01  0.10200765958E+01  0.10197976645E+01 0.  0.
     999903    2    3    3    0    0  0.57458227947E-01 -0.10661078334E+00  0.37339512085E-01  0.12833044323E+00  0.20178117174E-01 0.  0.
         14    1    1    2    0    0  0.17653314266E-01 -0.47233461725E-02  0.15330863875E-01  0.23853404176E-01  0.00000000000E+00 0.  1.
     999901    1    3    3    0    0 -0.75111542214E-01  0.11133412951E+00 -0.52670375959E-01  0.89174615260E+00  0.88000000000E+00 0. -1.
        -11    1    4    4    0    0  0.26957993144E-01 -0.37521596840E-01  0.22379996496E-01  0.51339351261E-01  0.51100000000E-03 0.  1.
         11    1    4    4    0    0  0.30500234804E-01 -0.69089186501E-01  0.14959515589E-01  0.76991091966E-01  0.51100000000E-03 0. -1.
</event>
<event>
 8    1  0.1114333E+005  0.1043930E+01  0.7957747E-01            NaN
         13   -1    0    0    0    0  0.00000000000E+00  0.00000000000E+00  0.74505805969E-08  0.10566000000E+00  0.10566000000E+00 0.  1.
     999900   -1    0    0    0    0 -0.00000000000E+00 -0.00000000000E+00 -0.74505805969E-08  0.93827000000E+00  0.93827000000E+00 0.  1.
     999902    2    1    2    0    0  0.12873674184E-01  0.10555478475E-01 -0.16762803532E-01  0.10203049879E+01  0.10200314344E+01 0.  0.
     999903    2    3    3    0    0  0.12313972665E+00 -0.39741855910E-01  0.12517539120E-01  0.13151605763E+00  0.19924287650E-01 0.  0.
         14    1    1    2    0    0 -0.12873674184E-01 -0.10555478475E-01  0.16762803532E-01  0.23625012065E-01  0.00000000000E+00 0.  1.
     999901    1    3    3    0    0 -0.11026605246E+00  0.50297334385E-01 -0.29280342652E-01  0.88878893031E+00  0.88000000000E+00 0. -1.
        -11    1    4    4    0    0  0.75554104134E-01 -0.33725414375E-01  0.43229219278E-02  0.82853937754E-01  0.51100000000E-03 0. -1.
         11    1    4    4    0    0  0.47585622512E-01 -0.60164415346E-02  0.81946171919E-02  0.48662119873E-01  0.51100000000E-03 0.  1.
</event>
<event>
 8    1  0.1114333E+005  0.1043930E+01  0.7957747E-01            NaN
         13   -1    0    0    0    0  0.00000000000E+00  0.00000000000E+00  0.74505805969E-08  0.10566000000E+00  0.10566000000E+00 0.  1.
     999900   -1    0    0    0    0 -0.00000000000E+00 -0.00000000000E+00 -0.74505805969E-08  0.93827000000E+00  0.93827000000E+00 0.  1.
     999902    2    1    2    0    0 -0.13224356416E-01 -0.15695329619E-01  0.11982210864E-01  0.10201644714E+01  0.10198876155E+01 0.  0.
     999903    2    3    3    0    0  0.85351726579E-01 -0.20834350639E-01  0.94773161859E-01  0.13078379064E+00  0.20086320907E-01 0.  0.
         14    1    1    2    0    0  0.13224356416E-01  0.15695329619E-01 -0.11982210864E-01  0.23765528642E-01  0.00000000000E+00 0. -1.
     999901    1    3    3    0    0 -0.98576082995E-01  0.51390210201E-02 -0.82790950995E-01  0.88938068072E+00  0.88000000000E+00 0. -1.
        -11    1    4    4    0    0  0.47594781678E-01 -0.21768447502E-01  0.56161205271E-01  0.76768943253E-01  0.51100000000E-03 0.  1.
         11    1    4    4    0    0  0.37756944900E-01  0.93409686289E-03  0.38611956588E-01  0.54014847382E-01  0.51100000000E-03 0. -1.
</event>
<event>
 8    1  0.1114333E+005  0.1043930E+01  0.7957747E-01            NaN
         13   -1    0    0    0    0  0.00000000000E+00  0.00000000000E+00  0.74505805969E-08  0.10566000000E+00  0.10566000000E+00 0. -1.
     999900   -1    0    0    0    0 -0.00000000000E+00 -0.00000000000E+00 -0.74505805969E-08  0.93827000000E+00  0.93827000000E+00 0. -1.
     999902    2    1    2    0    0 -0.10504344624E-02  0.11709021358E-01  0.14823372426E-01  0.10250107779E+01  0.10248361615E+01 0.  0.
     999903    2    3    3    0    0  0.18632005232E-01  0.29584145216E-01  0.13071262480E+00  0.13701458576E+00  0.21559989875E-01 0.  0.
         14    1    1    2    0    0  0.10504344624E-02 -0.11709021358E-01 -0.14823372426E-01  0.18919222071E-01  0.00000000000E+00 0.  1.
     999901    1    3    3    0    0 -0.19682439694E-01 -0.17875123858E-01 -0.11588925237E+00  0.88799619217E+00  0.88000000000E+00 0. -1.
        -11    1    4    4    0    0  0.22009693068E-01  0.30168268078E-01  0.11454751894E+00  0.12048214060E+00  0.51100000000E-03 0. -1.
         11    1    4    4    0    0 -0.33776878359E-02 -0.58412286190E-03  0.16165105856E-01  0.16532445160E-01  0.51100000000E-03 0.  1.
</event>
<event>
 8    1  0.1114333E+005  0.1043930E+01  0.7957747E-01            NaN
         13   -1    0    0    0    0  0.00000000000E+00  0.00000000000E+00  0.74505805969E-08  0.10566000000E+00  0.10566000000E+00 0. -1.
     999900   -1    0    0    0    0 -0.00000000000E+00 -0.00000000000E+00 -0.74505805969E-08  0.93827000000E+00  0.93827000000E+00 0. -1.
     999902    2    1    2    0    0 -0.17792620894E-01  0.13125967144E-01  0.83393158225E-02  0.10202992455E+01  0.10200255574E+01 0.  0.
     999903    2    3    3    0    0  0.10580782003E+00  0.52701465197E-01  0.49632070739E-01  0.12982275467E+00  0.20441770246E-01 0.  0.
         14    1    1    2    0    0  0.17792620894E-01 -0.13125967144E-01 -0.83393158225E-02  0.23630754540E-01  0.00000000000E+00 0.  1.
     999901    1    3    3    0    0 -0.12360044092E+00 -0.39575498054E-01 -0.41292754917E-01  0.89047649079E+00  0.88000000000E+00 0. -1.
        -11    1    4    4    0    0  0.44561904113E-01  0.21100200158E-01  0.31663938643E-01  0.58599043305E-01  0.51100000000E-03 0. -1.
         11    1    4    4    0    0  0.61245915916E-01  0.31601265039E-01  0.17968132097E-01  0.71223711364E-01  0.51100000000E-03 0.  1.
</event>
<event>
 8    1  0.1114333E+005  0.1043930E+01  0.7957747E-01            NaN
         13   -1    0    0    0    0  0.00000000000E+00  0.00000000000E+00  0.74505805969E-08  0.10566000000E+00  0.10566000000E+00 0.  1.
     999900   -1    0    0    0    0 -0.00000000000E+00 -0.00000000000E+00 -0.74505805969E-08  0.93827000000E+00  0.93827000000E+00 0. -1.
     999902    2    1    2    0    0  0.12232251541E-01  0.11436619800E-01  0.17010417475E-01  0.10200599654E+01  0.10197806403E+01 0.  0.
     999903    2    3    3    0    0 -0.65955075691E-01  0.38783450441E-01 -0.10093650172E+00  0.12833546586E+00  0.20678161929E-01 0.  0.
         14    1    1    2    0    0 -0.12232251541E-01 -0.11436619800E-01 -0.17010417475E-01  0.23870034622E-01  0.00000000000E+00 0. -1.
     999901    1    3    3    0    0  0.78187327231E-01 -0.27346830641E-01  0.11794691920E+00  0.89172449951E+00  0.88000000000E+00 0.  1.
        -11    1    4    4    0    0 -0.13082328911E-01  0.17010486115E-01 -0.20807594646E-01  0.29895168231E-01  0.51100000000E-03 0.  1.
         11    1    4    4    0    0 -0.52872746779E-01  0.21772964326E-01 -0.80128907078E-01  0.98440297633E-01  0.51100000000E-03 0. -1.
</event>
<event>
 8    1  0.1114333E+005  0.1043930E+01  0.7957747E-01            NaN
         13   -1    0    0    0    0  0.00000000000E+00  0.00000000000E+00  0.74505805969E-08  0.10566000000E+00  0.10566000000E+00 0. -1.
     999900   -1    0    0    0    0 -0.00000000000E+00 -0.00000000000E+00 -0.74505805969E-08  0.93827000000E+00  0.93827000000E+00 0. -1.
     999902    2    1    2    0    0  0.22308229822E-01 -0.12649894032E-01 -0.11296774694E-01  0.10159069014E+01  0.10155203288E+01 0.  0.
     999903    2    3    3    0    0  0.27866278466E-01  0.11928415338E+00 -0.23870315788E-01  0.12596556698E+00  0.17096589314E-01 0.  0.
         14    1    1    2    0    0 -0.22308229822E-01  0.12649894032E-01  0.11296774694E-01  0.28023098602E-01  0.00000000000E+00 0.  1.
     999901    1    3    3    0    0 -0.55580486445E-02 -0.13193404741E+00  0.12573541094E-01  0.88994133442E+00  0.88000000000E+00 0.  1.
        -11    1    4    4    0    0  0.25925075263E-01  0.80856066738E-01 -0.12406137873E-01  0.85813672767E-01  0.51100000000E-03 0.  1.
         11    1    4    4    0    0  0.19412032029E-02  0.38428086639E-01 -0.11464177915E-01  0.40151894213E-01  0.51100000000E-03 0. -1.
</event>
<event>
 8    1  0.1114333E+005  0.1043930E+01  0.7957747E-01            NaN
         13   -1    0    0    0    0  0.00000000000E+00  0.00000000000E+00  0.74505805969E-08  0.10566000000E+00  0.10566000000E+00 0. -1.
     999900   -1    0    0    0    0 -0.00000000000E+00 -0.00000000000E+00 -0.74505805969E-08  0.93827000000E+00  0.93827000000E+00 0. -1.
     999902    2    1    2    0    0  0.49417675009E-02  0.55326777760E-02 -0.21755834324E-01  0.10209441801E+01  0.10206853927E+01 0.  0.
     999903    2    3    3    0    0  0.98648365421E-01 -0.76960744742E-01  0.31399769107E-01  0.13054448927E+00  0.20036515351E-01 0.  0.
         14    1    1    2    0    0 -0.49417675009E-02 -0.55326777760E-02  0.21755834324E-01  0.22985819901E-01  0.00000000000E+00 0. -1.
     999901    1    3    3    0    0 -0.93706597920E-01  0.82493422518E-01 -0.53155603431E-01  0.89039969083E+00  0.88000000000E+00 0. -1.
        -11    1    4    4    0    0  0.13885533391E-01 -0.45848385517E-02  0.79226711349E-02  0.16639069115E-01  0.51100000000E-03 0. -1.
         11    1    4    4    0    0  0.84762832030E-01 -0.72375906190E-01  0.23477097972E-01  0.11390542016E+00  0.51100000000E-03 0.  1.
</event>
<event>
 8    1  0.1114333E+005  0.1043930E+01  0.7957747E-01            NaN
         13   -1    0    0    0    0  0.00000000000E+00  0.00000000000E+00  0.74505805969E-08  0.10566000000E+00  0.10566000000E+00 0. -1.
     999900   -1    0    0    0    0 -0.00000000000E+00 -0.00000000000E+00 -0.74505805969E-08  0.93827000000E+00  0.93827000000E+00 0. -1.
     999902    2    1    2    0    0 -0.11432070918E-01  0.17854166898E-01  0.78183710815E-02  0.10213337515E+01  0.10210837583E+01 0.  0.
     999903    2    3    3    0    0 -0.11642691098E+00  0.61711371839E-01 -0.12254692262E-01  0.13378076785E+00  0.19585641427E-01 0.  0.
         14    1    1    2    0    0  0.11432070918E-01 -0.17854166898E-01 -0.78183710815E-02  0.22596248527E-01  0.00000000000E+00 0.  1.
     999901    1    3    3    0    0  0.10499484006E+00 -0.43857204940E-01  0.20073063343E-01  0.88755298362E+00  0.88000000000E+00 0. -1.
        -11    1    4    4    0    0 -0.32772994348E-01  0.27167435119E-01 -0.10748127823E-02  0.42585854846E-01  0.51100000000E-03 0. -1.
         11    1    4    4    0    0 -0.83653916631E-01  0.34543936720E-01 -0.11179879479E-01  0.91194913005E-01  0.51100000000E-03 0.  1.
</event>
<event>
 8    1  0.1114333E+005  0.1043930E+01  0.7957747E-01            NaN
         13   -1    0    0    0    0  0.00000000000E+00  0.00000000000E+00  0.74505805969E-08  0.10566000000E+00  0.10566000000E+00 0.  1.
     999900   -1    0    0    0    0 -0.00000000000E+00 -0.00000000000E+00 -0.74505805969E-08  0.93827000000E+00  0.93827000000E+00 0.  1.
     999902    2    1    2    0    0 -0.67257985879E-02  0.23115152362E-01  0.33739237902E-03  0.10198538610E+01  0.10195696334E+01 0.  0.
     999903    2    3    3    0    0 -0.12749577257E+00  0.23288402046E-01  0.10139160362E-01  0.13155127107E+00  0.20134861652E-01 0.  0.
         14    1    1    2    0    0  0.67257985879E-02 -0.23115152362E-01 -0.33739237902E-03  0.24076138996E-01  0.00000000000E+00 0.  1.
     999901    1    3    3    0    0  0.12076997398E+00 -0.17324968452E-03 -0.98017679835E-02  0.88830258994E+00  0.88000000000E+00 0. -1.
        -11    1    4    4    0    0 -0.20035584570E-01 -0.25520977984E-02 -0.22753177310E-02  0.20331651286E-01  0.51100000000E-03 0. -1.
         11    1    4    4    0    0 -0.10746018800E+00  0.25840499845E-01  0.12414478093E-01  0.11121961978E+00  0.51100000000E-03 0.  1.
</event>
<event>
 8    1  0.1114333E+005  0.1043930E+01  0.7957747E-01            NaN
         13   -1    0    0    0    0  0.00000000000E+00  0.00000000000E+00  0.74505805969E-08  0.10566000000E+00  0.10566000000E+00 0.  1.
     999900   -1    0    0    0    0 -0.00000000000E+00 -0.00000000000E+00 -0.74505805969E-08  0.93827000000E+00  0.93827000000E+00 0. -1.
     999902    2    1    2    0    0  0.10987281123E-01  0.12549378591E-01 -0.17015475541E-01  0.10201028378E+01  0.10198245271E+01 0.  0.
     999903    2    3    3    0    0  0.10046824844E+00  0.54512699378E-01  0.61121134376E-01  0.13112978221E+00  0.19842463968E-01 0.  0.
         14    1    1    2    0    0 -0.10987281123E-01 -0.12549378591E-01  0.17015475541E-01  0.23827162176E-01  0.00000000000E+00 0.  1.
     999901    1    3    3    0    0 -0.89480967317E-01 -0.41963320787E-01 -0.78136609916E-01  0.88897305562E+00  0.88000000000E+00 0. -1.
        -11    1    4    4    0    0  0.77460526185E-01  0.36367146417E-01  0.37244314621E-01  0.93327930160E-01  0.51100000000E-03 0. -1.
         11    1    4    4    0    0  0.23007722255E-01  0.18145552961E-01  0.23876819754E-01  0.37801852047E-01  0.51100000000E-03 0.  1.
</event>
<event>
 8    1  0.1114333E+005  0.1043930E+01  0.7957747E-01            NaN
         13   -1    0    0    0    0  0.00000000000E+00  0.00000000000E+00  0.74505805969E-08  0.10566000000E+00  0.10566000000E+00 0.  1.
     999900   -1    0    0    0    0 -0.00000000000E+00 -0.00000000000E+00 -0.74505805969E-08  0.93827000000E+00  0.93827000000E+00 0.  1.
     999902    2    1    2    0    0  0.91390331017E-02  0.24310470058E-01 -0.22522653161E-02  0.10178609843E+01  0.10175270954E+01 0.  0.
     999903    2    3    3    0    0  0.57058498656E-01 -0.85557421904E-01 -0.71794636051E-01  0.12701679467E+00  0.20076146338E-01 0.  0.
         14    1    1    2    0    0 -0.91390331017E-02 -0.24310470058E-01  0.22522653161E-02  0.26069015700E-01  0.00000000000E+00 0.  1.
     999901    1    3    3    0    0 -0.47919465554E-01  0.10986789196E+00  0.69542370735E-01  0.89084418963E+00  0.88000000000E+00 0. -1.
        -11    1    4    4    0    0  0.32332710496E-01 -0.33609609285E-01 -0.25405142778E-01  0.53110191158E-01  0.51100000000E-03 0.  1.
         11    1    4    4    0    0  0.24725788159E-01 -0.51947812620E-01 -0.46389493274E-01  0.73906603516E-01  0.51100000000E-03 0. -1.
</event>
<event>
 8    1  0.1114333E+005  0.1043930E+01  0.7957747E-01            NaN
         13   -1    0    0    0    0  0.00000000000E+00  0.00000000000E+00  0.74505805969E-08  0.10566000000E+00  0.10566000000E+00 0. -1.
     999900   -1    0    0    0    0 -0.00000000000E+00 -0.00000000000E+00 -0.74505805969E-08  0.93827000000E+00  0.93827000000E+00 0.  1.
     999902    2    1    2    0    0  0.49834891952E-02  0.22051594318E-01 -0.24644142988E-02  0.10211883792E+01  0.10209351226E+01 0.  0.
     999903    2    3    3    0    0  0.22676950050E-01 -0.12227291925E+00 -0.27795426337E-01  0.12889678793E+00  0.19413535690E-01 0.  0.
         14    1    1    2    0    0 -0.49834891952E-02 -0.22051594318E-01  0.24644142988E-02  0.22741620751E-01  0.00000000000E+00 0.  1.
     999901    1    3    3    0    0 -0.17693460855E-01  0.14432451357E+00  0.25331012038E-01  0.89229159132E+00  0.88000000000E+00 0.  1.
        -11    1    4    4    0    0  0.54613902471E-02 -0.42535533005E-01 -0.55102124236E-03  0.42891293952E-01  0.51100000000E-03 0. -1.
         11    1    4    4    0    0  0.17215559803E-01 -0.79737386242E-01 -0.27244405094E-01  0.86005493976E-01  0.51100000000E-03 0.  1.
</event>
<event>
 8    1  0.1114333E+005  0.1043930E+01  0.7957747E-01            NaN
         13   -1    0    0    0    0  0.00000000000E+00  0.00000000000E+00  0.74505805969E-08  0.10566000000E+00  0.10566000000E+00 0. -1.
     999900   -1    0    0    0    0 -0.00000000000E+00 -0.00000000000E+00 -0.74505805969E-08  0.93827000000E+00  0.93827000000E+00 0. -1.
     999902    2    1    2    0    0  0.50157770681E-02 -0.68903903334E-02 -0.22547646976E-01  0.10198253971E+01  0.10195404890E+01 0.  0.
     999903    2    3    3    0    0 -0.38664386957E-01  0.74814447872E-01  0.93376824431E-01  0.12740054287E+00  0.20482444994E-01 0.  0.
         14    1    1    2    0    0 -0.50157770681E-02  0.68903903334E-02  0.22547646976E-01  0.24104602936E-01  0.00000000000E+00 0. -1.
     999901    1    3    3    0    0  0.43680164025E-01 -0.81704838206E-01 -0.11592447141E+00  0.89242485420E+00  0.88000000000E+00 0. -1.
        -11    1    4    4    0    0 -0.92867672666E-02  0.35466868280E-01  0.49098721448E-01  0.61278775777E-01  0.51100000000E-03 0.  1.
         11    1    4    4    0    0 -0.29377619691E-01  0.39347579592E-01  0.44278102983E-01  0.66121767091E-01  0.51100000000E-03 0. -1.
</event>
<event>
 8    1  0.1114333E+005  0.1043930E+01  0.7957747E-01            NaN
         13   -1    0    0    0    0  0.00000000000E+00  0.00000000000E+00  0.74505805969E-08  0.10566000000E+00  0.10566000000E+00 0. -1.
     999900   -1    0    0    0    0 -0.00000000000E+00 -0.00000000000E+00 -0.74505805969E-08  0.93827000000E+00  0.93827000000E+00 0. -1.
     999902    2    1    2    0    0 -0.19721787726E-01  0.11592544225E-01 -0.14977328414E-02  0.10210044859E+01  0.10207470701E+01 0.  0.
     999903    2    3    3    0    0  0.31988524070E-01 -0.11629011034E-01 -0.12446635549E+00  0.13064810831E+00  0.20458616435E-01 0.  0.
         14    1    1    2    0    0  0.19721787726E-01 -0.11592544225E-01  0.14977328414E-02  0.22925514091E-01  0.00000000000E+00 0.  1.
     999901    1    3    3    0    0 -0.51710311796E-01  0.23221555259E-01  0.12296862265E+00  0.89035637760E+00  0.88000000000E+00 0.  1.
        -11    1    4    4    0    0  0.27021283709E-01 -0.11064752159E-01 -0.68615321030E-01  0.74571455093E-01  0.51100000000E-03 0.  1.
         11    1    4    4    0    0  0.49672403615E-02 -0.56425887489E-03 -0.55851034459E-01  0.56076653217E-01  0.51100000000E-03 0. -1.
</event>
<event>
 8    1  0.1114333E+005  0.1043930E+01  0.7957747E-01            NaN
         13   -1    0    0    0    0  0.00000000000E+00  0.00000000000E+00  0.74505805969E-08  0.10566000000E+00  0.10566000000E+00 0. -1.
     999900   -1    0    0    0    0 -0.00000000000E+00 -0.00000000000E+00 -0.74505805969E-08  0.93827000000E+00  0.93827000000E+00 0. -1.
     999902    2    1    2    0    0 -0.18175876533E-01 -0.78038388820E-02 -0.14545403684E-01  0.10193773798E+01  0.10190816510E+01 0.  0.
     999903    2    3    3    0    0 -0.67727898061E-01 -0.62073542572E-01  0.89678741860E-01  0.13018489443E+00  0.21578626748E-01 0.  0.
         14    1    1    2    0    0  0.18175876533E-01  0.78038388820E-02  0.14545403684E-01  0.24552620173E-01  0.00000000000E+00 0. -1.
     999901    1    3    3    0    0  0.49552021528E-01  0.54269703690E-01 -0.10422414554E+00  0.88919248540E+00  0.88000000000E+00 0. -1.
        -11    1    4    4    0    0 -0.45731613997E-01 -0.27751722829E-01  0.53939282483E-01  0.75968716947E-01  0.51100000000E-03 0. -1.
         11    1    4    4    0    0 -0.21996284064E-01 -0.34321819742E-01  0.35739459377E-01  0.54216177481E-01  0.51100000000E-03 0.  1.
</event>
<event>
 8    1  0.1114333E+005  0.1043930E+01  0.7957747E-01            NaN
         13   -1    0    0    0    0  0.00000000000E+00  0.00000000000E+00  0.74505805969E-08  0.10566000000E+00  0.10566000000E+00 0. -1.
     999900   -1    0    0    0    0 -0.00000000000E+00 -0.00000000000E+00 -0.74505805969E-08  0.93827000000E+00  0.93827000000E+00 0.  1.
     999902    2    1    2    0    0  0.70667136056E-02  0.10119640288E-01  0.21887164692E-01  0.10188024546E+01  0.10184925370E+01 0.  0.
     999903    2    3    3    0    0  0.85097712178E-01  0.79071397311E-01 -0.53460289192E-01  0.12946538668E+00  0.20233075309E-01 0.  0.
         14    1    1    2    0    0 -0.70667136056E-02 -0.10119640288E-01 -0.21887164692E-01  0.25127545423E-01  0.00000000000E+00 0.  1.
     999901    1    3    3    0    0 -0.78030998572E-01 -0.68951757023E-01  0.75347453883E-01  0.88933706790E+00  0.88000000000E+00 0. -1.
        -11    1    4    4    0    0  0.68828647209E-01  0.66245438370E-01 -0.35087580628E-01  0.10177052725E+00  0.51100000000E-03 0. -1.
         11    1    4    4    0    0  0.16269064968E-01  0.12825958940E-01 -0.18372708564E-01  0.27694859426E-01  0.51100000000E-03 0.  1.
</event>
<event>
 8    1  0.1114333E+005  0.1043930E+01  0.7957747E-01            NaN
         13   -1    0    0    0    0  0.00000000000E+00  0.00000000000E+00  0.74505805969E-08  0.10566000000E+00  0.10566000000E+00 0. -1.
     999900   -1    0    0    0    0 -0.00000000000E+00 -0.00000000000E+00 -0.74505805969E-08  0.93827000000E+00  0.93827000000E+00 0.  1.
     999902    2    1    2    0    0 -0.10309177694E-01  0.15440564677E-01  0.12899841923E-01  0.10213225653E+01  0.10210723218E+01 0.  0.
     999903    2    3    3    0    0 -0.83642299789E-01  0.99565735712E-01  0.25799231745E-01  0.13418042028E+00  0.20722325812E-01 0.  0.
         14    1    1    2    0    0  0.10309177694E-01 -0.15440564677E-01 -0.12899841923E-01  0.22607434705E-01  0.00000000000E+00 0.  1.
     999901    1    3    3    0    0  0.73333122096E-01 -0.84125171035E-01 -0.12899389821E-01  0.88714214501E+00  0.88000000000E+00 0. -1.
        -11    1    4    4    0    0 -0.49049550589E-01  0.73292139633E-01  0.18885055027E-01  0.90191477254E-01  0.51100000000E-03 0.  1.
         11    1    4    4    0    0 -0.34592749201E-01  0.26273596079E-01  0.69141767177E-02  0.43988943030E-01  0.51100000000E-03 0. -1.
</event>
<event>
 8    1  0.1114333E+005  0.1043930E+01  0.7957747E-01            NaN
         13   -1    0    0    0    0  0.00000000000E+00  0.00000000000E+00  0.74505805969E-08  0.10566000000E+00  0.10566000000E+00 0. -1.
     999900   -1    0    0    0    0 -0.00000000000E+00 -0.00000000000E+00 -0.74505805969E-08  0.93827000000E+00  0.93827000000E+00 0. -1.
     999902    2    1    2    0    0  0.11990419796E-01 -0.20712657154E-01 -0.25387957828E-02  0.10198628062E+01  0.10195787923E+01 0.  0.
     999903    2    3    3    0    0  0.12565481749E+00  0.29972444758E-01  0.11352640686E-01  0.13099749196E+00  0.18546693641E-01 0.  0.
         14    1    1    2    0    0 -0.11990419796E-01  0.20712657154E-01  0.25387957828E-02  0.24067193797E-01  0.00000000000E+00 0. -1.
     999901    1    3    3    0    0 -0.11366439770E+00 -0.50685101911E-01 -0.13891436469E-01  0.88886531424E+00  0.88000000000E+00 0.  1.
        -11    1    4    4    0    0  0.27337974187E-01  0.12075120557E-01  0.82816628282E-02  0.31016454170E-01  0.51100000000E-03 0.  1.
         11    1    4    4    0    0  0.98316843306E-01  0.17897324201E-01  0.30709778578E-02  0.99981037788E-01  0.51100000000E-03 0. -1.
</event>
<event>
 8    1  0.1114333E+005  0.1043930E+01  0.7957747E-01            NaN
         13   -1    0    0    0    0  0.00000000000E+00  0.00000000000E+00  0.74505805969E-08  0.10566000000E+00  0.10566000000E+00 0. -1.
     999900   -1    0    0    0    0 -0.00000000000E+00 -0.00000000000E+00 -0.74505805969E-08  0.93827000000E+00  0.93827000000E+00 0. -1.
     999902    2    1    2    0    0  0.23676466323E-01  0.59643412138E-02  0.21634172102E-02  0.10194181906E+01  0.10191234560E+01 0.  0.
     999903    2    3    3    0    0  0.12025626894E+00  0.24559392473E-01 -0.45788381694E-01  0.13264155066E+00  0.20795939197E-01 0.  0.
         14    1    1    2    0    0 -0.23676466323E-01 -0.59643412138E-02 -0.21634172102E-02  0.24511809351E-01  0.00000000000E+00 0. -1.
     999901    1    3    3    0    0 -0.96579802615E-01 -0.18595051259E-01  0.47951798904E-01  0.88677663998E+00  0.88000000000E+00 0.  1.
        -11    1    4    4    0    0  0.13683550658E-01 -0.19935432909E-02 -0.10189930042E-01  0.17184573568E-01  0.51100000000E-03 0.  1.
         11    1    4    4    0    0  0.10657271828E+00  0.26552935764E-01 -0.35598451652E-01  0.11545697710E+00  0.51100000000E-03 0. -1.
</event>
<event>
 8    1  0.1114333E+005  0.1043930E+01  0.7957747E-01            NaN
         13   -1    0    0    0    0  0.00000000000E+00  0.00000000000E+00  0.74505805969E-08  0.10566000000E+00  0.10566000000E+00 0. -1.
     999900   -1    0    0    0    0 -0.00000000000E+00 -0.00000000000E+00 -0.74505805969E-08  0.93827000000E+00  0.93827000000E+00 0.  1.
     999902    2    1    2    0    0  0.19552041731E-01 -0.11166438728E-01 -0.83448043543E-02  0.10199173481E+01  0.10196346353E+01 0.  0.
     999903    2    3    3    0    0  0.26899764417E-01 -0.10358614342E+00  0.73029003671E-01  0.13131333764E+00  0.21360496964E-01 0.  0.
         14    1    1    2    0    0 -0.19552041731E-01  0.11166438728E-01  0.83448043543E-02  0.24012651861E-01  0.00000000000E+00 0. -1.
     999901    1    3    3    0    0 -0.73477226862E-02  0.92419704691E-01 -0.81373808025E-01  0.88860401050E+00  0.88000000000E+00 0.  1.
        -11    1    4    4    0    0  0.14909516983E-01 -0.22229506998E-01  0.15278899002E-01  0.30824512223E-01  0.51100000000E-03 0.  1.
         11    1    4    4    0    0  0.11990247434E-01 -0.81356636421E-01  0.57750104669E-01  0.10048882542E+00  0.51100000000E-03 0. -1.
</event>
<event>
 8    1  0.1114333E+005  0.1043930E+01  0.7957747E-01            NaN
         13   -1    0    0    0    0  0.00000000000E+00  0.00000000000E+00  0.74505805969E-08  0.10566000000E+00  0.10566000000E+00 0.  1.
     999900   -1    0    0    0    0 -0.00000000000E+00 -0.00000000000E+00 -0.74505805969E-08  0.93827000000E+00  0.93827000000E+00 0. -1.
     999902    2    1    2    0    0  0.22924319712E-01  0.66394114009E-02  0.23826644648E-02  0.10199449357E+01  0.10196628799E+01 0.  0.
     999903    2    3    3    0    0  0.85903611647E-01  0.62812105489E-01  0.76713781789E-01  0.13278831045E+00  0.20565504776E-01 0.  0.
         14    1    1    2    0    0 -0.22924319712E-01 -0.66394114009E-02 -0.23826644648E-02  0.23985064268E-01  0.00000000000E+00 0. -1.
     999901    1    3    3    0    0 -0.62979291935E-01 -0.56172694088E-01 -0.74331117324E-01  0.88715662528E+00  0.88000000000E+00 0. -1.
        -11    1    4    4    0    0  0.46511435107E-01  0.37821676121E-01  0.54888765472E-01  0.81282411851E-01  0.51100000000E-03 0.  1.
         11    1    4    4    0    0  0.39392176540E-01  0.24990429369E-01  0.21825016317E-01  0.51505898602E-01  0.51100000000E-03 0. -1.
</event>
<event>
 8    1  0.1114333E+005  0.1043930E+01  0.7957747E-01            NaN
         13   -1    0    0    0    0  0.00000000000E+00  0.00000000000E+00  0.74505805969E-08  0.10566000000E+00  0.10566000000E+00 0.  1.
     999900   -1    0    0    0    0 -0.00000000000E+00 -0.00000000000E+00 -0.74505805969E-08  0.93827000000E+00  0.93827000000E+00 0. -1.
     999902    2    1    2    0    0 -0.19949344631E-01 -0.53973943703E-03 -0.13332356886E-01  0.10199295956E+01  0.10196471746E+01 0.  0.
     999903    2    3    3    0    0 -0.96289828599E-01  0.25250670358E-01 -0.86404952562E-01  0.13323200402E+00  0.19381011889E-01 0.  0.
         14    1    1    2    0    0  0.19949344631E-01  0.53973943703E-03  0.13332356886E-01  0.24000404372E-01  0.00000000000E+00 0.  1.
     999901    1    3    3    0    0  0.76340483968E-01 -0.25790409795E-01  0.73072595677E-01  0.88669759161E+00  0.88000000000E+00 0. -1.
        -11    1    4    4    0    0 -0.20618557845E-01  0.11659557971E-01 -0.13451992286E-01  0.27244952508E-01  0.51100000000E-03 0.  1.
         11    1    4    4    0    0 -0.75671270754E-01  0.13591112387E-01 -0.72952960277E-01  0.10598705151E+00  0.51100000000E-03 0. -1.
</event>
<event>
 8    1  0.1114333E+005  0.1043930E+01  0.7957747E-01            NaN
         13   -1    0    0    0    0  0.00000000000E+00  0.00000000000E+00  0.74505805969E-08  0.10566000000E+00  0.10566000000E+00 0. -1.
     999900   -1    0    0    0    0 -0.00000000000E+00 -0.00000000000E+00 -0.74505805969E-08  0.93827000000E+00  0.93827000000E+00 0. -1.
     999902    2    1    2    0    0  0.23544791556E-01  0.15293529515E-02 -0.51484115958E-02  0.10197804188E+01  0.10194944337E+01 0.  0.
     999903    2    3    3    0    0 -0.10707553688E+00 -0.41488666011E-01 -0.52441908157E-01  0.12784494189E+00  0.20191469261E-01 0.  0.
         14    1    1    2    0    0 -0.23544791556E-01 -0.15293529515E-02  0.51484115958E-02  0.24149581194E-01  0.00000000000E+00 0. -1.
     999901    1    3    3    0    0  0.13062032844E+00  0.43018018963E-01  0.47293496561E-01  0.89193547691E+00  0.88000000000E+00 0. -1.
        -11    1    4    4    0    0 -0.69757278344E-01 -0.17993356865E-01 -0.37928789248E-01  0.81416785420E-01  0.51100000000E-03 0.  1.
         11    1    4    4    0    0 -0.37318258537E-01 -0.23495309147E-01 -0.14513118909E-01  0.46428156475E-01  0.51100000000E-03 0. -1.
</event>
<event>
 8    1  0.1114333E+005  0.1043930E+01  0.7957747E-01            NaN
         13   -1    0    0    0    0  0.00000000000E+00  0.00000000000E+00  0.74505805969E-08  0.10566000000E+00  0.10566000000E+00 0. -1.
     999900   -1    0    0    0    0 -0.00000000000E+00 -0.00000000000E+00 -0.74505805969E-08  0.93827000000E+00  0.93827000000E+00 0. -1.
     999902    2    1    2    0    0 -0.14773705591E-01  0.12658851657E-01 -0.12610137802E-01  0.10207454259E+01  0.10204820919E+01 0.  0.
     999903    2    3    3    0    0 -0.12101425871E+00 -0.33277846646E-01  0.34857064108E-01  0.13189764889E+00  0.20739068840E-01 0.  0.
         14    1    1    2    0    0  0.14773705591E-01 -0.12658851657E-01  0.12610137802E-01  0.23184574129E-01  0.00000000000E+00 0.  1.
     999901    1    3    3    0    0  0.10624055312E+00  0.45936698303E-01 -0.47467201909E-01  0.88884777698E+00  0.88000000000E+00 0. -1.
        -11    1    4    4    0    0 -0.70521064737E-01 -0.17665035496E-01  0.30577658438E-01  0.78870326278E-01  0.51100000000E-03 0. -1.
         11    1    4    4    0    0 -0.50493193976E-01 -0.15612811150E-01  0.42794056697E-02  0.53027322616E-01  0.51100000000E-03 0.  1.
</event>
<event>
 8    1  0.1114333E+005  0.1043930E+01  0.7957747E-01            NaN
         13   -1    0    0    0    0  0.00000000000E+00  0.00000000000E+00  0.74505805969E-08  0.10566000000E+00  0.10566000000E+00 0.  1.
     999900   -1    0    0    0    0 -0.00000000000E+00 -0.00000000000E+00 -0.74505805969E-08  0.93827000000E+00  0.93827000000E+00 0. -1.
     999902    2    1    2    0    0 -0.18621815501E-01 -0.13212289174E-01  0.18125074859E-01  0.10147777285E+01  0.10143589026E+01 0.  0.
     999903    2    3    3    0    0 -0.10329901399E+00 -0.43917291597E-01 -0.55901871714E-01  0.12708802257E+00  0.20662318980E-01 0.  0.
         14    1    1    2    0    0  0.18621815501E-01  0.13212289174E-01 -0.18125074859E-01  0.29152271548E-01  0.00000000000E+00 0. -1.
     999901    1    3    3    0    0  0.84677198491E-01  0.30705002423E-01  0.74026946573E-01  0.88768970589E+00  0.88000000000E+00 0.  1.
        -11    1    4    4    0    0 -0.60859591873E-01 -0.32712754802E-01 -0.25321625174E-01  0.73589809567E-01  0.51100000000E-03 0. -1.
         11    1    4    4    0    0 -0.42439422118E-01 -0.11204536795E-01 -0.30580246540E-01  0.53498212998E-01  0.51100000000E-03 0.  1.
</event>
<event>
 8    1  0.1114333E+005  0.1043930E+01  0.7957747E-01            NaN
         13   -1    0    0    0    0  0.00000000000E+00  0.00000000000E+00  0.74505805969E-08  0.10566000000E+00  0.10566000000E+00 0.  1.
     999900   -1    0    0    0    0 -0.00000000000E+00 -0.00000000000E+00 -0.74505805969E-08  0.93827000000E+00  0.93827000000E+00 0.  1.
     999902    2    1    2    0    0  0.73848569288E-02  0.16475435531E-01 -0.16232464532E-01  0.10196510175E+01  0.10193619222E+01 0.  0.
     999903    2    3    3    0    0 -0.11410010358E+00 -0.52025971563E-01 -0.10206962579E-01  0.12864745683E+00  0.26841212911E-01 0.  0.
         14    1    1    2    0    0 -0.73848569288E-02 -0.16475435531E-01  0.16232464532E-01  0.24278982528E-01  0.00000000000E+00 0.  1.
     999901    1    3    3    0    0  0.12148496051E+00  0.68501407094E-01 -0.60255019534E-02  0.89100356064E+00  0.88000000000E+00 0.  1.
        -11    1    4    4    0    0 -0.42025600790E-01 -0.77689891701E-02  0.38267600932E-02  0.42911694540E-01  0.51100000000E-03 0.  1.
         11    1    4    4    0    0 -0.72074502787E-01 -0.44256982393E-01 -0.14033722672E-01  0.85735762290E-01  0.51100000000E-03 0. -1.
</event>
<event>
 8    1  0.1114333E+005  0.1043930E+01  0.7957747E-01            NaN
         13   -1    0    0    0    0  0.00000000000E+00  0.00000000000E+00  0.74505805969E-08  0.10566000000E+00  0.10566000000E+00 0.  1.
     999900   -1    0    0    0    0 -0.00000000000E+00 -0.00000000000E+00 -0.74505805969E-08  0.93827000000E+00  0.93827000000E+00 0.  1.
     999902    2    1    2    0    0 -0.22307101462E-02  0.17699741112E-01 -0.90080720119E-02  0.10239449490E+01  0.10237498993E+01 0.  0.
     999903    2    3    3    0    0  0.11219288861E+00  0.71398678803E-01 -0.10941186332E-01  0.13491172530E+00  0.19911013898E-01 0.  0.
         14    1    1    2    0    0  0.22307101462E-02 -0.17699741112E-01  0.90080720119E-02  0.19985051027E-01  0.00000000000E+00 0.  1.
     999901    1    3    3    0    0 -0.11442359876E+00 -0.53698937691E-01  0.19331143206E-02  0.88903322367E+00  0.88000000000E+00 0. -1.
        -11    1    4    4    0    0  0.19949446973E-01  0.22457674152E-01 -0.23084814437E-02  0.30131673874E-01  0.51100000000E-03 0. -1.
         11    1    4    4    0    0  0.92243441642E-01  0.48941004651E-01 -0.86327048888E-02  0.10478005143E+00  0.51100000000E-03 0.  1.
</event>
<event>
 8    1  0.1114333E+005  0.1043930E+01  0.7957747E-01            NaN
         13   -1    0    0    0    0  0.00000000000E+00  0.00000000000E+00  0.74505805969E-08  0.10566000000E+00  0.10566000000E+00 0.  1.
     999900   -1    0    0    0    0 -0.00000000000E+00 -0.00000000000E+00 -0.74505805969E-08  0.93827000000E+00  0.93827000000E+00 0.  1.
     999902    2    1    2    0    0  0.39928954259E-02  0.12763898353E-01  0.19650228865E-01  0.10201604436E+01  0.10198834928E+01 0.  0.
     999903    2    3    3    0    0  0.56064599885E-01 -0.10874331627E+00 -0.35091630407E-01  0.12860442366E+00  0.18420832401E-01 0.  0.
         14    1    1    2    0    0 -0.39928954259E-02 -0.12763898353E-01 -0.19650228865E-01  0.23769556359E-01  0.00000000000E+00 0. -1.
     999901    1    3    3    0    0 -0.52071704459E-01  0.12150721462E+00  0.54741859273E-01  0.89155601998E+00  0.88000000000E+00 0. -1.
        -11    1    4    4    0    0  0.97497574018E-02 -0.37484318217E-01 -0.10935100423E-01  0.40248843758E-01  0.51100000000E-03 0. -1.
         11    1    4    4    0    0  0.46314842483E-01 -0.71258998052E-01 -0.24156529985E-01  0.88355579900E-01  0.51100000000E-03 0.  1.
</event>
<event>
 8    1  0.1114333E+005  0.1043930E+01  0.7957747E-01            NaN
         13   -1    0    0    0    0  0.00000000000E+00  0.00000000000E+00  0.74505805969E-08  0.10566000000E+00  0.10566000000E+00 0.  1.
     999900   -1    0    0    0    0 -0.00000000000E+00 -0.00000000000E+00 -0.74505805969E-08  0.93827000000E+00  0.93827000000E+00 0.  1.
     999902    2    1    2    0    0 -0.47972795021E-02  0.67289311681E-02 -0.21996486074E-01  0.10204323873E+01  0.10201618103E+01 0.  0.
     999903    2    3    3    0    0 -0.11407007206E+00 -0.55375346470E-01 -0.27274577736E-01  0.13148618936E+00  0.21594097934E-01 0.  0.
         14    1    1    2    0    0  0.47972795021E-02 -0.67289311681E-02  0.21996486074E-01  0.23497612749E-01  0.00000000000E+00 0. -1.
     999901    1    3    3    0    0  0.10927279256E+00  0.62104277638E-01  0.52780916615E-02  0.88894619789E+00  0.88000000000E+00 0. -1.
        -11    1    4    4    0    0 -0.66034554182E-01 -0.26890059778E-01 -0.53975897135E-02  0.71505473613E-01  0.51100000000E-03 0.  1.
         11    1    4    4    0    0 -0.48035517877E-01 -0.28485286691E-01 -0.21876988022E-01  0.59980715747E-01  0.51100000000E-03 0. -1.
</event>
<event>
 8    1  0.1114333E+005  0.1043930E+01  0.7957747E-01            NaN
         13   -1    0    0    0    0  0.00000000000E+00  0.00000000000E+00  0.74505805969E-08  0.10566000000E+00  0.10566000000E+00 0.  1.
     999900   -1    0    0    0    0 -0.00000000000E+00 -0.00000000000E+00 -0.74505805969E-08  0.93827000000E+00  0.93827000000E+00 0.  1.
     999902    2    1    2    0    0  0.14674056919E-01 -0.91617093008E-03  0.17827816688E-01  0.10208215954E+01  0.10205600087E+01 0.  0.
     999903    2    3    3    0    0 -0.46709131494E-01 -0.11901294099E+00  0.20990498844E-01  0.13080769355E+00  0.18006347803E-01 0.  0.
         14    1    1    2    0    0 -0.14674056919E-01  0.91617093008E-03 -0.17827816688E-01  0.23108404607E-01  0.00000000000E+00 0. -1.
     999901    1    3    3    0    0  0.61383188413E-01  0.11809677006E+00 -0.31626821556E-02  0.89001390184E+00  0.88000000000E+00 0.  1.
        -11    1    4    4    0    0 -0.38472080179E-01 -0.10089256800E+00  0.24149222144E-01  0.11064744589E+00  0.51100000000E-03 0. -1.
         11    1    4    4    0    0 -0.82370513154E-02 -0.18120372990E-01 -0.31587233000E-02  0.20160247656E-01  0.51100000000E-03 0.  1.
</event>
<event>
 8    1  0.1114333E+005  0.1043930E+01  0.7957747E-01            NaN
         13   -1    0    0    0    0  0.00000000000E+00  0.00000000000E+00  0.74505805969E-08  0.10566000000E+00  0.10566000000E+00 0.  1.
     999900   -1    0    0    0    0 -0.00000000000E+00 -0.00000000000E+00 -0.74505805969E-08  0.93827000000E+00  0.93827000000E+00 0. -1.
     999902    2    1    2    0    0 -0.20533243254E-01  0.69378677277E-02 -0.33230540181E-02  0.10220030582E+01  0.10217678113E+01 0.  0.
     999903    2    3    3    0    0  0.35221123822E-02 -0.68455192897E-01 -0.11088027929E+00  0.13192928015E+00  0.20307139493E-01 0.  0.
         14    1    1    2    0    0  0.20533243254E-01 -0.69378677277E-02  0.33230540181E-02  0.21926941765E-01  0.00000000000E+00 0. -1.
     999901    1    3    3    0    0 -0.24055355637E-01  0.75393060625E-01  0.10755722528E+00  0.89007377808E+00  0.88000000000E+00 0. -1.
        -11    1    4    4    0    0  0.69360052788E-02 -0.14905923561E-01 -0.16120974186E-01  0.23031319027E-01  0.51100000000E-03 0.  1.
         11    1    4    4    0    0 -0.34138928966E-02 -0.53549269336E-01 -0.94759305108E-01  0.10889796112E+00  0.51100000000E-03 0. -1.
</event>
<event>
 8    1  0.1114333E+005  0.1043930E+01  0.7957747E-01            NaN
         13   -1    0    0    0    0  0.00000000000E+00  0.00000000000E+00  0.74505805969E-08  0.10566000000E+00  0.10566000000E+00 0. -1.
     999900   -1    0    0    0    0 -0.00000000000E+00 -0.00000000000E+00 -0.74505805969E-08  0.93827000000E+00  0.93827000000E+00 0. -1.
     999902    2    1    2    0    0  0.22747458872E-01  0.20037763256E-02  0.67251680431E-02  0.10201247508E+01  0.10198469578E+01 0.  0.
     999903    2    3    3    0    0 -0.82355222894E-01  0.26199602136E-01  0.94071404984E-01  0.12924800465E+00  0.19667627748E-01 0.  0.
         14    1    1    2    0    0 -0.22747458872E-01 -0.20037763256E-02 -0.67251680431E-02  0.23805249209E-01  0.00000000000E+00 0.  1.
     999901    1    3    3    0    0  0.10510268177E+00 -0.24195825810E-01 -0.87346236941E-01  0.89087674614E+00  0.88000000000E+00 0. -1.
        -11    1    4    4    0    0 -0.56277792973E-01  0.15007477630E-01  0.49664166587E-01  0.76545443565E-01  0.51100000000E-03 0.  1.
         11    1    4    4    0    0 -0.26077429920E-01  0.11192124506E-01  0.44407238397E-01  0.52702561088E-01  0.51100000000E-03 0. -1.
</event>
<event>
 8    1  0.1114333E+005  0.1043930E+01  0.7957747E-01            NaN
         13   -1    0    0    0    0  0.00000000000E+00  0.00000000000E+00  0.74505805969E-08  0.10566000000E+00  0.10566000000E+00 0.  1.
     999900   -1    0    0    0    0 -0.00000000000E+00 -0.00000000000E+00 -0.74505805969E-08  0.93827000000E+00  0.93827000000E+00 0.  1.
     999902    2    1    2    0    0 -0.21814026866E-01 -0.91243595860E-02 -0.55521169698E-02  0.10196414902E+01  0.10193521653E+01 0.  0.
     999903    2    3    3    0    0 -0.10788753178E+00 -0.66289584636E-01  0.34341535037E-01  0.13269841723E+00  0.19887190909E-01 0.  0.
         14    1    1    2    0    0  0.21814026866E-01  0.91243595860E-02  0.55521169698E-02  0.24288509810E-01  0.00000000000E+00 0. -1.
     999901    1    3    3    0    0  0.86073504912E-01  0.57165225050E-01 -0.39893652007E-01  0.88694307296E+00  0.88000000000E+00 0.  1.
        -11    1    4    4    0    0 -0.68653320535E-01 -0.51563484130E-01  0.27993787527E-01  0.90310489851E-01  0.51100000000E-03 0.  1.
         11    1    4    4    0    0 -0.39234211243E-01 -0.14726100506E-01  0.63477475094E-02  0.42387927378E-01  0.51100000000E-03 0. -1.
</event>
<event>
 8    1  0.1114333E+005  0.1043930E+01  0.7957747E-01            NaN
         13   -1    0    0    0    0  0.00000000000E+00  0.00000000000E+00  0.74505805969E-08  0.10566000000E+00  0.10566000000E+00 0. -1.
     999900   -1    0    0    0    0 -0.00000000000E+00 -0.00000000000E+00 -0.74505805969E-08  0.93827000000E+00  0.93827000000E+00 0.  1.
     999902    2    1    2    0    0  0.47272598921E-02  0.20704240480E-01  0.11113574161E-01  0.10199607678E+01  0.10196790887E+01 0.  0.
     999903    2    3    3    0    0  0.28358177210E-01  0.12065523309E+00 -0.41627900221E-01  0.13241905935E+00  0.20977457335E-01 0.  0.
         14    1    1    2    0    0 -0.47272598921E-02 -0.20704240480E-01 -0.11113574161E-01  0.23969232165E-01  0.00000000000E+00 0. -1.
     999901    1    3    3    0    0 -0.23630917318E-01 -0.99950992610E-01  0.52741474382E-01  0.88754170848E+00  0.88000000000E+00 0. -1.
        -11    1    4    4    0    0 -0.18482252042E-02  0.16682538017E-01 -0.11659208435E-02  0.16832810327E-01  0.51100000000E-03 0. -1.
         11    1    4    4    0    0  0.30206402414E-01  0.10397269507E+00 -0.40461979378E-01  0.11558624903E+00  0.51100000000E-03 0.  1.
</event>
<event>
 8    1  0.1114333E+005  0.1043930E+01  0.7957747E-01            NaN
         13   -1    0    0    0    0  0.00000000000E+00  0.00000000000E+00  0.74505805969E-08  0.10566000000E+00  0.10566000000E+00 0. -1.
     999900   -1    0    0    0    0 -0.00000000000E+00 -0.00000000000E+00 -0.74505805969E-08  0.93827000000E+00  0.93827000000E+00 0. -1.
     999902    2    1    2    0    0 -0.13221391801E-01 -0.18973994551E-01  0.13199145894E-02  0.10207662385E+01  0.10205033826E+01 0.  0.
     999903    2    3    3    0    0  0.80146813434E-01  0.96742289739E-01 -0.15574036075E-01  0.12813345527E+00  0.19825474336E-01 0.  0.
         14    1    1    2    0    0  0.13221391801E-01  0.18973994551E-01 -0.13199145894E-02  0.23163761458E-01  0.00000000000E+00 0. -1.
     999901    1    3    3    0    0 -0.93368205235E-01 -0.11571628429E+00  0.16893950664E-01  0.89263278327E+00  0.88000000000E+00 0.  1.
        -11    1    4    4    0    0  0.31716808189E-01  0.49550678482E-01 -0.42916099885E-03  0.58835966550E-01  0.51100000000E-03 0. -1.
         11    1    4    4    0    0  0.48430005245E-01  0.47191611257E-01 -0.15144875076E-01  0.69297488722E-01  0.51100000000E-03 0.  1.
</event>
<event>
 8    1  0.1114333E+005  0.1043930E+01  0.7957747E-01            NaN
         13   -1    0    0    0    0  0.00000000000E+00  0.00000000000E+00  0.74505805969E-08  0.10566000000E+00  0.10566000000E+00 0.  1.
     999900   -1    0    0    0    0 -0.00000000000E+00 -0.00000000000E+00 -0.74505805969E-08  0.93827000000E+00  0.93827000000E+00 0. -1.
     999902    2    1    2    0    0 -0.85221813937E-02  0.19443629305E-01  0.10081419230E-01  0.10204285679E+01  0.10201579019E+01 0.  0.
     999903    2    3    3    0    0 -0.71304803206E-01 -0.31713712400E-01  0.10413002643E+00  0.13171946381E+00  0.20416175622E-01 0.  0.
         14    1    1    2    0    0  0.85221813937E-02 -0.19443629305E-01 -0.10081419230E-01  0.23501432083E-01  0.00000000000E+00 0. -1.
     999901    1    3    3    0    0  0.62782621812E-01  0.51157341705E-01 -0.94048607199E-01  0.88870910411E+00  0.88000000000E+00 0. -1.
        -11    1    4    4    0    0 -0.26224878892E-01 -0.18697584145E-02  0.39566566116E-01  0.47508047157E-01  0.51100000000E-03 0.  1.
         11    1    4    4    0    0 -0.45079924314E-01 -0.29843953986E-01  0.64563460313E-01  0.84211416650E-01  0.51100000000E-03 0. -1.
</event>
<event>
 8    1  0.1114333E+005  0.1043930E+01  0.7957747E-01            NaN
         13   -1    0    0    0    0  0.00000000000E+00  0.00000000000E+00  0.74505805969E-08  0.10566000000E+00  0.10566000000E+00 0.  1.
     999900   -1    0    0    0    0 -0.00000000000E+00 -0.00000000000E+00 -0.74505805969E-08  0.93827000000E+00  0.93827000000E+00 0.  1.
     999902    2    1    2    0    0 -0.54723975395E-03  0.33546772130E-02  0.23684426857E-01  0.10200029148E+01  0.10197222371E+01 0.  0.
     999903    2    3    3    0    0  0.49454594882E-01  0.65397391231E-01 -0.96264361375E-01  0.12829825875E+00  0.21703460369E-01 0.  0.
         14    1    1    2    0    0  0.54723975395E-03 -0.33546772130E-02 -0.23684426857E-01  0.23927085199E-01  0.00000000000E+00 0. -1.
     999901    1    3    3    0    0 -0.50001834636E-01 -0.62042714018E-01  0.11994878823E+00  0.89170465605E+00  0.88000000000E+00 0. -1.
        -11    1    4    4    0    0  0.42417502347E-01  0.44789043323E-01 -0.80454455451E-01  0.10138285570E+00  0.51100000000E-03 0. -1.
         11    1    4    4    0    0  0.70370925347E-02  0.20608347908E-01 -0.15809905924E-01  0.26915403047E-01  0.51100000000E-03 0.  1.
</event>
<event>
 8    1  0.1114333E+005  0.1043930E+01  0.7957747E-01            NaN
         13   -1    0    0    0    0  0.00000000000E+00  0.00000000000E+00  0.74505805969E-08  0.10566000000E+00  0.10566000000E+00 0.  1.
     999900   -1    0    0    0    0 -0.00000000000E+00 -0.00000000000E+00 -0.74505805969E-08  0.93827000000E+00  0.93827000000E+00 0.  1.
     999902    2    1    2    0    0 -0.44826682826E-02 -0.20778046446E-01 -0.91913920618E-02  0.10207717786E+01  0.10205090499E+01 0.  0.
     999903    2    3    3    0    0 -0.98963478135E-01 -0.30453961981E-01  0.78123847291E-01  0.13136512372E+00  0.20790536543E-01 0.  0.
         14    1    1    2    0    0  0.44826682826E-02  0.20778046446E-01  0.91913920618E-02  0.23158221371E-01  0.00000000000E+00 0. -1.
     999901    1    3    3    0    0  0.94480809852E-01  0.96759155350E-02 -0.87315239352E-01  0.88940665491E+00  0.88000000000E+00 0.  1.
        -11    1    4    4    0    0 -0.72553640362E-01 -0.16476465854E-01  0.45925937997E-01  0.87435447953E-01  0.51100000000E-03 0.  1.
         11    1    4    4    0    0 -0.26409837772E-01 -0.13977496128E-01  0.32197909293E-01  0.43929675767E-01  0.51100000000E-03 0. -1.
</event>
<event>
 8    1  0.1114333E+005  0.1043930E+01  0.7957747E-01            NaN
         13   -1    0    0    0    0  0.00000000000E+00  0.00000000000E+00  0.74505805969E-08  0.10566000000E+00  0.10566000000E+00 0. -1.
     999900   -1    0    0    0    0 -0.00000000000E+00 -0.00000000000E+00 -0.74505805969E-08  0.93827000000E+00  0.93827000000E+00 0.  1.
     999902    2    1    2    0    0  0.13689816092E-02 -0.19152832864E-01  0.13252710520E-01  0.10205989166E+01  0.10203322053E+01 0.  0.
     999903    2    3    3    0    0 -0.67652760716E-01 -0.42356123691E-01  0.10456231597E+00  0.13288283716E+00  0.18805138763E-01 0.  0.
         14    1    1    2    0    0 -0.13689816092E-02  0.19152832864E-01 -0.13252710520E-01  0.23331083419E-01  0.00000000000E+00 0. -1.
     999901    1    3    3    0    0  0.69021742326E-01  0.23203290826E-01 -0.91309605448E-01  0.88771607942E+00  0.88000000000E+00 0.  1.
        -11    1    4    4    0    0 -0.21397405981E-01 -0.89788653240E-02  0.43609890165E-01  0.49401949824E-01  0.51100000000E-03 0.  1.
         11    1    4    4    0    0 -0.46255354735E-01 -0.33377258367E-01  0.60952425803E-01  0.83480887334E-01  0.51100000000E-03 0. -1.
</event>
<event>
 8    1  0.1114333E+005  0.1043930E+01  0.7957747E-01            NaN
         13   -1    0    0    0    0  0.00000000000E+00  0.00000000000E+00  0.74505805969E-08  0.10566000000E+00  0.10566000000E+00 0. -1.
     999900   -1    0    0    0    0 -0.00000000000E+00 -0.00000000000E+00 -0.74505805969E-08  0.93827000000E+00  0.93827000000E+00 0.  1.
     999902    2    1    2    0    0  0.18537691765E-01 -0.16053198278E-01  0.34333503571E-02  0.10191683545E+01  0.10188675065E+01 0.  0.
     999903    2    3    3    0    0  0.12782814402E+00  0.17801614251E-01  0.16513207103E-01  0.13166532135E+00  0.20152889708E-01 0.  0.
         14    1    1    2    0    0 -0.18537691765E-01  0.16053198278E-01 -0.34333503571E-02  0.24761645454E-01  0.00000000000E+00 0.  1.
     999901    1    3    3    0    0 -0.10929045225E+00 -0.33854812529E-01 -0.13079856746E-01  0.88750303320E+00  0.88000000000E+00 0.  1.
        -11    1    4    4    0    0  0.59887420567E-01  0.46081051551E-02 -0.17231394326E-02  0.60091331370E-01  0.51100000000E-03 0.  1.
         11    1    4    4    0    0  0.67940723451E-01  0.13193509096E-01  0.18236346535E-01  0.71573989977E-01  0.51100000000E-03 0. -1.
</event>
<event>
 8    1  0.1114333E+005  0.1043930E+01  0.7957747E-01            NaN
         13   -1    0    0    0    0  0.00000000000E+00  0.00000000000E+00  0.74505805969E-08  0.10566000000E+00  0.10566000000E+00 0.  1.
     999900   -1    0    0    0    0 -0.00000000000E+00 -0.00000000000E+00 -0.74505805969E-08  0.93827000000E+00  0.93827000000E+00 0.  1.
     999902    2    1    2    0    0  0.46183425375E-03  0.14716022326E-01 -0.16762938180E-01  0.10216192246E+01  0.10213755770E+01 0.  0.
     999903    2    3    3    0    0  0.74137561599E-01  0.10895629623E+00 -0.19190698196E-01  0.13352281311E+00  0.96024056874E-02 0.  0.
         14    1    1    2    0    0 -0.46183425375E-03 -0.14716022326E-01  0.16762938180E-01  0.22310775432E-01  0.00000000000E+00 0.  1.
     999901    1    3    3    0    0 -0.73675727346E-01 -0.94240273906E-01  0.24277600157E-02  0.88809641146E+00  0.88000000000E+00 0.  1.
        -11    1    4    4    0    0  0.31858672996E-01  0.38644042098E-01 -0.67453491432E-02  0.50538083569E-01  0.51100000000E-03 0. -1.
         11    1    4    4    0    0  0.42278888603E-01  0.70312254134E-01 -0.12445349052E-01  0.82984729540E-01  0.51100000000E-03 0.  1.
</event>
<event>
 8    1  0.1114333E+005  0.1043930E+01  0.7957747E-01            NaN
         13   -1    0    0    0    0  0.00000000000E+00  0.00000000000E+00  0.74505805969E-08  0.10566000000E+00  0.10566000000E+00 0. -1.
     999900   -1    0    0    0    0 -0.00000000000E+00 -0.00000000000E+00 -0.74505805969E-08  0.93827000000E+00  0.93827000000E+00 0.  1.
     999902    2    1    2    0    0  0.21440683835E-01 -0.65896925907E-02  0.88206937658E-02  0.10198274771E+01  0.10195426187E+01 0.  0.
     999903    2    3    3    0    0  0.96323248797E-01 -0.56673144997E-01  0.69518676629E-01  0.13314828152E+00  0.20139633807E-01 0.  0.
         14    1    1    2    0    0 -0.21440683835E-01  0.65896925907E-02 -0.88206937658E-02  0.24102522902E-01  0.00000000000E+00 0. -1.
     999901    1    3    3    0    0 -0.74882564962E-01  0.50083452407E-01 -0.60697982863E-01  0.88667919557E+00  0.88000000000E+00 0.  1.
        -11    1    4    4    0    0  0.76559317986E-01 -0.48673441057E-01  0.64278139188E-01  0.11118621018E+00  0.51100000000E-03 0. -1.
         11    1    4    4    0    0  0.19763930811E-01 -0.79997039403E-02  0.52405374411E-02  0.21962071348E-01  0.51100000000E-03 0.  1.
</event>
<event>
 8    1  0.1114333E+005  0.1043930E+01  0.7957747E-01            NaN
         13   -1    0    0    0    0  0.00000000000E+00  0.00000000000E+00  0.74505805969E-08  0.10566000000E+00  0.10566000000E+00 0.  1.
     999900   -1    0    0    0    0 -0.00000000000E+00 -0.00000000000E+00 -0.74505805969E-08  0.93827000000E+00  0.93827000000E+00 0. -1.
     999902    2    1    2    0    0  0.16638135536E-01  0.16734071058E-01  0.82052772997E-02  0.10189463401E+01  0.10186400054E+01 0.  0.
     999903    2    3    3    0    0 -0.32020535398E-01  0.11519908379E+00  0.49730950570E-01  0.13114714738E+00  0.20742787382E-01 0.  0.
         14    1    1    2    0    0 -0.16638135536E-01 -0.16734071058E-01 -0.82052772997E-02  0.24983659937E-01  0.00000000000E+00 0. -1.
     999901    1    3    3    0    0  0.48658670934E-01 -0.98465012730E-01 -0.41525673270E-01  0.88779919268E+00  0.88000000000E+00 0. -1.
        -11    1    4    4    0    0 -0.24293632570E-01  0.51007133728E-01  0.26911378520E-01  0.62581080922E-01  0.51100000000E-03 0.  1.
         11    1    4    4    0    0 -0.77269028286E-02  0.64191950060E-01  0.22819572050E-01  0.68566066457E-01  0.51100000000E-03 0. -1.
</event>
<event>
 8    1  0.1114333E+005  0.1043930E+01  0.7957747E-01            NaN
         13   -1    0    0    0    0  0.00000000000E+00  0.00000000000E+00  0.74505805969E-08  0.10566000000E+00  0.10566000000E+00 0.  1.
     999900   -1    0    0    0    0 -0.00000000000E+00 -0.00000000000E+00 -0.74505805969E-08  0.93827000000E+00  0.93827000000E+00 0.  1.
     999902    2    1    2    0    0 -0.54569004123E-02  0.23099379931E-01 -0.14148004449E-03  0.10201943911E+01  0.10199182401E+01 0.  0.
     999903    2    3    3    0    0 -0.12353075312E+00  0.22680610407E-01  0.33947745587E-01  0.13165419199E+00  0.20152413788E-01 0.  0.
         14    1    1    2    0    0  0.54569004123E-02 -0.23099379931E-01  0.14148004449E-03  0.23735608943E-01  0.00000000000E+00 0. -1.
     999901    1    3    3    0    0  0.11807385271E+00  0.41876952353E-03 -0.34089225631E-01  0.88854019907E+00  0.88000000000E+00 0.  1.
        -11    1    4    4    0    0 -0.11687052873E+00  0.16857989324E-01  0.29363836101E-01  0.12167747647E+00  0.51100000000E-03 0. -1.
         11    1    4    4    0    0 -0.66602243965E-02  0.58226210831E-02  0.45839094850E-02  0.99767155145E-02  0.51100000000E-03 0.  1.
</event>
<event>
 8    1  0.1114333E+005  0.1043930E+01  0.7957747E-01            NaN
         13   -1    0    0    0    0  0.00000000000E+00  0.00000000000E+00  0.74505805969E-08  0.10566000000E+00  0.10566000000E+00 0.  1.
     999900   -1    0    0    0    0 -0.00000000000E+00 -0.00000000000E+00 -0.74505805969E-08  0.93827000000E+00  0.93827000000E+00 0.  1.
     999902    2    1    2    0    0  0.81963716281E-02  0.34481873156E-02  0.21728384043E-01  0.10204524964E+01  0.10201823877E+01 0.  0.
     999903    2    3    3    0    0 -0.10933779957E-01  0.12137653772E-01 -0.12532937201E+00  0.12800224389E+00  0.20254697478E-01 0.  0.
         14    1    1    2    0    0 -0.81963716281E-02 -0.34481873156E-02 -0.21728384043E-01  0.23477503631E-01  0.00000000000E+00 0. -1.
     999901    1    3    3    0    0  0.19130151585E-01 -0.86894664561E-02  0.14705775605E+00  0.89245025247E+00  0.88000000000E+00 0. -1.
        -11    1    4    4    0    0  0.75228979434E-03  0.18631139914E-02 -0.80854257834E-01  0.80880833729E-01  0.51100000000E-03 0.  1.
         11    1    4    4    0    0 -0.11686069752E-01  0.10274539780E-01 -0.44475114177E-01  0.47121410165E-01  0.51100000000E-03 0. -1.
</event>
<event>
 8    1  0.1114333E+005  0.1043930E+01  0.7957747E-01            NaN
         13   -1    0    0    0    0  0.00000000000E+00  0.00000000000E+00  0.74505805969E-08  0.10566000000E+00  0.10566000000E+00 0. -1.
     999900   -1    0    0    0    0 -0.00000000000E+00 -0.00000000000E+00 -0.74505805969E-08  0.93827000000E+00  0.93827000000E+00 0. -1.
     999902    2    1    2    0    0  0.32953071650E-02  0.17718626541E-01  0.14418874645E-01  0.10208494298E+01  0.10205884800E+01 0.  0.
     999903    2    3    3    0    0  0.98747416431E-01  0.41876490722E-01 -0.72121011531E-01  0.13113944362E+00  0.22168009432E-01 0.  0.
         14    1    1    2    0    0 -0.32953071650E-02 -0.17718626541E-01 -0.14418874645E-01  0.23080570223E-01  0.00000000000E+00 0.  1.
     999901    1    3    3    0    0 -0.95452109266E-01 -0.24157864181E-01  0.86539886176E-01  0.88970998616E+00  0.88000000000E+00 0.  1.
        -11    1    4    4    0    0  0.87813908500E-01  0.28704622391E-01 -0.61569997442E-01  0.11102415764E+00  0.51100000000E-03 0. -1.
         11    1    4    4    0    0  0.10933507931E-01  0.13171868331E-01 -0.10551014089E-01  0.20115285986E-01  0.51100000000E-03 0.  1.
</event>
<event>
 8    1  0.1114333E+005  0.1043930E+01  0.7957747E-01            NaN
         13   -1    0    0    0    0  0.00000000000E+00  0.00000000000E+00  0.74505805969E-08  0.10566000000E+00  0.10566000000E+00 0.  1.
     999900   -1    0    0    0    0 -0.00000000000E+00 -0.00000000000E+00 -0.74505805969E-08  0.93827000000E+00  0.93827000000E+00 0. -1.
     999902    2    1    2    0    0  0.18495077936E-01 -0.14084587513E-01  0.47325272191E-02  0.10202057439E+01  0.10199298601E+01 0.  0.
     999903    2    3    3    0    0  0.21382926165E-01 -0.12119583884E+00  0.45686216882E-01  0.13276089237E+00  0.19813208834E-01 0.  0.
         14    1    1    2    0    0 -0.18495077936E-01  0.14084587513E-01 -0.47325272191E-02  0.23724256093E-01  0.00000000000E+00 0. -1.
     999901    1    3    3    0    0 -0.28878482289E-02  0.10711125133E+00 -0.40953689662E-01  0.88744485154E+00  0.88000000000E+00 0. -1.
        -11    1    4    4    0    0  0.17630334109E-01 -0.80335916563E-01  0.39568852474E-01  0.91272358235E-01  0.51100000000E-03 0.  1.
         11    1    4    4    0    0  0.37525920562E-02 -0.40859922282E-01  0.61173644077E-02  0.41488534131E-01  0.51100000000E-03 0. -1.
</event>
<event>
 8    1  0.1114333E+005  0.1043930E+01  0.7957747E-01            NaN
         13   -1    0    0    0    0  0.00000000000E+00  0.00000000000E+00  0.74505805969E-08  0.10566000000E+00  0.10566000000E+00 0.  1.
     999900   -1    0    0    0    0 -0.00000000000E+00 -0.00000000000E+00 -0.74505805969E-08  0.93827000000E+00  0.93827000000E+00 0. -1.
     999902    2    1    2    0    0  0.22024354089E-01 -0.18765138850E-02 -0.39770040301E-02  0.10214709253E+01  0.10212239916E+01 0.  0.
     999903    2    3    3    0    0  0.11864616491E+00  0.52799018841E-01 -0.28138458129E-01  0.13416660087E+00  0.18554113449E-01 0.  0.
         14    1    1    2    0    0 -0.22024354089E-01  0.18765138850E-02  0.39770040301E-02  0.22459074746E-01  0.00000000000E+00 0.  1.
     999901    1    3    3    0    0 -0.96621810818E-01 -0.54675532726E-01  0.24161454099E-01  0.88730432438E+00  0.88000000000E+00 0.  1.
        -11    1    4    4    0    0  0.71512566337E-01  0.23652971133E-01 -0.10778707809E-01  0.76091733129E-01  0.51100000000E-03 0.  1.
         11    1    4    4    0    0  0.47133598569E-01  0.29146047708E-01 -0.17359750320E-01  0.58074867742E-01  0.51100000000E-03 0. -1.
</event>
<event>
 8    1  0.1114333E+005  0.1043930E+01  0.7957747E-01            NaN
         13   -1    0    0    0    0  0.00000000000E+00  0.00000000000E+00  0.74505805969E-08  0.10566000000E+00  0.10566000000E+00 0.  1.
     999900   -1    0    0    0    0 -0.00000000000E+00 -0.00000000000E+00 -0.74505805969E-08  0.93827000000E+00  0.93827000000E+00 0.  1.
     999902    2    1    2    0    0  0.86615378403E-02  0.19897386437E-01  0.10155734185E-01  0.10199703013E+01  0.10196888488E+01 0.  0.
     999903    2    3    3    0    0 -0.51562891205E-01 -0.11206158043E+00 -0.27842424746E-01  0.12728670065E+00  0.14497378718E-01 0.  0.
         14    1    1    2    0    0 -0.86615378403E-02 -0.19897386437E-01 -0.10155734185E-01  0.23959698696E-01  0.00000000000E+00 0. -1.
     999901    1    3    3    0    0  0.60224429046E-01  0.13195896687E+00  0.37998158931E-01  0.89268360065E+00  0.88000000000E+00 0.  1.
        -11    1    4    4    0    0 -0.39634208148E-01 -0.89582200725E-01 -0.16173113674E-01  0.99285809002E-01  0.51100000000E-03 0. -1.
         11    1    4    4    0    0 -0.11928683058E-01 -0.22479379703E-01 -0.11669311072E-01  0.28000891651E-01  0.51100000000E-03 0.  1.
</event>
<event>
 8    1  0.1114333E+005  0.1043930E+01  0.7957747E-01            NaN
         13   -1    0    0    0    0  0.00000000000E+00  0.00000000000E+00  0.74505805969E-08  0.10566000000E+00  0.10566000000E+00 0.  1.
     999900   -1    0    0    0    0 -0.00000000000E+00 -0.00000000000E+00 -0.74505805969E-08  0.93827000000E+00  0.93827000000E+00 0.  1.
     999902    2    1    2    0    0  0.10360249808E-01 -0.20274569330E-01 -0.62457465652E-02  0.10203206314E+01  0.10200474442E+01 0.  0.
     999903    2    3    3    0    0  0.12852440726E-01  0.36225155163E-01 -0.12339080209E+00  0.13075815805E+00  0.19873569297E-01 0.  0.
         14    1    1    2    0    0 -0.10360249808E-01  0.20274569330E-01  0.62457465652E-02  0.23609368644E-01  0.00000000000E+00 0.  1.
     999901    1    3    3    0    0 -0.24921909177E-02 -0.56499724493E-01  0.11714505552E+00  0.88956247331E+00  0.88000000000E+00 0. -1.
        -11    1    4    4    0    0 -0.18299877670E-02  0.12839475713E-01 -0.63409218871E-01  0.64723961178E-01  0.51100000000E-03 0. -1.
         11    1    4    4    0    0  0.14682428493E-01  0.23385679450E-01 -0.59981583219E-01  0.66034196870E-01  0.51100000000E-03 0.  1.
</event>
<event>
 8    1  0.1114333E+005  0.1043930E+01  0.7957747E-01            NaN
         13   -1    0    0    0    0  0.00000000000E+00  0.00000000000E+00  0.74505805969E-08  0.10566000000E+00  0.10566000000E+00 0. -1.
     999900   -1    0    0    0    0 -0.00000000000E+00 -0.00000000000E+00 -0.74505805969E-08  0.93827000000E+00  0.93827000000E+00 0. -1.
     999902    2    1    2    0    0  0.48386934712E-02 -0.22701438734E-01 -0.56285459748E-02  0.10200459299E+01  0.10197662724E+01 0.  0.
     999903    2    3    3    0    0 -0.11039009531E+00  0.33181617483E-02 -0.65747913275E-01  0.13011951063E+00  0.20280917287E-01 0.  0.
         14    1    1    2    0    0 -0.48386934712E-02  0.22701438734E-01  0.56285459748E-02  0.23884070107E-01  0.00000000000E+00 0.  1.
     999901    1    3    3    0    0  0.11522878879E+00 -0.26019600482E-01  0.60119367301E-01  0.88992641926E+00  0.88000000000E+00 0.  1.
        -11    1    4    4    0    0 -0.88356180684E-01 -0.28138482710E-02 -0.44824872740E-01  0.99117418975E-01  0.51100000000E-03 0. -1.
         11    1    4    4    0    0 -0.22033914630E-01  0.61320100193E-02 -0.20923040536E-01  0.31002091656E-01  0.51100000000E-03 0.  1.
</event>
<event>
 8    1  0.1114333E+005  0.1043930E+01  0.7957747E-01            NaN
         13   -1    0    0    0    0  0.00000000000E+00  0.00000000000E+00  0.74505805969E-08  0.10566000000E+00  0.10566000000E+00 0. -1.
     999900   -1    0    0    0    0 -0.00000000000E+00 -0.00000000000E+00 -0.74505805969E-08  0.93827000000E+00  0.93827000000E+00 0.  1.
     999902    2    1    2    0    0  0.85855941190E-02  0.20789355971E-01  0.32030768796E-02  0.10212106371E+01  0.10209578816E+01 0.  0.
     999903    2    3    3    0    0 -0.53525837220E-02  0.12047874919E+00 -0.53553776016E-01  0.13365580035E+00  0.21262334865E-01 0.  0.
         14    1    1    2    0    0 -0.85855941190E-02 -0.20789355971E-01 -0.32030768796E-02  0.22719362877E-01  0.00000000000E+00 0. -1.
     999901    1    3    3    0    0  0.13938177841E-01 -0.99689393218E-01  0.56756852896E-01  0.88755483677E+00  0.88000000000E+00 0. -1.
        -11    1    4    4    0    0  0.25020707066E-02  0.64148328560E-01 -0.18370464421E-01  0.66775770298E-01  0.51100000000E-03 0.  1.
         11    1    4    4    0    0 -0.78546544286E-02  0.56330420629E-01 -0.35183311595E-01  0.66880030056E-01  0.51100000000E-03 0. -1.
</event>
<event>
 8    1  0.1114333E+005  0.1043930E+01  0.7957747E-01            NaN
         13   -1    0    0    0    0  0.00000000000E+00  0.00000000000E+00  0.74505805969E-08  0.10566000000E+00  0.10566000000E+00 0.  1.
     999900   -1    0    0    0    0 -0.00000000000E+00 -0.00000000000E+00 -0.74505805969E-08  0.93827000000E+00  0.93827000000E+00 0.  1.
     999902    2    1    2    0    0  0.18670672583E-02  0.16345488142E-01 -0.17490063773E-01  0.10199182684E+01  0.10196355775E+01 0.  0.
     999903    2    3    3    0    0 -0.51591235563E-01 -0.22309514235E-01  0.11307109517E+00  0.12784303865E+00  0.19984993271E-01 0.  0.
         14    1    1    2    0    0 -0.18670672583E-02 -0.16345488142E-01  0.17490063773E-01  0.24011731581E-01  0.00000000000E+00 0.  1.
     999901    1    3    3    0    0  0.53458302821E-01  0.38655002377E-01 -0.13056115894E+00  0.89207522977E+00  0.88000000000E+00 0.  1.
        -11    1    4    4    0    0 -0.12757620062E-01  0.31574965225E-02  0.22626119876E-01  0.26171149680E-01  0.51100000000E-03 0.  1.
         11    1    4    4    0    0 -0.38833615501E-01 -0.25467010757E-01  0.90444975290E-01  0.10167188897E+00  0.51100000000E-03 0. -1.
</event>
<event>
 8    1  0.1114333E+005  0.1043930E+01  0.7957747E-01            NaN
         13   -1    0    0    0    0  0.00000000000E+00  0.00000000000E+00  0.74505805969E-08  0.10566000000E+00  0.10566000000E+00 0. -1.
     999900   -1    0    0    0    0 -0.00000000000E+00 -0.00000000000E+00 -0.74505805969E-08  0.93827000000E+00  0.93827000000E+00 0. -1.
     999902    2    1    2    0    0 -0.20278806731E-01  0.11934733257E-01 -0.13183924799E-02  0.10203629463E+01  0.10200907490E+01 0.  0.
     999903    2    3    3    0    0  0.11006470015E+00 -0.51766747512E-01  0.33992806888E-01  0.12778567278E+00  0.19484170019E-01 0.  0.
         14    1    1    2    0    0  0.20278806731E-01 -0.11934733257E-01  0.13183924799E-02  0.23567053679E-01  0.00000000000E+00 0.  1.
     999901    1    3    3    0    0 -0.13034350688E+00  0.63701480769E-01 -0.35311199368E-01  0.89257727354E+00  0.88000000000E+00 0. -1.
        -11    1    4    4    0    0  0.87430265921E-01 -0.39080539896E-01  0.18432783806E-01  0.97526245890E-01  0.51100000000E-03 0.  1.
         11    1    4    4    0    0  0.22634434228E-01 -0.12686207616E-01  0.15560023082E-01  0.30259426892E-01  0.51100000000E-03 0. -1.
</event>
<event>
 8    1  0.1114333E+005  0.1043930E+01  0.7957747E-01            NaN
         13   -1    0    0    0    0  0.00000000000E+00  0.00000000000E+00  0.74505805969E-08  0.10566000000E+00  0.10566000000E+00 0.  1.
     999900   -1    0    0    0    0 -0.00000000000E+00 -0.00000000000E+00 -0.74505805969E-08  0.93827000000E+00  0.93827000000E+00 0. -1.
     999902    2    1    2    0    0 -0.14433258750E-01 -0.17430904831E-03 -0.17576316340E-01  0.10211862923E+01  0.10209329887E+01 0.  0.
     999903    2    3    3    0    0  0.54952541459E-01  0.19420699492E-01  0.11304000793E+00  0.12862874361E+00  0.19244867081E-01 0.  0.
         14    1    1    2    0    0  0.14433258750E-01  0.17430904831E-03  0.17576316340E-01  0.22743707654E-01  0.00000000000E+00 0.  1.
     999901    1    3    3    0    0 -0.69385800209E-01 -0.19595008540E-01 -0.13061632427E+00  0.89255754873E+00  0.88000000000E+00 0. -1.
        -11    1    4    4    0    0  0.29851462230E-01  0.12330864017E-01  0.42242172863E-01  0.53177272343E-01  0.51100000000E-03 0.  1.
         11    1    4    4    0    0  0.25101079230E-01  0.70898354748E-02  0.70797835069E-01  0.75451471272E-01  0.51100000000E-03 0. -1.
</event>
<event>
 8    1  0.1114333E+005  0.1043930E+01  0.7957747E-01            NaN
         13   -1    0    0    0    0  0.00000000000E+00  0.00000000000E+00  0.74505805969E-08  0.10566000000E+00  0.10566000000E+00 0. -1.
     999900   -1    0    0    0    0 -0.00000000000E+00 -0.00000000000E+00 -0.74505805969E-08  0.93827000000E+00  0.93827000000E+00 0.  1.
     999902    2    1    2    0    0 -0.69031115044E-02 -0.22108549913E-01  0.34834777993E-03  0.10207661861E+01  0.10205033290E+01 0.  0.
     999903    2    3    3    0    0  0.11415495520E+00 -0.15643139890E-03  0.59562490422E-01  0.13023641922E+00  0.19556491492E-01 0.  0.
         14    1    1    2    0    0  0.69031115044E-02  0.22108549913E-01 -0.34834777993E-03  0.23163813889E-01  0.00000000000E+00 0. -1.
     999901    1    3    3    0    0 -0.12105806671E+00 -0.21952118514E-01 -0.59214142642E-01  0.89052976689E+00  0.88000000000E+00 0.  1.
        -11    1    4    4    0    0  0.29912551824E-01 -0.83814793773E-02  0.13562202406E-01  0.33899917526E-01  0.51100000000E-03 0. -1.
         11    1    4    4    0    0  0.84242403377E-01  0.82250479784E-02  0.46000288016E-01  0.96336501699E-01  0.51100000000E-03 0.  1.
</event>
<event>
 8    1  0.1114333E+005  0.1043930E+01  0.7957747E-01            NaN
         13   -1    0    0    0    0  0.00000000000E+00  0.00000000000E+00  0.74505805969E-08  0.10566000000E+00  0.10566000000E+00 0.  1.
     999900   -1    0    0    0    0 -0.00000000000E+00 -0.00000000000E+00 -0.74505805969E-08  0.93827000000E+00  0.93827000000E+00 0.  1.
     999902    2    1    2    0    0  0.13915525795E-01  0.12609072456E-02 -0.16900092098E-01  0.10220018250E+01  0.10217665514E+01 0.  0.
     999903    2    3    3    0    0  0.55733362026E-01 -0.36596694316E-03  0.11674560655E+00  0.13092800601E+00  0.20156004965E-01 0.  0.
         14    1    1    2    0    0 -0.13915525795E-01 -0.12609072456E-02  0.16900092098E-01  0.21928174985E-01  0.00000000000E+00 0.  1.
     999901    1    3    3    0    0 -0.41817836230E-01  0.16268741888E-02 -0.13364569864E+00  0.89107381900E+00  0.88000000000E+00 0.  1.
        -11    1    4    4    0    0  0.13176886464E-01 -0.83109988049E-02  0.24674113374E-01  0.29185202241E-01  0.51100000000E-03 0. -1.
         11    1    4    4    0    0  0.42556475562E-01  0.79450318617E-02  0.92071493171E-01  0.10174280377E+00  0.51100000000E-03 0.  1.
</event>
<event>
 8    1  0.1114333E+005  0.1043930E+01  0.7957747E-01            NaN
         13   -1    0    0    0    0  0.00000000000E+00  0.00000000000E+00  0.74505805969E-08  0.10566000000E+00  0.10566000000E+00 0. -1.
     999900   -1    0    0    0    0 -0.00000000000E+00 -0.00000000000E+00 -0.74505805969E-08  0.93827000000E+00  0.93827000000E+00 0.  1.
     999902    2    1    2    0    0 -0.10812411076E-01  0.17172490271E-01 -0.11845438609E-01  0.10204328284E+01  0.10201622617E+01 0.  0.
     999903    2    3    3    0    0  0.32873406760E-01  0.37036966346E-01 -0.12112035512E+00  0.13237649269E+00  0.20024925549E-01 0.  0.
         14    1    1    2    0    0  0.10812411076E-01 -0.17172490271E-01  0.11845438609E-01  0.23497171558E-01  0.00000000000E+00 0. -1.
     999901    1    3    3    0    0 -0.43685817836E-01 -0.19864476075E-01  0.10927491652E+00  0.88805633575E+00  0.88000000000E+00 0. -1.
        -11    1    4    4    0    0  0.95408704937E-02  0.25199882842E-01 -0.68427329093E-01  0.73543339555E-01  0.51100000000E-03 0. -1.
         11    1    4    4    0    0  0.23332536266E-01  0.11837083504E-01 -0.52693026032E-01  0.58833153135E-01  0.51100000000E-03 0.  1.
</event>
<event>
 8    1  0.1114333E+005  0.1043930E+01  0.7957747E-01            NaN
         13   -1    0    0    0    0  0.00000000000E+00  0.00000000000E+00  0.74505805969E-08  0.10566000000E+00  0.10566000000E+00 0. -1.
     999900   -1    0    0    0    0 -0.00000000000E+00 -0.00000000000E+00 -0.74505805969E-08  0.93827000000E+00  0.93827000000E+00 0.  1.
     999902    2    1    2    0    0 -0.13624579601E-02  0.48624150315E-02 -0.22849159091E-01  0.10205294991E+01  0.10202611798E+01 0.  0.
     999903    2    3    3    0    0 -0.23121228095E-02  0.12364933082E+00 -0.42494372227E-01  0.13233066571E+00  0.20276352978E-01 0.  0.
         14    1    1    2    0    0  0.13624579601E-02 -0.48624150315E-02  0.22849159091E-01  0.23400500909E-01  0.00000000000E+00 0. -1.
     999901    1    3    3    0    0  0.94966484940E-03 -0.11878691579E+00  0.19645213136E-01  0.88819883338E+00  0.88000000000E+00 0. -1.
        -11    1    4    4    0    0  0.28225857478E-02  0.32855321487E-01 -0.20278655955E-01  0.38715941790E-01  0.51100000000E-03 0. -1.
         11    1    4    4    0    0 -0.51347085573E-02  0.90794009337E-01 -0.22215716272E-01  0.93614723916E-01  0.51100000000E-03 0.  1.
</event>
<event>
 8    1  0.1114333E+005  0.1043930E+01  0.7957747E-01            NaN
         13   -1    0    0    0    0  0.00000000000E+00  0.00000000000E+00  0.74505805969E-08  0.10566000000E+00  0.10566000000E+00 0.  1.
     999900   -1    0    0    0    0 -0.00000000000E+00 -0.00000000000E+00 -0.74505805969E-08  0.93827000000E+00  0.93827000000E+00 0. -1.
     999902    2    1    2    0    0 -0.13133004486E-01  0.19651359836E-01 -0.86089326605E-02  0.10187751700E+01  0.10184645706E+01 0.  0.
     999903    2    3    3    0    0  0.17807212071E-01 -0.10661359478E+00 -0.64938365475E-01  0.12744294196E+00  0.18470429072E-01 0.  0.
         14    1    1    2    0    0  0.13133004486E-01 -0.19651359836E-01  0.86089326605E-02  0.25154829990E-01  0.00000000000E+00 0.  1.
     999901    1    3    3    0    0 -0.30940216557E-01  0.12626495462E+00  0.56329432814E-01  0.89133222805E+00  0.88000000000E+00 0.  1.
        -11    1    4    4    0    0  0.15075122516E-01 -0.65958483523E-01 -0.31061231297E-01  0.74450265803E-01  0.51100000000E-03 0.  1.
         11    1    4    4    0    0  0.27320895546E-02 -0.40655111259E-01 -0.33877134178E-01  0.52992676154E-01  0.51100000000E-03 0. -1.
</event>
<event>
 8    1  0.1114333E+005  0.1043930E+01  0.7957747E-01            NaN
         13   -1    0    0    0    0  0.00000000000E+00  0.00000000000E+00  0.74505805969E-08  0.10566000000E+00  0.10566000000E+00 0. -1.
     999900   -1    0    0    0    0 -0.00000000000E+00 -0.00000000000E+00 -0.74505805969E-08  0.93827000000E+00  0.93827000000E+00 0.  1.
     999902    2    1    2    0    0  0.13386251158E-01  0.12746062124E-01  0.14545180157E-01  0.10204094540E+01  0.10201383424E+01 0.  0.
     999903    2    3    3    0    0 -0.48619938958E-01 -0.23717880989E-01 -0.11447188799E+00  0.12809796652E+00  0.19463800861E-01 0.  0.
         14    1    1    2    0    0 -0.13386251158E-01 -0.12746062124E-01 -0.14545180157E-01  0.23520546030E-01  0.00000000000E+00 0.  1.
     999901    1    3    3    0    0  0.62006190117E-01  0.36463943113E-01  0.12901706815E+00  0.89231148745E+00  0.88000000000E+00 0. -1.
        -11    1    4    4    0    0 -0.45909117142E-01 -0.23570985574E-01 -0.92250333428E-01  0.10570536191E+00  0.51100000000E-03 0. -1.
         11    1    4    4    0    0 -0.27108218166E-02 -0.14689541554E-03 -0.22221554563E-01  0.22392604613E-01  0.51100000000E-03 0.  1.
</event>
<event>
 8    1  0.1114333E+005  0.1043930E+01  0.7957747E-01            NaN
         13   -1    0    0    0    0  0.00000000000E+00  0.00000000000E+00  0.74505805969E-08  0.10566000000E+00  0.10566000000E+00 0.  1.
     999900   -1    0    0    0    0 -0.00000000000E+00 -0.00000000000E+00 -0.74505805969E-08  0.93827000000E+00  0.93827000000E+00 0. -1.
     999902    2    1    2    0    0 -0.62510518017E-02 -0.54604621319E-02  0.21776779627E-01  0.10206250558E+01  0.10203589486E+01 0.  0.
     999903    2    3    3    0    0 -0.93684818085E-01 -0.24076099666E-01  0.89731606183E-01  0.13348974257E+00  0.20279213703E-01 0.  0.
         14    1    1    2    0    0  0.62510518017E-02  0.54604621319E-02 -0.21776779627E-01  0.23304944245E-01  0.00000000000E+00 0. -1.
     999901    1    3    3    0    0  0.87433766284E-01  0.18615637535E-01 -0.67954826556E-01  0.88713531318E+00  0.88000000000E+00 0. -1.
        -11    1    4    4    0    0 -0.49717106297E-01 -0.32478667880E-02  0.39768081996E-01  0.63750300109E-01  0.51100000000E-03 0.  1.
         11    1    4    4    0    0 -0.43967711788E-01 -0.20828232878E-01  0.49963524187E-01  0.69739442462E-01  0.51100000000E-03 0. -1.
</event>
<event>
 8    1  0.1114333E+005  0.1043930E+01  0.7957747E-01            NaN
         13   -1    0    0    0    0  0.00000000000E+00  0.00000000000E+00  0.74505805969E-08  0.10566000000E+00  0.10566000000E+00 0. -1.
     999900   -1    0    0    0    0 -0.00000000000E+00 -0.00000000000E+00 -0.74505805969E-08  0.93827000000E+00  0.93827000000E+00 0. -1.
     999902    2    1    2    0    0  0.18917612250E-01 -0.11177178995E-01 -0.83435632400E-02  0.10204263741E+01  0.10201556570E+01 0.  0.
     999903    2    3    3    0    0  0.10482926410E+00  0.67962493652E-02  0.77234379024E-01  0.13192908076E+00  0.20118882421E-01 0.  0.
         14    1    1    2    0    0 -0.18917612250E-01  0.11177178995E-01  0.83435632400E-02  0.23503625913E-01  0.00000000000E+00 0. -1.
     999901    1    3    3    0    0 -0.85911651847E-01 -0.17973428360E-01 -0.85577942264E-01  0.88849729333E+00  0.88000000000E+00 0. -1.
        -11    1    4    4    0    0  0.58163709214E-02  0.35157273123E-02  0.10363606967E-01  0.12403869541E-01  0.51100000000E-03 0. -1.
         11    1    4    4    0    0  0.99012893176E-01  0.32805220529E-02  0.66870772057E-01  0.11952521122E+00  0.51100000000E-03 0.  1.
</event>
<event>
 8    1  0.1114333E+005  0.1043930E+01  0.7957747E-01            NaN
         13   -1    0    0    0    0  0.00000000000E+00  0.00000000000E+00  0.74505805969E-08  0.10566000000E+00  0.10566000000E+00 0. -1.
     999900   -1    0    0    0    0 -0.00000000000E+00 -0.00000000000E+00 -0.74505805969E-08  0.93827000000E+00  0.93827000000E+00 0.  1.
     999902    2    1    2    0    0 -0.10290951167E-01  0.89105485269E-02  0.21280337863E-01  0.10186682833E+01  0.10183550054E+01 0.  0.
     999903    2    3    3    0    0 -0.11695844669E+00 -0.31214207110E-01  0.45967199320E-01  0.13097611158E+00  0.19701609399E-01 0.  0.
         14    1    1    2    0    0  0.10290951167E-01 -0.89105485269E-02 -0.21280337863E-01  0.25261716698E-01  0.00000000000E+00 0.  1.
     999901    1    3    3    0    0  0.10666749552E+00  0.40124755637E-01 -0.24686861457E-01  0.88769217173E+00  0.88000000000E+00 0. -1.
        -11    1    4    4    0    0 -0.35226266062E-01 -0.18728631515E-01  0.16954998939E-01  0.43351869269E-01  0.51100000000E-03 0.  1.
         11    1    4    4    0    0 -0.81732180626E-01 -0.12485575595E-01  0.29012200382E-01  0.87624242307E-01  0.51100000000E-03 0. -1.
</event>
<event>
 8    1  0.1114333E+005  0.1043930E+01  0.7957747E-01            NaN
         13   -1    0    0    0    0  0.00000000000E+00  0.00000000000E+00  0.74505805969E-08  0.10566000000E+00  0.10566000000E+00 0. -1.
     999900   -1    0    0    0    0 -0.00000000000E+00 -0.00000000000E+00 -0.74505805969E-08  0.93827000000E+00  0.93827000000E+00 0. -1.
     999902    2    1    2    0    0  0.15277337867E-01 -0.11300273053E-01 -0.13143928671E-01  0.10208246741E+01  0.10205631579E+01 0.  0.
     999903    2    3    3    0    0  0.11529877200E+00  0.53667742218E-01 -0.32254809156E-01  0.13257338307E+00  0.19007782729E-01 0.  0.
         14    1    1    2    0    0 -0.15277337867E-01  0.11300273053E-01  0.13143928671E-01  0.23105325885E-01  0.00000000000E+00 0. -1.
     999901    1    3    3    0    0 -0.10002143413E+00 -0.64968015271E-01  0.19110880485E-01  0.88825129105E+00  0.88000000000E+00 0. -1.
        -11    1    4    4    0    0  0.84083894498E-01  0.39252537017E-01 -0.14660347760E-01  0.93947058994E-01  0.51100000000E-03 0. -1.
         11    1    4    4    0    0  0.31214877504E-01  0.14415205200E-01 -0.17594461396E-01  0.38626324073E-01  0.51100000000E-03 0.  1.
</event>
<event>
 8    1  0.1114333E+005  0.1043930E+01  0.7957747E-01            NaN
         13   -1    0    0    0    0  0.00000000000E+00  0.00000000000E+00  0.74505805969E-08  0.10566000000E+00  0.10566000000E+00 0. -1.
     999900   -1    0    0    0    0 -0.00000000000E+00 -0.00000000000E+00 -0.74505805969E-08  0.93827000000E+00  0.93827000000E+00 0.  1.
     999902    2    1    2    0    0  0.11699821285E-01  0.20162558611E-01  0.89828189621E-02  0.10189478939E+01  0.10186415979E+01 0.  0.
     999903    2    3    3    0    0  0.92559205910E-01 -0.77336566431E-01 -0.39289952407E-01  0.12856899709E+00  0.20931687593E-01 0.  0.
         14    1    1    2    0    0 -0.11699821285E-01 -0.20162558611E-01 -0.89828189621E-02  0.24982106083E-01  0.00000000000E+00 0.  1.
     999901    1    3    3    0    0 -0.80859384626E-01  0.97499125042E-01  0.48272771369E-01  0.89037889683E+00  0.88000000000E+00 0. -1.
        -11    1    4    4    0    0  0.70335135846E-01 -0.54693903262E-01 -0.19614531701E-01  0.91232918200E-01  0.51100000000E-03 0. -1.
         11    1    4    4    0    0  0.22224070065E-01 -0.22642663169E-01 -0.19675420706E-01  0.37336078886E-01  0.51100000000E-03 0.  1.
</event>
<event>
 8    1  0.1114333E+005  0.1043930E+01  0.7957747E-01            NaN
         13   -1    0    0    0    0  0.00000000000E+00  0.00000000000E+00  0.74505805969E-08  0.10566000000E+00  0.10566000000E+00 0. -1.
     999900   -1    0    0    0    0 -0.00000000000E+00 -0.00000000000E+00 -0.74505805969E-08  0.93827000000E+00  0.93827000000E+00 0.  1.
     999902    2    1    2    0    0  0.12258340107E-01  0.47455455834E-02  0.19629517630E-01  0.10203057526E+01  0.10200322170E+01 0.  0.
     999903    2    3    3    0    0  0.10664233140E+00 -0.24764912930E-01  0.68622272146E-01  0.13341258257E+00  0.33226694004E-01 0.  0.
         14    1    1    2    0    0 -0.12258340107E-01 -0.47455455834E-02 -0.19629517630E-01  0.23624247447E-01  0.00000000000E+00 0.  1.
     999901    1    3    3    0    0 -0.94383991290E-01  0.29510458514E-01 -0.48992754516E-01  0.88689316999E+00  0.88000000000E+00 0.  1.
        -11    1    4    4    0    0  0.42903386713E-01 -0.60300476108E-02  0.46090211180E-01  0.63258444126E-01  0.51100000000E-03 0.  1.
         11    1    4    4    0    0  0.63738944684E-01 -0.18734865320E-01  0.22532060966E-01  0.70154138441E-01  0.51100000000E-03 0. -1.
</event>
<event>
 7    1  0.1114333E+005  0.1043930E+01  0.7957747E-01            NaN
         13   -1    0    0    0    0  0.00000000000E+00  0.00000000000E+00  0.74505805969E-08  0.10566000000E+00  0.10566000000E+00 0. -1.
     999900   -1    0    0    0    0 -0.00000000000E+00 -0.00000000000E+00 -0.74505805969E-08  0.93827000000E+00  0.93827000000E+00 0. -1.
     999902    2    1    2    0    0 -0.16916766761E-01 -0.11282110807E-01  0.11979623949E-01  0.10203296947E+01  0.10200567197E+01 0.  0.
         14    1    1    2    0    0  0.16916766761E-01  0.11282110807E-01 -0.11979623949E-01  0.23600305334E-01  0.00000000000E+00 0.  1.
     999901    1    3    3    0    0  0.43519982101E-01 -0.80510266112E-01 -0.82321044755E-01  0.88856774992E+00  0.88000000000E+00 0. -1.
        -11    1    3    3    0    0 -0.29581869696E-01  0.30906366955E-01  0.45750825614E-01  0.62639362213E-01  0.51100000000E-03 0.  1.
         11    1    3    3    0    0 -0.30854879167E-01  0.38321788350E-01  0.48549843090E-01  0.69122582531E-01  0.51100000000E-03 0. -1.
</event>
<event>
 8    1  0.1114333E+005  0.1043930E+01  0.7957747E-01            NaN
         13   -1    0    0    0    0  0.00000000000E+00  0.00000000000E+00  0.74505805969E-08  0.10566000000E+00  0.10566000000E+00 0. -1.
     999900   -1    0    0    0    0 -0.00000000000E+00 -0.00000000000E+00 -0.74505805969E-08  0.93827000000E+00  0.93827000000E+00 0. -1.
     999902    2    1    2    0    0  0.16998982100E-01  0.16651837485E-01  0.26527866653E-03  0.10201325326E+01  0.10198549233E+01 0.  0.
     999903    2    3    3    0    0 -0.55030677255E-01  0.25351377846E-01 -0.11306340351E+00  0.12990371701E+00  0.20507917536E-01 0.  0.
         14    1    1    2    0    0 -0.16998982100E-01 -0.16651837485E-01 -0.26527866653E-03  0.23797467446E-01  0.00000000000E+00 0.  1.
     999901    1    3    3    0    0  0.72029659355E-01 -0.86995403602E-02  0.11332868217E+00  0.89022881555E+00  0.88000000000E+00 0.  1.
        -11    1    4    4    0    0 -0.37843107137E-01  0.23154715292E-01 -0.64057287129E-01  0.77922004295E-01  0.51100000000E-03 0. -1.
         11    1    4    4    0    0 -0.17187570118E-01  0.21966625534E-02 -0.49006116377E-01  0.51981712711E-01  0.51100000000E-03 0.  1.
</event>
<event>
 8    1  0.1114333E+005  0.1043930E+01  0.7957747E-01            NaN
         13   -1    0    0    0    0  0.00000000000E+00  0.00000000000E+00  0.74505805969E-08  0.10566000000E+00  0.10566000000E+00 0.  1.
     999900   -1    0    0    0    0 -0.00000000000E+00 -0.00000000000E+00 -0.74505805969E-08  0.93827000000E+00  0.93827000000E+00 0. -1.
     999902    2    1    2    0    0  0.51885705024E-02  0.21536668186E-01 -0.92499393836E-02  0.10199235276E+01  0.10196409620E+01 0.  0.
     999903    2    3    3    0    0 -0.55261004125E-01 -0.11196971789E+00  0.16551966352E-01  0.12743047743E+00  0.19327769841E-01 0.  0.
         14    1    1    2    0    0 -0.51885705024E-02 -0.21536668186E-01  0.92499393836E-02  0.24006472440E-01  0.00000000000E+00 0.  1.
     999901    1    3    3    0    0  0.60449574627E-01  0.13350638607E+00 -0.25801905736E-01  0.89249305013E+00  0.88000000000E+00 0. -1.
        -11    1    4    4    0    0 -0.26221987024E-02 -0.20882815079E-01  0.45982830424E-02  0.21549320630E-01  0.51100000000E-03 0. -1.
         11    1    4    4    0    0 -0.52638805423E-01 -0.91086902807E-01  0.11953683310E-01  0.10588115680E+00  0.51100000000E-03 0.  1.
</event>
<event>
 8    1  0.1114333E+005  0.1043930E+01  0.7957747E-01            NaN
         13   -1    0    0    0    0  0.00000000000E+00  0.00000000000E+00  0.74505805969E-08  0.10566000000E+00  0.10566000000E+00 0. -1.
     999900   -1    0    0    0    0 -0.00000000000E+00 -0.00000000000E+00 -0.74505805969E-08  0.93827000000E+00  0.93827000000E+00 0.  1.
     999902    2    1    2    0    0  0.11842550783E-01 -0.19765291018E-01  0.67131702041E-02  0.10199304293E+01  0.10196480281E+01 0.  0.
     999903    2    3    3    0    0  0.15770279425E-01 -0.58030520957E-01 -0.11460357272E+00  0.13077498342E+00  0.18758313709E-01 0.  0.
         14    1    1    2    0    0 -0.11842550783E-01  0.19765291018E-01 -0.67131702041E-02  0.23999570668E-01  0.00000000000E+00 0.  1.
     999901    1    3    3    0    0 -0.39277286414E-02  0.38265229939E-01  0.12131674293E+00  0.88915544591E+00  0.88000000000E+00 0. -1.
        -11    1    4    4    0    0 -0.25060334825E-03 -0.33246555919E-01 -0.66210724107E-01  0.74091277424E-01  0.51100000000E-03 0.  1.
         11    1    4    4    0    0  0.16020882773E-01 -0.24783965038E-01 -0.48392848615E-01  0.56683706000E-01  0.51100000000E-03 0. -1.
</event>
<event>
 8    1  0.1114333E+005  0.1043930E+01  0.7957747E-01            NaN
         13   -1    0    0    0    0  0.00000000000E+00  0.00000000000E+00  0.74505805969E-08  0.10566000000E+00  0.10566000000E+00 0.  1.
     999900   -1    0    0    0    0 -0.00000000000E+00 -0.00000000000E+00 -0.74505805969E-08  0.93827000000E+00  0.93827000000E+00 0.  1.
     999902    2    1    2    0    0 -0.14508593567E-01  0.19552852374E-01 -0.31179519346E-02  0.10193834127E+01  0.10190878309E+01 0.  0.
     999903    2    3    3    0    0 -0.38786523674E-01 -0.75872142715E-01 -0.94967651115E-01  0.12914090934E+00  0.19938486569E-01 0.  0.
         14    1    1    2    0    0  0.14508593567E-01 -0.19552852374E-01  0.31179519346E-02  0.24546587289E-01  0.00000000000E+00 0. -1.
     999901    1    3    3    0    0  0.24277930107E-01  0.95424995089E-01  0.91849699180E-01  0.89024250338E+00  0.88000000000E+00 0. -1.
        -11    1    4    4    0    0 -0.16823110921E-01 -0.17492284740E-01 -0.35150095192E-01  0.42717530353E-01  0.51100000000E-03 0.  1.
         11    1    4    4    0    0 -0.21963412753E-01 -0.58379857976E-01 -0.59817555923E-01  0.86423378982E-01  0.51100000000E-03 0. -1.
</event>
<event>
 8    1  0.1114333E+005  0.1043930E+01  0.7957747E-01            NaN
         13   -1    0    0    0    0  0.00000000000E+00  0.00000000000E+00  0.74505805969E-08  0.10566000000E+00  0.10566000000E+00 0. -1.
     999900   -1    0    0    0    0 -0.00000000000E+00 -0.00000000000E+00 -0.74505805969E-08  0.93827000000E+00  0.93827000000E+00 0. -1.
     999902    2    1    2    0    0 -0.11939350309E-01  0.15034888940E-01  0.15497732230E-01  0.10192566201E+01  0.10189579392E+01 0.  0.
     999903    2    3    3    0    0  0.83186152296E-01  0.87859703632E-01 -0.40983950117E-01  0.12934511028E+00  0.20278311799E-01 0.  0.
         14    1    1    2    0    0  0.11939350309E-01 -0.15034888940E-01 -0.15497732230E-01  0.24673379896E-01  0.00000000000E+00 0.  1.
     999901    1    3    3    0    0 -0.95125502605E-01 -0.72824814693E-01  0.56481682347E-01  0.88991150983E+00  0.88000000000E+00 0.  1.
        -11    1    4    4    0    0  0.52157060448E-01  0.57986969264E-01 -0.36263004221E-01  0.86012290721E-01  0.51100000000E-03 0. -1.
         11    1    4    4    0    0  0.31029091848E-01  0.29872734368E-01 -0.47209458957E-02  0.43332819556E-01  0.51100000000E-03 0.  1.
</event>
<event>
 8    1  0.1114333E+005  0.1043930E+01  0.7957747E-01            NaN
         13   -1    0    0    0    0  0.00000000000E+00  0.00000000000E+00  0.74505805969E-08  0.10566000000E+00  0.10566000000E+00 0. -1.
     999900   -1    0    0    0    0 -0.00000000000E+00 -0.00000000000E+00 -0.74505805969E-08  0.93827000000E+00  0.93827000000E+00 0. -1.
     999902    2    1    2    0    0  0.19211951937E-01  0.11736143296E-01 -0.62191459696E-02  0.10205737603E+01  0.10203064668E+01 0.  0.
     999903    2    3    3    0    0 -0.21945739289E-01 -0.10172746347E+00 -0.74904622150E-01  0.12968339653E+00  0.19416194744E-01 0.  0.
         14    1    1    2    0    0 -0.19211951937E-01 -0.11736143296E-01  0.62191459696E-02  0.23356239708E-01  0.00000000000E+00 0. -1.
     999901    1    3    3    0    0  0.41157691227E-01  0.11346360677E+00  0.68685476180E-01  0.89089036376E+00  0.88000000000E+00 0.  1.
        -11    1    4    4    0    0  0.55149628171E-03 -0.35007456048E-01 -0.30516984433E-01  0.46447535855E-01  0.51100000000E-03 0. -1.
         11    1    4    4    0    0 -0.22497235571E-01 -0.66720007425E-01 -0.44387637717E-01  0.83235860674E-01  0.51100000000E-03 0.  1.
</event>
<event>
 8    1  0.1114333E+005  0.1043930E+01  0.7957747E-01            NaN
         13   -1    0    0    0    0  0.00000000000E+00  0.00000000000E+00  0.74505805969E-08  0.10566000000E+00  0.10566000000E+00 0. -1.
     999900   -1    0    0    0    0 -0.00000000000E+00 -0.00000000000E+00 -0.74505805969E-08  0.93827000000E+00  0.93827000000E+00 0. -1.
     999902    2    1    2    0    0 -0.61723799803E-02 -0.14899503212E-01  0.13205098025E-01  0.10230861020E+01  0.10228737478E+01 0.  0.
     999903    2    3    3    0    0  0.82884750413E-01 -0.10230923444E+00  0.17354163482E-01  0.13427293358E+00  0.19773527741E-01 0.  0.
         14    1    1    2    0    0  0.61723799803E-02  0.14899503212E-01 -0.13205098025E-01  0.20843898014E-01  0.00000000000E+00 0.  1.
     999901    1    3    3    0    0 -0.89057130394E-01  0.87409731227E-01 -0.41490654576E-02  0.88881316841E+00  0.88000000000E+00 0.  1.
        -11    1    4    4    0    0  0.50354956123E-01 -0.69395964563E-01  0.19548177045E-01  0.87942105106E-01  0.51100000000E-03 0.  1.
         11    1    4    4    0    0  0.32529794290E-01 -0.32913269877E-01 -0.21940135623E-02  0.46330828473E-01  0.51100000000E-03 0. -1.
</event>
<event>
 8    1  0.1114333E+005  0.1043930E+01  0.7957747E-01            NaN
         13   -1    0    0    0    0  0.00000000000E+00  0.00000000000E+00  0.74505805969E-08  0.10566000000E+00  0.10566000000E+00 0.  1.
     999900   -1    0    0    0    0 -0.00000000000E+00 -0.00000000000E+00 -0.74505805969E-08  0.93827000000E+00  0.93827000000E+00 0.  1.
     999902    2    1    2    0    0 -0.27119319709E-01 -0.34604135216E-02  0.18327001339E-01  0.10110163107E+01  0.10104804153E+01 0.  0.
     999903    2    3    3    0    0 -0.10035955882E+00 -0.20950436007E-01  0.70913773290E-01  0.12623644992E+00  0.19897643879E-01 0.  0.
         14    1    1    2    0    0  0.27119319709E-01  0.34604135216E-02 -0.18327001339E-01  0.32913689269E-01  0.00000000000E+00 0. -1.
     999901    1    3    3    0    0  0.73240239107E-01  0.17490022486E-01 -0.52586771951E-01  0.88477986081E+00  0.88000000000E+00 0.  1.
        -11    1    4    4    0    0 -0.56764653909E-01 -0.13265645095E-01  0.28351677374E-01  0.64825010637E-01  0.51100000000E-03 0.  1.
         11    1    4    4    0    0 -0.43594904906E-01 -0.76847909125E-02  0.42562095915E-01  0.61411439284E-01  0.51100000000E-03 0. -1.
</event>
<event>
 8    1  0.1114333E+005  0.1043930E+01  0.7957747E-01            NaN
         13   -1    0    0    0    0  0.00000000000E+00  0.00000000000E+00  0.74505805969E-08  0.10566000000E+00  0.10566000000E+00 0.  1.
     999900   -1    0    0    0    0 -0.00000000000E+00 -0.00000000000E+00 -0.74505805969E-08  0.93827000000E+00  0.93827000000E+00 0.  1.
     999902    2    1    2    0    0  0.20929086057E-01  0.66258553325E-02  0.12482938798E-01  0.10186762406E+01  0.10183631625E+01 0.  0.
     999903    2    3    3    0    0  0.10813172983E+00  0.94186001510E-02  0.72809587953E-01  0.13230645034E+00  0.20556742907E-01 0.  0.
         14    1    1    2    0    0 -0.20929086057E-01 -0.66258553325E-02 -0.12482938798E-01  0.25253759386E-01  0.00000000000E+00 0. -1.
     999901    1    3    3    0    0 -0.87202643777E-01 -0.27927448186E-02 -0.60326649155E-01  0.88636979027E+00  0.88000000000E+00 0.  1.
        -11    1    4    4    0    0  0.90359686767E-01  0.12756660327E-01  0.53220732191E-01  0.10564238179E+00  0.51100000000E-03 0.  1.
         11    1    4    4    0    0  0.17772043068E-01 -0.33380601761E-02  0.19588855762E-01  0.26664068549E-01  0.51100000000E-03 0. -1.
</event>
<event>
 8    1  0.1114333E+005  0.1043930E+01  0.7957747E-01            NaN
         13   -1    0    0    0    0  0.00000000000E+00  0.00000000000E+00  0.74505805969E-08  0.10566000000E+00  0.10566000000E+00 0. -1.
     999900   -1    0    0    0    0 -0.00000000000E+00 -0.00000000000E+00 -0.74505805969E-08  0.93827000000E+00  0.93827000000E+00 0. -1.
     999902    2    1    2    0    0 -0.21898013547E-01  0.27060226871E-02 -0.66109079434E-02  0.10208963364E+01  0.10206364583E+01 0.  0.
     999903    2    3    3    0    0  0.10650694407E+00  0.65714351018E-01  0.23427225012E-01  0.12884242993E+00  0.19734026755E-01 0.  0.
         14    1    1    2    0    0  0.21898013547E-01 -0.27060226871E-02  0.66109079434E-02  0.23033663624E-01  0.00000000000E+00 0.  1.
     999901    1    3    3    0    0 -0.12840495762E+00 -0.63008328331E-01 -0.30038132956E-01  0.89205390645E+00  0.88000000000E+00 0. -1.
        -11    1    4    4    0    0  0.30754959667E-01  0.26347109000E-01  0.74071303074E-03  0.40507375545E-01  0.51100000000E-03 0.  1.
         11    1    4    4    0    0  0.75751984407E-01  0.39367242018E-01  0.22686511981E-01  0.88335054382E-01  0.51100000000E-03 0. -1.
</event>
<event>
 8    1  0.1114333E+005  0.1043930E+01  0.7957747E-01            NaN
         13   -1    0    0    0    0  0.00000000000E+00  0.00000000000E+00  0.74505805969E-08  0.10566000000E+00  0.10566000000E+00 0.  1.
     999900   -1    0    0    0    0 -0.00000000000E+00 -0.00000000000E+00 -0.74505805969E-08  0.93827000000E+00  0.93827000000E+00 0.  1.
     999902    2    1    2    0    0 -0.60105751211E-02  0.15673138745E-01  0.12451226077E-01  0.10230300641E+01  0.10228165547E+01 0.  0.
     999903    2    3    3    0    0 -0.45395384988E-01 -0.10563553084E+00 -0.59553785563E-01  0.13092486944E+00  0.19366510021E-01 0.  0.
         14    1    1    2    0    0  0.60105751211E-02 -0.15673138745E-01 -0.12451226077E-01  0.20899935938E-01  0.00000000000E+00 0. -1.
     999901    1    3    3    0    0  0.39384809867E-01  0.12130866958E+00  0.72005011640E-01  0.89210519462E+00  0.88000000000E+00 0. -1.
        -11    1    4    4    0    0 -0.16493431252E-01 -0.60230319724E-01 -0.27136116622E-01  0.68090782305E-01  0.51100000000E-03 0.  1.
         11    1    4    4    0    0 -0.28901953736E-01 -0.45405211112E-01 -0.32417668941E-01  0.62834087138E-01  0.51100000000E-03 0. -1.
</event>
<event>
 8    1  0.1114333E+005  0.1043930E+01  0.7957747E-01            NaN
         13   -1    0    0    0    0  0.00000000000E+00  0.00000000000E+00  0.74505805969E-08  0.10566000000E+00  0.10566000000E+00 0.  1.
     999900   -1    0    0    0    0 -0.00000000000E+00 -0.00000000000E+00 -0.74505805969E-08  0.93827000000E+00  0.93827000000E+00 0. -1.
     999902    2    1    2    0    0  0.21219607315E-01  0.91014591914E-03 -0.65471352788E-02  0.10217046748E+01  0.10214629104E+01 0.  0.
     999903    2    3    3    0    0 -0.77579514477E-02  0.59872136594E-01 -0.11611158837E+00  0.13247996493E+00  0.20595669504E-01 0.  0.
         14    1    1    2    0    0 -0.21219607315E-01 -0.91014591914E-03  0.65471352788E-02  0.22225325207E-01  0.00000000000E+00 0. -1.
     999901    1    3    3    0    0  0.28977558763E-01 -0.58961990675E-01  0.10956445309E+00  0.88922470987E+00  0.88000000000E+00 0.  1.
        -11    1    4    4    0    0 -0.13229860824E-02 -0.96898288582E-03 -0.86773312372E-02  0.88457005606E-02  0.51100000000E-03 0.  1.
         11    1    4    4    0    0 -0.64349653654E-02  0.60841119480E-01 -0.10743425713E+00  0.12363426437E+00  0.51100000000E-03 0. -1.
</event>
<event>
 8    1  0.1114333E+005  0.1043930E+01  0.7957747E-01            NaN
         13   -1    0    0    0    0  0.00000000000E+00  0.00000000000E+00  0.74505805969E-08  0.10566000000E+00  0.10566000000E+00 0.  1.
     999900   -1    0    0    0    0 -0.00000000000E+00 -0.00000000000E+00 -0.74505805969E-08  0.93827000000E+00  0.93827000000E+00 0.  1.
     999902    2    1    2    0    0 -0.86816813926E-03  0.50130129834E-02  0.23554067430E-01  0.10198327365E+01  0.10195480039E+01 0.  0.
     999903    2    3    3    0    0  0.10448956709E+00 -0.58376982436E-01  0.49516536883E-01  0.13090495896E+00  0.18928263112E-01 0.  0.
         14    1    1    2    0    0  0.86816813926E-03 -0.50130129834E-02 -0.23554067430E-01  0.24097263488E-01  0.00000000000E+00 0. -1.
     999901    1    3    3    0    0 -0.10535773523E+00  0.63389995419E-01 -0.25962469453E-01  0.88892777756E+00  0.88000000000E+00 0. -1.
        -11    1    4    4    0    0  0.20725603488E-01 -0.10371759284E-01  0.19117477006E-02  0.23260265064E-01  0.51100000000E-03 0. -1.
         11    1    4    4    0    0  0.83763963605E-01 -0.48005223152E-01  0.47604789182E-01  0.10764469389E+00  0.51100000000E-03 0.  1.
</event>
<event>
 8    1  0.1114333E+005  0.1043930E+01  0.7957747E-01            NaN
         13   -1    0    0    0    0  0.00000000000E+00  0.00000000000E+00  0.74505805969E-08  0.10566000000E+00  0.10566000000E+00 0.  1.
     999900   -1    0    0    0    0 -0.00000000000E+00 -0.00000000000E+00 -0.74505805969E-08  0.93827000000E+00  0.93827000000E+00 0. -1.
     999902    2    1    2    0    0  0.16607774289E-01 -0.10053800381E-01  0.13482410512E-01  0.10202937469E+01  0.10200199299E+01 0.  0.
     999903    2    3    3    0    0  0.38904152258E-01  0.44185600277E-01  0.11681560843E+00  0.13230906747E+00  0.19846980283E-01 0.  0.
         14    1    1    2    0    0 -0.16607774289E-01  0.10053800381E-01 -0.13482410512E-01  0.23636253132E-01  0.00000000000E+00 0. -1.
     999901    1    3    3    0    0 -0.22296377969E-01 -0.54239400658E-01 -0.10333319792E+00  0.88798467940E+00  0.88000000000E+00 0. -1.
        -11    1    4    4    0    0  0.52404600615E-02  0.69585026077E-02  0.37061322744E-01  0.38074741559E-01  0.51100000000E-03 0.  1.
         11    1    4    4    0    0  0.33663692197E-01  0.37227097669E-01  0.79754285688E-01  0.94234325911E-01  0.51100000000E-03 0. -1.
</event>
<event>
 8    1  0.1114333E+005  0.1043930E+01  0.7957747E-01            NaN
         13   -1    0    0    0    0  0.00000000000E+00  0.00000000000E+00  0.74505805969E-08  0.10566000000E+00  0.10566000000E+00 0. -1.
     999900   -1    0    0    0    0 -0.00000000000E+00 -0.00000000000E+00 -0.74505805969E-08  0.93827000000E+00  0.93827000000E+00 0. -1.
     999902    2    1    2    0    0  0.24316747548E-02  0.11611911239E-01  0.20444481434E-01  0.10202926070E+01  0.10200187634E+01 0.  0.
     999903    2    3    3    0    0 -0.10643462440E+00  0.59564972384E-01 -0.40957496926E-01  0.13016813816E+00  0.19746200418E-01 0.  0.
         14    1    1    2    0    0 -0.24316747548E-02 -0.11611911239E-01 -0.20444481434E-01  0.23637392958E-01  0.00000000000E+00 0. -1.
     999901    1    3    3    0    0  0.10886629915E+00 -0.47953061145E-01  0.61401978361E-01  0.89012446889E+00  0.88000000000E+00 0. -1.
        -11    1    4    4    0    0 -0.93432123425E-01  0.52433449073E-01 -0.28690327898E-01  0.11091539255E+00  0.51100000000E-03 0. -1.
         11    1    4    4    0    0 -0.13002500971E-01  0.71315233102E-02 -0.12267169029E-01  0.19252745602E-01  0.51100000000E-03 0.  1.
</event>
<event>
 8    1  0.1114333E+005  0.1043930E+01  0.7957747E-01            NaN
         13   -1    0    0    0    0  0.00000000000E+00  0.00000000000E+00  0.74505805969E-08  0.10566000000E+00  0.10566000000E+00 0.  1.
     999900   -1    0    0    0    0 -0.00000000000E+00 -0.00000000000E+00 -0.74505805969E-08  0.93827000000E+00  0.93827000000E+00 0.  1.
     999902    2    1    2    0    0 -0.12663816793E-01 -0.20359706100E-01  0.14356394270E-02  0.10199101967E+01  0.10196273135E+01 0.  0.
     999903    2    3    3    0    0  0.74254140486E-01 -0.32077148512E-02  0.10442651261E+00  0.12948555531E+00  0.18375137694E-01 0.  0.
         14    1    1    2    0    0  0.12663816793E-01  0.20359706100E-01 -0.14356394270E-02  0.24019803263E-01  0.00000000000E+00 0.  1.
     999901    1    3    3    0    0 -0.86917957278E-01 -0.17151991249E-01 -0.10299087318E+00  0.89042464143E+00  0.88000000000E+00 0.  1.
        -11    1    4    4    0    0  0.15878367774E-01 -0.51514083310E-02  0.13791010873E-01  0.21659009046E-01  0.51100000000E-03 0.  1.
         11    1    4    4    0    0  0.58375772712E-01  0.19436934798E-02  0.90635501732E-01  0.10782654626E+00  0.51100000000E-03 0. -1.
</event>
<event>
 8    1  0.1114333E+005  0.1043930E+01  0.7957747E-01            NaN
         13   -1    0    0    0    0  0.00000000000E+00  0.00000000000E+00  0.74505805969E-08  0.10566000000E+00  0.10566000000E+00 0.  1.
     999900   -1    0    0    0    0 -0.00000000000E+00 -0.00000000000E+00 -0.74505805969E-08  0.93827000000E+00  0.93827000000E+00 0.  1.
     999902    2    1    2    0    0  0.12529500288E-01  0.63145436418E-03  0.19729395291E-01  0.10205497487E+01  0.10202818990E+01 0.  0.
     999903    2    3    3    0    0 -0.84264781105E-01  0.70811471938E-01  0.68324109206E-01  0.13113656351E+00  0.20341988537E-01 0.  0.
         14    1    1    2    0    0 -0.12529500288E-01 -0.63145436418E-03 -0.19729395291E-01  0.23380251296E-01  0.00000000000E+00 0. -1.
     999901    1    3    3    0    0  0.96794281393E-01 -0.70180017574E-01 -0.48594713915E-01  0.88941318519E+00  0.88000000000E+00 0.  1.
        -11    1    4    4    0    0 -0.19605128021E-01  0.28046149831E-01  0.17501160718E-01  0.38438253245E-01  0.51100000000E-03 0. -1.
         11    1    4    4    0    0 -0.64659653084E-01  0.42765322107E-01  0.50822948488E-01  0.92698310265E-01  0.51100000000E-03 0.  1.
</event>
<event>
 7    1  0.1114333E+005  0.1043930E+01  0.7957747E-01            NaN
         13   -1    0    0    0    0  0.00000000000E+00  0.00000000000E+00  0.74505805969E-08  0.10566000000E+00  0.10566000000E+00 0. -1.
     999900   -1    0    0    0    0 -0.00000000000E+00 -0.00000000000E+00 -0.74505805969E-08  0.93827000000E+00  0.93827000000E+00 0.  1.
     999902    2    1    2    0    0 -0.18576797989E-01 -0.48695318787E-02  0.16061048172E-01  0.10188946843E+01  0.10185870658E+01 0.  0.
         14    1    1    2    0    0  0.18576797989E-01  0.48695318787E-02 -0.16061048172E-01  0.25035315708E-01  0.00000000000E+00 0.  1.
     999901    1    3    3    0    0  0.90243592553E-01 -0.33831641776E-01 -0.33789707085E-01  0.88590644556E+00  0.88000000000E+00 0.  1.
        -11    1    3    3    0    0 -0.78929786528E-01  0.10583746011E-01  0.56006954229E-01  0.97359986257E-01  0.51100000000E-03 0. -1.
         11    1    3    3    0    0 -0.29890604014E-01  0.18378363886E-01 -0.61561989727E-02  0.35628252473E-01  0.51100000000E-03 0.  1.
</event>
<event>
 8    1  0.1114333E+005  0.1043930E+01  0.7957747E-01            NaN
         13   -1    0    0    0    0  0.00000000000E+00  0.00000000000E+00  0.74505805969E-08  0.10566000000E+00  0.10566000000E+00 0.  1.
     999900   -1    0    0    0    0 -0.00000000000E+00 -0.00000000000E+00 -0.74505805969E-08  0.93827000000E+00  0.93827000000E+00 0.  1.
     999902    2    1    2    0    0 -0.16107578876E-01 -0.11901017311E-03  0.16409863959E-01  0.10209353942E+01  0.10206764067E+01 0.  0.
     999903    2    3    3    0    0 -0.49463812696E-01 -0.78485560448E-01  0.93321611417E-01  0.13348434122E+00  0.22416383042E-01 0.  0.
         14    1    1    2    0    0  0.16107578876E-01  0.11901017311E-03 -0.16409863959E-01  0.22994605799E-01  0.00000000000E+00 0. -1.
     999901    1    3    3    0    0  0.33356233820E-01  0.78366550275E-01 -0.76911747458E-01  0.88745105298E+00  0.88000000000E+00 0.  1.
        -11    1    4    4    0    0 -0.49313384125E-01 -0.65999540499E-01  0.75737006154E-01  0.11191114521E+00  0.51100000000E-03 0. -1.
         11    1    4    4    0    0 -0.15042857075E-03 -0.12486019949E-01  0.17584605264E-01  0.21573196013E-01  0.51100000000E-03 0.  1.
</event>
<event>
 8    1  0.1114333E+005  0.1043930E+01  0.7957747E-01            NaN
         13   -1    0    0    0    0  0.00000000000E+00  0.00000000000E+00  0.74505805969E-08  0.10566000000E+00  0.10566000000E+00 0.  1.
     999900   -1    0    0    0    0 -0.00000000000E+00 -0.00000000000E+00 -0.74505805969E-08  0.93827000000E+00  0.93827000000E+00 0. -1.
     999902    2    1    2    0    0 -0.10447570968E-01  0.73936145454E-03 -0.24797168350E-01  0.10170116428E+01  0.10166553416E+01 0.  0.
     999903    2    3    3    0    0  0.83044195685E-01  0.33465008895E-01  0.84391729382E-01  0.12474828831E+00  0.20589467962E-01 0.  0.
         14    1    1    2    0    0  0.10447570968E-01 -0.73936145454E-03  0.24797168350E-01  0.26918357169E-01  0.00000000000E+00 0.  1.
     999901    1    3    3    0    0 -0.93491766653E-01 -0.32725647441E-01 -0.10918889773E+00  0.89226335452E+00  0.88000000000E+00 0. -1.
        -11    1    4    4    0    0  0.54171544763E-01  0.28644587783E-01  0.46835975707E-01  0.77129361548E-01  0.51100000000E-03 0.  1.
         11    1    4    4    0    0  0.28872650921E-01  0.48204211125E-02  0.37555753675E-01  0.47618926763E-01  0.51100000000E-03 0. -1.
</event>
<event>
 8    1  0.1114333E+005  0.1043930E+01  0.7957747E-01            NaN
         13   -1    0    0    0    0  0.00000000000E+00  0.00000000000E+00  0.74505805969E-08  0.10566000000E+00  0.10566000000E+00 0.  1.
     999900   -1    0    0    0    0 -0.00000000000E+00 -0.00000000000E+00 -0.74505805969E-08  0.93827000000E+00  0.93827000000E+00 0.  1.
     999902    2    1    2    0    0  0.10134611954E-01 -0.34828355251E-02  0.18250826876E-01  0.10227655679E+01  0.10225465631E+01 0.  0.
     999903    2    3    3    0    0  0.59626231998E-01 -0.39046469809E-01  0.11352625156E+00  0.13552738172E+00  0.19988673161E-01 0.  0.
         14    1    1    2    0    0 -0.10134611954E-01  0.34828355251E-02 -0.18250826876E-01  0.21164432060E-01  0.00000000000E+00 0. -1.
     999901    1    3    3    0    0 -0.49491620044E-01  0.35563634284E-01 -0.95275424688E-01  0.88723818622E+00  0.88000000000E+00 0.  1.
        -11    1    4    4    0    0  0.38111836758E-01 -0.14746531150E-01  0.72357616158E-01  0.83101492280E-01  0.51100000000E-03 0. -1.
         11    1    4    4    0    0  0.21514395240E-01 -0.24299938659E-01  0.41168635406E-01  0.52425889440E-01  0.51100000000E-03 0.  1.
</event>
<event>
 8    1  0.1114333E+005  0.1043930E+01  0.7957747E-01            NaN
         13   -1    0    0    0    0  0.00000000000E+00  0.00000000000E+00  0.74505805969E-08  0.10566000000E+00  0.10566000000E+00 0. -1.
     999900   -1    0    0    0    0 -0.00000000000E+00 -0.00000000000E+00 -0.74505805969E-08  0.93827000000E+00  0.93827000000E+00 0. -1.
     999902    2    1    2    0    0 -0.19207837469E-01 -0.12579956374E-01  0.36149950683E-02  0.10206864092E+01  0.10204217175E+01 0.  0.
     999903    2    3    3    0    0 -0.79510494068E-01  0.90949615010E-01 -0.46840194108E-01  0.13113567506E+00  0.20219059128E-01 0.  0.
         14    1    1    2    0    0  0.19207837469E-01  0.12579956374E-01 -0.36149950683E-02  0.23243590772E-01  0.00000000000E+00 0. -1.
     999901    1    3    3    0    0  0.60302656599E-01 -0.10352957138E+00  0.50455189176E-01  0.88955073417E+00  0.88000000000E+00 0.  1.
        -11    1    4    4    0    0 -0.52216911464E-01  0.67399551416E-01 -0.41019911931E-01  0.94616064544E-01  0.51100000000E-03 0. -1.
         11    1    4    4    0    0 -0.27293582604E-01  0.23550063594E-01 -0.58202821764E-02  0.36519610517E-01  0.51100000000E-03 0.  1.
</event>
<event>
 8    1  0.1114333E+005  0.1043930E+01  0.7957747E-01            NaN
         13   -1    0    0    0    0  0.00000000000E+00  0.00000000000E+00  0.74505805969E-08  0.10566000000E+00  0.10566000000E+00 0. -1.
     999900   -1    0    0    0    0 -0.00000000000E+00 -0.00000000000E+00 -0.74505805969E-08  0.93827000000E+00  0.93827000000E+00 0. -1.
     999902    2    1    2    0    0 -0.14544290018E-01  0.18523005358E-01  0.57495793318E-02  0.10196875628E+01  0.10193993476E+01 0.  0.
     999903    2    3    3    0    0 -0.20197929955E-01  0.10857684799E+00  0.70662070540E-01  0.13269529127E+00  0.20445630785E-01 0.  0.
         14    1    1    2    0    0  0.14544290018E-01 -0.18523005358E-01 -0.57495793318E-02  0.24242437215E-01  0.00000000000E+00 0. -1.
     999901    1    3    3    0    0  0.56536399362E-02 -0.90053842629E-01 -0.64912491208E-01  0.88699227152E+00  0.88000000000E+00 0. -1.
        -11    1    4    4    0    0 -0.23089706387E-01  0.97056039432E-01  0.58335894347E-01  0.11556966307E+00  0.51100000000E-03 0. -1.
         11    1    4    4    0    0  0.28917764321E-02  0.11520808556E-01  0.12326176193E-01  0.17125628200E-01  0.51100000000E-03 0.  1.
</event>
<event>
 8    1  0.1114333E+005  0.1043930E+01  0.7957747E-01            NaN
         13   -1    0    0    0    0  0.00000000000E+00  0.00000000000E+00  0.74505805969E-08  0.10566000000E+00  0.10566000000E+00 0.  1.
     999900   -1    0    0    0    0 -0.00000000000E+00 -0.00000000000E+00 -0.74505805969E-08  0.93827000000E+00  0.93827000000E+00 0. -1.
     999902    2    1    2    0    0  0.15773353314E-02 -0.46039712355E-02 -0.23104667537E-01  0.10203183461E+01  0.10200451055E+01 0.  0.
     999903    2    3    3    0    0 -0.11119964717E-01  0.71327543998E-01  0.10368321482E+00  0.12790477407E+00  0.19953697557E-01 0.  0.
         14    1    1    2    0    0 -0.15773353314E-02  0.46039712355E-02  0.23104667537E-01  0.23611653899E-01  0.00000000000E+00 0.  1.
     999901    1    3    3    0    0  0.12697300048E-01 -0.75931515233E-01 -0.12678788236E+00  0.89241357203E+00  0.88000000000E+00 0. -1.
        -11    1    4    4    0    0 -0.15707969041E-01  0.57255191969E-01  0.89468292985E-01  0.10737659833E+00  0.51100000000E-03 0.  1.
         11    1    4    4    0    0  0.45880043241E-02  0.14072352028E-01  0.14214921835E-01  0.20528175737E-01  0.51100000000E-03 0. -1.
</event>
<event>
 8    1  0.1114333E+005  0.1043930E+01  0.7957747E-01            NaN
         13   -1    0    0    0    0  0.00000000000E+00  0.00000000000E+00  0.74505805969E-08  0.10566000000E+00  0.10566000000E+00 0. -1.
     999900   -1    0    0    0    0 -0.00000000000E+00 -0.00000000000E+00 -0.74505805969E-08  0.93827000000E+00  0.93827000000E+00 0. -1.
     999902    2    1    2    0    0  0.16182389872E-01 -0.19347415037E-01 -0.32565555845E-02  0.10184977888E+01  0.10181802142E+01 0.  0.
     999903    2    3    3    0    0 -0.95765877741E-01  0.75741764907E-01  0.22628832478E-01  0.12594839520E+00  0.21047942960E-01 0.  0.
         14    1    1    2    0    0 -0.16182389872E-01  0.19347415037E-01  0.32565555845E-02  0.25432211167E-01  0.00000000000E+00 0. -1.
     999901    1    3    3    0    0  0.11194826761E+00 -0.95089179944E-01 -0.25885388063E-01  0.89254939364E+00  0.88000000000E+00 0.  1.
        -11    1    4    4    0    0 -0.77796030484E-01  0.59174204524E-01  0.26314307323E-01  0.10122505980E+00  0.51100000000E-03 0.  1.
         11    1    4    4    0    0 -0.17969847257E-01  0.16567560383E-01 -0.36854748449E-02  0.24723335400E-01  0.51100000000E-03 0. -1.
</event>
<event>
 8    1  0.1114333E+005  0.1043930E+01  0.7957747E-01            NaN
         13   -1    0    0    0    0  0.00000000000E+00  0.00000000000E+00  0.74505805969E-08  0.10566000000E+00  0.10566000000E+00 0.  1.
     999900   -1    0    0    0    0 -0.00000000000E+00 -0.00000000000E+00 -0.74505805969E-08  0.93827000000E+00  0.93827000000E+00 0. -1.
     999902    2    1    2    0    0  0.11377814869E-01 -0.17299321081E-01 -0.10676244868E-01  0.10206340049E+01  0.10203681045E+01 0.  0.
     999903    2    3    3    0    0 -0.29914752931E-01 -0.23373458530E-01  0.12101449281E+00  0.12985657950E+00  0.27874948651E-01 0.  0.
         14    1    1    2    0    0 -0.11377814869E-01  0.17299321081E-01  0.10676244868E-01  0.23295995053E-01  0.00000000000E+00 0. -1.
     999901    1    3    3    0    0  0.41292567800E-01  0.60741374495E-02 -0.13169073768E+00  0.89077742545E+00  0.88000000000E+00 0. -1.
        -11    1    4    4    0    0 -0.14991750582E-01 -0.46533195608E-02  0.17096908764E-01  0.23215757122E-01  0.51100000000E-03 0. -1.
         11    1    4    4    0    0 -0.14923002349E-01 -0.18720138969E-01  0.10391758404E+00  0.10664082237E+00  0.51100000000E-03 0.  1.
</event>
<event>
 8    1  0.1114333E+005  0.1043930E+01  0.7957747E-01            NaN
         13   -1    0    0    0    0  0.00000000000E+00  0.00000000000E+00  0.74505805969E-08  0.10566000000E+00  0.10566000000E+00 0.  1.
     999900   -1    0    0    0    0 -0.00000000000E+00 -0.00000000000E+00 -0.74505805969E-08  0.93827000000E+00  0.93827000000E+00 0.  1.
     999902    2    1    2    0    0  0.54282544564E-02  0.12827893704E-01  0.19363610965E-01  0.10200769031E+01  0.10197979790E+01 0.  0.
     999903    2    3    3    0    0 -0.44911712986E-01  0.74617080815E-01 -0.94388558258E-01  0.12918321022E+00  0.13940271150E-01 0.  0.
         14    1    1    2    0    0 -0.54282544564E-02 -0.12827893704E-01 -0.19363610965E-01  0.23853096926E-01  0.00000000000E+00 0. -1.
     999901    1    3    3    0    0  0.50339967442E-01 -0.61789187111E-01  0.11375216922E+00  0.89089369286E+00  0.88000000000E+00 0. -1.
        -11    1    4    4    0    0 -0.10581995738E-01  0.23898191765E-01 -0.20565354216E-01  0.33261045059E-01  0.51100000000E-03 0.  1.
         11    1    4    4    0    0 -0.34329717248E-01  0.50718889051E-01 -0.73823204043E-01  0.95922165160E-01  0.51100000000E-03 0. -1.
</event>
<event>
 8    1  0.1114333E+005  0.1043930E+01  0.7957747E-01            NaN
         13   -1    0    0    0    0  0.00000000000E+00  0.00000000000E+00  0.74505805969E-08  0.10566000000E+00  0.10566000000E+00 0. -1.
     999900   -1    0    0    0    0 -0.00000000000E+00 -0.00000000000E+00 -0.74505805969E-08  0.93827000000E+00  0.93827000000E+00 0.  1.
     999902    2    1    2    0    0  0.10593311201E-01 -0.11805535168E-01  0.20373346466E-01  0.10181101985E+01  0.10177827441E+01 0.  0.
     999903    2    3    3    0    0  0.11925875066E+00  0.17539059530E-01 -0.40926029274E-01  0.12882571285E+00  0.19770083482E-01 0.  0.
         14    1    1    2    0    0 -0.10593311201E-01  0.11805535168E-01 -0.20373346466E-01  0.25819801490E-01  0.00000000000E+00 0.  1.
     999901    1    3    3    0    0 -0.10866543946E+00 -0.29344594698E-01  0.61299375739E-01  0.88928448566E+00  0.88000000000E+00 0. -1.
        -11    1    4    4    0    0  0.71126159972E-01  0.47827783828E-02 -0.15671057941E-01  0.72990744477E-01  0.51100000000E-03 0.  1.
         11    1    4    4    0    0  0.48132590688E-01  0.12756281147E-01 -0.25254971333E-01  0.55834968372E-01  0.51100000000E-03 0. -1.
</event>
<event>
 8    1  0.1114333E+005  0.1043930E+01  0.7957747E-01            NaN
         13   -1    0    0    0    0  0.00000000000E+00  0.00000000000E+00  0.74505805969E-08  0.10566000000E+00  0.10566000000E+00 0.  1.
     999900   -1    0    0    0    0 -0.00000000000E+00 -0.00000000000E+00 -0.74505805969E-08  0.93827000000E+00  0.93827000000E+00 0.  1.
     999902    2    1    2    0    0  0.19161087193E-03 -0.21555554500E-01 -0.12008312193E-01  0.10192545424E+01  0.10189558107E+01 0.  0.
     999903    2    3    3    0    0 -0.12314083587E-01 -0.89587061770E-01 -0.95006537849E-01  0.13264674648E+00  0.19784813037E-01 0.  0.
         14    1    1    2    0    0 -0.19161087193E-03  0.21555554500E-01  0.12008312193E-01  0.24675457569E-01  0.00000000000E+00 0.  1.
     999901    1    3    3    0    0  0.12505694459E-01  0.68031507270E-01  0.82998225656E-01  0.88660779595E+00  0.88000000000E+00 0. -1.
        -11    1    4    4    0    0 -0.78395732848E-02 -0.39503381474E-01 -0.28827437097E-01  0.49530377625E-01  0.51100000000E-03 0.  1.
         11    1    4    4    0    0 -0.44745103027E-02 -0.50083680297E-01 -0.66179100752E-01  0.83116368856E-01  0.51100000000E-03 0. -1.
</event>
<event>
 8    1  0.1114333E+005  0.1043930E+01  0.7957747E-01            NaN
         13   -1    0    0    0    0  0.00000000000E+00  0.00000000000E+00  0.74505805969E-08  0.10566000000E+00  0.10566000000E+00 0. -1.
     999900   -1    0    0    0    0 -0.00000000000E+00 -0.00000000000E+00 -0.74505805969E-08  0.93827000000E+00  0.93827000000E+00 0. -1.
     999902    2    1    2    0    0  0.30866145752E-02 -0.15405957731E-01 -0.17402025536E-01  0.10204842922E+01  0.10202149231E+01 0.  0.
     999903    2    3    3    0    0 -0.12082190706E-01  0.95416579049E-01 -0.86147436126E-01  0.13074407233E+00  0.20550640114E-01 0.  0.
         14    1    1    2    0    0 -0.30866145752E-02  0.15405957731E-01  0.17402025536E-01  0.23445707835E-01  0.00000000000E+00 0. -1.
     999901    1    3    3    0    0  0.15168805281E-01 -0.11082253678E+00  0.68745410590E-01  0.88974021983E+00  0.88000000000E+00 0. -1.
        -11    1    4    4    0    0  0.33494320715E-02  0.14126956381E-01 -0.65691142335E-02  0.15943775418E-01  0.51100000000E-03 0. -1.
         11    1    4    4    0    0 -0.15431622777E-01  0.81289622669E-01 -0.79578321892E-01  0.11480029691E+00  0.51100000000E-03 0.  1.
</event>
<event>
 8    1  0.1114333E+005  0.1043930E+01  0.7957747E-01            NaN
         13   -1    0    0    0    0  0.00000000000E+00  0.00000000000E+00  0.74505805969E-08  0.10566000000E+00  0.10566000000E+00 0.  1.
     999900   -1    0    0    0    0 -0.00000000000E+00 -0.00000000000E+00 -0.74505805969E-08  0.93827000000E+00  0.93827000000E+00 0. -1.
     999902    2    1    2    0    0 -0.19168732388E-02  0.75093559052E-02  0.21700484038E-01  0.10208870871E+01  0.10206269978E+01 0.  0.
     999903    2    3    3    0    0  0.81119839656E-01 -0.15207947442E-01  0.10266744628E+00  0.13298685588E+00  0.18253472557E-01 0.  0.
         14    1    1    2    0    0  0.19168732388E-02 -0.75093559052E-02 -0.21700484038E-01  0.23042912936E-01  0.00000000000E+00 0. -1.
     999901    1    3    3    0    0 -0.83036712895E-01  0.22717303347E-01 -0.80966962242E-01  0.88790023118E+00  0.88000000000E+00 0. -1.
        -11    1    4    4    0    0  0.49618118691E-01 -0.17115438742E-01  0.70786437116E-01  0.88124212032E-01  0.51100000000E-03 0. -1.
         11    1    4    4    0    0  0.31501720965E-01  0.19074912997E-02  0.31881009163E-01  0.44862643849E-01  0.51100000000E-03 0.  1.
</event>
<event>
 8    1  0.1114333E+005  0.1043930E+01  0.7957747E-01            NaN
         13   -1    0    0    0    0  0.00000000000E+00  0.00000000000E+00  0.74505805969E-08  0.10566000000E+00  0.10566000000E+00 0. -1.
     999900   -1    0    0    0    0 -0.00000000000E+00 -0.00000000000E+00 -0.74505805969E-08  0.93827000000E+00  0.93827000000E+00 0.  1.
     999902    2    1    2    0    0  0.44763738492E-02  0.16271607853E-01  0.15078025951E-01  0.10212992684E+01  0.10210485031E+01 0.  0.
     999903    2    3    3    0    0 -0.45990752332E-01  0.10518234043E+00  0.65886463118E-01  0.13392474407E+00  0.20404338097E-01 0.  0.
         14    1    1    2    0    0 -0.44763738492E-02 -0.16271607853E-01 -0.15078025951E-01  0.22630731574E-01  0.00000000000E+00 0.  1.
     999901    1    3    3    0    0  0.50467126181E-01 -0.88910732576E-01 -0.50808437167E-01  0.88737452436E+00  0.88000000000E+00 0.  1.
        -11    1    4    4    0    0 -0.98967502335E-02  0.28903441561E-01  0.27913774830E-01  0.41385922069E-01  0.51100000000E-03 0. -1.
         11    1    4    4    0    0 -0.36094002098E-01  0.76278898869E-01  0.37972688288E-01  0.92538821999E-01  0.51100000000E-03 0.  1.
</event>
<event>
 8    1  0.1114333E+005  0.1043930E+01  0.7957747E-01            NaN
         13   -1    0    0    0    0  0.00000000000E+00  0.00000000000E+00  0.74505805969E-08  0.10566000000E+00  0.10566000000E+00 0.  1.
     999900   -1    0    0    0    0 -0.00000000000E+00 -0.00000000000E+00 -0.74505805969E-08  0.93827000000E+00  0.93827000000E+00 0. -1.
     999902    2    1    2    0    0  0.31934372085E-01 -0.11506872338E-01  0.10463528379E-01  0.10084096163E+01  0.10077838343E+01 0.  0.
     999903    2    3    3    0    0 -0.61945486209E-01  0.84430406585E-01 -0.46444201361E-01  0.11641416846E+00  0.20723367485E-01 0.  0.
         14    1    1    2    0    0 -0.31934372085E-01  0.11506872338E-01 -0.10463528379E-01  0.35520383692E-01  0.00000000000E+00 0. -1.
     999901    1    3    3    0    0  0.93879858294E-01 -0.95937278923E-01  0.56907729741E-01  0.89199544785E+00  0.88000000000E+00 0.  1.
        -11    1    4    4    0    0 -0.40518902938E-01  0.40770442202E-01 -0.31420623131E-01  0.65509748371E-01  0.51100000000E-03 0.  1.
         11    1    4    4    0    0 -0.21426583271E-01  0.43659964383E-01 -0.15023578230E-01  0.50904420088E-01  0.51100000000E-03 0. -1.
</event>
<event>
 8    1  0.1114333E+005  0.1043930E+01  0.7957747E-01            NaN
         13   -1    0    0    0    0  0.00000000000E+00  0.00000000000E+00  0.74505805969E-08  0.10566000000E+00  0.10566000000E+00 0.  1.
     999900   -1    0    0    0    0 -0.00000000000E+00 -0.00000000000E+00 -0.74505805969E-08  0.93827000000E+00  0.93827000000E+00 0. -1.
     999902    2    1    2    0    0  0.19109095233E-01  0.12968657861E-01 -0.46248437129E-02  0.10203772340E+01  0.10201053705E+01 0.  0.
     999903    2    3    3    0    0  0.63865401041E-01 -0.10617480708E+00 -0.36527141653E-01  0.13064915825E+00  0.19572719915E-01 0.  0.
         14    1    1    2    0    0 -0.19109095233E-01 -0.12968657861E-01  0.46248437129E-02  0.23552766010E-01  0.00000000000E+00 0.  1.
     999901    1    3    3    0    0 -0.44756305807E-01  0.11914346494E+00  0.31902297940E-01  0.88972807574E+00  0.88000000000E+00 0.  1.
        -11    1    4    4    0    0  0.65488805393E-02 -0.22309021706E-01 -0.11903172523E-01  0.26125216227E-01  0.51100000000E-03 0. -1.
         11    1    4    4    0    0  0.57316520501E-01 -0.83865785376E-01 -0.24623969130E-01  0.10452394202E+00  0.51100000000E-03 0.  1.
</event>
<event>
 8    1  0.1114333E+005  0.1043930E+01  0.7957747E-01            NaN
         13   -1    0    0    0    0  0.00000000000E+00  0.00000000000E+00  0.74505805969E-08  0.10566000000E+00  0.10566000000E+00 0. -1.
     999900   -1    0    0    0    0 -0.00000000000E+00 -0.00000000000E+00 -0.74505805969E-08  0.93827000000E+00  0.93827000000E+00 0. -1.
     999902    2    1    2    0    0 -0.23584826086E-01 -0.29969183479E-02 -0.49507523283E-03  0.10201503734E+01  0.10198731851E+01 0.  0.
     999903    2    3    3    0    0  0.66784462272E-01  0.36434405392E-01 -0.10195785141E+00  0.12885012517E+00  0.20477328778E-01 0.  0.
         14    1    1    2    0    0  0.23584826086E-01  0.29969183479E-02  0.49507523283E-03  0.23779626586E-01  0.00000000000E+00 0. -1.
     999901    1    3    3    0    0 -0.90369288358E-01 -0.39431323740E-01  0.10146277618E+00  0.89130024824E+00  0.88000000000E+00 0.  1.
        -11    1    4    4    0    0  0.28734541326E-01  0.45609781050E-02 -0.35547478951E-01  0.45938663099E-01  0.51100000000E-03 0. -1.
         11    1    4    4    0    0  0.38049920946E-01  0.31873427287E-01 -0.66410372463E-01  0.82911462071E-01  0.51100000000E-03 0.  1.
</event>
<event>
 8    1  0.1114333E+005  0.1043930E+01  0.7957747E-01            NaN
         13   -1    0    0    0    0  0.00000000000E+00  0.00000000000E+00  0.74505805969E-08  0.10566000000E+00  0.10566000000E+00 0.  1.
     999900   -1    0    0    0    0 -0.00000000000E+00 -0.00000000000E+00 -0.74505805969E-08  0.93827000000E+00  0.93827000000E+00 0. -1.
     999902    2    1    2    0    0 -0.11433481331E-01 -0.17436614832E-03  0.21941253575E-01  0.10191878597E+01  0.10188874912E+01 0.  0.
     999903    2    3    3    0    0 -0.92430565946E-01  0.38067518683E-01 -0.78963514574E-01  0.12890434209E+00  0.19711602554E-01 0.  0.
         14    1    1    2    0    0  0.11433481331E-01  0.17436614832E-03 -0.21941253575E-01  0.24742140314E-01  0.00000000000E+00 0. -1.
     999901    1    3    3    0    0  0.80997084615E-01 -0.38241884832E-01  0.10090476815E+00  0.89028351760E+00  0.88000000000E+00 0.  1.
        -11    1    4    4    0    0 -0.69279034725E-01  0.36744284961E-01 -0.56878854316E-01  0.96877202267E-01  0.51100000000E-03 0.  1.
         11    1    4    4    0    0 -0.23151531221E-01  0.13232337222E-02 -0.22084660258E-01  0.32027139821E-01  0.51100000000E-03 0. -1.
</event>
<event>
 7    1  0.1154769E+005  0.1043930E+01  0.7957747E-01            NaN
         13   -1    0    0    0    0  0.00000000000E+00  0.00000000000E+00  0.74505805969E-08  0.10566000000E+00  0.10566000000E+00 0. -1.
     999900   -1    0    0    0    0 -0.00000000000E+00 -0.00000000000E+00 -0.74505805969E-08  0.93827000000E+00  0.93827000000E+00 0. -1.
     999903    2    1    2    0    0  0.82336909295E-01  0.67441527384E-01  0.88079635645E-03  0.10812776542E+00  0.19055487496E-01 0.  0.
         14    1    1    2    0    0  0.12011074745E-01  0.38820513556E-01  0.17425386327E-01  0.44214729197E-01  0.00000000000E+00 0.  1.
     999901    1    1    2    0    0 -0.94347984039E-01 -0.10626204094E+00 -0.18306182684E-01  0.89158750539E+00  0.88000000000E+00 0.  1.
        -11    1    3    3    0    0  0.47327957852E-01  0.26482443991E-01  0.90539385583E-03  0.54243306437E-01  0.51100000000E-03 0. -1.
         11    1    3    3    0    0  0.35008951443E-01  0.40959083393E-01 -0.24597499381E-04  0.53884458980E-01  0.51100000000E-03 0.  1.
</event>
<event>
 8    1  0.1114333E+005  0.1043930E+01  0.7957747E-01            NaN
         13   -1    0    0    0    0  0.00000000000E+00  0.00000000000E+00  0.74505805969E-08  0.10566000000E+00  0.10566000000E+00 0. -1.
     999900   -1    0    0    0    0 -0.00000000000E+00 -0.00000000000E+00 -0.74505805969E-08  0.93827000000E+00  0.93827000000E+00 0.  1.
     999902    2    1    2    0    0 -0.82004250889E-02 -0.10092953208E-01 -0.19133168809E-01  0.10207957651E+01  0.10205335865E+01 0.  0.
     999903    2    3    3    0    0  0.17224242129E-01  0.13438012721E-03  0.12551881891E+00  0.12856529621E+00  0.21848773726E-01 0.  0.
         14    1    1    2    0    0  0.82004250889E-02  0.10092953208E-01  0.19133168809E-01  0.23134234908E-01  0.00000000000E+00 0.  1.
     999901    1    3    3    0    0 -0.25424667218E-01 -0.10227333335E-01 -0.14465198772E+00  0.89223046888E+00  0.88000000000E+00 0.  1.
        -11    1    4    4    0    0 -0.47679231599E-02 -0.10089777678E-02  0.38103366641E-01  0.38417168008E-01  0.51100000000E-03 0. -1.
         11    1    4    4    0    0  0.21992165289E-01  0.11433578950E-02  0.87415452272E-01  0.90148128202E-01  0.51100000000E-03 0.  1.
</event>
<event>
 8    1  0.1114333E+005  0.1043930E+01  0.7957747E-01            NaN
         13   -1    0    0    0    0  0.00000000000E+00  0.00000000000E+00  0.74505805969E-08  0.10566000000E+00  0.10566000000E+00 0. -1.
     999900   -1    0    0    0    0 -0.00000000000E+00 -0.00000000000E+00 -0.74505805969E-08  0.93827000000E+00  0.93827000000E+00 0.  1.
     999902    2    1    2    0    0  0.10585662214E-01 -0.66435674809E-03  0.21258454978E-01  0.10201724849E+01  0.10198958180E+01 0.  0.
     999903    2    3    3    0    0  0.36035557840E-01  0.14229010823E-01  0.12609956508E+00  0.13345879497E+00  0.20226800649E-01 0.  0.
         14    1    1    2    0    0 -0.10585662214E-01  0.66435674809E-03 -0.21258454978E-01  0.23757515073E-01  0.00000000000E+00 0.  1.
     999901    1    3    3    0    0 -0.25449895626E-01 -0.14893367571E-01 -0.10484111010E+00  0.88671368995E+00  0.88000000000E+00 0.  1.
        -11    1    4    4    0    0  0.10380511037E-01  0.58823159599E-02  0.72212602373E-01  0.73193426706E-01  0.51100000000E-03 0.  1.
         11    1    4    4    0    0  0.25655046804E-01  0.83466948632E-02  0.53886962706E-01  0.60265368266E-01  0.51100000000E-03 0. -1.
</event>
<event>
 8    1  0.1114333E+005  0.1043930E+01  0.7957747E-01            NaN
         13   -1    0    0    0    0  0.00000000000E+00  0.00000000000E+00  0.74505805969E-08  0.10566000000E+00  0.10566000000E+00 0.  1.
     999900   -1    0    0    0    0 -0.00000000000E+00 -0.00000000000E+00 -0.74505805969E-08  0.93827000000E+00  0.93827000000E+00 0. -1.
     999902    2    1    2    0    0  0.13975085576E-01  0.35086577464E-02 -0.18294140338E-01  0.10206428948E+01  0.10203771996E+01 0.  0.
     999903    2    3    3    0    0  0.11622549960E+00 -0.57133291673E-01  0.16049146872E-01  0.13198544983E+00  0.19748520836E-01 0.  0.
         14    1    1    2    0    0 -0.13975085576E-01 -0.35086577464E-02  0.18294140338E-01  0.23287105160E-01  0.00000000000E+00 0.  1.
     999901    1    3    3    0    0 -0.10225041403E+00  0.60641949419E-01 -0.34343287210E-01  0.88865744501E+00  0.88000000000E+00 0. -1.
        -11    1    4    4    0    0  0.78051240586E-01 -0.33877532356E-01  0.19005936461E-01  0.87184689581E-01  0.51100000000E-03 0.  1.
         11    1    4    4    0    0  0.38174259019E-01 -0.23255759317E-01 -0.29567895893E-02  0.44800760247E-01  0.51100000000E-03 0. -1.
</event>
<event>
 8    1  0.1114333E+005  0.1043930E+01  0.7957747E-01            NaN
         13   -1    0    0    0    0  0.00000000000E+00  0.00000000000E+00  0.74505805969E-08  0.10566000000E+00  0.10566000000E+00 0. -1.
     999900   -1    0    0    0    0 -0.00000000000E+00 -0.00000000000E+00 -0.74505805969E-08  0.93827000000E+00  0.93827000000E+00 0. -1.
     999902    2    1    2    0    0  0.23144644627E-01  0.23696462610E-02  0.60881009698E-02  0.10198809923E+01  0.10195974125E+01 0.  0.
     999903    2    3    3    0    0  0.11815971689E+00  0.52160525869E-01  0.25722670166E-01  0.13314962826E+00  0.19614499484E-01 0.  0.
         14    1    1    2    0    0 -0.23144644627E-01 -0.23696462610E-02 -0.60881009698E-02  0.24049007708E-01  0.00000000000E+00 0.  1.
     999901    1    3    3    0    0 -0.95015072267E-01 -0.49790879608E-01 -0.19634569196E-01  0.88673136403E+00  0.88000000000E+00 0. -1.
        -11    1    4    4    0    0  0.53606126845E-01  0.14816359478E-01  0.55744227121E-02  0.55897018284E-01  0.51100000000E-03 0.  1.
         11    1    4    4    0    0  0.64553590049E-01  0.37344166391E-01  0.20148247454E-01  0.77252609977E-01  0.51100000000E-03 0. -1.
</event>
<event>
 8    1  0.1114333E+005  0.1043930E+01  0.7957747E-01            NaN
         13   -1    0    0    0    0  0.00000000000E+00  0.00000000000E+00  0.74505805969E-08  0.10566000000E+00  0.10566000000E+00 0. -1.
     999900   -1    0    0    0    0 -0.00000000000E+00 -0.00000000000E+00 -0.74505805969E-08  0.93827000000E+00  0.93827000000E+00 0. -1.
     999902    2    1    2    0    0  0.23048843931E-01 -0.87935672803E-03  0.31431456146E-02  0.10206512148E+01  0.10203857116E+01 0.  0.
     999903    2    3    3    0    0  0.66789787493E-01 -0.11292101008E-01  0.11262798198E+00  0.13272744288E+00  0.18523620358E-01 0.  0.
         14    1    1    2    0    0 -0.23048843931E-01  0.87935672803E-03 -0.31431456146E-02  0.23278785173E-01  0.00000000000E+00 0. -1.
     999901    1    3    3    0    0 -0.43740943562E-01  0.10412744280E-01 -0.10948483636E+00  0.88792377194E+00  0.88000000000E+00 0. -1.
        -11    1    4    4    0    0  0.47846366684E-01 -0.86166052507E-02  0.63296829510E-01  0.79813973951E-01  0.51100000000E-03 0.  1.
         11    1    4    4    0    0  0.18943420809E-01 -0.26754957574E-02  0.49331152470E-01  0.52913468933E-01  0.51100000000E-03 0. -1.
</event>
<event>
 8    1  0.1114333E+005  0.1043930E+01  0.7957747E-01            NaN
         13   -1    0    0    0    0  0.00000000000E+00  0.00000000000E+00  0.74505805969E-08  0.10566000000E+00  0.10566000000E+00 0. -1.
     999900   -1    0    0    0    0 -0.00000000000E+00 -0.00000000000E+00 -0.74505805969E-08  0.93827000000E+00  0.93827000000E+00 0. -1.
     999902    2    1    2    0    0 -0.10907691109E-01 -0.18851234611E-01  0.73085673913E-02  0.10209569304E+01  0.10206984333E+01 0.  0.
     999903    2    3    3    0    0  0.80872642991E-01 -0.23383553174E-01 -0.97130259134E-01  0.13002952583E+00  0.19652363869E-01 0.  0.
         14    1    1    2    0    0  0.10907691109E-01  0.18851234611E-01 -0.73085673913E-02  0.22973069646E-01  0.00000000000E+00 0.  1.
     999901    1    3    3    0    0 -0.91780334099E-01  0.45323185633E-02  0.10443882653E+00  0.89092740452E+00  0.88000000000E+00 0.  1.
        -11    1    4    4    0    0  0.64167034697E-01 -0.22301978287E-01 -0.87269522665E-01  0.11059392969E+00  0.51100000000E-03 0. -1.
         11    1    4    4    0    0  0.16705608294E-01 -0.10815748870E-02 -0.98607364696E-02  0.19435596143E-01  0.51100000000E-03 0.  1.
</event>
<event>
 8    1  0.1114333E+005  0.1043930E+01  0.7957747E-01            NaN
         13   -1    0    0    0    0  0.00000000000E+00  0.00000000000E+00  0.74505805969E-08  0.10566000000E+00  0.10566000000E+00 0. -1.
     999900   -1    0    0    0    0 -0.00000000000E+00 -0.00000000000E+00 -0.74505805969E-08  0.93827000000E+00  0.93827000000E+00 0. -1.
     999902    2    1    2    0    0  0.13798586611E-01  0.15015467325E-01 -0.13434515209E-01  0.10195096918E+01  0.10192171802E+01 0.  0.
     999903    2    3    3    0    0 -0.11507600016E+00 -0.23495992018E-03 -0.55234118035E-01  0.12901070732E+00  0.18719342614E-01 0.  0.
         14    1    1    2    0    0 -0.13798586611E-01 -0.15015467325E-01  0.13434515209E-01  0.24420308154E-01  0.00000000000E+00 0. -1.
     999901    1    3    3    0    0  0.12887458677E+00  0.15250427245E-01  0.41799602826E-01  0.89049898453E+00  0.88000000000E+00 0.  1.
        -11    1    4    4    0    0 -0.98578065918E-01 -0.58764254796E-02 -0.43029542279E-01  0.10772172523E+00  0.51100000000E-03 0.  1.
         11    1    4    4    0    0 -0.16497934246E-01  0.56414655594E-02 -0.12204575756E-01  0.21288982090E-01  0.51100000000E-03 0. -1.
</event>
<event>
 8    1  0.1114333E+005  0.1043930E+01  0.7957747E-01            NaN
         13   -1    0    0    0    0  0.00000000000E+00  0.00000000000E+00  0.74505805969E-08  0.10566000000E+00  0.10566000000E+00 0.  1.
     999900   -1    0    0    0    0 -0.00000000000E+00 -0.00000000000E+00 -0.74505805969E-08  0.93827000000E+00  0.93827000000E+00 0. -1.
     999902    2    1    2    0    0  0.98023329335E-02 -0.37370747835E-02 -0.22106319062E-01  0.10194608194E+01  0.10191671214E+01 0.  0.
     999903    2    3    3    0    0 -0.23331955872E-01  0.92471041726E-01 -0.87748706780E-01  0.13116874698E+00  0.20251689335E-01 0.  0.
         14    1    1    2    0    0 -0.98023329335E-02  0.37370747835E-02  0.22106319062E-01  0.24469180643E-01  0.00000000000E+00 0.  1.
     999901    1    3    3    0    0  0.33134288805E-01 -0.96208116509E-01  0.65642387718E-01  0.88829207237E+00  0.88000000000E+00 0.  1.
        -11    1    4    4    0    0 -0.20515220046E-01  0.41046432917E-01 -0.44328226932E-01  0.63803892771E-01  0.51100000000E-03 0. -1.
         11    1    4    4    0    0 -0.28167358255E-02  0.51424608808E-01 -0.43420479847E-01  0.67364854212E-01  0.51100000000E-03 0.  1.
</event>
<event>
 8    1  0.1114333E+005  0.1043930E+01  0.7957747E-01            NaN
         13   -1    0    0    0    0  0.00000000000E+00  0.00000000000E+00  0.74505805969E-08  0.10566000000E+00  0.10566000000E+00 0.  1.
     999900   -1    0    0    0    0 -0.00000000000E+00 -0.00000000000E+00 -0.74505805969E-08  0.93827000000E+00  0.93827000000E+00 0.  1.
     999902    2    1    2    0    0 -0.62049825119E-02  0.22326265275E-01 -0.20548149712E-02  0.10206665911E+01  0.10204014426E+01 0.  0.
     999903    2    3    3    0    0 -0.93293591136E-01  0.35922842839E-01  0.83858608047E-01  0.13210010010E+00  0.20591879906E-01 0.  0.
         14    1    1    2    0    0  0.62049825119E-02 -0.22326265275E-01  0.20548149712E-02  0.23263408900E-01  0.00000000000E+00 0.  1.
     999901    1    3    3    0    0  0.87088608624E-01 -0.13596577564E-01 -0.85913423018E-01  0.88856649100E+00  0.88000000000E+00 0.  1.
        -11    1    4    4    0    0 -0.22847359955E-01 -0.89283335980E-04  0.16432709976E-01  0.28147911229E-01  0.51100000000E-03 0. -1.
         11    1    4    4    0    0 -0.70446231181E-01  0.36012126175E-01  0.67425898071E-01  0.10395218887E+00  0.51100000000E-03 0.  1.
</event>
<event>
 8    1  0.1114333E+005  0.1043930E+01  0.7957747E-01            NaN
         13   -1    0    0    0    0  0.00000000000E+00  0.00000000000E+00  0.74505805969E-08  0.10566000000E+00  0.10566000000E+00 0.  1.
     999900   -1    0    0    0    0 -0.00000000000E+00 -0.00000000000E+00 -0.74505805969E-08  0.93827000000E+00  0.93827000000E+00 0.  1.
     999902    2    1    2    0    0  0.14792478376E-01 -0.55342738910E-02 -0.57810265482E-02  0.10271113832E+01  0.10269736742E+01 0.  0.
     999903    2    3    3    0    0  0.10982971998E-01 -0.12192670554E+00 -0.60145216702E-01  0.13777613949E+00  0.19444030523E-01 0.  0.
         14    1    1    2    0    0 -0.14792478376E-01  0.55342738910E-02  0.57810265482E-02  0.16818616827E-01  0.00000000000E+00 0. -1.
     999901    1    3    3    0    0  0.38095063781E-02  0.11639243165E+00  0.54364190154E-01  0.88933524368E+00  0.88000000000E+00 0. -1.
        -11    1    4    4    0    0  0.77495572582E-02 -0.21875831665E-01 -0.16984570319E-01  0.28763595023E-01  0.51100000000E-03 0. -1.
         11    1    4    4    0    0  0.32334147400E-02 -0.10005087388E+00 -0.43160646383E-01  0.10901254447E+00  0.51100000000E-03 0.  1.
</event>
<event>
 8    1  0.1114333E+005  0.1043930E+01  0.7957747E-01            NaN
         13   -1    0    0    0    0  0.00000000000E+00  0.00000000000E+00  0.74505805969E-08  0.10566000000E+00  0.10566000000E+00 0.  1.
     999900   -1    0    0    0    0 -0.00000000000E+00 -0.00000000000E+00 -0.74505805969E-08  0.93827000000E+00  0.93827000000E+00 0. -1.
     999902    2    1    2    0    0  0.11594069002E-01  0.19351231253E-02  0.24057292849E-01  0.10171546293E+01  0.10168021535E+01 0.  0.
     999903    2    3    3    0    0 -0.55064791517E-01  0.84756763901E-01 -0.71890176759E-01  0.12557807913E+00  0.19642203343E-01 0.  0.
         14    1    1    2    0    0 -0.11594069002E-01 -0.19351231253E-02 -0.24057292849E-01  0.26775370711E-01  0.00000000000E+00 0. -1.
     999901    1    3    3    0    0  0.66658860519E-01 -0.82821640775E-01  0.95947469608E-01  0.89157655016E+00  0.88000000000E+00 0. -1.
        -11    1    4    4    0    0 -0.40352965714E-01  0.75340405426E-01 -0.58713727468E-01  0.10369234034E+00  0.51100000000E-03 0. -1.
         11    1    4    4    0    0 -0.14711825803E-01  0.94163584745E-02 -0.13176449291E-01  0.21885738788E-01  0.51100000000E-03 0.  1.
</event>
<event>
 8    1  0.1114333E+005  0.1043930E+01  0.7957747E-01            NaN
         13   -1    0    0    0    0  0.00000000000E+00  0.00000000000E+00  0.74505805969E-08  0.10566000000E+00  0.10566000000E+00 0. -1.
     999900   -1    0    0    0    0 -0.00000000000E+00 -0.00000000000E+00 -0.74505805969E-08  0.93827000000E+00  0.93827000000E+00 0. -1.
     999902    2    1    2    0    0 -0.12336079944E-01  0.21557606514E-01 -0.10382048842E-02  0.10190706529E+01  0.10187673967E+01 0.  0.
     999903    2    3    3    0    0 -0.54215395480E-01  0.97037583529E-01  0.68501965764E-01  0.13211691157E+00  0.20168224605E-01 0.  0.
         14    1    1    2    0    0  0.12336079944E-01 -0.21557606514E-01  0.10382048842E-02  0.24859347063E-01  0.00000000000E+00 0.  1.
     999901    1    3    3    0    0  0.41879315537E-01 -0.75479977015E-01 -0.69540170648E-01  0.88695374137E+00  0.88000000000E+00 0. -1.
        -11    1    4    4    0    0 -0.27647161067E-02 -0.33658481403E-03  0.19428157988E-02  0.34340353399E-02  0.51100000000E-03 0. -1.
         11    1    4    4    0    0 -0.51450679374E-01  0.97374168343E-01  0.66559149965E-01  0.12868287623E+00  0.51100000000E-03 0.  1.
</event>
<event>
 8    1  0.1114333E+005  0.1043930E+01  0.7957747E-01            NaN
         13   -1    0    0    0    0  0.00000000000E+00  0.00000000000E+00  0.74505805969E-08  0.10566000000E+00  0.10566000000E+00 0.  1.
     999900   -1    0    0    0    0 -0.00000000000E+00 -0.00000000000E+00 -0.74505805969E-08  0.93827000000E+00  0.93827000000E+00 0.  1.
     999902    2    1    2    0    0  0.92495636942E-02  0.23039282398E-01  0.16581550680E-02  0.10190480298E+01  0.10187442145E+01 0.  0.
     999903    2    3    3    0    0  0.59789280256E-01 -0.95946240850E-01  0.53670040762E-01  0.12808391497E+00  0.27286935185E-01 0.  0.
         14    1    1    2    0    0 -0.92495636942E-02 -0.23039282398E-01 -0.16581550680E-02  0.24881970183E-01  0.00000000000E+00 0.  1.
     999901    1    3    3    0    0 -0.50539716562E-01  0.11898552325E+00 -0.52011885694E-01  0.89096411485E+00  0.88000000000E+00 0. -1.
        -11    1    4    4    0    0  0.14997538592E-02 -0.20032659582E-01  0.49993358913E-02  0.20707756805E-01  0.51100000000E-03 0.  1.
         11    1    4    4    0    0  0.58289526397E-01 -0.75913581268E-01  0.48670704871E-01  0.10737615816E+00  0.51100000000E-03 0. -1.
</event>
<event>
 7    1  0.1114333E+005  0.1043930E+01  0.7957747E-01            NaN
         13   -1    0    0    0    0  0.00000000000E+00  0.00000000000E+00  0.74505805969E-08  0.10566000000E+00  0.10566000000E+00 0.  1.
     999900   -1    0    0    0    0 -0.00000000000E+00 -0.00000000000E+00 -0.74505805969E-08  0.93827000000E+00  0.93827000000E+00 0.  1.
     999903    2    1    2    0    0 -0.21329482832E-01  0.10217445656E+00  0.18350844435E-01  0.10777804705E+00  0.19616001732E-01 0.  0.
         14    1    1    2    0    0 -0.27210840328E-01 -0.33502821209E-01 -0.29140250173E-01  0.52077087481E-01  0.00000000000E+00 0. -1.
     999901    1    1    2    0    0  0.48540323160E-01 -0.68671635350E-01  0.10789405738E-01  0.88407486547E+00  0.88000000000E+00 0.  1.
        -11    1    3    3    0    0 -0.22868126500E-01  0.63771529739E-01  0.12647118625E-01  0.68920025721E-01  0.51100000000E-03 0. -1.
         11    1    3    3    0    0  0.15386436682E-02  0.38402926820E-01  0.57037258107E-02  0.38858021331E-01  0.51100000000E-03 0.  1.
</event>
<event>
 8    1  0.1114333E+005  0.1043930E+01  0.7957747E-01            NaN
         13   -1    0    0    0    0  0.00000000000E+00  0.00000000000E+00  0.74505805969E-08  0.10566000000E+00  0.10566000000E+00 0. -1.
     999900   -1    0    0    0    0 -0.00000000000E+00 -0.00000000000E+00 -0.74505805969E-08  0.93827000000E+00  0.93827000000E+00 0. -1.
     999902    2    1    2    0    0  0.60658791806E-02  0.86359359387E-02  0.20752043263E-01  0.10206486431E+01  0.10203830805E+01 0.  0.
     999903    2    3    3    0    0  0.10533039425E+00  0.46878971490E-01  0.63734256446E-01  0.13320092950E+00  0.19705386392E-01 0.  0.
         14    1    1    2    0    0 -0.60658791806E-02 -0.86359359387E-02 -0.20752043263E-01  0.23281356906E-01  0.00000000000E+00 0.  1.
     999901    1    3    3    0    0 -0.99264515070E-01 -0.38243035552E-01 -0.42982213183E-01  0.88744771360E+00  0.88000000000E+00 0. -1.
        -11    1    4    4    0    0  0.90243326361E-01  0.34967597510E-01  0.59171828795E-01  0.11343790051E+00  0.51100000000E-03 0.  1.
         11    1    4    4    0    0  0.15087067890E-01  0.11911373980E-01  0.45624276511E-02  0.19763028986E-01  0.51100000000E-03 0. -1.
</event>
<event>
 8    1  0.1114333E+005  0.1043930E+01  0.7957747E-01            NaN
         13   -1    0    0    0    0  0.00000000000E+00  0.00000000000E+00  0.74505805969E-08  0.10566000000E+00  0.10566000000E+00 0. -1.
     999900   -1    0    0    0    0 -0.00000000000E+00 -0.00000000000E+00 -0.74505805969E-08  0.93827000000E+00  0.93827000000E+00 0.  1.
     999902    2    1    2    0    0  0.71263673848E-02  0.37078182987E-02 -0.22768543249E-01  0.10197858581E+01  0.10195000033E+01 0.  0.
     999903    2    3    3    0    0 -0.43928657589E-01  0.11320559838E+00 -0.46977907022E-01  0.13120132481E+00  0.16174962855E-01 0.  0.
         14    1    1    2    0    0 -0.71263673848E-02 -0.37078182987E-02  0.22768543249E-01  0.24144141947E-01  0.00000000000E+00 0. -1.
     999901    1    3    3    0    0  0.51055024974E-01 -0.10949778008E+00  0.24209363773E-01  0.88858453324E+00  0.88000000000E+00 0.  1.
        -11    1    4    4    0    0 -0.21780166310E-01  0.43153069988E-01 -0.11894621923E-01  0.49782589784E-01  0.51100000000E-03 0.  1.
         11    1    4    4    0    0 -0.22148491279E-01  0.70052528389E-01 -0.35083285099E-01  0.81418735031E-01  0.51100000000E-03 0. -1.
</event>
<event>
 8    1  0.1114333E+005  0.1043930E+01  0.7957747E-01            NaN
         13   -1    0    0    0    0  0.00000000000E+00  0.00000000000E+00  0.74505805969E-08  0.10566000000E+00  0.10566000000E+00 0. -1.
     999900   -1    0    0    0    0 -0.00000000000E+00 -0.00000000000E+00 -0.74505805969E-08  0.93827000000E+00  0.93827000000E+00 0. -1.
     999902    2    1    2    0    0  0.22403417315E-02  0.49016831198E-02 -0.23396912254E-01  0.10199203950E+01  0.10196377548E+01 0.  0.
     999903    2    3    3    0    0  0.97107670387E-01 -0.39530706316E-01 -0.77873256174E-01  0.13203429910E+00  0.19396796672E-01 0.  0.
         14    1    1    2    0    0 -0.22403417315E-02 -0.49016831198E-02  0.23396912254E-01  0.24009604984E-01  0.00000000000E+00 0. -1.
     999901    1    3    3    0    0 -0.94867328656E-01  0.44432389436E-01  0.54476343920E-01  0.88788609592E+00  0.88000000000E+00 0. -1.
        -11    1    4    4    0    0  0.64449005375E-01 -0.30191084247E-01 -0.62608550411E-01  0.94790651266E-01  0.51100000000E-03 0.  1.
         11    1    4    4    0    0  0.32658665012E-01 -0.93396220691E-02 -0.15264705763E-01  0.37243647832E-01  0.51100000000E-03 0. -1.
</event>
<event>
 8    1  0.1114333E+005  0.1043930E+01  0.7957747E-01            NaN
         13   -1    0    0    0    0  0.00000000000E+00  0.00000000000E+00  0.74505805969E-08  0.10566000000E+00  0.10566000000E+00 0.  1.
     999900   -1    0    0    0    0 -0.00000000000E+00 -0.00000000000E+00 -0.74505805969E-08  0.93827000000E+00  0.93827000000E+00 0.  1.
     999902    2    1    2    0    0  0.20495790551E-01 -0.44642690384E-02 -0.13732941005E-01  0.10188580875E+01  0.10185495578E+01 0.  0.
     999903    2    3    3    0    0  0.19619736727E-01 -0.11255464870E+00  0.57418719021E-01  0.12939372262E+00  0.19807653720E-01 0.  0.
         14    1    1    2    0    0 -0.20495790551E-01  0.44642690384E-02  0.13732941005E-01  0.25071912512E-01  0.00000000000E+00 0.  1.
     999901    1    3    3    0    0  0.87605382364E-03  0.10809037966E+00 -0.71151660026E-01  0.88946436487E+00  0.88000000000E+00 0.  1.
        -11    1    4    4    0    0  0.20325456468E-01 -0.59685609978E-01  0.29855676746E-01  0.69764738758E-01  0.51100000000E-03 0. -1.
         11    1    4    4    0    0 -0.70571974101E-03 -0.52869038724E-01  0.27563042275E-01  0.59628983862E-01  0.51100000000E-03 0.  1.
</event>
<event>
 8    1  0.1114333E+005  0.1043930E+01  0.7957747E-01            NaN
         13   -1    0    0    0    0  0.00000000000E+00  0.00000000000E+00  0.74505805969E-08  0.10566000000E+00  0.10566000000E+00 0. -1.
     999900   -1    0    0    0    0 -0.00000000000E+00 -0.00000000000E+00 -0.74505805969E-08  0.93827000000E+00  0.93827000000E+00 0.  1.
     999902    2    1    2    0    0  0.20799899563E-01  0.52602379440E-02 -0.10662103183E-01  0.10199719874E+01  0.10196905750E+01 0.  0.
     999903    2    3    3    0    0 -0.42510104931E-01 -0.94292595597E-01 -0.75663632553E-01  0.12972251550E+00  0.20118228835E-01 0.  0.
         14    1    1    2    0    0 -0.20799899563E-01 -0.52602379440E-02  0.10662103183E-01  0.23958012634E-01  0.00000000000E+00 0.  1.
     999901    1    3    3    0    0  0.63310004494E-01  0.99552833541E-01  0.65001529370E-01  0.89024947186E+00  0.88000000000E+00 0.  1.
        -11    1    4    4    0    0 -0.24288086295E-01 -0.73555291466E-01 -0.59966195628E-01  0.97961715877E-01  0.51100000000E-03 0.  1.
         11    1    4    4    0    0 -0.18222018636E-01 -0.20737304130E-01 -0.15697436925E-01  0.31760799624E-01  0.51100000000E-03 0. -1.
</event>
<event>
 8    1  0.1114333E+005  0.1043930E+01  0.7957747E-01            NaN
         13   -1    0    0    0    0  0.00000000000E+00  0.00000000000E+00  0.74505805969E-08  0.10566000000E+00  0.10566000000E+00 0.  1.
     999900   -1    0    0    0    0 -0.00000000000E+00 -0.00000000000E+00 -0.74505805969E-08  0.93827000000E+00  0.93827000000E+00 0. -1.
     999902    2    1    2    0    0 -0.21271653880E-01 -0.14855657323E-02  0.80971717756E-02  0.10211209151E+01  0.10208661366E+01 0.  0.
     999903    2    3    3    0    0 -0.98504063464E-01  0.36107824851E-01  0.80821948495E-01  0.13395294831E+00  0.20109188645E-01 0.  0.
         14    1    1    2    0    0  0.21271653880E-01  0.14855657323E-02 -0.80971717756E-02  0.22809084925E-01  0.00000000000E+00 0. -1.
     999901    1    3    3    0    0  0.77232409584E-01 -0.37593390583E-01 -0.72724776719E-01  0.88716796677E+00  0.88000000000E+00 0. -1.
        -11    1    4    4    0    0 -0.11880930131E-01  0.11983240780E-01  0.13722457857E-01  0.21755953921E-01  0.51100000000E-03 0. -1.
         11    1    4    4    0    0 -0.86623133333E-01  0.24124584071E-01  0.67099490638E-01  0.11219699439E+00  0.51100000000E-03 0.  1.
</event>
<event>
 8    1  0.1114333E+005  0.1043930E+01  0.7957747E-01            NaN
         13   -1    0    0    0    0  0.00000000000E+00  0.00000000000E+00  0.74505805969E-08  0.10566000000E+00  0.10566000000E+00 0. -1.
     999900   -1    0    0    0    0 -0.00000000000E+00 -0.00000000000E+00 -0.74505805969E-08  0.93827000000E+00  0.93827000000E+00 0.  1.
     999902    2    1    2    0    0 -0.80767852880E-02 -0.18439136358E-01  0.24918429452E-02  0.10236458808E+01  0.10234448905E+01 0.  0.
     999903    2    3    3    0    0 -0.41671552114E-02 -0.10129249145E-01 -0.13131928030E+00  0.13348311134E+00  0.21284284482E-01 0.  0.
         14    1    1    2    0    0  0.80767852880E-02  0.18439136358E-01 -0.24918429452E-02  0.20284119194E-01  0.00000000000E+00 0.  1.
     999901    1    3    3    0    0 -0.39096300766E-02 -0.83098872125E-02  0.13381112324E+00  0.89016276946E+00  0.88000000000E+00 0. -1.
        -11    1    4    4    0    0 -0.37818983745E-02 -0.54474238365E-02 -0.12670189507E+00  0.12687635129E+00  0.51100000000E-03 0. -1.
         11    1    4    4    0    0 -0.38525683691E-03 -0.46818253090E-02 -0.46173852227E-02  0.66067600493E-02  0.51100000000E-03 0.  1.
</event>
<event>
 8    1  0.1114333E+005  0.1043930E+01  0.7957747E-01            NaN
         13   -1    0    0    0    0  0.00000000000E+00  0.00000000000E+00  0.74505805969E-08  0.10566000000E+00  0.10566000000E+00 0.  1.
     999900   -1    0    0    0    0 -0.00000000000E+00 -0.00000000000E+00 -0.74505805969E-08  0.93827000000E+00  0.93827000000E+00 0. -1.
     999902    2    1    2    0    0 -0.52426891462E-02  0.18756821794E-01  0.11535277048E-01  0.10212944799E+01  0.10210436073E+01 0.  0.
     999903    2    3    3    0    0  0.43535381741E-01  0.10433470456E+00 -0.65536564711E-01  0.13245088117E+00  0.21613296159E-01 0.  0.
         14    1    1    2    0    0  0.52426891462E-02 -0.18756821794E-01 -0.11535277048E-01  0.22635520092E-01  0.00000000000E+00 0. -1.
     999901    1    3    3    0    0 -0.48778070888E-01 -0.85577882764E-01  0.77071841759E-01  0.88884359873E+00  0.88000000000E+00 0.  1.
        -11    1    4    4    0    0  0.50268122341E-02  0.10645560807E-01 -0.15500478261E-01  0.19471074789E-01  0.51100000000E-03 0. -1.
         11    1    4    4    0    0  0.38508569507E-01  0.93689143752E-01 -0.50036086450E-01  0.11297980638E+00  0.51100000000E-03 0.  1.
</event>
<event>
 8    1  0.1114333E+005  0.1043930E+01  0.7957747E-01            NaN
         13   -1    0    0    0    0  0.00000000000E+00  0.00000000000E+00  0.74505805969E-08  0.10566000000E+00  0.10566000000E+00 0.  1.
     999900   -1    0    0    0    0 -0.00000000000E+00 -0.00000000000E+00 -0.74505805969E-08  0.93827000000E+00  0.93827000000E+00 0. -1.
     999902    2    1    2    0    0  0.32107905820E-02  0.13776845074E-01  0.19170401756E-01  0.10201053292E+01  0.10198270773E+01 0.  0.
     999903    2    3    3    0    0  0.43043646214E-01  0.62282028278E-01 -0.10308681767E+00  0.12943915328E+00  0.19894619825E-01 0.  0.
         14    1    1    2    0    0 -0.32107905820E-02 -0.13776845074E-01 -0.19170401756E-01  0.23824670823E-01  0.00000000000E+00 0. -1.
     999901    1    3    3    0    0 -0.39832855632E-01 -0.48505183204E-01  0.12225721943E+00  0.89066617590E+00  0.88000000000E+00 0.  1.
        -11    1    4    4    0    0  0.88441018829E-02  0.28732375708E-01 -0.45360893937E-01  0.54420946075E-01  0.51100000000E-03 0. -1.
         11    1    4    4    0    0  0.34199544331E-01  0.33549652571E-01 -0.57725923735E-01  0.75018207204E-01  0.51100000000E-03 0.  1.
</event>
<event>
 8    1  0.1114333E+005  0.1043930E+01  0.7957747E-01            NaN
         13   -1    0    0    0    0  0.00000000000E+00  0.00000000000E+00  0.74505805969E-08  0.10566000000E+00  0.10566000000E+00 0. -1.
     999900   -1    0    0    0    0 -0.00000000000E+00 -0.00000000000E+00 -0.74505805969E-08  0.93827000000E+00  0.93827000000E+00 0.  1.
     999902    2    1    2    0    0 -0.91910685799E-02  0.78357366664E-02 -0.20233144879E-01  0.10203661577E+01  0.10200940355E+01 0.  0.
     999903    2    3    3    0    0 -0.78635888336E-01 -0.90034987689E-01  0.46311430520E-01  0.12973186567E+00  0.19892371188E-01 0.  0.
         14    1    1    2    0    0  0.91910685799E-02 -0.78357366664E-02  0.20233144879E-01  0.23563842268E-01  0.00000000000E+00 0. -1.
     999901    1    3    3    0    0  0.69444819756E-01  0.97870724355E-01 -0.66544575399E-01  0.89063429206E+00  0.88000000000E+00 0. -1.
        -11    1    4    4    0    0 -0.66117266349E-01 -0.78778539385E-01  0.46537663228E-01  0.11288740584E+00  0.51100000000E-03 0.  1.
         11    1    4    4    0    0 -0.12518621987E-01 -0.11256448304E-01 -0.22623270820E-03  0.16844459835E-01  0.51100000000E-03 0. -1.
</event>
<event>
 8    1  0.1114333E+005  0.1043930E+01  0.7957747E-01            NaN
         13   -1    0    0    0    0  0.00000000000E+00  0.00000000000E+00  0.74505805969E-08  0.10566000000E+00  0.10566000000E+00 0. -1.
     999900   -1    0    0    0    0 -0.00000000000E+00 -0.00000000000E+00 -0.74505805969E-08  0.93827000000E+00  0.93827000000E+00 0.  1.
     999902    2    1    2    0    0 -0.11315509654E-01 -0.20986263325E-02 -0.21219897418E-01  0.10197902188E+01  0.10195044685E+01 0.  0.
     999903    2    3    3    0    0  0.10130681292E+00 -0.71979909847E-01 -0.31691899236E-01  0.12980322777E+00  0.20008090814E-01 0.  0.
         14    1    1    2    0    0  0.11315509654E-01  0.20986263325E-02  0.21219897418E-01  0.24139781226E-01  0.00000000000E+00 0. -1.
     999901    1    3    3    0    0 -0.11262232257E+00  0.69881283514E-01  0.10472001818E-01  0.88998699100E+00  0.88000000000E+00 0. -1.
        -11    1    4    4    0    0  0.70656166553E-01 -0.48945741129E-01 -0.31240736128E-01  0.91456132444E-01  0.51100000000E-03 0. -1.
         11    1    4    4    0    0  0.30650646366E-01 -0.23034168717E-01 -0.45116310791E-03  0.38347095330E-01  0.51100000000E-03 0.  1.
</event>
<event>
 8    1  0.1114333E+005  0.1043930E+01  0.7957747E-01            NaN
         13   -1    0    0    0    0  0.00000000000E+00  0.00000000000E+00  0.74505805969E-08  0.10566000000E+00  0.10566000000E+00 0. -1.
     999900   -1    0    0    0    0 -0.00000000000E+00 -0.00000000000E+00 -0.74505805969E-08  0.93827000000E+00  0.93827000000E+00 0.  1.
     999902    2    1    2    0    0  0.15471440435E-01  0.15130285272E-01 -0.11561864309E-01  0.10193949698E+01  0.10190996697E+01 0.  0.
     999903    2    3    3    0    0 -0.82329892737E-01  0.83257142415E-01 -0.53491966971E-01  0.13037050277E+00  0.20618304029E-01 0.  0.
         14    1    1    2    0    0 -0.15471440435E-01 -0.15130285272E-01  0.11561864309E-01  0.24535030219E-01  0.00000000000E+00 0.  1.
     999901    1    3    3    0    0  0.97801333172E-01 -0.68126857144E-01  0.41930102661E-01  0.88902446701E+00  0.88000000000E+00 0. -1.
        -11    1    4    4    0    0 -0.75970781923E-01  0.70234813020E-01 -0.41216022436E-01  0.11137104782E+00  0.51100000000E-03 0. -1.
         11    1    4    4    0    0 -0.63591108138E-02  0.13022329396E-01 -0.12275944534E-01  0.18999454951E-01  0.51100000000E-03 0.  1.
</event>
<event>
 8    1  0.1114333E+005  0.1043930E+01  0.7957747E-01            NaN
         13   -1    0    0    0    0  0.00000000000E+00  0.00000000000E+00  0.74505805969E-08  0.10566000000E+00  0.10566000000E+00 0.  1.
     999900   -1    0    0    0    0 -0.00000000000E+00 -0.00000000000E+00 -0.74505805969E-08  0.93827000000E+00  0.93827000000E+00 0. -1.
     999902    2    1    2    0    0 -0.10965355693E-01 -0.18557672980E-01  0.89776433841E-02  0.10205799608E+01  0.10203128108E+01 0.  0.
     999903    2    3    3    0    0 -0.36809465825E-01  0.10355234088E+00 -0.64108659844E-01  0.12877259297E+00  0.19860421912E-01 0.  0.
         14    1    1    2    0    0  0.10965355693E-01  0.18557672980E-01 -0.89776433841E-02  0.23350039243E-01  0.00000000000E+00 0. -1.
     999901    1    3    3    0    0  0.25844110133E-01 -0.12211001386E+00  0.73086303229E-01  0.89180736778E+00  0.88000000000E+00 0.  1.
        -11    1    4    4    0    0 -0.17112414639E-01  0.22640003809E-01 -0.17336743775E-01  0.33260010718E-01  0.51100000000E-03 0. -1.
         11    1    4    4    0    0 -0.19697051187E-01  0.80912337069E-01 -0.46771916069E-01  0.95512582256E-01  0.51100000000E-03 0.  1.
</event>
<event>
 8    1  0.1114333E+005  0.1043930E+01  0.7957747E-01            NaN
         13   -1    0    0    0    0  0.00000000000E+00  0.00000000000E+00  0.74505805969E-08  0.10566000000E+00  0.10566000000E+00 0. -1.
     999900   -1    0    0    0    0 -0.00000000000E+00 -0.00000000000E+00 -0.74505805969E-08  0.93827000000E+00  0.93827000000E+00 0. -1.
     999902    2    1    2    0    0 -0.44820214248E-02  0.95998258060E-02  0.17804348979E-01  0.10232118916E+01  0.10230021189E+01 0.  0.
     999903    2    3    3    0    0  0.69732127941E-01  0.88741728334E-01 -0.66691423627E-01  0.13253197366E+00  0.19475986282E-01 0.  0.
         14    1    1    2    0    0  0.44820214248E-02 -0.95998258060E-02 -0.17804348979E-01  0.20718108363E-01  0.00000000000E+00 0.  1.
     999901    1    3    3    0    0 -0.74214149366E-01 -0.79141902528E-01  0.84495772606E-01  0.89067991798E+00  0.88000000000E+00 0.  1.
        -11    1    4    4    0    0  0.51854200222E-01  0.56075832889E-01 -0.36816743715E-01  0.84788506613E-01  0.51100000000E-03 0.  1.
         11    1    4    4    0    0  0.17877927719E-01  0.32665895446E-01 -0.29874679911E-01  0.47743467046E-01  0.51100000000E-03 0. -1.
</event>
<event>
 8    1  0.1114333E+005  0.1043930E+01  0.7957747E-01            NaN
         13   -1    0    0    0    0  0.00000000000E+00  0.00000000000E+00  0.74505805969E-08  0.10566000000E+00  0.10566000000E+00 0.  1.
     999900   -1    0    0    0    0 -0.00000000000E+00 -0.00000000000E+00 -0.74505805969E-08  0.93827000000E+00  0.93827000000E+00 0.  1.
     999902    2    1    2    0    0 -0.88681787745E-02 -0.22314948440E-01 -0.21202001998E-02  0.10198240512E+01  0.10195391109E+01 0.  0.
     999903    2    3    3    0    0 -0.22993515400E-01  0.11217367267E+00 -0.53770427126E-01  0.12799757689E+00  0.19506057168E-01 0.  0.
         14    1    1    2    0    0  0.88681787745E-02  0.22314948440E-01  0.21202001998E-02  0.24105948800E-01  0.00000000000E+00 0. -1.
     999901    1    3    3    0    0  0.14125336625E-01 -0.13448862111E+00  0.51650226926E-01  0.89182647431E+00  0.88000000000E+00 0. -1.
        -11    1    4    4    0    0 -0.25250314761E-01  0.80579251610E-01 -0.40436278671E-01  0.93626641184E-01  0.51100000000E-03 0. -1.
         11    1    4    4    0    0  0.22567993614E-02  0.31594421056E-01 -0.13334148454E-01  0.34370935705E-01  0.51100000000E-03 0.  1.
</event>
<event>
 8    1  0.1114333E+005  0.1043930E+01  0.7957747E-01            NaN
         13   -1    0    0    0    0  0.00000000000E+00  0.00000000000E+00  0.74505805969E-08  0.10566000000E+00  0.10566000000E+00 0.  1.
     999900   -1    0    0    0    0 -0.00000000000E+00 -0.00000000000E+00 -0.74505805969E-08  0.93827000000E+00  0.93827000000E+00 0. -1.
     999902    2    1    2    0    0 -0.28616194479E-02  0.23773930554E-01 -0.40276033637E-02  0.10196481090E+01  0.10193589437E+01 0.  0.
     999903    2    3    3    0    0 -0.90367638058E-01 -0.84505199876E-01 -0.23682330906E-01  0.12848707887E+00  0.25310824250E-01 0.  0.
         14    1    1    2    0    0  0.28616194479E-02 -0.23773930554E-01  0.40276033637E-02  0.24281890963E-01  0.00000000000E+00 0. -1.
     999901    1    3    3    0    0  0.87506018611E-01  0.10827913043E+00  0.19654727542E-01  0.89116103017E+00  0.88000000000E+00 0.  1.
        -11    1    4    4    0    0 -0.51551297800E-01 -0.59697259325E-01 -0.58736687520E-02  0.79095260170E-01  0.51100000000E-03 0.  1.
         11    1    4    4    0    0 -0.38816340259E-01 -0.24807940551E-01 -0.17808662154E-01  0.49391818697E-01  0.51100000000E-03 0. -1.
</event>
<event>
 8    1  0.1114333E+005  0.1043930E+01  0.7957747E-01            NaN
         13   -1    0    0    0    0  0.00000000000E+00  0.00000000000E+00  0.74505805969E-08  0.10566000000E+00  0.10566000000E+00 0. -1.
     999900   -1    0    0    0    0 -0.00000000000E+00 -0.00000000000E+00 -0.74505805969E-08  0.93827000000E+00  0.93827000000E+00 0.  1.
     999902    2    1    2    0    0  0.68577330968E-02  0.95827611435E-02  0.20461476150E-01  0.10203179306E+01  0.10200446803E+01 0.  0.
     999903    2    3    3    0    0  0.82201737603E-01 -0.89514871589E-01  0.44711764946E-01  0.13122562026E+00  0.21236374158E-01 0.  0.
         14    1    1    2    0    0 -0.68577330968E-02 -0.95827611435E-02 -0.20461476150E-01  0.23612069384E-01  0.00000000000E+00 0.  1.
     999901    1    3    3    0    0 -0.75344004506E-01  0.99097632732E-01 -0.24250288796E-01  0.88909231036E+00  0.88000000000E+00 0. -1.
        -11    1    4    4    0    0  0.29936065297E-01 -0.45440753863E-01  0.26183456735E-01  0.60389275908E-01  0.51100000000E-03 0.  1.
         11    1    4    4    0    0  0.52265672306E-01 -0.44074117726E-01  0.18528308211E-01  0.70836344352E-01  0.51100000000E-03 0. -1.
</event>
<event>
 8    1  0.1114333E+005  0.1043930E+01  0.7957747E-01            NaN
         13   -1    0    0    0    0  0.00000000000E+00  0.00000000000E+00  0.74505805969E-08  0.10566000000E+00  0.10566000000E+00 0. -1.
     999900   -1    0    0    0    0 -0.00000000000E+00 -0.00000000000E+00 -0.74505805969E-08  0.93827000000E+00  0.93827000000E+00 0.  1.
     999902    2    1    2    0    0  0.16818214357E-01  0.49626980911E-02  0.15953235827E-01  0.10202237468E+01  0.10199482865E+01 0.  0.
     999903    2    3    3    0    0 -0.68606182914E-01  0.99689535615E-01  0.45611347681E-01  0.13053273023E+00  0.17708381618E-01 0.  0.
         14    1    1    2    0    0 -0.16818214357E-01 -0.49626980911E-02 -0.15953235827E-01  0.23706253180E-01  0.00000000000E+00 0.  1.
     999901    1    3    3    0    0  0.85424397271E-01 -0.94726837524E-01 -0.29658111854E-01  0.88969101659E+00  0.88000000000E+00 0.  1.
        -11    1    4    4    0    0 -0.52873884509E-01  0.74933607030E-01  0.42344906790E-01  0.10101507500E+00  0.51100000000E-03 0.  1.
         11    1    4    4    0    0 -0.15732298405E-01  0.24755928585E-01  0.32664408907E-02  0.29517655231E-01  0.51100000000E-03 0. -1.
</event>
<event>
 8    1  0.1114333E+005  0.1043930E+01  0.7957747E-01            NaN
         13   -1    0    0    0    0  0.00000000000E+00  0.00000000000E+00  0.74505805969E-08  0.10566000000E+00  0.10566000000E+00 0.  1.
     999900   -1    0    0    0    0 -0.00000000000E+00 -0.00000000000E+00 -0.74505805969E-08  0.93827000000E+00  0.93827000000E+00 0. -1.
     999902    2    1    2    0    0  0.11795872430E-01 -0.19332044924E-01  0.35900396987E-02  0.10210005658E+01  0.10207430609E+01 0.  0.
     999903    2    3    3    0    0 -0.11473719512E+00 -0.59147029307E-01 -0.15963724733E-01  0.13084428747E+00  0.14226455475E-01 0.  0.
         14    1    1    2    0    0 -0.11795872430E-01  0.19332044924E-01 -0.35900396987E-02  0.22929434192E-01  0.00000000000E+00 0.  1.
     999901    1    3    3    0    0  0.12653306755E+00  0.39814984383E-01  0.19553764432E-01  0.89015627834E+00  0.88000000000E+00 0.  1.
        -11    1    4    4    0    0 -0.91843341704E-01 -0.50770081440E-01 -0.17587238626E-01  0.10640663827E+00  0.51100000000E-03 0.  1.
         11    1    4    4    0    0 -0.22893853418E-01 -0.83769478671E-02  0.16235138930E-02  0.24437649196E-01  0.51100000000E-03 0. -1.
</event>
<event>
 8    1  0.1114333E+005  0.1043930E+01  0.7957747E-01            NaN
         13   -1    0    0    0    0  0.00000000000E+00  0.00000000000E+00  0.74505805969E-08  0.10566000000E+00  0.10566000000E+00 0.  1.
     999900   -1    0    0    0    0 -0.00000000000E+00 -0.00000000000E+00 -0.74505805969E-08  0.93827000000E+00  0.93827000000E+00 0. -1.
     999902    2    1    2    0    0  0.11032382616E-01  0.21018190566E-01  0.51122699564E-02  0.10196480498E+01  0.10193588830E+01 0.  0.
     999903    2    3    3    0    0 -0.39118002306E-02 -0.12566629519E+00  0.24963402790E-02  0.12737762553E+00  0.20285656118E-01 0.  0.
         14    1    1    2    0    0 -0.11032382616E-01 -0.21018190566E-01 -0.51122699564E-02  0.24281950188E-01  0.00000000000E+00 0.  1.
     999901    1    3    3    0    0  0.14944182846E-01  0.14668448575E+00  0.26159296774E-02  0.89227042428E+00  0.88000000000E+00 0. -1.
        -11    1    4    4    0    0 -0.10348846658E-01 -0.10050589901E+00 -0.17683949730E-02  0.10105405833E+00  0.51100000000E-03 0.  1.
         11    1    4    4    0    0  0.64370464271E-02 -0.25160396174E-01  0.42647352519E-02  0.26323567199E-01  0.51100000000E-03 0. -1.
</event>
<event>
 8    1  0.1114333E+005  0.1043930E+01  0.7957747E-01            NaN
         13   -1    0    0    0    0  0.00000000000E+00  0.00000000000E+00  0.74505805969E-08  0.10566000000E+00  0.10566000000E+00 0.  1.
     999900   -1    0    0    0    0 -0.00000000000E+00 -0.00000000000E+00 -0.74505805969E-08  0.93827000000E+00  0.93827000000E+00 0. -1.
     999902    2    1    2    0    0  0.28465672056E-02  0.14467256328E-01  0.18474651883E-01  0.10202928002E+01  0.10200189611E+01 0.  0.
     999903    2    3    3    0    0  0.10416180377E+00 -0.21595429388E-01  0.75484681273E-01  0.13191481879E+00  0.19685994397E-01 0.  0.
         14    1    1    2    0    0 -0.28465672056E-02 -0.14467256328E-01 -0.18474651883E-01  0.23637199764E-01  0.00000000000E+00 0. -1.
     999901    1    3    3    0    0 -0.10131523656E+00  0.36062685716E-01 -0.57010029391E-01  0.88837798144E+00  0.88000000000E+00 0.  1.
        -11    1    4    4    0    0  0.13973699494E-01  0.24606360300E-02  0.54010448897E-02  0.15190504077E-01  0.51100000000E-03 0.  1.
         11    1    4    4    0    0  0.90188104275E-01 -0.24056065418E-01  0.70083636384E-01  0.11672431472E+00  0.51100000000E-03 0. -1.
</event>
<event>
 8    1  0.1114333E+005  0.1043930E+01  0.7957747E-01            NaN
         13   -1    0    0    0    0  0.00000000000E+00  0.00000000000E+00  0.74505805969E-08  0.10566000000E+00  0.10566000000E+00 0.  1.
     999900   -1    0    0    0    0 -0.00000000000E+00 -0.00000000000E+00 -0.74505805969E-08  0.93827000000E+00  0.93827000000E+00 0.  1.
     999902    2    1    2    0    0 -0.13260922537E-01  0.61492462478E-02 -0.18024103277E-01  0.10207236734E+01  0.10204598394E+01 0.  0.
     999903    2    3    3    0    0  0.12167982371E+00 -0.22860793165E-01  0.28840055994E-01  0.12873329406E+00  0.20295733726E-01 0.  0.
         14    1    1    2    0    0  0.13260922537E-01 -0.61492462478E-02  0.18024103277E-01  0.23206326614E-01  0.00000000000E+00 0.  1.
     999901    1    3    3    0    0 -0.13494074625E+00  0.29010039413E-01 -0.46864159271E-01  0.89199037933E+00  0.88000000000E+00 0.  1.
        -11    1    4    4    0    0  0.50431056546E-01 -0.36192006701E-02  0.34342179459E-02  0.50679828845E-01  0.51100000000E-03 0.  1.
         11    1    4    4    0    0  0.71248767165E-01 -0.19241592495E-01  0.25405838048E-01  0.78053465216E-01  0.51100000000E-03 0. -1.
</event>
<event>
 8    1  0.1114333E+005  0.1043930E+01  0.7957747E-01            NaN
         13   -1    0    0    0    0  0.00000000000E+00  0.00000000000E+00  0.74505805969E-08  0.10566000000E+00  0.10566000000E+00 0. -1.
     999900   -1    0    0    0    0 -0.00000000000E+00 -0.00000000000E+00 -0.74505805969E-08  0.93827000000E+00  0.93827000000E+00 0.  1.
     999902    2    1    2    0    0 -0.29187720570E-02 -0.20820941649E-02 -0.22913012778E-01  0.10207381803E+01  0.10204746799E+01 0.  0.
     999903    2    3    3    0    0  0.12073752846E+00 -0.31746253906E-01 -0.35452602399E-01  0.13150925345E+00  0.21270197740E-01 0.  0.
         14    1    1    2    0    0  0.29187720570E-02  0.20820941649E-02  0.22913012778E-01  0.23191819700E-01  0.00000000000E+00 0. -1.
     999901    1    3    3    0    0 -0.12365630052E+00  0.29664159741E-01  0.12539589621E-01  0.88922892685E+00  0.88000000000E+00 0. -1.
        -11    1    4    4    0    0  0.87282080438E-01 -0.23434718580E-01 -0.35323561573E-01  0.97032792002E-01  0.51100000000E-03 0. -1.
         11    1    4    4    0    0  0.33455448021E-01 -0.83115353265E-02 -0.12904082619E-03  0.34476461453E-01  0.51100000000E-03 0.  1.
</event>
<event>
 8    1  0.1114333E+005  0.1043930E+01  0.7957747E-01            NaN
         13   -1    0    0    0    0  0.00000000000E+00  0.00000000000E+00  0.74505805969E-08  0.10566000000E+00  0.10566000000E+00 0.  1.
     999900   -1    0    0    0    0 -0.00000000000E+00 -0.00000000000E+00 -0.74505805969E-08  0.93827000000E+00  0.93827000000E+00 0.  1.
     999902    2    1    2    0    0 -0.17690277058E-02 -0.97539350978E-02 -0.21000309822E-01  0.10207075600E+01  0.10204433552E+01 0.  0.
     999903    2    3    3    0    0 -0.73463957824E-01  0.25654932434E-01  0.10065512157E+00  0.12874680135E+00  0.19727055101E-01 0.  0.
         14    1    1    2    0    0  0.17690277058E-02  0.97539350978E-02  0.21000309822E-01  0.23222440042E-01  0.00000000000E+00 0.  1.
     999901    1    3    3    0    0  0.71694930119E-01 -0.35408867531E-01 -0.12165543139E+00  0.89196075861E+00  0.88000000000E+00 0.  1.
        -11    1    4    4    0    0 -0.49806896188E-01  0.26827963578E-01  0.70027943571E-01  0.90025777083E-01  0.51100000000E-03 0. -1.
         11    1    4    4    0    0 -0.23657061636E-01 -0.11730311442E-02  0.30627177999E-01  0.38721024270E-01  0.51100000000E-03 0.  1.
</event>
<event>
 8    1  0.1114333E+005  0.1043930E+01  0.7957747E-01            NaN
         13   -1    0    0    0    0  0.00000000000E+00  0.00000000000E+00  0.74505805969E-08  0.10566000000E+00  0.10566000000E+00 0. -1.
     999900   -1    0    0    0    0 -0.00000000000E+00 -0.00000000000E+00 -0.74505805969E-08  0.93827000000E+00  0.93827000000E+00 0.  1.
     999902    2    1    2    0    0  0.17880993347E-01  0.88330313148E-02  0.13758080187E-01  0.10197011508E+01  0.10194132625E+01 0.  0.
     999903    2    3    3    0    0  0.18174873174E-01  0.10889094736E+00  0.69802186260E-01  0.13225953873E+00  0.20800864055E-01 0.  0.
         14    1    1    2    0    0 -0.17880993347E-01 -0.88330313148E-02 -0.13758080187E-01  0.24228849244E-01  0.00000000000E+00 0.  1.
     999901    1    3    3    0    0 -0.29387982693E-03 -0.10005791605E+00 -0.56044106072E-01  0.88744161203E+00  0.88000000000E+00 0. -1.
        -11    1    4    4    0    0  0.26639813759E-02  0.57085680320E-01  0.45114697983E-01  0.72811185881E-01  0.51100000000E-03 0. -1.
         11    1    4    4    0    0  0.15510891798E-01  0.51805267045E-01  0.24687488277E-01  0.59448352848E-01  0.51100000000E-03 0.  1.
</event>
<event>
 8    1  0.1114333E+005  0.1043930E+01  0.7957747E-01            NaN
         13   -1    0    0    0    0  0.00000000000E+00  0.00000000000E+00  0.74505805969E-08  0.10566000000E+00  0.10566000000E+00 0. -1.
     999900   -1    0    0    0    0 -0.00000000000E+00 -0.00000000000E+00 -0.74505805969E-08  0.93827000000E+00  0.93827000000E+00 0. -1.
     999902    2    1    2    0    0  0.87267742084E-02 -0.18354559864E-01  0.11686029801E-01  0.10204862429E+01  0.10202169192E+01 0.  0.
     999903    2    3    3    0    0  0.10529270392E+00  0.58056195817E-01 -0.45281838543E-01  0.13008806206E+00  0.20380962121E-01 0.  0.
         14    1    1    2    0    0 -0.87267742084E-02  0.18354559864E-01 -0.11686029801E-01  0.23443757130E-01  0.00000000000E+00 0. -1.
     999901    1    3    3    0    0 -0.96565929713E-01 -0.76410755680E-01  0.56967868344E-01  0.89039818081E+00  0.88000000000E+00 0.  1.
        -11    1    4    4    0    0  0.67191500030E-01  0.26750684120E-01 -0.22314607237E-01  0.75686852189E-01  0.51100000000E-03 0.  1.
         11    1    4    4    0    0  0.38101203891E-01  0.31305511697E-01 -0.22967231306E-01  0.54401209871E-01  0.51100000000E-03 0. -1.
</event>
<event>
 8    1  0.1114333E+005  0.1043930E+01  0.7957747E-01            NaN
         13   -1    0    0    0    0  0.00000000000E+00  0.00000000000E+00  0.74505805969E-08  0.10566000000E+00  0.10566000000E+00 0. -1.
     999900   -1    0    0    0    0 -0.00000000000E+00 -0.00000000000E+00 -0.74505805969E-08  0.93827000000E+00  0.93827000000E+00 0. -1.
     999902    2    1    2    0    0  0.18043201040E-01 -0.95690078562E-02 -0.12005526838E-01  0.10202391644E+01  0.10199640665E+01 0.  0.
     999903    2    3    3    0    0 -0.76551614230E-01  0.80046476382E-01 -0.62941365667E-01  0.12918721658E+00  0.21450720136E-01 0.  0.
         14    1    1    2    0    0 -0.18043201040E-01  0.95690078562E-02  0.12005526838E-01  0.23690835565E-01  0.00000000000E+00 0.  1.
     999901    1    3    3    0    0  0.94594815270E-01 -0.89615484238E-01  0.50935838829E-01  0.89105194785E+00  0.88000000000E+00 0.  1.
        -11    1    4    4    0    0 -0.61158221650E-02  0.15615826131E-01 -0.14313725761E-01  0.22054504589E-01  0.51100000000E-03 0. -1.
         11    1    4    4    0    0 -0.70435792065E-01  0.64430650251E-01 -0.48627639905E-01  0.10713271199E+00  0.51100000000E-03 0.  1.
</event>
<event>
 8    1  0.1114333E+005  0.1043930E+01  0.7957747E-01            NaN
         13   -1    0    0    0    0  0.00000000000E+00  0.00000000000E+00  0.74505805969E-08  0.10566000000E+00  0.10566000000E+00 0. -1.
     999900   -1    0    0    0    0 -0.00000000000E+00 -0.00000000000E+00 -0.74505805969E-08  0.93827000000E+00  0.93827000000E+00 0. -1.
     999902    2    1    2    0    0  0.19171179655E-01  0.14699769031E-01 -0.91964849558E-03  0.10197543285E+01  0.10194677177E+01 0.  0.
     999903    2    3    3    0    0 -0.56840647041E-01 -0.10516075150E+00 -0.41448563199E-01  0.12746125159E+00  0.15451357633E-01 0.  0.
         14    1    1    2    0    0 -0.19171179655E-01 -0.14699769031E-01  0.91964849558E-03  0.24175671496E-01  0.00000000000E+00 0. -1.
     999901    1    3    3    0    0  0.76011826696E-01  0.11986052053E+00  0.40528914704E-01  0.89229307691E+00  0.88000000000E+00 0.  1.
        -11    1    4    4    0    0 -0.28564233648E-01 -0.53917426399E-01 -0.29281015011E-01  0.67680449721E-01  0.51100000000E-03 0. -1.
         11    1    4    4    0    0 -0.28276413393E-01 -0.51243325106E-01 -0.12167548189E-01  0.59780801870E-01  0.51100000000E-03 0.  1.
</event>
<event>
 8    1  0.1114333E+005  0.1043930E+01  0.7957747E-01            NaN
         13   -1    0    0    0    0  0.00000000000E+00  0.00000000000E+00  0.74505805969E-08  0.10566000000E+00  0.10566000000E+00 0. -1.
     999900   -1    0    0    0    0 -0.00000000000E+00 -0.00000000000E+00 -0.74505805969E-08  0.93827000000E+00  0.93827000000E+00 0.  1.
     999902    2    1    2    0    0  0.20068956481E-01  0.47485631224E-02  0.11339239267E-01  0.10203951277E+01  0.10201236819E+01 0.  0.
     999903    2    3    3    0    0 -0.12454068837E+00  0.19018386454E-01  0.14950582367E-01  0.12847101714E+00  0.20228698642E-01 0.  0.
         14    1    1    2    0    0 -0.20068956481E-01 -0.47485631224E-02 -0.11339239267E-01  0.23534872277E-01  0.00000000000E+00 0. -1.
     999901    1    3    3    0    0  0.14460964485E+00 -0.14269823331E-01 -0.36113431000E-02  0.89192411058E+00  0.88000000000E+00 0.  1.
        -11    1    4    4    0    0 -0.10925240039E+00  0.22950647070E-01  0.10921971391E-01  0.11217116284E+00  0.51100000000E-03 0. -1.
         11    1    4    4    0    0 -0.15288287978E-01 -0.39322606163E-02  0.40286109763E-02  0.16299854301E-01  0.51100000000E-03 0.  1.
</event>
<event>
 8    1  0.1114333E+005  0.1043930E+01  0.7957747E-01            NaN
         13   -1    0    0    0    0  0.00000000000E+00  0.00000000000E+00  0.74505805969E-08  0.10566000000E+00  0.10566000000E+00 0. -1.
     999900   -1    0    0    0    0 -0.00000000000E+00 -0.00000000000E+00 -0.74505805969E-08  0.93827000000E+00  0.93827000000E+00 0. -1.
     999902    2    1    2    0    0 -0.19089286989E-01  0.13777612345E-01  0.47097312484E-02  0.10199215630E+01  0.10196389506E+01 0.  0.
     999903    2    3    3    0    0  0.12263879755E+00  0.31794187103E-01 -0.73279877752E-02  0.12831831400E+00  0.18993296329E-01 0.  0.
         14    1    1    2    0    0  0.19089286989E-01 -0.13777612345E-01 -0.47097312484E-02  0.24008437019E-01  0.00000000000E+00 0. -1.
     999901    1    3    3    0    0 -0.14172808454E+00 -0.18016574758E-01  0.12037719024E-01  0.89160324898E+00  0.88000000000E+00 0. -1.
        -11    1    4    4    0    0  0.29859924413E-01  0.96517104616E-02  0.61584602424E-02  0.31983720145E-01  0.51100000000E-03 0.  1.
         11    1    4    4    0    0  0.92778873136E-01  0.22142476641E-01 -0.13486448018E-01  0.96334593856E-01  0.51100000000E-03 0. -1.
</event>
<event>
 8    1  0.1114333E+005  0.1043930E+01  0.7957747E-01            NaN
         13   -1    0    0    0    0  0.00000000000E+00  0.00000000000E+00  0.74505805969E-08  0.10566000000E+00  0.10566000000E+00 0.  1.
     999900   -1    0    0    0    0 -0.00000000000E+00 -0.00000000000E+00 -0.74505805969E-08  0.93827000000E+00  0.93827000000E+00 0. -1.
     999902    2    1    2    0    0 -0.10956152748E-01  0.85871250121E-02  0.18490014821E-01  0.10207857427E+01  0.10205233343E+01 0.  0.
     999903    2    3    3    0    0  0.69206974460E-01  0.39614446788E-01  0.10378790944E+00  0.13249268716E+00  0.20578442497E-01 0.  0.
         14    1    1    2    0    0  0.10956152748E-01 -0.85871250121E-02 -0.18490014821E-01  0.23144257324E-01  0.00000000000E+00 0. -1.
     999901    1    3    3    0    0 -0.80163127207E-01 -0.31027321775E-01 -0.85297894619E-01  0.88829305552E+00  0.88000000000E+00 0. -1.
        -11    1    4    4    0    0  0.16525281444E-01  0.11646974500E-01  0.41979353143E-01  0.46596825570E-01  0.51100000000E-03 0. -1.
         11    1    4    4    0    0  0.52681693015E-01  0.27967472287E-01  0.61808556296E-01  0.85895861585E-01  0.51100000000E-03 0.  1.
</event>
<event>
 8    1  0.1114333E+005  0.1043930E+01  0.7957747E-01            NaN
         13   -1    0    0    0    0  0.00000000000E+00  0.00000000000E+00  0.74505805969E-08  0.10566000000E+00  0.10566000000E+00 0.  1.
     999900   -1    0    0    0    0 -0.00000000000E+00 -0.00000000000E+00 -0.74505805969E-08  0.93827000000E+00  0.93827000000E+00 0. -1.
     999902    2    1    2    0    0 -0.59019821512E-02  0.18218342011E-01  0.14287743088E-01  0.10200368842E+01  0.10197570123E+01 0.  0.
     999903    2    3    3    0    0 -0.41622854721E-01  0.84485339752E-01 -0.88981872812E-01  0.13080580667E+00  0.17948557055E-01 0.  0.
         14    1    1    2    0    0  0.59019821512E-02 -0.18218342011E-01 -0.14287743088E-01  0.23893115776E-01  0.00000000000E+00 0. -1.
     999901    1    3    3    0    0  0.35720872570E-01 -0.66266997741E-01  0.10326961590E+00  0.88923107756E+00  0.88000000000E+00 0.  1.
        -11    1    4    4    0    0 -0.33155252127E-01  0.49245813872E-01 -0.50504998384E-01  0.77945089071E-01  0.51100000000E-03 0. -1.
         11    1    4    4    0    0 -0.84676025937E-02  0.35239525880E-01 -0.38476874428E-01  0.52860717596E-01  0.51100000000E-03 0.  1.
</event>
<event>
 8    1  0.1114333E+005  0.1043930E+01  0.7957747E-01            NaN
         13   -1    0    0    0    0  0.00000000000E+00  0.00000000000E+00  0.74505805969E-08  0.10566000000E+00  0.10566000000E+00 0. -1.
     999900   -1    0    0    0    0 -0.00000000000E+00 -0.00000000000E+00 -0.74505805969E-08  0.93827000000E+00  0.93827000000E+00 0. -1.
     999902    2    1    2    0    0  0.44760824456E-02  0.13586466131E-01  0.18780067272E-01  0.10203224101E+01  0.10200492646E+01 0.  0.
     999903    2    3    3    0    0 -0.64796863155E-01  0.99700606272E-01  0.55375580960E-01  0.13265489475E+00  0.19799539584E-01 0.  0.
         14    1    1    2    0    0 -0.44760824456E-02 -0.13586466131E-01 -0.18780067272E-01  0.23607589939E-01  0.00000000000E+00 0.  1.
     999901    1    3    3    0    0  0.69272945601E-01 -0.86114140141E-01 -0.36595513688E-01  0.88766751532E+00  0.88000000000E+00 0. -1.
        -11    1    4    4    0    0 -0.17887108703E-01  0.44002726758E-01  0.25798435557E-01  0.54055610422E-01  0.51100000000E-03 0.  1.
         11    1    4    4    0    0 -0.46909754452E-01  0.55697879514E-01  0.29577145402E-01  0.78599284324E-01  0.51100000000E-03 0. -1.
</event>
<event>
 8    1  0.1114333E+005  0.1043930E+01  0.7957747E-01            NaN
         13   -1    0    0    0    0  0.00000000000E+00  0.00000000000E+00  0.74505805969E-08  0.10566000000E+00  0.10566000000E+00 0.  1.
     999900   -1    0    0    0    0 -0.00000000000E+00 -0.00000000000E+00 -0.74505805969E-08  0.93827000000E+00  0.93827000000E+00 0.  1.
     999902    2    1    2    0    0 -0.12896876469E-01  0.19579312149E-01  0.53930263474E-02  0.10198724935E+01  0.10195887109E+01 0.  0.
     999903    2    3    3    0    0 -0.37128270937E-01  0.87781094211E-01 -0.88874476819E-01  0.13188318853E+00  0.20260152577E-01 0.  0.
         14    1    1    2    0    0  0.12896876469E-01 -0.19579312149E-01 -0.53930263474E-02  0.24057506522E-01  0.00000000000E+00 0. -1.
     999901    1    3    3    0    0  0.24231394468E-01 -0.68201782062E-01  0.94267503167E-01  0.88798930495E+00  0.88000000000E+00 0. -1.
        -11    1    4    4    0    0 -0.22725930441E-01  0.69893777486E-01 -0.75193485927E-01  0.10514718015E+00  0.51100000000E-03 0.  1.
         11    1    4    4    0    0 -0.14402340496E-01  0.17887316725E-01 -0.13680990893E-01  0.26736008381E-01  0.51100000000E-03 0. -1.
</event>
<event>
 8    1  0.1114333E+005  0.1043930E+01  0.7957747E-01            NaN
         13   -1    0    0    0    0  0.00000000000E+00  0.00000000000E+00  0.74505805969E-08  0.10566000000E+00  0.10566000000E+00 0.  1.
     999900   -1    0    0    0    0 -0.00000000000E+00 -0.00000000000E+00 -0.74505805969E-08  0.93827000000E+00  0.93827000000E+00 0. -1.
     999902    2    1    2    0    0 -0.16176715916E-01  0.34530789213E-02 -0.17139690703E-01  0.10201102836E+01  0.10198321488E+01 0.  0.
     999903    2    3    3    0    0  0.77008662834E-01 -0.68634883448E-01 -0.77492564216E-01  0.13020991925E+00  0.17562579113E-01 0.  0.
         14    1    1    2    0    0  0.16176715916E-01 -0.34530789213E-02  0.17139690703E-01  0.23819716398E-01  0.00000000000E+00 0.  1.
     999901    1    3    3    0    0 -0.93185378750E-01  0.72087962369E-01  0.60352873513E-01  0.88990036435E+00  0.88000000000E+00 0.  1.
        -11    1    4    4    0    0  0.47461394318E-01 -0.52326006630E-01 -0.48245244888E-01  0.85547996446E-01  0.51100000000E-03 0.  1.
         11    1    4    4    0    0  0.29547268516E-01 -0.16308876817E-01 -0.29247319328E-01  0.44661922805E-01  0.51100000000E-03 0. -1.
</event>
<event>
 8    1  0.1114333E+005  0.1043930E+01  0.7957747E-01            NaN
         13   -1    0    0    0    0  0.00000000000E+00  0.00000000000E+00  0.74505805969E-08  0.10566000000E+00  0.10566000000E+00 0.  1.
     999900   -1    0    0    0    0 -0.00000000000E+00 -0.00000000000E+00 -0.74505805969E-08  0.93827000000E+00  0.93827000000E+00 0. -1.
     999902    2    1    2    0    0 -0.17068126506E-01 -0.58510653161E-02  0.14940611295E-01  0.10205039936E+01  0.10202350824E+01 0.  0.
     999903    2    3    3    0    0  0.12576261033E+00 -0.95260773382E-02  0.17932994402E-01  0.12897548628E+00  0.20152008933E-01 0.  0.
         14    1    1    2    0    0  0.17068126506E-01  0.58510653161E-02 -0.14940611295E-01  0.23426006353E-01  0.00000000000E+00 0. -1.
     999901    1    3    3    0    0 -0.14283073684E+00  0.36750120222E-02 -0.29923831064E-02  0.89152850737E+00  0.88000000000E+00 0.  1.
        -11    1    4    4    0    0  0.10509321495E+00 -0.37070218106E-03  0.13989353426E-01  0.10602209383E+00  0.51100000000E-03 0.  1.
         11    1    4    4    0    0  0.20669395382E-01 -0.91553751572E-02  0.39436409754E-02  0.22953392448E-01  0.51100000000E-03 0. -1.
</event>
<event>
 8    1  0.1114333E+005  0.1043930E+01  0.7957747E-01            NaN
         13   -1    0    0    0    0  0.00000000000E+00  0.00000000000E+00  0.74505805969E-08  0.10566000000E+00  0.10566000000E+00 0. -1.
     999900   -1    0    0    0    0 -0.00000000000E+00 -0.00000000000E+00 -0.74505805969E-08  0.93827000000E+00  0.93827000000E+00 0.  1.
     999902    2    1    2    0    0  0.18763166893E-01 -0.89391976462E-02  0.11712180376E-01  0.10200733268E+01  0.10197943181E+01 0.  0.
     999903    2    3    3    0    0  0.89262100254E-01 -0.84040572171E-01  0.48828320874E-01  0.13328816459E+00  0.18734716083E-01 0.  0.
         14    1    1    2    0    0 -0.18763166893E-01  0.89391976462E-02 -0.11712180376E-01  0.23856673187E-01  0.00000000000E+00 0.  1.
     999901    1    3    3    0    0 -0.70498933361E-01  0.75101374524E-01 -0.37116140498E-01  0.88678516223E+00  0.88000000000E+00 0.  1.
        -11    1    4    4    0    0  0.20943390048E-01 -0.14603017680E-01  0.17514325929E-01  0.30965891652E-01  0.51100000000E-03 0. -1.
         11    1    4    4    0    0  0.68318710206E-01 -0.69437554491E-01  0.31313994945E-01  0.10232227293E+00  0.51100000000E-03 0.  1.
</event>
<event>
 8    1  0.1114333E+005  0.1043930E+01  0.7957747E-01            NaN
         13   -1    0    0    0    0  0.00000000000E+00  0.00000000000E+00  0.74505805969E-08  0.10566000000E+00  0.10566000000E+00 0. -1.
     999900   -1    0    0    0    0 -0.00000000000E+00 -0.00000000000E+00 -0.74505805969E-08  0.93827000000E+00  0.93827000000E+00 0.  1.
     999902    2    1    2    0    0  0.87414475347E-02  0.14624359766E-02  0.21192553336E-01  0.10209588019E+01  0.10207003475E+01 0.  0.
     999903    2    3    3    0    0 -0.14190710496E-01 -0.11940784790E+00 -0.45560168234E-01  0.12989683145E+00  0.18380628005E-01 0.  0.
         14    1    1    2    0    0 -0.87414475347E-02 -0.14624359766E-02 -0.21192553336E-01  0.22971198073E-01  0.00000000000E+00 0.  1.
     999901    1    3    3    0    0  0.22932158031E-01  0.12087028388E+00  0.66752721570E-01  0.89106197048E+00  0.88000000000E+00 0. -1.
        -11    1    4    4    0    0 -0.12679509841E-01 -0.40289806625E-01 -0.20005516196E-01  0.46738852007E-01  0.51100000000E-03 0. -1.
         11    1    4    4    0    0 -0.15112006547E-02 -0.79118041277E-01 -0.25554652038E-01  0.83157979441E-01  0.51100000000E-03 0.  1.
</event>
<event>
 8    1  0.1114333E+005  0.1043930E+01  0.7957747E-01            NaN
         13   -1    0    0    0    0  0.00000000000E+00  0.00000000000E+00  0.74505805969E-08  0.10566000000E+00  0.10566000000E+00 0. -1.
     999900   -1    0    0    0    0 -0.00000000000E+00 -0.00000000000E+00 -0.74505805969E-08  0.93827000000E+00  0.93827000000E+00 0. -1.
     999902    2    1    2    0    0 -0.22193694065E-01 -0.35849761777E-02  0.15125339172E-01  0.10168340963E+01  0.10164730156E+01 0.  0.
     999903    2    3    3    0    0  0.11899222717E+00 -0.19359032653E-01  0.26206883849E-01  0.12537176631E+00  0.22301496702E-01 0.  0.
         14    1    1    2    0    0  0.22193694065E-01  0.35849761777E-02 -0.15125339172E-01  0.27095903667E-01  0.00000000000E+00 0.  1.
     999901    1    3    3    0    0 -0.14118592124E+00  0.15774056475E-01 -0.11081544677E-01  0.89146233002E+00  0.88000000000E+00 0.  1.
        -11    1    4    4    0    0  0.67452844672E-01 -0.20282346969E-01  0.89217155169E-02  0.71000830852E-01  0.51100000000E-03 0. -1.
         11    1    4    4    0    0  0.51539382498E-01  0.92331431600E-03  0.17285168332E-01  0.54370935461E-01  0.51100000000E-03 0.  1.
</event>
<event>
 8    1  0.1114333E+005  0.1043930E+01  0.7957747E-01            NaN
         13   -1    0    0    0    0  0.00000000000E+00  0.00000000000E+00  0.74505805969E-08  0.10566000000E+00  0.10566000000E+00 0. -1.
     999900   -1    0    0    0    0 -0.00000000000E+00 -0.00000000000E+00 -0.74505805969E-08  0.93827000000E+00  0.93827000000E+00 0.  1.
     999902    2    1    2    0    0  0.17145068613E-01 -0.99255272224E-02  0.11519126605E-01  0.10210136358E+01  0.10207564278E+01 0.  0.
     999903    2    3    3    0    0 -0.87701583757E-01 -0.82653392912E-01  0.47082863980E-01  0.13109962743E+00  0.21146278104E-01 0.  0.
         14    1    1    2    0    0 -0.17145068613E-01  0.99255272224E-02 -0.11519126605E-01  0.22916364156E-01  0.00000000000E+00 0.  1.
     999901    1    3    3    0    0  0.10484665237E+00  0.72727865689E-01 -0.35563737375E-01  0.88991400842E+00  0.88000000000E+00 0.  1.
        -11    1    4    4    0    0 -0.28382136560E-01 -0.14526009719E-01  0.96454149743E-02  0.33314348037E-01  0.51100000000E-03 0. -1.
         11    1    4    4    0    0 -0.59319447197E-01 -0.68127383193E-01  0.37437449005E-01  0.97785279390E-01  0.51100000000E-03 0.  1.
</event>
<event>
 8    1  0.1114333E+005  0.1043930E+01  0.7957747E-01            NaN
         13   -1    0    0    0    0  0.00000000000E+00  0.00000000000E+00  0.74505805969E-08  0.10566000000E+00  0.10566000000E+00 0.  1.
     999900   -1    0    0    0    0 -0.00000000000E+00 -0.00000000000E+00 -0.74505805969E-08  0.93827000000E+00  0.93827000000E+00 0. -1.
     999902    2    1    2    0    0 -0.11217086539E-01  0.12945312535E-01 -0.16074141502E-01  0.10204399559E+01  0.10201695552E+01 0.  0.
     999903    2    3    3    0    0 -0.34272538770E-01 -0.11192795684E+00  0.49978237521E-01  0.12887514947E+00  0.20211518734E-01 0.  0.
         14    1    1    2    0    0  0.11217086539E-01 -0.12945312535E-01  0.16074141502E-01  0.23490044105E-01  0.00000000000E+00 0.  1.
     999901    1    3    3    0    0  0.23055452231E-01  0.12487326937E+00 -0.66052379023E-01  0.89156480643E+00  0.88000000000E+00 0. -1.
        -11    1    4    4    0    0 -0.18201960030E-01 -0.81668390935E-01  0.42305091385E-01  0.93760435712E-01  0.51100000000E-03 0. -1.
         11    1    4    4    0    0 -0.16070578740E-01 -0.30259565903E-01  0.76731461364E-02  0.35114713758E-01  0.51100000000E-03 0.  1.
</event>
<event>
 8    1  0.1114333E+005  0.1043930E+01  0.7957747E-01            NaN
         13   -1    0    0    0    0  0.00000000000E+00  0.00000000000E+00  0.74505805969E-08  0.10566000000E+00  0.10566000000E+00 0. -1.
     999900   -1    0    0    0    0 -0.00000000000E+00 -0.00000000000E+00 -0.74505805969E-08  0.93827000000E+00  0.93827000000E+00 0.  1.
     999902    2    1    2    0    0 -0.17407020888E-01  0.75636064278E-02  0.13153208494E-01  0.10208384558E+01  0.10205772550E+01 0.  0.
     999903    2    3    3    0    0  0.90292105339E-02 -0.12813763622E+00  0.61606841269E-02  0.13001715109E+00  0.19123940187E-01 0.  0.
         14    1    1    2    0    0  0.17407020888E-01 -0.75636064278E-02 -0.13153208494E-01  0.23091544168E-01  0.00000000000E+00 0.  1.
     999901    1    3    3    0    0 -0.26436231422E-01  0.13570124265E+00  0.69925243667E-02  0.89082130474E+00  0.88000000000E+00 0. -1.
        -11    1    4    4    0    0  0.81177164041E-03 -0.65640678976E-01  0.11907195585E-01  0.66718813968E-01  0.51100000000E-03 0. -1.
         11    1    4    4    0    0  0.82174388935E-02 -0.62496957247E-01 -0.57465114582E-02  0.63298337120E-01  0.51100000000E-03 0.  1.
</event>
<event>
 8    1  0.1114333E+005  0.1043930E+01  0.7957747E-01            NaN
         13   -1    0    0    0    0  0.00000000000E+00  0.00000000000E+00  0.74505805969E-08  0.10566000000E+00  0.10566000000E+00 0.  1.
     999900   -1    0    0    0    0 -0.00000000000E+00 -0.00000000000E+00 -0.74505805969E-08  0.93827000000E+00  0.93827000000E+00 0.  1.
     999902    2    1    2    0    0 -0.80609652428E-02 -0.21941849331E-01  0.45810414086E-02  0.10201096336E+01  0.10198314835E+01 0.  0.
     999903    2    3    3    0    0  0.31545271576E-01 -0.11210819799E+00  0.60673750145E-01  0.13284134480E+00  0.20054094728E-01 0.  0.
         14    1    1    2    0    0  0.80609652428E-02  0.21941849331E-01 -0.45810414086E-02  0.23820366351E-01  0.00000000000E+00 0.  1.
     999901    1    3    3    0    0 -0.39606236819E-01  0.90166348661E-01 -0.56092708736E-01  0.88726828885E+00  0.88000000000E+00 0.  1.
        -11    1    4    4    0    0  0.17263009581E-01 -0.89443878304E-01  0.42930157278E-01  0.10070490748E+00  0.51100000000E-03 0. -1.
         11    1    4    4    0    0  0.14282261995E-01 -0.22664319688E-01  0.17743592867E-01  0.32136437317E-01  0.51100000000E-03 0.  1.
</event>
<event>
 8    1  0.1114333E+005  0.1043930E+01  0.7957747E-01            NaN
         13   -1    0    0    0    0  0.00000000000E+00  0.00000000000E+00  0.74505805969E-08  0.10566000000E+00  0.10566000000E+00 0.  1.
     999900   -1    0    0    0    0 -0.00000000000E+00 -0.00000000000E+00 -0.74505805969E-08  0.93827000000E+00  0.93827000000E+00 0.  1.
     999902    2    1    2    0    0 -0.23180530599E-01 -0.52090369219E-03  0.81285722748E-02  0.10193600585E+01  0.10190639071E+01 0.  0.
     999903    2    3    3    0    0 -0.49555616885E-01  0.49626804731E-01  0.10964915707E+00  0.13171324415E+00  0.20170823605E-01 0.  0.
         14    1    1    2    0    0  0.23180530599E-01  0.52090369219E-03 -0.81285722748E-02  0.24569941529E-01  0.00000000000E+00 0.  1.
     999901    1    3    3    0    0  0.26375086286E-01 -0.50147708423E-01 -0.10152058480E+00  0.88764681432E+00  0.88000000000E+00 0.  1.
        -11    1    4    4    0    0 -0.68742288750E-02  0.96366264810E-02  0.34540705916E-01  0.36516312502E-01  0.51100000000E-03 0. -1.
         11    1    4    4    0    0 -0.42681388010E-01  0.39990178250E-01  0.75108451158E-01  0.95196931648E-01  0.51100000000E-03 0.  1.
</event>
<event>
 8    1  0.1114333E+005  0.1043930E+01  0.7957747E-01            NaN
         13   -1    0    0    0    0  0.00000000000E+00  0.00000000000E+00  0.74505805969E-08  0.10566000000E+00  0.10566000000E+00 0.  1.
     999900   -1    0    0    0    0 -0.00000000000E+00 -0.00000000000E+00 -0.74505805969E-08  0.93827000000E+00  0.93827000000E+00 0. -1.
     999902    2    1    2    0    0  0.46370611795E-02  0.23690573979E-01  0.53114328207E-03  0.10197840325E+01  0.10194981340E+01 0.  0.
     999903    2    3    3    0    0  0.88784551502E-01 -0.37547879036E-01 -0.84167240498E-01  0.12961283300E+00  0.20562643323E-01 0.  0.
         14    1    1    2    0    0 -0.46370611795E-02 -0.23690573979E-01 -0.53114328207E-03  0.24145967469E-01  0.00000000000E+00 0.  1.
     999901    1    3    3    0    0 -0.84147490323E-01  0.61238453015E-01  0.84698383780E-01  0.89017119953E+00  0.88000000000E+00 0. -1.
        -11    1    4    4    0    0  0.44609990397E-01 -0.78000443047E-02 -0.37472487329E-01  0.58782143224E-01  0.51100000000E-03 0.  1.
         11    1    4    4    0    0  0.44174561105E-01 -0.29747834731E-01 -0.46694753169E-01  0.70830689779E-01  0.51100000000E-03 0. -1.
</event>
<event>
 8    1  0.1114333E+005  0.1043930E+01  0.7957747E-01            NaN
         13   -1    0    0    0    0  0.00000000000E+00  0.00000000000E+00  0.74505805969E-08  0.10566000000E+00  0.10566000000E+00 0. -1.
     999900   -1    0    0    0    0 -0.00000000000E+00 -0.00000000000E+00 -0.74505805969E-08  0.93827000000E+00  0.93827000000E+00 0.  1.
     999902    2    1    2    0    0  0.92282496479E-02  0.23767575897E-01 -0.71307318090E-02  0.10174553783E+01  0.10171108796E+01 0.  0.
     999903    2    3    3    0    0  0.21189501011E-01  0.12186484485E+00 -0.38427391913E-01  0.13137094295E+00  0.21945952725E-01 0.  0.
         14    1    1    2    0    0 -0.92282496479E-02 -0.23767575897E-01  0.71307318090E-02  0.26474621654E-01  0.00000000000E+00 0. -1.
     999901    1    3    3    0    0 -0.11961251364E-01 -0.98097268950E-01  0.31296660104E-01  0.88608443539E+00  0.88000000000E+00 0.  1.
        -11    1    4    4    0    0  0.22053593812E-02  0.75317814289E-01 -0.22774918960E-01  0.78718452817E-01  0.51100000000E-03 0. -1.
         11    1    4    4    0    0  0.18984141630E-01  0.46547030557E-01 -0.15652472953E-01  0.52652490138E-01  0.51100000000E-03 0.  1.
</event>
<event>
 8    1  0.1114333E+005  0.1043930E+01  0.7957747E-01            NaN
         13   -1    0    0    0    0  0.00000000000E+00  0.00000000000E+00  0.74505805969E-08  0.10566000000E+00  0.10566000000E+00 0. -1.
     999900   -1    0    0    0    0 -0.00000000000E+00 -0.00000000000E+00 -0.74505805969E-08  0.93827000000E+00  0.93827000000E+00 0.  1.
     999902    2    1    2    0    0 -0.68682146791E-02  0.98493788465E-02  0.18443750933E-01  0.10219219427E+01  0.10216849331E+01 0.  0.
     999903    2    3    3    0    0 -0.10206620408E+00 -0.74278467590E-01 -0.30640989540E-01  0.13144484393E+00  0.20101641542E-01 0.  0.
         14    1    1    2    0    0  0.68682146791E-02 -0.98493788465E-02 -0.18443750933E-01  0.22008057275E-01  0.00000000000E+00 0.  1.
     999901    1    3    3    0    0  0.95197989402E-01  0.84127846436E-01  0.49084740473E-01  0.89047709880E+00  0.88000000000E+00 0.  1.
        -11    1    4    4    0    0 -0.34969878887E-01 -0.33687253577E-01 -0.44347911319E-02  0.48761172836E-01  0.51100000000E-03 0.  1.
         11    1    4    4    0    0 -0.67096325193E-01 -0.40591214013E-01 -0.26206198408E-01  0.82683671094E-01  0.51100000000E-03 0. -1.
</event>
<event>
 8    1  0.1114333E+005  0.1043930E+01  0.7957747E-01            NaN
         13   -1    0    0    0    0  0.00000000000E+00  0.00000000000E+00  0.74505805969E-08  0.10566000000E+00  0.10566000000E+00 0. -1.
     999900   -1    0    0    0    0 -0.00000000000E+00 -0.00000000000E+00 -0.74505805969E-08  0.93827000000E+00  0.93827000000E+00 0.  1.
     999902    2    1    2    0    0 -0.76896620463E-02 -0.16606628820E-01  0.14528788305E-01  0.10205634274E+01  0.10202958947E+01 0.  0.
     999903    2    3    3    0    0 -0.40230991794E-01  0.97090529394E-01  0.74826972537E-01  0.13060733137E+00  0.20349338806E-01 0.  0.
         14    1    1    2    0    0  0.76896620463E-02  0.16606628820E-01 -0.14528788305E-01  0.23366572551E-01  0.00000000000E+00 0.  1.
     999901    1    3    3    0    0  0.32541329747E-01 -0.11369715821E+00 -0.60298184232E-01  0.88995609608E+00  0.88000000000E+00 0.  1.
        -11    1    4    4    0    0 -0.13535611290E-01  0.33791470048E-01  0.38138546151E-01  0.52724624650E-01  0.51100000000E-03 0.  1.
         11    1    4    4    0    0 -0.26695380503E-01  0.63299059346E-01  0.36688426386E-01  0.77882706720E-01  0.51100000000E-03 0. -1.
</event>
<event>
 8    1  0.1114333E+005  0.1043930E+01  0.7957747E-01            NaN
         13   -1    0    0    0    0  0.00000000000E+00  0.00000000000E+00  0.74505805969E-08  0.10566000000E+00  0.10566000000E+00 0.  1.
     999900   -1    0    0    0    0 -0.00000000000E+00 -0.00000000000E+00 -0.74505805969E-08  0.93827000000E+00  0.93827000000E+00 0. -1.
     999902    2    1    2    0    0 -0.93867294378E-02 -0.21784253384E-01  0.29574253460E-02  0.10200258006E+01  0.10197456659E+01 0.  0.
     999903    2    3    3    0    0 -0.62974695148E-01  0.66272465370E-01 -0.89050263930E-01  0.12924464302E+00  0.20405301958E-01 0.  0.
         14    1    1    2    0    0  0.93867294378E-02  0.21784253384E-01 -0.29574253460E-02  0.23904199416E-01  0.00000000000E+00 0. -1.
     999901    1    3    3    0    0  0.53587965710E-01 -0.88056718754E-01  0.92007689276E-01  0.89078115756E+00  0.88000000000E+00 0.  1.
        -11    1    4    4    0    0 -0.40204296828E-01  0.29430699734E-01 -0.40759785831E-01  0.64375250153E-01  0.51100000000E-03 0.  1.
         11    1    4    4    0    0 -0.22770398320E-01  0.36841765636E-01 -0.48290478099E-01  0.64869392866E-01  0.51100000000E-03 0. -1.
</event>
<event>
 8    1  0.1114333E+005  0.1043930E+01  0.7957747E-01            NaN
         13   -1    0    0    0    0  0.00000000000E+00  0.00000000000E+00  0.74505805969E-08  0.10566000000E+00  0.10566000000E+00 0.  1.
     999900   -1    0    0    0    0 -0.00000000000E+00 -0.00000000000E+00 -0.74505805969E-08  0.93827000000E+00  0.93827000000E+00 0. -1.
     999902    2    1    2    0    0 -0.15381043438E-01 -0.16414633924E-02  0.17921971745E-01  0.10202557953E+01  0.10199810879E+01 0.  0.
     999903    2    3    3    0    0  0.56822088848E-01  0.71924567946E-01 -0.87135249443E-01  0.12803257598E+00  0.19947319662E-01 0.  0.
         14    1    1    2    0    0  0.15381043438E-01  0.16414633924E-02 -0.17921971745E-01  0.23674204749E-01  0.00000000000E+00 0. -1.
     999901    1    3    3    0    0 -0.72203132286E-01 -0.73566031339E-01  0.10505722119E+00  0.89222321927E+00  0.88000000000E+00 0.  1.
        -11    1    4    4    0    0  0.41530139948E-01  0.43580039245E-01 -0.45876209581E-01  0.75689233523E-01  0.51100000000E-03 0. -1.
         11    1    4    4    0    0  0.15291948900E-01  0.28344528701E-01 -0.41259039862E-01  0.52343342459E-01  0.51100000000E-03 0.  1.
</event>
<event>
 8    1  0.1114333E+005  0.1043930E+01  0.7957747E-01            NaN
         13   -1    0    0    0    0  0.00000000000E+00  0.00000000000E+00  0.74505805969E-08  0.10566000000E+00  0.10566000000E+00 0. -1.
     999900   -1    0    0    0    0 -0.00000000000E+00 -0.00000000000E+00 -0.74505805969E-08  0.93827000000E+00  0.93827000000E+00 0. -1.
     999902    2    1    2    0    0 -0.23424653973E-02 -0.21452254627E-01 -0.10441841825E-01  0.10199567142E+01  0.10196749386E+01 0.  0.
     999903    2    3    3    0    0  0.12352945294E+00  0.26086769865E-02 -0.36285930714E-01  0.13029914792E+00  0.19871291889E-01 0.  0.
         14    1    1    2    0    0  0.23424653973E-02  0.21452254627E-01  0.10441841825E-01  0.23973285828E-01  0.00000000000E+00 0.  1.
     999901    1    3    3    0    0 -0.12587191834E+00 -0.24060931613E-01  0.25844088889E-01  0.88965756625E+00  0.88000000000E+00 0.  1.
        -11    1    4    4    0    0  0.10167510326E+00 -0.51255457113E-02 -0.27037235298E-01  0.10533456724E+00  0.51100000000E-03 0.  1.
         11    1    4    4    0    0  0.21854349686E-01  0.77342226978E-02 -0.92486954161E-02  0.24964580686E-01  0.51100000000E-03 0. -1.
</event>
<event>
 8    1  0.1114333E+005  0.1043930E+01  0.7957747E-01            NaN
         13   -1    0    0    0    0  0.00000000000E+00  0.00000000000E+00  0.74505805969E-08  0.10566000000E+00  0.10566000000E+00 0.  1.
     999900   -1    0    0    0    0 -0.00000000000E+00 -0.00000000000E+00 -0.74505805969E-08  0.93827000000E+00  0.93827000000E+00 0.  1.
     999902    2    1    2    0    0  0.17113815872E-01 -0.12522338045E-01  0.12234256975E-01  0.10194479926E+01  0.10191539829E+01 0.  0.
     999903    2    3    3    0    0 -0.74941334542E-01 -0.64856432639E-01  0.82104674536E-01  0.13035020075E+00  0.20674544199E-01 0.  0.
         14    1    1    2    0    0 -0.17113815872E-01  0.12522338045E-01 -0.12234256975E-01  0.24482007424E-01  0.00000000000E+00 0. -1.
     999901    1    3    3    0    0  0.92055150414E-01  0.52334094594E-01 -0.69870417561E-01  0.88909779182E+00  0.88000000000E+00 0.  1.
        -11    1    4    4    0    0 -0.50487202155E-01 -0.32694403423E-01  0.56428161897E-01  0.82475936931E-01  0.51100000000E-03 0. -1.
         11    1    4    4    0    0 -0.24454132387E-01 -0.32162029216E-01  0.25676512639E-01  0.47874263821E-01  0.51100000000E-03 0.  1.
</event>
<event>
 8    1  0.1114333E+005  0.1043930E+01  0.7957747E-01            NaN
         13   -1    0    0    0    0  0.00000000000E+00  0.00000000000E+00  0.74505805969E-08  0.10566000000E+00  0.10566000000E+00 0.  1.
     999900   -1    0    0    0    0 -0.00000000000E+00 -0.00000000000E+00 -0.74505805969E-08  0.93827000000E+00  0.93827000000E+00 0. -1.
     999902    2    1    2    0    0  0.23328020035E-02 -0.97393888887E-02  0.20761718560E-01  0.10208790430E+01  0.10206187701E+01 0.  0.
     999903    2    3    3    0    0 -0.71658207809E-01 -0.10430380365E+00 -0.28667521144E-01  0.13135088279E+00  0.20421690404E-01 0.  0.
         14    1    1    2    0    0 -0.23328020035E-02  0.97393888887E-02 -0.20761718560E-01  0.23050957002E-01  0.00000000000E+00 0. -1.
     999901    1    3    3    0    0  0.73991009813E-01  0.94564414757E-01  0.49429239704E-01  0.88952816021E+00  0.88000000000E+00 0.  1.
        -11    1    4    4    0    0 -0.29502691411E-01 -0.60866112760E-01 -0.15968144761E-01  0.69500613314E-01  0.51100000000E-03 0. -1.
         11    1    4    4    0    0 -0.42155516398E-01 -0.43437690886E-01 -0.12699376383E-01  0.61850269473E-01  0.51100000000E-03 0.  1.
</event>
<event>
 8    1  0.1114333E+005  0.1043930E+01  0.7957747E-01            NaN
         13   -1    0    0    0    0  0.00000000000E+00  0.00000000000E+00  0.74505805969E-08  0.10566000000E+00  0.10566000000E+00 0. -1.
     999900   -1    0    0    0    0 -0.00000000000E+00 -0.00000000000E+00 -0.74505805969E-08  0.93827000000E+00  0.93827000000E+00 0.  1.
     999902    2    1    2    0    0 -0.21088181114E-01 -0.12483155092E-01 -0.68079898029E-02  0.10184959821E+01  0.10181783617E+01 0.  0.
     999903    2    3    3    0    0  0.45483997350E-01 -0.10267291120E+00 -0.61781856298E-01  0.12968319353E+00  0.19753789677E-01 0.  0.
         14    1    1    2    0    0  0.21088181114E-01  0.12483155092E-01  0.68079898029E-02  0.25434017947E-01  0.00000000000E+00 0. -1.
     999901    1    3    3    0    0 -0.66572178464E-01  0.90189756107E-01  0.54973866495E-01  0.88881278853E+00  0.88000000000E+00 0. -1.
        -11    1    4    4    0    0  0.41580212011E-01 -0.87251963731E-01 -0.59767037525E-01  0.11364056979E+00  0.51100000000E-03 0.  1.
         11    1    4    4    0    0  0.39037853388E-02 -0.15420947468E-01 -0.20148187727E-02  0.16042623740E-01  0.51100000000E-03 0. -1.
</event>
<event>
 8    1  0.1114333E+005  0.1043930E+01  0.7957747E-01            NaN
         13   -1    0    0    0    0  0.00000000000E+00  0.00000000000E+00  0.74505805969E-08  0.10566000000E+00  0.10566000000E+00 0. -1.
     999900   -1    0    0    0    0 -0.00000000000E+00 -0.00000000000E+00 -0.74505805969E-08  0.93827000000E+00  0.93827000000E+00 0. -1.
     999902    2    1    2    0    0  0.94976047964E-02 -0.70052793733E-03 -0.14011597566E-01  0.10269883324E+01  0.10268485841E+01 0.  0.
     999903    2    3    3    0    0 -0.42169838014E-01  0.12783268116E+00 -0.33086939051E-02  0.13608718035E+00  0.19730270902E-01 0.  0.
         14    1    1    2    0    0 -0.94976047964E-02  0.70052793733E-03  0.14011597566E-01  0.16941667645E-01  0.00000000000E+00 0. -1.
     999901    1    3    3    0    0  0.51667442810E-01 -0.12853320910E+00 -0.10702903661E-01  0.89090115200E+00  0.88000000000E+00 0.  1.
        -11    1    4    4    0    0 -0.22249484440E-01  0.49052527288E-01 -0.90637847666E-02  0.54622370019E-01  0.51100000000E-03 0.  1.
         11    1    4    4    0    0 -0.19920353574E-01  0.78780153876E-01  0.57550908616E-02  0.81464810336E-01  0.51100000000E-03 0. -1.
</event>
<event>
 8    1  0.1114333E+005  0.1043930E+01  0.7957747E-01            NaN
         13   -1    0    0    0    0  0.00000000000E+00  0.00000000000E+00  0.74505805969E-08  0.10566000000E+00  0.10566000000E+00 0. -1.
     999900   -1    0    0    0    0 -0.00000000000E+00 -0.00000000000E+00 -0.74505805969E-08  0.93827000000E+00  0.93827000000E+00 0. -1.
     999902    2    1    2    0    0 -0.58597342541E-02 -0.14294088601E-01 -0.17034401461E-01  0.10209337332E+01  0.10206747079E+01 0.  0.
     999903    2    3    3    0    0 -0.39360692518E-01 -0.86036710226E-01 -0.92974436578E-01  0.13412134778E+00  0.19816923376E-01 0.  0.
         14    1    1    2    0    0  0.58597342541E-02  0.14294088601E-01  0.17034401461E-01  0.22996266819E-01  0.00000000000E+00 0. -1.
     999901    1    3    3    0    0  0.33500958264E-01  0.71742621625E-01  0.75940035117E-01  0.88681238540E+00  0.88000000000E+00 0.  1.
        -11    1    4    4    0    0 -0.35081424334E-02 -0.20871147663E-01 -0.29680692648E-01  0.36457050143E-01  0.51100000000E-03 0. -1.
         11    1    4    4    0    0 -0.35852550084E-01 -0.65165562563E-01 -0.63293743930E-01  0.97664297640E-01  0.51100000000E-03 0.  1.
</event>
<event>
 8    1  0.1114333E+005  0.1043930E+01  0.7957747E-01            NaN
         13   -1    0    0    0    0  0.00000000000E+00  0.00000000000E+00  0.74505805969E-08  0.10566000000E+00  0.10566000000E+00 0. -1.
     999900   -1    0    0    0    0 -0.00000000000E+00 -0.00000000000E+00 -0.74505805969E-08  0.93827000000E+00  0.93827000000E+00 0. -1.
     999902    2    1    2    0    0 -0.21497003649E-01  0.14221618420E-01  0.84145129119E-02  0.10168158040E+01  0.10164542290E+01 0.  0.
     999903    2    3    3    0    0 -0.51113697372E-01 -0.10228748274E+00 -0.50999720132E-01  0.12665763252E+00  0.19127081243E-01 0.  0.
         14    1    1    2    0    0  0.21497003649E-01 -0.14221618420E-01 -0.84145129119E-02  0.27114195985E-01  0.00000000000E+00 0.  1.
     999901    1    3    3    0    0  0.29616693723E-01  0.11650910116E+00  0.59414233044E-01  0.89015817150E+00  0.88000000000E+00 0. -1.
        -11    1    4    4    0    0 -0.34568308413E-01 -0.72871978008E-01 -0.45045623461E-01  0.92383236787E-01  0.51100000000E-03 0. -1.
         11    1    4    4    0    0 -0.16545388960E-01 -0.29415504730E-01 -0.59540966710E-02  0.34274395728E-01  0.51100000000E-03 0.  1.
</event>
<event>
 8    1  0.1114333E+005  0.1043930E+01  0.7957747E-01            NaN
         13   -1    0    0    0    0  0.00000000000E+00  0.00000000000E+00  0.74505805969E-08  0.10566000000E+00  0.10566000000E+00 0.  1.
     999900   -1    0    0    0    0 -0.00000000000E+00 -0.00000000000E+00 -0.74505805969E-08  0.93827000000E+00  0.93827000000E+00 0.  1.
     999902    2    1    2    0    0  0.40489345095E-02 -0.11337760592E-01  0.20126326345E-01  0.10204777571E+01  0.10202082361E+01 0.  0.
     999903    2    3    3    0    0  0.40813296027E-01  0.12000889488E+00 -0.15562433431E-01  0.12925542244E+00  0.19922723575E-01 0.  0.
         14    1    1    2    0    0 -0.40489345095E-02  0.11337760592E-01 -0.20126326345E-01  0.23452242921E-01  0.00000000000E+00 0. -1.
     999901    1    3    3    0    0 -0.36764361518E-01 -0.13134665547E+00  0.35688759775E-01  0.89122233464E+00  0.88000000000E+00 0.  1.
        -11    1    4    4    0    0  0.52517171814E-02  0.96440722039E-02 -0.68984920186E-02  0.12978404184E-01  0.51100000000E-03 0. -1.
         11    1    4    4    0    0  0.35561578846E-01  0.11036482267E+00 -0.86639414124E-02  0.11627701826E+00  0.51100000000E-03 0.  1.
</event>
<event>
 8    1  0.1114333E+005  0.1043930E+01  0.7957747E-01            NaN
         13   -1    0    0    0    0  0.00000000000E+00  0.00000000000E+00  0.74505805969E-08  0.10566000000E+00  0.10566000000E+00 0. -1.
     999900   -1    0    0    0    0 -0.00000000000E+00 -0.00000000000E+00 -0.74505805969E-08  0.93827000000E+00  0.93827000000E+00 0.  1.
     999902    2    1    2    0    0  0.21641269015E-02  0.52199981912E-02  0.22611269830E-01  0.10206233196E+01  0.10203571724E+01 0.  0.
     999903    2    3    3    0    0  0.52967377885E-01  0.47403033581E-01 -0.10572653987E+00  0.12886608127E+00  0.19384915662E-01 0.  0.
         14    1    1    2    0    0 -0.21641269015E-02 -0.52199981912E-02 -0.22611269830E-01  0.23306680366E-01  0.00000000000E+00 0. -1.
     999901    1    3    3    0    0 -0.50803250984E-01 -0.42183035390E-01  0.12833780970E+00  0.89175723837E+00  0.88000000000E+00 0. -1.
        -11    1    4    4    0    0  0.42947708188E-01  0.46604693269E-01 -0.87443615346E-01  0.10799606502E+00  0.51100000000E-03 0. -1.
         11    1    4    4    0    0  0.10019669698E-01  0.79834031227E-03 -0.18282924523E-01  0.20870016249E-01  0.51100000000E-03 0.  1.
</event>
<event>
 7    1  0.1114333E+005  0.1043930E+01  0.7957747E-01            NaN
         13   -1    0    0    0    0  0.00000000000E+00  0.00000000000E+00  0.74505805969E-08  0.10566000000E+00  0.10566000000E+00 0.  1.
     999900   -1    0    0    0    0 -0.00000000000E+00 -0.00000000000E+00 -0.74505805969E-08  0.93827000000E+00  0.93827000000E+00 0. -1.
     999903    2    1    2    0    0  0.22498066906E-01  0.81553210188E-01 -0.70713589543E-01  0.11201159840E+00  0.19725550031E-01 0.  0.
         14    1    1    2    0    0 -0.13171360840E-01 -0.28218101060E-01 -0.31566154280E-01  0.44341493771E-01  0.00000000000E+00 0. -1.
     999901    1    1    2    0    0 -0.93267060658E-02 -0.53335109128E-01  0.10227974382E+00  0.88757690783E+00  0.88000000000E+00 0.  1.
        -11    1    3    3    0    0  0.17104052041E-01  0.73089820743E-01 -0.53860429976E-01  0.92389812916E-01  0.51100000000E-03 0.  1.
         11    1    3    3    0    0  0.53940148648E-02  0.84633894449E-02 -0.16853159567E-01  0.19621785486E-01  0.51100000000E-03 0. -1.
</event>
<event>
 8    1  0.1114333E+005  0.1043930E+01  0.7957747E-01            NaN
         13   -1    0    0    0    0  0.00000000000E+00  0.00000000000E+00  0.74505805969E-08  0.10566000000E+00  0.10566000000E+00 0. -1.
     999900   -1    0    0    0    0 -0.00000000000E+00 -0.00000000000E+00 -0.74505805969E-08  0.93827000000E+00  0.93827000000E+00 0. -1.
     999902    2    1    2    0    0  0.27976612366E-02 -0.24053353856E-01 -0.17504995908E-03  0.10197138611E+01  0.10194262784E+01 0.  0.
     999903    2    3    3    0    0 -0.70418152798E-03  0.12176768553E+00  0.30935989481E-01  0.12716473910E+00  0.19646127207E-01 0.  0.
         14    1    1    2    0    0 -0.27976612366E-02  0.24053353856E-01  0.17504995908E-03  0.24216138887E-01  0.00000000000E+00 0. -1.
     999901    1    3    3    0    0  0.35018427646E-02 -0.14582103939E+00 -0.31111039440E-01  0.89254912201E+00  0.88000000000E+00 0. -1.
        -11    1    4    4    0    0  0.51522906058E-02  0.37013804600E-01  0.20483390095E-02  0.37430263734E-01  0.51100000000E-03 0.  1.
         11    1    4    4    0    0 -0.58564721337E-02  0.84753880930E-01  0.28887650471E-01  0.89734475366E-01  0.51100000000E-03 0. -1.
</event>
<event>
 8    1  0.1114333E+005  0.1043930E+01  0.7957747E-01            NaN
         13   -1    0    0    0    0  0.00000000000E+00  0.00000000000E+00  0.74505805969E-08  0.10566000000E+00  0.10566000000E+00 0. -1.
     999900   -1    0    0    0    0 -0.00000000000E+00 -0.00000000000E+00 -0.74505805969E-08  0.93827000000E+00  0.93827000000E+00 0.  1.
     999902    2    1    2    0    0 -0.79775061469E-02  0.70104142521E-02  0.86719996103E-02  0.10302190522E+01  0.10301278102E+01 0.  0.
     999903    2    3    3    0    0 -0.12341691977E-01  0.83293868846E-01  0.11126403621E+00  0.14097030324E+00  0.20068749134E-01 0.  0.
         14    1    1    2    0    0  0.79775061469E-02 -0.70104142521E-02 -0.86719996103E-02  0.13710947799E-01  0.00000000000E+00 0. -1.
     999901    1    3    3    0    0  0.43641858299E-02 -0.76283454593E-01 -0.10259203660E+00  0.88924874897E+00  0.88000000000E+00 0.  1.
        -11    1    4    4    0    0 -0.13792253950E-01  0.29748945187E-01  0.46963210854E-01  0.57280278487E-01  0.51100000000E-03 0.  1.
         11    1    4    4    0    0  0.14505619735E-02  0.53544923659E-01  0.64300825358E-01  0.83690024748E-01  0.51100000000E-03 0. -1.
</event>
<event>
 8    1  0.1114333E+005  0.1043930E+01  0.7957747E-01            NaN
         13   -1    0    0    0    0  0.00000000000E+00  0.00000000000E+00  0.74505805969E-08  0.10566000000E+00  0.10566000000E+00 0.  1.
     999900   -1    0    0    0    0 -0.00000000000E+00 -0.00000000000E+00 -0.74505805969E-08  0.93827000000E+00  0.93827000000E+00 0.  1.
     999902    2    1    2    0    0 -0.47430689992E-02  0.11065693172E-01 -0.20289324799E-01  0.10203375654E+01  0.10200647746E+01 0.  0.
     999903    2    3    3    0    0 -0.89563461115E-01 -0.84171051073E-01 -0.40398470507E-01  0.13091701578E+00  0.20021218622E-01 0.  0.
         14    1    1    2    0    0  0.47430689992E-02 -0.11065693172E-01  0.20289324799E-01  0.23592434587E-01  0.00000000000E+00 0.  1.
     999901    1    3    3    0    0  0.84820392116E-01  0.95236744246E-01  0.20109145707E-01  0.88942054964E+00  0.88000000000E+00 0. -1.
        -11    1    4    4    0    0 -0.65121479816E-01 -0.72193226945E-01 -0.29631633120E-01  0.10164134962E+00  0.51100000000E-03 0.  1.
         11    1    4    4    0    0 -0.24441981299E-01 -0.11977824129E-01 -0.10766837387E-01  0.29275666158E-01  0.51100000000E-03 0. -1.
</event>
<event>
 8    1  0.1114333E+005  0.1043930E+01  0.7957747E-01            NaN
         13   -1    0    0    0    0  0.00000000000E+00  0.00000000000E+00  0.74505805969E-08  0.10566000000E+00  0.10566000000E+00 0. -1.
     999900   -1    0    0    0    0 -0.00000000000E+00 -0.00000000000E+00 -0.74505805969E-08  0.93827000000E+00  0.93827000000E+00 0.  1.
     999902    2    1    2    0    0  0.18643984142E-01 -0.12945692858E-01 -0.61089419856E-02  0.10204245053E+01  0.10201537447E+01 0.  0.
     999903    2    3    3    0    0  0.28258959739E-01  0.10926448769E+00  0.60151298652E-01  0.12945974985E+00  0.20108481433E-01 0.  0.
         14    1    1    2    0    0 -0.18643984142E-01  0.12945692858E-01  0.61089419856E-02  0.23505494686E-01  0.00000000000E+00 0. -1.
     999901    1    3    3    0    0 -0.96149755967E-02 -0.12221018055E+00 -0.66260240638E-01  0.89096475546E+00  0.88000000000E+00 0.  1.
        -11    1    4    4    0    0  0.16022498176E-02  0.42287394847E-01  0.26218109657E-01  0.49783946834E-01  0.51100000000E-03 0.  1.
         11    1    4    4    0    0  0.26656709921E-01  0.66977092848E-01  0.33933188996E-01  0.79675803018E-01  0.51100000000E-03 0. -1.
</event>
<event>
 8    1  0.1114333E+005  0.1043930E+01  0.7957747E-01            NaN
         13   -1    0    0    0    0  0.00000000000E+00  0.00000000000E+00  0.74505805969E-08  0.10566000000E+00  0.10566000000E+00 0. -1.
     999900   -1    0    0    0    0 -0.00000000000E+00 -0.00000000000E+00 -0.74505805969E-08  0.93827000000E+00  0.93827000000E+00 0. -1.
     999902    2    1    2    0    0 -0.20330767805E-01 -0.10168546471E-01  0.48037915130E-02  0.10206960621E+01  0.10204315927E+01 0.  0.
     999903    2    3    3    0    0  0.19282245923E-01 -0.12601583480E+00  0.24925060790E-01  0.13199214598E+00  0.23428024200E-01 0.  0.
         14    1    1    2    0    0  0.20330767805E-01  0.10168546471E-01 -0.48037915130E-02  0.23233937888E-01  0.00000000000E+00 0.  1.
     999901    1    3    3    0    0 -0.39613013728E-01  0.11584728833E+00 -0.20121269277E-01  0.88870391613E+00  0.88000000000E+00 0.  1.
        -11    1    4    4    0    0  0.16249630619E-01 -0.53763048185E-01  0.19557667231E-01  0.59475031012E-01  0.51100000000E-03 0.  1.
         11    1    4    4    0    0  0.30326153045E-02 -0.72252786613E-01  0.53673935587E-02  0.72517114969E-01  0.51100000000E-03 0. -1.
</event>
<event>
 8    1  0.1114333E+005  0.1043930E+01  0.7957747E-01            NaN
         13   -1    0    0    0    0  0.00000000000E+00  0.00000000000E+00  0.74505805969E-08  0.10566000000E+00  0.10566000000E+00 0.  1.
     999900   -1    0    0    0    0 -0.00000000000E+00 -0.00000000000E+00 -0.74505805969E-08  0.93827000000E+00  0.93827000000E+00 0. -1.
     999902    2    1    2    0    0 -0.16914129604E-01 -0.79041512770E-02  0.13140960293E-01  0.10210991388E+01  0.10208438681E+01 0.  0.
     999903    2    3    3    0    0  0.56276887277E-01  0.11492039897E+00  0.45852843245E-02  0.12951852284E+00  0.19499661107E-01 0.  0.
         14    1    1    2    0    0  0.16914129604E-01  0.79041512770E-02 -0.13140960293E-01  0.22830861243E-01  0.00000000000E+00 0. -1.
     999901    1    3    3    0    0 -0.73191016881E-01 -0.12282455025E+00  0.85556759689E-02  0.89158061592E+00  0.88000000000E+00 0. -1.
        -11    1    4    4    0    0  0.31182160898E-02  0.23232524684E-01  0.34483478471E-03  0.23448955346E-01  0.51100000000E-03 0.  1.
         11    1    4    4    0    0  0.53158671187E-01  0.91687874289E-01  0.42404495398E-02  0.10606956749E+00  0.51100000000E-03 0. -1.
</event>
<event>
 8    1  0.1114333E+005  0.1043930E+01  0.7957747E-01            NaN
         13   -1    0    0    0    0  0.00000000000E+00  0.00000000000E+00  0.74505805969E-08  0.10566000000E+00  0.10566000000E+00 0.  1.
     999900   -1    0    0    0    0 -0.00000000000E+00 -0.00000000000E+00 -0.74505805969E-08  0.93827000000E+00  0.93827000000E+00 0.  1.
     999902    2    1    2    0    0  0.17402982404E-01  0.12491643952E-01  0.96235140412E-02  0.10204456012E+01  0.10201753320E+01 0.  0.
     999903    2    3    3    0    0  0.94329543673E-01 -0.11941036873E-02 -0.87802667396E-01  0.13162792790E+00  0.26778990050E-01 0.  0.
         14    1    1    2    0    0 -0.17402982404E-01 -0.12491643952E-01 -0.96235140412E-02  0.23484398814E-01  0.00000000000E+00 0.  1.
     999901    1    3    3    0    0 -0.76926561269E-01  0.13685747639E-01  0.97426181437E-01  0.88881767329E+00  0.88000000000E+00 0. -1.
        -11    1    4    4    0    0  0.33897730347E-01 -0.99495105894E-02 -0.44240236472E-01  0.56617210526E-01  0.51100000000E-03 0.  1.
         11    1    4    4    0    0  0.60431813326E-01  0.87554069021E-02 -0.43562430924E-01  0.75010717373E-01  0.51100000000E-03 0. -1.
</event>
<event>
 8    1  0.1114333E+005  0.1043930E+01  0.7957747E-01            NaN
         13   -1    0    0    0    0  0.00000000000E+00  0.00000000000E+00  0.74505805969E-08  0.10566000000E+00  0.10566000000E+00 0.  1.
     999900   -1    0    0    0    0 -0.00000000000E+00 -0.00000000000E+00 -0.74505805969E-08  0.93827000000E+00  0.93827000000E+00 0. -1.
     999902    2    1    2    0    0  0.16504685665E-01  0.18464343201E-01 -0.72540218341E-02  0.10181238486E+01  0.10177967447E+01 0.  0.
     999903    2    3    3    0    0 -0.83734985275E-01 -0.57781258331E-01  0.71027668693E-01  0.12571732324E+00  0.20240900904E-01 0.  0.
         14    1    1    2    0    0 -0.16504685665E-01 -0.18464343201E-01  0.72540218341E-02  0.25806151428E-01  0.00000000000E+00 0.  1.
     999901    1    3    3    0    0  0.10023967094E+00  0.76245601532E-01 -0.78281690527E-01  0.89240652533E+00  0.88000000000E+00 0.  1.
        -11    1    4    4    0    0 -0.66942931172E-01 -0.37249504982E-01  0.58428687431E-01  0.96348608143E-01  0.51100000000E-03 0. -1.
         11    1    4    4    0    0 -0.16792054103E-01 -0.20531753350E-01  0.12598981263E-01  0.29368715097E-01  0.51100000000E-03 0.  1.
</event>
<event>
 8    1  0.1114333E+005  0.1043930E+01  0.7957747E-01            NaN
         13   -1    0    0    0    0  0.00000000000E+00  0.00000000000E+00  0.74505805969E-08  0.10566000000E+00  0.10566000000E+00 0.  1.
     999900   -1    0    0    0    0 -0.00000000000E+00 -0.00000000000E+00 -0.74505805969E-08  0.93827000000E+00  0.93827000000E+00 0.  1.
     999902    2    1    2    0    0  0.15121443788E-01 -0.15400558994E-01 -0.11019317294E-01  0.10196965390E+01  0.10194085398E+01 0.  0.
     999903    2    3    3    0    0  0.89834406051E-01 -0.92731812778E-02  0.92121097663E-01  0.13050729214E+00  0.19739408961E-01 0.  0.
         14    1    1    2    0    0 -0.15121443788E-01  0.15400558994E-01  0.11019317294E-01  0.24233461024E-01  0.00000000000E+00 0. -1.
     999901    1    3    3    0    0 -0.74712962262E-01 -0.61273777165E-02 -0.10314041496E+00  0.88918924683E+00  0.88000000000E+00 0.  1.
        -11    1    4    4    0    0  0.32916946269E-01 -0.10366970743E-01  0.25731283761E-01  0.43050662237E-01  0.51100000000E-03 0.  1.
         11    1    4    4    0    0  0.56917459782E-01  0.10937894650E-02  0.66389813902E-01  0.87456629905E-01  0.51100000000E-03 0. -1.
</event>
<event>
 8    1  0.1114333E+005  0.1043930E+01  0.7957747E-01            NaN
         13   -1    0    0    0    0  0.00000000000E+00  0.00000000000E+00  0.74505805969E-08  0.10566000000E+00  0.10566000000E+00 0.  1.
     999900   -1    0    0    0    0 -0.00000000000E+00 -0.00000000000E+00 -0.74505805969E-08  0.93827000000E+00  0.93827000000E+00 0.  1.
     999902    2    1    2    0    0 -0.15983887220E-01 -0.18309439695E-01 -0.23026517538E-02  0.10195164292E+01  0.10192240809E+01 0.  0.
     999903    2    3    3    0    0 -0.10673219624E+00 -0.76309763501E-01 -0.77878271828E-02  0.13293344930E+00  0.19892460141E-01 0.  0.
         14    1    1    2    0    0  0.15983887220E-01  0.18309439695E-01  0.23026517538E-02  0.24413570770E-01  0.00000000000E+00 0. -1.
     999901    1    3    3    0    0  0.90748309022E-01  0.58000323806E-01  0.54851754291E-02  0.88658297993E+00  0.88000000000E+00 0.  1.
        -11    1    4    4    0    0 -0.68620036620E-01 -0.39754319377E-01 -0.10790139444E-01  0.80036264063E-01  0.51100000000E-03 0.  1.
         11    1    4    4    0    0 -0.38112159621E-01 -0.36555444125E-01  0.30023122617E-02  0.52897185238E-01  0.51100000000E-03 0. -1.
</event>
<event>
 8    1  0.1114333E+005  0.1043930E+01  0.7957747E-01            NaN
         13   -1    0    0    0    0  0.00000000000E+00  0.00000000000E+00  0.74505805969E-08  0.10566000000E+00  0.10566000000E+00 0.  1.
     999900   -1    0    0    0    0 -0.00000000000E+00 -0.00000000000E+00 -0.74505805969E-08  0.93827000000E+00  0.93827000000E+00 0.  1.
     999902    2    1    2    0    0 -0.13807984513E-01  0.19180698796E-01 -0.50834661133E-02  0.10197556071E+01  0.10194690270E+01 0.  0.
     999903    2    3    3    0    0 -0.20710665535E-01  0.10986201359E+00 -0.68652718082E-01  0.13278785256E+00  0.20514004748E-01 0.  0.
         14    1    1    2    0    0  0.13807984513E-01 -0.19180698796E-01  0.50834661133E-02  0.24174392864E-01  0.00000000000E+00 0. -1.
     999901    1    3    3    0    0  0.69026810215E-02 -0.90681314794E-01  0.63569251969E-01  0.88696775457E+00  0.88000000000E+00 0.  1.
        -11    1    4    4    0    0 -0.10701821677E-01  0.89615295396E-01 -0.48221104300E-01  0.10232773904E+00  0.51100000000E-03 0.  1.
         11    1    4    4    0    0 -0.10008843858E-01  0.20246718195E-01 -0.20431613782E-01  0.30460113522E-01  0.51100000000E-03 0. -1.
</event>
<event>
 8    1  0.1114333E+005  0.1043930E+01  0.7957747E-01            NaN
         13   -1    0    0    0    0  0.00000000000E+00  0.00000000000E+00  0.74505805969E-08  0.10566000000E+00  0.10566000000E+00 0.  1.
     999900   -1    0    0    0    0 -0.00000000000E+00 -0.00000000000E+00 -0.74505805969E-08  0.93827000000E+00  0.93827000000E+00 0.  1.
     999902    2    1    2    0    0  0.42369797104E-03 -0.20792307286E-01  0.10947738711E-01  0.10204278183E+01  0.10201571349E+01 0.  0.
     999903    2    3    3    0    0  0.10184789902E+00  0.51189802074E-01  0.59802700721E-01  0.13034068776E+00  0.20468060512E-01 0.  0.
         14    1    1    2    0    0 -0.42369797104E-03  0.20792307286E-01 -0.10947738711E-01  0.23502181710E-01  0.00000000000E+00 0. -1.
     999901    1    3    3    0    0 -0.10142420105E+00 -0.71982109360E-01 -0.48854962010E-01  0.89008713053E+00  0.88000000000E+00 0.  1.
        -11    1    4    4    0    0  0.75321622224E-01  0.40568331389E-01  0.34769675296E-01  0.92348945459E-01  0.51100000000E-03 0. -1.
         11    1    4    4    0    0  0.26526276792E-01  0.10621470685E-01  0.25033025425E-01  0.37991742299E-01  0.51100000000E-03 0.  1.
</event>
<event>
 8    1  0.1114333E+005  0.1043930E+01  0.7957747E-01            NaN
         13   -1    0    0    0    0  0.00000000000E+00  0.00000000000E+00  0.74505805969E-08  0.10566000000E+00  0.10566000000E+00 0. -1.
     999900   -1    0    0    0    0 -0.00000000000E+00 -0.00000000000E+00 -0.74505805969E-08  0.93827000000E+00  0.93827000000E+00 0. -1.
     999902    2    1    2    0    0 -0.71302041874E-02 -0.12449425117E-01 -0.19274731660E-01  0.10199020313E+01  0.10196189535E+01 0.  0.
     999903    2    3    3    0    0 -0.67876509513E-01  0.69140578593E-01 -0.86772922732E-01  0.13147474218E+00  0.19194466928E-01 0.  0.
         14    1    1    2    0    0  0.71302041874E-02  0.12449425117E-01  0.19274731660E-01  0.24027968662E-01  0.00000000000E+00 0. -1.
     999901    1    3    3    0    0  0.60746305326E-01 -0.81590003710E-01  0.67498191073E-01  0.88842728915E+00  0.88000000000E+00 0.  1.
        -11    1    4    4    0    0 -0.11800270410E-01  0.36644605760E-02 -0.13775177013E-01  0.18511922531E-01  0.51100000000E-03 0.  1.
         11    1    4    4    0    0 -0.56076239104E-01  0.65476118018E-01 -0.72997745719E-01  0.11296281965E+00  0.51100000000E-03 0. -1.
</event>
<event>
 8    1  0.1114333E+005  0.1043930E+01  0.7957747E-01            NaN
         13   -1    0    0    0    0  0.00000000000E+00  0.00000000000E+00  0.74505805969E-08  0.10566000000E+00  0.10566000000E+00 0.  1.
     999900   -1    0    0    0    0 -0.00000000000E+00 -0.00000000000E+00 -0.74505805969E-08  0.93827000000E+00  0.93827000000E+00 0.  1.
     999902    2    1    2    0    0  0.32762290943E-02  0.17223921280E-01  0.15311125035E-01  0.10206528075E+01  0.10203873410E+01 0.  0.
     999903    2    3    3    0    0  0.70708277382E-01  0.97362025175E-01  0.53456665379E-01  0.13362164734E+00  0.22761922752E-01 0.  0.
         14    1    1    2    0    0 -0.32762290943E-02 -0.17223921280E-01 -0.15311125035E-01  0.23277192511E-01  0.00000000000E+00 0. -1.
     999901    1    3    3    0    0 -0.67432048287E-01 -0.80138103895E-01 -0.38145540344E-01  0.88703116015E+00  0.88000000000E+00 0.  1.
        -11    1    4    4    0    0  0.21763100376E-01  0.42992511485E-01  0.30139312942E-01  0.56838612645E-01  0.51100000000E-03 0.  1.
         11    1    4    4    0    0  0.48945177005E-01  0.54369513690E-01  0.23317352437E-01  0.76783034693E-01  0.51100000000E-03 0. -1.
</event>
<event>
 8    1  0.1114333E+005  0.1043930E+01  0.7957747E-01            NaN
         13   -1    0    0    0    0  0.00000000000E+00  0.00000000000E+00  0.74505805969E-08  0.10566000000E+00  0.10566000000E+00 0. -1.
     999900   -1    0    0    0    0 -0.00000000000E+00 -0.00000000000E+00 -0.74505805969E-08  0.93827000000E+00  0.93827000000E+00 0.  1.
     999902    2    1    2    0    0  0.20152691553E-02 -0.19647236010E-01 -0.12759363498E-01  0.10204166729E+01  0.10201457297E+01 0.  0.
     999903    2    3    3    0    0 -0.10936653826E+00  0.25145811817E-01  0.60257445633E-01  0.12926922242E+00  0.22050409698E-01 0.  0.
         14    1    1    2    0    0 -0.20152691553E-02  0.19647236010E-01  0.12759363498E-01  0.23513327061E-01  0.00000000000E+00 0. -1.
     999901    1    3    3    0    0  0.11138180741E+00 -0.44793047827E-01 -0.73016809131E-01  0.89114745052E+00  0.88000000000E+00 0.  1.
        -11    1    4    4    0    0 -0.30975614917E-01  0.47512987084E-02  0.28177048176E-01  0.42145826885E-01  0.51100000000E-03 0. -1.
         11    1    4    4    0    0 -0.78390923341E-01  0.20394513108E-01  0.32080397457E-01  0.87123395532E-01  0.51100000000E-03 0.  1.
</event>
<event>
 8    1  0.1114333E+005  0.1043930E+01  0.7957747E-01            NaN
         13   -1    0    0    0    0  0.00000000000E+00  0.00000000000E+00  0.74505805969E-08  0.10566000000E+00  0.10566000000E+00 0.  1.
     999900   -1    0    0    0    0 -0.00000000000E+00 -0.00000000000E+00 -0.74505805969E-08  0.93827000000E+00  0.93827000000E+00 0.  1.
     999902    2    1    2    0    0 -0.16112895219E-01 -0.11406392771E-01  0.12128021295E-01  0.10207606217E+01  0.10204976368E+01 0.  0.
     999903    2    3    3    0    0  0.11159645879E+00 -0.63241181421E-01 -0.23327019144E-02  0.12991515987E+00  0.20476587248E-01 0.  0.
         14    1    1    2    0    0  0.16112895219E-01  0.11406392771E-01 -0.12128021295E-01  0.23169378260E-01  0.00000000000E+00 0.  1.
     999901    1    3    3    0    0 -0.12770935401E+00  0.51834788649E-01  0.14460723210E-01  0.89084546187E+00  0.88000000000E+00 0.  1.
        -11    1    4    4    0    0  0.89716185851E-01 -0.58722949467E-01  0.15195792445E-02  0.10723781534E+00  0.51100000000E-03 0. -1.
         11    1    4    4    0    0  0.21880272936E-01 -0.45182319537E-02 -0.38522811589E-02  0.22677344528E-01  0.51100000000E-03 0.  1.
</event>
<event>
 7    1  0.1114333E+005  0.1043930E+01  0.7957747E-01            NaN
         13   -1    0    0    0    0  0.00000000000E+00  0.00000000000E+00  0.74505805969E-08  0.10566000000E+00  0.10566000000E+00 0.  1.
     999900   -1    0    0    0    0 -0.00000000000E+00 -0.00000000000E+00 -0.74505805969E-08  0.93827000000E+00  0.93827000000E+00 0.  1.
     999903    2    1    2    0    0 -0.75771467687E-02  0.11762815735E-01  0.93532731692E-01  0.96835791700E-01  0.20809172719E-01 0.  0.
         14    1    1    2    0    0 -0.12295314140E-01  0.55640628021E-01 -0.23101964515E-01  0.61487844334E-01  0.00000000000E+00 0. -1.
     999901    1    1    2    0    0  0.19872460908E-01 -0.67403443756E-01 -0.70430767176E-01  0.88560636397E+00  0.88000000000E+00 0.  1.
        -11    1    3    3    0    0 -0.11977687164E-01 -0.21169327059E-03  0.37656170018E-01  0.39519084824E-01  0.51100000000E-03 0.  1.
         11    1    3    3    0    0  0.44005403956E-02  0.11974509006E-01  0.55876561673E-01  0.57316706876E-01  0.51100000000E-03 0. -1.
</event>
<event>
 8    1  0.1114333E+005  0.1043930E+01  0.7957747E-01            NaN
         13   -1    0    0    0    0  0.00000000000E+00  0.00000000000E+00  0.74505805969E-08  0.10566000000E+00  0.10566000000E+00 0. -1.
     999900   -1    0    0    0    0 -0.00000000000E+00 -0.00000000000E+00 -0.74505805969E-08  0.93827000000E+00  0.93827000000E+00 0. -1.
     999902    2    1    2    0    0  0.14135110163E-01  0.90832531467E-02  0.15683499689E-01  0.10209456795E+01  0.10206869263E+01 0.  0.
     999903    2    3    3    0    0 -0.85250804660E-01  0.46729865183E-01  0.86527534302E-01  0.13172483813E+00  0.20323355835E-01 0.  0.
         14    1    1    2    0    0 -0.14135110163E-01 -0.90832531467E-02 -0.15683499689E-01  0.22984320515E-01  0.00000000000E+00 0.  1.
     999901    1    3    3    0    0  0.99385914823E-01 -0.37646612036E-01 -0.70844034613E-01  0.88922084136E+00  0.88000000000E+00 0. -1.
        -11    1    4    4    0    0 -0.67502249242E-01  0.30385473218E-01  0.56069840082E-01  0.92865056523E-01  0.51100000000E-03 0.  1.
         11    1    4    4    0    0 -0.17748555418E-01  0.16344391965E-01  0.30457694220E-01  0.38859781605E-01  0.51100000000E-03 0. -1.
</event>
<event>
 8    1  0.1114333E+005  0.1043930E+01  0.7957747E-01            NaN
         13   -1    0    0    0    0  0.00000000000E+00  0.00000000000E+00  0.74505805969E-08  0.10566000000E+00  0.10566000000E+00 0. -1.
     999900   -1    0    0    0    0 -0.00000000000E+00 -0.00000000000E+00 -0.74505805969E-08  0.93827000000E+00  0.93827000000E+00 0. -1.
     999902    2    1    2    0    0  0.68743096769E-02 -0.53626344647E-02 -0.24678991353E-01  0.10177562231E+01  0.10174196101E+01 0.  0.
     999903    2    3    3    0    0 -0.31795934450E-01  0.51154739402E-01  0.10793262378E+00  0.12518945150E+00  0.19878598551E-01 0.  0.
         14    1    1    2    0    0 -0.68743096769E-02  0.53626344647E-02  0.24678991353E-01  0.26173776880E-01  0.00000000000E+00 0. -1.
     999901    1    3    3    0    0  0.38670244127E-01 -0.56517373866E-01 -0.13261161513E+00  0.89256677162E+00  0.88000000000E+00 0. -1.
        -11    1    4    4    0    0 -0.14793615816E-01  0.10996027742E-01  0.44907462951E-01  0.48545906570E-01  0.51100000000E-03 0. -1.
         11    1    4    4    0    0 -0.17002318635E-01  0.40158711660E-01  0.63025160829E-01  0.76643544931E-01  0.51100000000E-03 0.  1.
</event>
<event>
 8    1  0.1114333E+005  0.1043930E+01  0.7957747E-01            NaN
         13   -1    0    0    0    0  0.00000000000E+00  0.00000000000E+00  0.74505805969E-08  0.10566000000E+00  0.10566000000E+00 0.  1.
     999900   -1    0    0    0    0 -0.00000000000E+00 -0.00000000000E+00 -0.74505805969E-08  0.93827000000E+00  0.93827000000E+00 0.  1.
     999902    2    1    2    0    0 -0.16237104557E-01 -0.78757759601E-02 -0.13449809773E-01  0.10214229168E+01  0.10211749146E+01 0.  0.
     999903    2    3    3    0    0  0.67793016641E-01 -0.10819954333E+00 -0.25224634902E-01  0.13166757623E+00  0.19925715583E-01 0.  0.
         14    1    1    2    0    0  0.16237104557E-01  0.78757759601E-02  0.13449809773E-01  0.22507083203E-01  0.00000000000E+00 0.  1.
     999901    1    3    3    0    0 -0.84030121199E-01  0.10032376737E+00  0.11774825129E-01  0.88975534057E+00  0.88000000000E+00 0.  1.
        -11    1    4    4    0    0  0.25340615567E-01 -0.54430028120E-01 -0.50760571981E-02  0.60256138576E-01  0.51100000000E-03 0.  1.
         11    1    4    4    0    0  0.42452401074E-01 -0.53769515208E-01 -0.20148577704E-01  0.71411437650E-01  0.51100000000E-03 0. -1.
</event>
<event>
 8    1  0.1114333E+005  0.1043930E+01  0.7957747E-01            NaN
         13   -1    0    0    0    0  0.00000000000E+00  0.00000000000E+00  0.74505805969E-08  0.10566000000E+00  0.10566000000E+00 0.  1.
     999900   -1    0    0    0    0 -0.00000000000E+00 -0.00000000000E+00 -0.74505805969E-08  0.93827000000E+00  0.93827000000E+00 0.  1.
     999902    2    1    2    0    0  0.65544210418E-02 -0.13003847736E-01  0.15656226253E-01  0.10225482809E+01  0.10223247081E+01 0.  0.
     999903    2    3    3    0    0 -0.28284936344E-01  0.11650675251E+00  0.49989520219E-01  0.13172531786E+00  0.21880270366E-01 0.  0.
         14    1    1    2    0    0 -0.65544210418E-02  0.13003847736E-01 -0.15656226253E-01  0.21381719099E-01  0.00000000000E+00 0. -1.
     999901    1    3    3    0    0  0.34839357386E-01 -0.12951060024E+00 -0.34333293966E-01  0.89082296304E+00  0.88000000000E+00 0.  1.
        -11    1    4    4    0    0 -0.29593301803E-01  0.96600717686E-01  0.35595906169E-01  0.10712045475E+00  0.51100000000E-03 0. -1.
         11    1    4    4    0    0  0.13083654583E-02  0.19906034820E-01  0.14393614050E-01  0.24604863114E-01  0.51100000000E-03 0.  1.
</event>
<event>
 8    1  0.1114333E+005  0.1043930E+01  0.7957747E-01            NaN
         13   -1    0    0    0    0  0.00000000000E+00  0.00000000000E+00  0.74505805969E-08  0.10566000000E+00  0.10566000000E+00 0.  1.
     999900   -1    0    0    0    0 -0.00000000000E+00 -0.00000000000E+00 -0.74505805969E-08  0.93827000000E+00  0.93827000000E+00 0.  1.
     999902    2    1    2    0    0 -0.43923156753E-03 -0.13607594069E-01 -0.19399535266E-01  0.10202297572E+01  0.10199544382E+01 0.  0.
     999903    2    3    3    0    0  0.12698461351E+00 -0.21953192146E-01 -0.87605793949E-02  0.13094933309E+00  0.21539391152E-01 0.  0.
         14    1    1    2    0    0  0.43923156753E-03  0.13607594069E-01  0.19399535266E-01  0.23700242810E-01  0.00000000000E+00 0.  1.
     999901    1    3    3    0    0 -0.12742384508E+00  0.83455980764E-02 -0.10638955871E-01  0.88928042410E+00  0.88000000000E+00 0.  1.
        -11    1    4    4    0    0  0.41829124250E-01 -0.17456322326E-01 -0.47990281691E-02  0.45581691687E-01  0.51100000000E-03 0. -1.
         11    1    4    4    0    0  0.85155489263E-01 -0.44968698199E-02 -0.39615512258E-02  0.85367641405E-01  0.51100000000E-03 0.  1.
</event>
<event>
 8    1  0.1114333E+005  0.1043930E+01  0.7957747E-01            NaN
         13   -1    0    0    0    0  0.00000000000E+00  0.00000000000E+00  0.74505805969E-08  0.10566000000E+00  0.10566000000E+00 0.  1.
     999900   -1    0    0    0    0 -0.00000000000E+00 -0.00000000000E+00 -0.74505805969E-08  0.93827000000E+00  0.93827000000E+00 0.  1.
     999902    2    1    2    0    0 -0.19110709584E-01 -0.13549073688E-01  0.40579885819E-02  0.10201547210E+01  0.10198776353E+01 0.  0.
     999903    2    3    3    0    0 -0.68141735540E-02 -0.15764127838E-01  0.12870827167E+00  0.13128251181E+00  0.19347816994E-01 0.  0.
         14    1    1    2    0    0  0.19110709584E-01  0.13549073688E-01 -0.40579885819E-02  0.23775278966E-01  0.00000000000E+00 0.  1.
     999901    1    3    3    0    0 -0.12296536030E-01  0.22150541498E-02 -0.12465028309E+00  0.88887220923E+00  0.88000000000E+00 0.  1.
        -11    1    4    4    0    0  0.55716521444E-02  0.16885646544E-03  0.32583816811E-01  0.33061126102E-01  0.51100000000E-03 0.  1.
         11    1    4    4    0    0 -0.12385825698E-01 -0.15932984303E-01  0.96124454858E-01  0.98221385705E-01  0.51100000000E-03 0. -1.
</event>
<event>
 8    1  0.1114333E+005  0.1043930E+01  0.7957747E-01            NaN
         13   -1    0    0    0    0  0.00000000000E+00  0.00000000000E+00  0.74505805969E-08  0.10566000000E+00  0.10566000000E+00 0.  1.
     999900   -1    0    0    0    0 -0.00000000000E+00 -0.00000000000E+00 -0.74505805969E-08  0.93827000000E+00  0.93827000000E+00 0. -1.
     999902    2    1    2    0    0  0.14929607258E-01  0.11050949378E-01  0.15506173539E-01  0.10197337591E+01  0.10194466545E+01 0.  0.
     999903    2    3    3    0    0 -0.45574366473E-01 -0.11477556338E+00 -0.25822910172E-01  0.12776899787E+00  0.20190128708E-01 0.  0.
         14    1    1    2    0    0 -0.14929607258E-01 -0.11050949378E-01 -0.15506173539E-01  0.24196240883E-01  0.00000000000E+00 0. -1.
     999901    1    3    3    0    0  0.60503973731E-01  0.12582651276E+00  0.41329083711E-01  0.89196476125E+00  0.88000000000E+00 0.  1.
        -11    1    4    4    0    0 -0.15578700533E-01 -0.61379657202E-01 -0.19150917852E-01  0.66160237334E-01  0.51100000000E-03 0. -1.
         11    1    4    4    0    0 -0.29995665939E-01 -0.53395906180E-01 -0.66719923200E-02  0.61608760533E-01  0.51100000000E-03 0.  1.
</event>
<event>
 7    1  0.1114333E+005  0.1043930E+01  0.7957747E-01            NaN
         13   -1    0    0    0    0  0.00000000000E+00  0.00000000000E+00  0.74505805969E-08  0.10566000000E+00  0.10566000000E+00 0.  1.
     999900   -1    0    0    0    0 -0.00000000000E+00 -0.00000000000E+00 -0.74505805969E-08  0.93827000000E+00  0.93827000000E+00 0.  1.
     999903    2    1    2    0    0  0.82326521448E-01  0.77754996334E-02 -0.80276567114E-01  0.11687599666E+00  0.19430821913E-01 0.  0.
         14    1    1    2    0    0 -0.13959452545E-01  0.24883797601E-01  0.31429506355E-01  0.42448599130E-01  0.00000000000E+00 0.  1.
     999901    1    1    2    0    0 -0.68367068903E-01 -0.32659297235E-01  0.48847060760E-01  0.88460540421E+00  0.88000000000E+00 0. -1.
        -11    1    3    3    0    0  0.68778193620E-01  0.24465415642E-02 -0.56745242831E-01  0.89200387825E-01  0.51100000000E-03 0. -1.
         11    1    3    3    0    0  0.13548327828E-01  0.53289580693E-02 -0.23531324284E-01  0.27675608838E-01  0.51100000000E-03 0.  1.
</event>
<event>
 8    1  0.1114333E+005  0.1043930E+01  0.7957747E-01            NaN
         13   -1    0    0    0    0  0.00000000000E+00  0.00000000000E+00  0.74505805969E-08  0.10566000000E+00  0.10566000000E+00 0. -1.
     999900   -1    0    0    0    0 -0.00000000000E+00 -0.00000000000E+00 -0.74505805969E-08  0.93827000000E+00  0.93827000000E+00 0. -1.
     999902    2    1    2    0    0  0.15719923267E-01  0.82438384054E-02  0.16243001410E-01  0.10198694108E+01  0.10195855546E+01 0.  0.
     999903    2    3    3    0    0  0.50768267298E-01 -0.71946582254E-01  0.96222546331E-01  0.13191917704E+00  0.19752548832E-01 0.  0.
         14    1    1    2    0    0 -0.15719923267E-01 -0.82438384054E-02 -0.16243001410E-01  0.24060589227E-01  0.00000000000E+00 0.  1.
     999901    1    3    3    0    0 -0.35048344031E-01  0.80190420659E-01 -0.79979544922E-01  0.88795023374E+00  0.88000000000E+00 0. -1.
        -11    1    4    4    0    0  0.31599851665E-01 -0.37322736091E-01  0.40098629657E-01  0.63243169401E-01  0.51100000000E-03 0.  1.
         11    1    4    4    0    0  0.19168415633E-01 -0.34623846163E-01  0.56123916674E-01  0.68676007636E-01  0.51100000000E-03 0. -1.
</event>
<event>
 8    1  0.1114333E+005  0.1043930E+01  0.7957747E-01            NaN
         13   -1    0    0    0    0  0.00000000000E+00  0.00000000000E+00  0.74505805969E-08  0.10566000000E+00  0.10566000000E+00 0.  1.
     999900   -1    0    0    0    0 -0.00000000000E+00 -0.00000000000E+00 -0.74505805969E-08  0.93827000000E+00  0.93827000000E+00 0. -1.
     999902    2    1    2    0    0 -0.14965699880E-01 -0.13688810512E-01  0.74696604282E-02  0.10223163114E+01  0.10220878089E+01 0.  0.
     999903    2    3    3    0    0  0.28252525901E-01  0.12525496331E+00 -0.79189158400E-02  0.13023447910E+00  0.20280514375E-01 0.  0.
         14    1    1    2    0    0  0.14965699880E-01  0.13688810512E-01 -0.74696604282E-02  0.21613688557E-01  0.00000000000E+00 0. -1.
     999901    1    3    3    0    0 -0.43218225781E-01 -0.13894377382E+00  0.15388576268E-01  0.89208183235E+00  0.88000000000E+00 0. -1.
        -11    1    4    4    0    0  0.16117944221E-01  0.30853206703E-01 -0.19942296838E-02  0.34870425332E-01  0.51100000000E-03 0. -1.
         11    1    4    4    0    0  0.12134581680E-01  0.94401756608E-01 -0.59246861562E-02  0.95364053764E-01  0.51100000000E-03 0.  1.
</event>
<event>
 8    1  0.1114333E+005  0.1043930E+01  0.7957747E-01            NaN
         13   -1    0    0    0    0  0.00000000000E+00  0.00000000000E+00  0.74505805969E-08  0.10566000000E+00  0.10566000000E+00 0. -1.
     999900   -1    0    0    0    0 -0.00000000000E+00 -0.00000000000E+00 -0.74505805969E-08  0.93827000000E+00  0.93827000000E+00 0. -1.
     999902    2    1    2    0    0 -0.51100751960E-02  0.11820624456E-01  0.19934765406E-01  0.10201974295E+01  0.10199213500E+01 0.  0.
     999903    2    3    3    0    0 -0.11491534816E-01 -0.33337424132E-01 -0.12127374374E+00  0.12777386670E+00  0.19375264347E-01 0.  0.
         14    1    1    2    0    0  0.51100751960E-02 -0.11820624456E-01 -0.19934765406E-01  0.23732570506E-01  0.00000000000E+00 0.  1.
     999901    1    3    3    0    0  0.63814596200E-02  0.45158048588E-01  0.14120850915E+00  0.89242356280E+00  0.88000000000E+00 0.  1.
        -11    1    4    4    0    0  0.43115391466E-02 -0.11274646981E-01 -0.51695802550E-01  0.53088832692E-01  0.51100000000E-03 0.  1.
         11    1    4    4    0    0 -0.15803073963E-01 -0.22062777151E-01 -0.69577941195E-01  0.74685034004E-01  0.51100000000E-03 0. -1.
</event>
<event>
 8    1  0.1114333E+005  0.1043930E+01  0.7957747E-01            NaN
         13   -1    0    0    0    0  0.00000000000E+00  0.00000000000E+00  0.74505805969E-08  0.10566000000E+00  0.10566000000E+00 0. -1.
     999900   -1    0    0    0    0 -0.00000000000E+00 -0.00000000000E+00 -0.74505805969E-08  0.93827000000E+00  0.93827000000E+00 0. -1.
     999902    2    1    2    0    0 -0.11001904073E-01 -0.11415428864E-01 -0.17436884417E-01  0.10203630985E+01  0.10200909047E+01 0.  0.
     999903    2    3    3    0    0  0.31491466865E-01  0.79210695825E-01  0.93277139359E-01  0.12779580347E+00  0.19107481238E-01 0.  0.
         14    1    1    2    0    0  0.11001904073E-01  0.11415428864E-01  0.17436884417E-01  0.23566901526E-01  0.00000000000E+00 0. -1.
     999901    1    3    3    0    0 -0.42493370938E-01 -0.90626124689E-01 -0.11071402378E+00  0.89256729500E+00  0.88000000000E+00 0. -1.
        -11    1    4    4    0    0  0.67418205115E-02  0.29295361444E-01  0.44734362555E-01  0.53898930047E-01  0.51100000000E-03 0.  1.
         11    1    4    4    0    0  0.24749646354E-01  0.49915334381E-01  0.48542776803E-01  0.73896873423E-01  0.51100000000E-03 0. -1.
</event>
<event>
 8    1  0.1114333E+005  0.1043930E+01  0.7957747E-01            NaN
         13   -1    0    0    0    0  0.00000000000E+00  0.00000000000E+00  0.74505805969E-08  0.10566000000E+00  0.10566000000E+00 0.  1.
     999900   -1    0    0    0    0 -0.00000000000E+00 -0.00000000000E+00 -0.74505805969E-08  0.93827000000E+00  0.93827000000E+00 0.  1.
     999902    2    1    2    0    0 -0.19310547465E-01 -0.14303359938E-01  0.21927603273E-02  0.10197992821E+01  0.10195137489E+01 0.  0.
     999903    2    3    3    0    0 -0.11700612970E+00 -0.48753666469E-01  0.35091340976E-01  0.13311243375E+00  0.20497888352E-01 0.  0.
         14    1    1    2    0    0  0.19310547465E-01  0.14303359938E-01 -0.21927603273E-02  0.24130717908E-01  0.00000000000E+00 0. -1.
     999901    1    3    3    0    0  0.97695582235E-01  0.34450306531E-01 -0.32898580649E-01  0.88668684834E+00  0.88000000000E+00 0. -1.
        -11    1    4    4    0    0 -0.10087640180E+00 -0.44660754089E-01  0.36985120181E-01  0.11635631325E+00  0.51100000000E-03 0.  1.
         11    1    4    4    0    0 -0.16129727898E-01 -0.40929123795E-02 -0.18937792048E-02  0.16756120508E-01  0.51100000000E-03 0. -1.
</event>
<event>
 8    1  0.1114333E+005  0.1043930E+01  0.7957747E-01            NaN
         13   -1    0    0    0    0  0.00000000000E+00  0.00000000000E+00  0.74505805969E-08  0.10566000000E+00  0.10566000000E+00 0. -1.
     999900   -1    0    0    0    0 -0.00000000000E+00 -0.00000000000E+00 -0.74505805969E-08  0.93827000000E+00  0.93827000000E+00 0.  1.
     999902    2    1    2    0    0  0.17699322739E-01  0.16335250430E-01 -0.13766510305E-02  0.10198052907E+01  0.10195199014E+01 0.  0.
     999903    2    3    3    0    0  0.74251647373E-01  0.90947933187E-01  0.59205566884E-01  0.13276784897E+00  0.18362158978E-01 0.  0.
         14    1    1    2    0    0 -0.17699322739E-01 -0.16335250430E-01  0.13766510305E-02  0.24124709327E-01  0.00000000000E+00 0.  1.
     999901    1    3    3    0    0 -0.56552324633E-01 -0.74612682757E-01 -0.60582217915E-01  0.88703744170E+00  0.88000000000E+00 0.  1.
        -11    1    4    4    0    0  0.56808402370E-01  0.63985560117E-01  0.34550107914E-01  0.92278478321E-01  0.51100000000E-03 0.  1.
         11    1    4    4    0    0  0.17443245002E-01  0.26962373071E-01  0.24655458970E-01  0.40489370653E-01  0.51100000000E-03 0. -1.
</event>
<event>
 8    1  0.1114333E+005  0.1043930E+01  0.7957747E-01            NaN
         13   -1    0    0    0    0  0.00000000000E+00  0.00000000000E+00  0.74505805969E-08  0.10566000000E+00  0.10566000000E+00 0. -1.
     999900   -1    0    0    0    0 -0.00000000000E+00 -0.00000000000E+00 -0.74505805969E-08  0.93827000000E+00  0.93827000000E+00 0.  1.
     999902    2    1    2    0    0  0.11597774949E-01  0.15066605131E-01 -0.16705368901E-01  0.10186203117E+01  0.10183058278E+01 0.  0.
     999903    2    3    3    0    0  0.27010797841E-01  0.61549319484E-01 -0.11182146535E+00  0.13214116593E+00  0.20960574672E-01 0.  0.
         14    1    1    2    0    0 -0.11597774949E-01 -0.15066605131E-01  0.16705368901E-01  0.25309688344E-01  0.00000000000E+00 0. -1.
     999901    1    3    3    0    0 -0.15413022892E-01 -0.46482714353E-01  0.95116096450E-01  0.88647914573E+00  0.88000000000E+00 0. -1.
        -11    1    4    4    0    0  0.27168983567E-01  0.37448567766E-01 -0.71606783818E-01  0.85254568825E-01  0.51100000000E-03 0.  1.
         11    1    4    4    0    0 -0.15818572547E-03  0.24100751718E-01 -0.40214681532E-01  0.46886597102E-01  0.51100000000E-03 0. -1.
</event>
<event>
 8    1  0.1114333E+005  0.1043930E+01  0.7957747E-01            NaN
         13   -1    0    0    0    0  0.00000000000E+00  0.00000000000E+00  0.74505805969E-08  0.10566000000E+00  0.10566000000E+00 0. -1.
     999900   -1    0    0    0    0 -0.00000000000E+00 -0.00000000000E+00 -0.74505805969E-08  0.93827000000E+00  0.93827000000E+00 0.  1.
     999902    2    1    2    0    0 -0.12507182792E-01  0.13757203186E-01  0.15496252878E-01  0.10197261963E+01  0.10194389100E+01 0.  0.
     999903    2    3    3    0    0  0.97689859274E-01 -0.78160930201E-01 -0.14623239461E-01  0.12759419084E+00  0.20346960181E-01 0.  0.
         14    1    1    2    0    0  0.12507182792E-01 -0.13757203186E-01 -0.15496252878E-01  0.24203803713E-01  0.00000000000E+00 0. -1.
     999901    1    3    3    0    0 -0.11019704207E+00  0.91918133388E-01  0.30119492339E-01  0.89213200545E+00  0.88000000000E+00 0. -1.
        -11    1    4    4    0    0  0.86539110140E-02 -0.56303106038E-02  0.43171749552E-02  0.11202218259E-01  0.51100000000E-03 0. -1.
         11    1    4    4    0    0  0.89035948260E-01 -0.72530619598E-01 -0.18940414416E-01  0.11639197258E+00  0.51100000000E-03 0.  1.
</event>
<event>
 8    1  0.1114333E+005  0.1043930E+01  0.7957747E-01            NaN
         13   -1    0    0    0    0  0.00000000000E+00  0.00000000000E+00  0.74505805969E-08  0.10566000000E+00  0.10566000000E+00 0.  1.
     999900   -1    0    0    0    0 -0.00000000000E+00 -0.00000000000E+00 -0.74505805969E-08  0.93827000000E+00  0.93827000000E+00 0.  1.
     999902    2    1    2    0    0  0.11921695000E-01 -0.14973634459E-01 -0.15115562618E-01  0.10195411342E+01  0.10192493844E+01 0.  0.
     999903    2    3    3    0    0  0.32090100676E-01 -0.11219138743E+00 -0.60136355806E-01  0.13281404662E+00  0.20162036475E-01 0.  0.
         14    1    1    2    0    0 -0.11921695000E-01  0.14973634459E-01  0.15115562618E-01  0.24388865776E-01  0.00000000000E+00 0.  1.
     999901    1    3    3    0    0 -0.20168405677E-01  0.97217752966E-01  0.45020793188E-01  0.88672708761E+00  0.88000000000E+00 0. -1.
        -11    1    4    4    0    0  0.11718673493E-01 -0.15723910929E-01 -0.71307891362E-02  0.20872900087E-01  0.51100000000E-03 0. -1.
         11    1    4    4    0    0  0.20371427184E-01 -0.96467476497E-01 -0.53005566670E-01  0.11194114653E+00  0.51100000000E-03 0.  1.
</event>
<event>
 8    1  0.1114333E+005  0.1043930E+01  0.7957747E-01            NaN
         13   -1    0    0    0    0  0.00000000000E+00  0.00000000000E+00  0.74505805969E-08  0.10566000000E+00  0.10566000000E+00 0.  1.
     999900   -1    0    0    0    0 -0.00000000000E+00 -0.00000000000E+00 -0.74505805969E-08  0.93827000000E+00  0.93827000000E+00 0.  1.
     999902    2    1    2    0    0 -0.13843968749E-01  0.20235517723E-01 -0.18320825089E-02  0.10193436588E+01  0.10190471071E+01 0.  0.
     999903    2    3    3    0    0  0.72965321611E-01  0.10139087533E+00  0.32570337940E-01  0.13068986146E+00  0.20370695043E-01 0.  0.
         14    1    1    2    0    0  0.13843968749E-01 -0.20235517723E-01  0.18320825089E-02  0.24586341219E-01  0.00000000000E+00 0.  1.
     999901    1    3    3    0    0 -0.86809290360E-01 -0.81155357609E-01 -0.34402420449E-01  0.88865379732E+00  0.88000000000E+00 0.  1.
        -11    1    4    4    0    0  0.68813568924E-01  0.87298089251E-01  0.33089037230E-01  0.11598021021E+00  0.51100000000E-03 0. -1.
         11    1    4    4    0    0  0.41517526868E-02  0.14092786080E-01 -0.51869928999E-03  0.14709651248E-01  0.51100000000E-03 0.  1.
</event>
<event>
 8    1  0.1114333E+005  0.1043930E+01  0.7957747E-01            NaN
         13   -1    0    0    0    0  0.00000000000E+00  0.00000000000E+00  0.74505805969E-08  0.10566000000E+00  0.10566000000E+00 0. -1.
     999900   -1    0    0    0    0 -0.00000000000E+00 -0.00000000000E+00 -0.74505805969E-08  0.93827000000E+00  0.93827000000E+00 0. -1.
     999902    2    1    2    0    0  0.29558182623E-02 -0.56743034987E-02 -0.20546069772E-01  0.10224108094E+01  0.10221843217E+01 0.  0.
     999903    2    3    3    0    0 -0.51737617285E-02  0.11939217891E+00 -0.54628004095E-01  0.13287762094E+00  0.19773293104E-01 0.  0.
         14    1    1    2    0    0 -0.29558182623E-02  0.56743034987E-02  0.20546069772E-01  0.21519190619E-01  0.00000000000E+00 0. -1.
     999901    1    3    3    0    0  0.81295799908E-02 -0.12506648241E+00  0.34081934322E-01  0.88953318844E+00  0.88000000000E+00 0.  1.
        -11    1    4    4    0    0 -0.14737694842E-02  0.73728637290E-01 -0.43898308444E-01  0.85821946833E-01  0.51100000000E-03 0. -1.
         11    1    4    4    0    0 -0.36999922443E-02  0.45663541619E-01 -0.10729695651E-01  0.47055674106E-01  0.51100000000E-03 0.  1.
</event>
<event>
 8    1  0.1114333E+005  0.1043930E+01  0.7957747E-01            NaN
         13   -1    0    0    0    0  0.00000000000E+00  0.00000000000E+00  0.74505805969E-08  0.10566000000E+00  0.10566000000E+00 0. -1.
     999900   -1    0    0    0    0 -0.00000000000E+00 -0.00000000000E+00 -0.74505805969E-08  0.93827000000E+00  0.93827000000E+00 0.  1.
     999902    2    1    2    0    0  0.12612282872E-01  0.22764275691E-01  0.47973635823E-02  0.10174668818E+01  0.10171226863E+01 0.  0.
     999903    2    3    3    0    0 -0.46560701967E-01 -0.19668680925E-01  0.11586066527E+00  0.12750224492E+00  0.16684505555E-01 0.  0.
         14    1    1    2    0    0 -0.12612282872E-01 -0.22764275691E-01 -0.47973635823E-02  0.26463118190E-01  0.00000000000E+00 0.  1.
     999901    1    3    3    0    0  0.59172984839E-01  0.42432956617E-01 -0.11106330168E+00  0.88996463689E+00  0.88000000000E+00 0. -1.
        -11    1    4    4    0    0 -0.16036959280E-01 -0.11739928091E-01  0.29610128100E-01  0.35665540534E-01  0.51100000000E-03 0. -1.
         11    1    4    4    0    0 -0.30523742687E-01 -0.79287528348E-02  0.86250537166E-01  0.91836704381E-01  0.51100000000E-03 0.  1.
</event>
<event>
 8    1  0.1114333E+005  0.1043930E+01  0.7957747E-01            NaN
         13   -1    0    0    0    0  0.00000000000E+00  0.00000000000E+00  0.74505805969E-08  0.10566000000E+00  0.10566000000E+00 0. -1.
     999900   -1    0    0    0    0 -0.00000000000E+00 -0.00000000000E+00 -0.74505805969E-08  0.93827000000E+00  0.93827000000E+00 0. -1.
     999902    2    1    2    0    0  0.10257513403E-01  0.14197841107E-01  0.15626466934E-01  0.10204569997E+01  0.10201869959E+01 0.  0.
     999903    2    3    3    0    0  0.10801486542E-01 -0.36581805404E-01  0.12509362256E+00  0.13222171188E+00  0.19474755143E-01 0.  0.
         14    1    1    2    0    0 -0.10257513403E-01 -0.14197841107E-01 -0.15626466934E-01  0.23473000280E-01  0.00000000000E+00 0. -1.
     999901    1    3    3    0    0 -0.54397313852E-03  0.50779646510E-01 -0.10946715563E+00  0.88823528784E+00  0.88000000000E+00 0. -1.
        -11    1    4    4    0    0 -0.47809757596E-02 -0.16142596002E-01  0.42341930078E-01  0.45569082705E-01  0.51100000000E-03 0.  1.
         11    1    4    4    0    0  0.15582462302E-01 -0.20439209402E-01  0.82751692485E-01  0.86652629172E-01  0.51100000000E-03 0. -1.
</event>
<event>
 8    1  0.1114333E+005  0.1043930E+01  0.7957747E-01            NaN
         13   -1    0    0    0    0  0.00000000000E+00  0.00000000000E+00  0.74505805969E-08  0.10566000000E+00  0.10566000000E+00 0.  1.
     999900   -1    0    0    0    0 -0.00000000000E+00 -0.00000000000E+00 -0.74505805969E-08  0.93827000000E+00  0.93827000000E+00 0. -1.
     999902    2    1    2    0    0  0.46638436872E-02  0.21063679929E-01  0.13682963408E-02  0.10223128243E+01  0.10220842472E+01 0.  0.
     999903    2    3    3    0    0  0.10224784619E+00  0.72540573906E-01 -0.43820095331E-01  0.13427312987E+00  0.19806961804E-01 0.  0.
         14    1    1    2    0    0 -0.46638436872E-02 -0.21063679929E-01 -0.13682963408E-02  0.21617175693E-01  0.00000000000E+00 0. -1.
     999901    1    3    3    0    0 -0.97584002505E-01 -0.51476893977E-01  0.45188391672E-01  0.88803969444E+00  0.88000000000E+00 0.  1.
        -11    1    4    4    0    0  0.68006118406E-01  0.38419159833E-01 -0.32635047979E-01  0.84653242469E-01  0.51100000000E-03 0. -1.
         11    1    4    4    0    0  0.34241727786E-01  0.34121414072E-01 -0.11185047352E-01  0.49619887398E-01  0.51100000000E-03 0.  1.
</event>
<event>
 8    1  0.1114333E+005  0.1043930E+01  0.7957747E-01            NaN
         13   -1    0    0    0    0  0.00000000000E+00  0.00000000000E+00  0.74505805969E-08  0.10566000000E+00  0.10566000000E+00 0. -1.
     999900   -1    0    0    0    0 -0.00000000000E+00 -0.00000000000E+00 -0.74505805969E-08  0.93827000000E+00  0.93827000000E+00 0. -1.
     999902    2    1    2    0    0  0.10423667407E-01  0.13876357976E-01 -0.16818172072E-01  0.10197627274E+01  0.10194763181E+01 0.  0.
     999903    2    3    3    0    0 -0.83455906322E-01  0.75704431523E-01 -0.63854023802E-01  0.13136616258E+00  0.21992795716E-01 0.  0.
         14    1    1    2    0    0 -0.10423667407E-01 -0.13876357976E-01  0.16818172072E-01  0.24167272596E-01  0.00000000000E+00 0. -1.
     999901    1    3    3    0    0  0.93879573728E-01 -0.61828073548E-01  0.47035851730E-01  0.88839656482E+00  0.88000000000E+00 0.  1.
        -11    1    4    4    0    0 -0.35251100318E-01  0.46131921459E-01 -0.36091765106E-01  0.68364251482E-01  0.51100000000E-03 0.  1.
         11    1    4    4    0    0 -0.48204806003E-01  0.29572510064E-01 -0.27762258695E-01  0.63001911099E-01  0.51100000000E-03 0. -1.
</event>
<event>
 8    1  0.1114333E+005  0.1043930E+01  0.7957747E-01            NaN
         13   -1    0    0    0    0  0.00000000000E+00  0.00000000000E+00  0.74505805969E-08  0.10566000000E+00  0.10566000000E+00 0.  1.
     999900   -1    0    0    0    0 -0.00000000000E+00 -0.00000000000E+00 -0.74505805969E-08  0.93827000000E+00  0.93827000000E+00 0.  1.
     999902    2    1    2    0    0 -0.20589093417E-01 -0.92145049757E-02 -0.10437484387E-01  0.10190752429E+01  0.10187721000E+01 0.  0.
     999903    2    3    3    0    0  0.15897391204E-01  0.95264899751E-01  0.80851102297E-01  0.12745827603E+00  0.19508542073E-01 0.  0.
         14    1    1    2    0    0  0.20589093417E-01  0.92145049757E-02  0.10437484387E-01  0.24854757090E-01  0.00000000000E+00 0.  1.
     999901    1    3    3    0    0 -0.36486484621E-01 -0.10447940473E+00 -0.91288586684E-01  0.89161696688E+00  0.88000000000E+00 0. -1.
        -11    1    4    4    0    0  0.14172568596E-03  0.25925326119E-01  0.12348741466E-01  0.28720988098E-01  0.51100000000E-03 0. -1.
         11    1    4    4    0    0  0.15755665518E-01  0.69339573633E-01  0.68502360831E-01  0.98737287930E-01  0.51100000000E-03 0.  1.
</event>
<event>
 8    1  0.1114333E+005  0.1043930E+01  0.7957747E-01            NaN
         13   -1    0    0    0    0  0.00000000000E+00  0.00000000000E+00  0.74505805969E-08  0.10566000000E+00  0.10566000000E+00 0. -1.
     999900   -1    0    0    0    0 -0.00000000000E+00 -0.00000000000E+00 -0.74505805969E-08  0.93827000000E+00  0.93827000000E+00 0.  1.
     999902    2    1    2    0    0 -0.17033612084E-01  0.74067423372E-02 -0.14237457025E-01  0.10205268174E+01  0.10202584359E+01 0.  0.
     999903    2    3    3    0    0  0.11045968959E+00 -0.62228682704E-01  0.27586404219E-02  0.12845479021E+00  0.20476109363E-01 0.  0.
         14    1    1    2    0    0  0.17033612084E-01 -0.74067423372E-02  0.14237457025E-01  0.23403182587E-01  0.00000000000E+00 0. -1.
     999901    1    3    3    0    0 -0.12749330168E+00  0.69635425041E-01 -0.16996097447E-01  0.89207202720E+00  0.88000000000E+00 0.  1.
        -11    1    4    4    0    0  0.16355622325E-01 -0.62666955825E-02  0.70386232042E-02  0.18883357561E-01  0.51100000000E-03 0. -1.
         11    1    4    4    0    0  0.94104067267E-01 -0.55961987122E-01 -0.42799827824E-02  0.10957143265E+00  0.51100000000E-03 0.  1.
</event>
<event>
 8    1  0.1114333E+005  0.1043930E+01  0.7957747E-01            NaN
         13   -1    0    0    0    0  0.00000000000E+00  0.00000000000E+00  0.74505805969E-08  0.10566000000E+00  0.10566000000E+00 0. -1.
     999900   -1    0    0    0    0 -0.00000000000E+00 -0.00000000000E+00 -0.74505805969E-08  0.93827000000E+00  0.93827000000E+00 0.  1.
     999902    2    1    2    0    0 -0.95736137333E-02  0.11296644027E-01  0.19246465936E-01  0.10196463698E+01  0.10193571625E+01 0.  0.
     999903    2    3    3    0    0  0.14152389627E-01 -0.30983540276E-01 -0.12088366963E+00  0.12724119715E+00  0.20425248293E-01 0.  0.
         14    1    1    2    0    0  0.95736137333E-02 -0.11296644027E-01 -0.19246465936E-01  0.24283630232E-01  0.00000000000E+00 0.  1.
     999901    1    3    3    0    0 -0.23726003360E-01  0.42280184303E-01  0.14013013557E+00  0.89240517262E+00  0.88000000000E+00 0. -1.
        -11    1    4    4    0    0  0.17478143151E-01 -0.24998278962E-01 -0.76990607272E-01  0.82814335523E-01  0.51100000000E-03 0.  1.
         11    1    4    4    0    0 -0.33257535242E-02 -0.59852613146E-02 -0.43893062363E-01  0.44426861628E-01  0.51100000000E-03 0. -1.
</event>
<event>
 8    1  0.1114333E+005  0.1043930E+01  0.7957747E-01            NaN
         13   -1    0    0    0    0  0.00000000000E+00  0.00000000000E+00  0.74505805969E-08  0.10566000000E+00  0.10566000000E+00 0.  1.
     999900   -1    0    0    0    0 -0.00000000000E+00 -0.00000000000E+00 -0.74505805969E-08  0.93827000000E+00  0.93827000000E+00 0.  1.
     999902    2    1    2    0    0 -0.14112523280E-01 -0.72855050991E-02 -0.63254540766E-02  0.10268345834E+01  0.10266922657E+01 0.  0.
     999903    2    3    3    0    0  0.10104707337E+00  0.21679365098E-01  0.82775890675E-01  0.13439985416E+00  0.23042717123E-01 0.  0.
         14    1    1    2    0    0  0.14112523280E-01  0.72855050991E-02  0.63254540766E-02  0.17095416554E-01  0.00000000000E+00 0.  1.
     999901    1    3    3    0    0 -0.11515959665E+00 -0.28964870197E-01 -0.89101344752E-01  0.89243472929E+00  0.88000000000E+00 0.  1.
        -11    1    4    4    0    0  0.56757370785E-01  0.93926768732E-03  0.40247300560E-01  0.69587266691E-01  0.51100000000E-03 0. -1.
         11    1    4    4    0    0  0.44289702586E-01  0.20740097411E-01  0.42528590116E-01  0.64812587465E-01  0.51100000000E-03 0.  1.
</event>
<event>
 8    1  0.1114333E+005  0.1043930E+01  0.7957747E-01            NaN
         13   -1    0    0    0    0  0.00000000000E+00  0.00000000000E+00  0.74505805969E-08  0.10566000000E+00  0.10566000000E+00 0.  1.
     999900   -1    0    0    0    0 -0.00000000000E+00 -0.00000000000E+00 -0.74505805969E-08  0.93827000000E+00  0.93827000000E+00 0. -1.
     999902    2    1    2    0    0  0.94000952223E-02  0.20578989380E-01  0.60540070929E-02  0.10205097610E+01  0.10202409836E+01 0.  0.
     999903    2    3    3    0    0 -0.30956642886E-02 -0.10577550028E+00  0.71157974529E-01  0.12901655986E+00  0.19590196061E-01 0.  0.
         14    1    1    2    0    0 -0.94000952223E-02 -0.20578989380E-01 -0.60540070929E-02  0.23420239025E-01  0.00000000000E+00 0.  1.
     999901    1    3    3    0    0  0.12495759511E-01  0.12635448966E+00 -0.65103967436E-01  0.89149320112E+00  0.88000000000E+00 0.  1.
        -11    1    4    4    0    0  0.71585409899E-02 -0.26001092217E-01  0.14418771380E-01  0.30585349347E-01  0.51100000000E-03 0. -1.
         11    1    4    4    0    0 -0.10254205279E-01 -0.79774408063E-01  0.56739203148E-01  0.98431210510E-01  0.51100000000E-03 0.  1.
</event>
<event>
 8    1  0.1114333E+005  0.1043930E+01  0.7957747E-01            NaN
         13   -1    0    0    0    0  0.00000000000E+00  0.00000000000E+00  0.74505805969E-08  0.10566000000E+00  0.10566000000E+00 0. -1.
     999900   -1    0    0    0    0 -0.00000000000E+00 -0.00000000000E+00 -0.74505805969E-08  0.93827000000E+00  0.93827000000E+00 0. -1.
     999902    2    1    2    0    0  0.14805250341E-02  0.21145316457E-01 -0.13502959671E-01  0.10187974259E+01  0.10184873827E+01 0.  0.
     999903    2    3    3    0    0 -0.10101844131E-01  0.12533250054E+00 -0.35536417580E-01  0.13230174406E+00  0.20751664016E-01 0.  0.
         14    1    1    2    0    0 -0.14805250341E-02 -0.21145316457E-01  0.13502959671E-01  0.25132574128E-01  0.00000000000E+00 0. -1.
     999901    1    3    3    0    0  0.11582369165E-01 -0.10418718409E+00  0.22033457909E-01  0.88649568181E+00  0.88000000000E+00 0. -1.
        -11    1    4    4    0    0 -0.33806357436E-02  0.50501899031E-01 -0.24928326394E-01  0.56422983628E-01  0.51100000000E-03 0. -1.
         11    1    4    4    0    0 -0.67212083876E-02  0.74830601513E-01 -0.10608091187E-01  0.75878760432E-01  0.51100000000E-03 0.  1.
</event>
<event>
 8    1  0.1114333E+005  0.1043930E+01  0.7957747E-01            NaN
         13   -1    0    0    0    0  0.00000000000E+00  0.00000000000E+00  0.74505805969E-08  0.10566000000E+00  0.10566000000E+00 0.  1.
     999900   -1    0    0    0    0 -0.00000000000E+00 -0.00000000000E+00 -0.74505805969E-08  0.93827000000E+00  0.93827000000E+00 0.  1.
     999902    2    1    2    0    0  0.10237563562E-01 -0.84821662987E-02 -0.19836616980E-01  0.10200501711E+01  0.10197706141E+01 0.  0.
     999903    2    3    3    0    0 -0.78035003506E-01  0.49032128708E-01 -0.91625153544E-01  0.13086316370E+00  0.15374896248E-01 0.  0.
         14    1    1    2    0    0 -0.10237563562E-01  0.84821662987E-02  0.19836616980E-01  0.23879828852E-01  0.00000000000E+00 0.  1.
     999901    1    3    3    0    0  0.88272567067E-01 -0.57514295006E-01  0.71788536564E-01  0.88918700744E+00  0.88000000000E+00 0. -1.
        -11    1    4    4    0    0 -0.67388728283E-02  0.15891210338E-02 -0.12329100368E-01  0.14149401031E-01  0.51100000000E-03 0. -1.
         11    1    4    4    0    0 -0.71296130677E-01  0.47443007674E-01 -0.79296053176E-01  0.11671376267E+00  0.51100000000E-03 0.  1.
</event>
<event>
 8    1  0.1114333E+005  0.1043930E+01  0.7957747E-01            NaN
         13   -1    0    0    0    0  0.00000000000E+00  0.00000000000E+00  0.74505805969E-08  0.10566000000E+00  0.10566000000E+00 0. -1.
     999900   -1    0    0    0    0 -0.00000000000E+00 -0.00000000000E+00 -0.74505805969E-08  0.93827000000E+00  0.93827000000E+00 0.  1.
     999902    2    1    2    0    0 -0.29565280911E-03 -0.52678927196E-03 -0.22942893875E-01  0.10209791548E+01  0.10207211633E+01 0.  0.
     999903    2    3    3    0    0  0.76520477402E-01  0.37158898790E-01 -0.10101834658E+00  0.13338876204E+00  0.18753353617E-01 0.  0.
         14    1    1    2    0    0  0.29565280911E-03  0.52678927196E-03  0.22942893875E-01  0.22950845233E-01  0.00000000000E+00 0. -1.
     999901    1    3    3    0    0 -0.76816130211E-01 -0.37685688062E-01  0.78075452705E-01  0.88759039273E+00  0.88000000000E+00 0. -1.
        -11    1    4    4    0    0  0.52724044833E-01  0.30990170877E-01 -0.60726725676E-01  0.86187075173E-01  0.51100000000E-03 0.  1.
         11    1    4    4    0    0  0.23796432569E-01  0.61687279129E-02 -0.40291620905E-01  0.47201686868E-01  0.51100000000E-03 0. -1.
</event>
<event>
 8    1  0.1114333E+005  0.1043930E+01  0.7957747E-01            NaN
         13   -1    0    0    0    0  0.00000000000E+00  0.00000000000E+00  0.74505805969E-08  0.10566000000E+00  0.10566000000E+00 0.  1.
     999900   -1    0    0    0    0 -0.00000000000E+00 -0.00000000000E+00 -0.74505805969E-08  0.93827000000E+00  0.93827000000E+00 0. -1.
     999902    2    1    2    0    0  0.15826554315E-01 -0.38867364534E-02 -0.16918047972E-01  0.10204394298E+01  0.10201690169E+01 0.  0.
     999903    2    3    3    0    0  0.46508452650E-01 -0.71744880689E-01 -0.10041242011E+00  0.13335577150E+00  0.19767235674E-01 0.  0.
         14    1    1    2    0    0 -0.15826554315E-01  0.38867364534E-02  0.16918047972E-01  0.23490570213E-01  0.00000000000E+00 0.  1.
     999901    1    3    3    0    0 -0.30681898335E-01  0.67858144236E-01  0.83494372140E-01  0.88708365829E+00  0.88000000000E+00 0.  1.
        -11    1    4    4    0    0  0.31201991705E-01 -0.32453041213E-01 -0.59359920218E-01  0.74502519552E-01  0.51100000000E-03 0.  1.
         11    1    4    4    0    0  0.15306460945E-01 -0.39291839477E-01 -0.41052499894E-01  0.58853251946E-01  0.51100000000E-03 0. -1.
</event>
<event>
 8    1  0.1114333E+005  0.1043930E+01  0.7957747E-01            NaN
         13   -1    0    0    0    0  0.00000000000E+00  0.00000000000E+00  0.74505805969E-08  0.10566000000E+00  0.10566000000E+00 0. -1.
     999900   -1    0    0    0    0 -0.00000000000E+00 -0.00000000000E+00 -0.74505805969E-08  0.93827000000E+00  0.93827000000E+00 0.  1.
     999902    2    1    2    0    0  0.19599917266E-01 -0.89430249937E-02 -0.10122146719E-01  0.10201268005E+01  0.10198490559E+01 0.  0.
     999903    2    3    3    0    0  0.25143384251E-01 -0.11880473966E+00  0.45928629758E-01  0.13150876335E+00  0.20937045387E-01 0.  0.
         14    1    1    2    0    0 -0.19599917266E-01  0.89430249937E-02  0.10122146719E-01  0.23803199514E-01  0.00000000000E+00 0. -1.
     999901    1    3    3    0    0 -0.55434669845E-02  0.10986171467E+00 -0.56050776477E-01  0.88861803713E+00  0.88000000000E+00 0.  1.
        -11    1    4    4    0    0  0.24398119859E-01 -0.71753506665E-01  0.23296160542E-01  0.79289382570E-01  0.51100000000E-03 0.  1.
         11    1    4    4    0    0  0.74526439169E-03 -0.47051232996E-01  0.22632469216E-01  0.52219380782E-01  0.51100000000E-03 0. -1.
</event>
<event>
 8    1  0.1114333E+005  0.1043930E+01  0.7957747E-01            NaN
         13   -1    0    0    0    0  0.00000000000E+00  0.00000000000E+00  0.74505805969E-08  0.10566000000E+00  0.10566000000E+00 0. -1.
     999900   -1    0    0    0    0 -0.00000000000E+00 -0.00000000000E+00 -0.74505805969E-08  0.93827000000E+00  0.93827000000E+00 0.  1.
     999902    2    1    2    0    0  0.39477299853E-02  0.22784878521E-01 -0.12435792723E-02  0.10207722421E+01  0.10205095240E+01 0.  0.
     999903    2    3    3    0    0  0.27880514940E-01 -0.10956689423E+00  0.57877990716E-01  0.12859225467E+00  0.20096734262E-01 0.  0.
         14    1    1    2    0    0 -0.39477299853E-02 -0.22784878521E-01  0.12435792723E-02  0.23157757893E-01  0.00000000000E+00 0. -1.
     999901    1    3    3    0    0 -0.23932784954E-01  0.13235177275E+00 -0.59121569988E-01  0.89217998744E+00  0.88000000000E+00 0.  1.
        -11    1    4    4    0    0  0.18326724148E-01 -0.35959801523E-01  0.24398736337E-01  0.47164982767E-01  0.51100000000E-03 0. -1.
         11    1    4    4    0    0  0.95537907913E-02 -0.73607092704E-01  0.33479254379E-01  0.81427271903E-01  0.51100000000E-03 0.  1.
</event>
<event>
 8    1  0.1114333E+005  0.1043930E+01  0.7957747E-01            NaN
         13   -1    0    0    0    0  0.00000000000E+00  0.00000000000E+00  0.74505805969E-08  0.10566000000E+00  0.10566000000E+00 0. -1.
     999900   -1    0    0    0    0 -0.00000000000E+00 -0.00000000000E+00 -0.74505805969E-08  0.93827000000E+00  0.93827000000E+00 0.  1.
     999902    2    1    2    0    0 -0.15294964074E-01  0.20292461765E-01  0.19355262236E-02  0.10184453734E+01  0.10181264717E+01 0.  0.
     999903    2    3    3    0    0 -0.82743795458E-02 -0.37779062437E-01  0.12093842890E+00  0.12851094809E+00  0.19830211233E-01 0.  0.
         14    1    1    2    0    0  0.15294964074E-01 -0.20292461765E-01 -0.19355262236E-02  0.25484626586E-01  0.00000000000E+00 0.  1.
     999901    1    3    3    0    0 -0.70205845279E-02  0.58071524202E-01 -0.11900290268E+00  0.88993442532E+00  0.88000000000E+00 0.  1.
        -11    1    4    4    0    0 -0.11766389675E-01 -0.12317834904E-01  0.37239009299E-01  0.40953411547E-01  0.51100000000E-03 0.  1.
         11    1    4    4    0    0  0.34920101296E-02 -0.25461227533E-01  0.83699419605E-01  0.87557536543E-01  0.51100000000E-03 0. -1.
</event>
<event>
 8    1  0.1114333E+005  0.1043930E+01  0.7957747E-01            NaN
         13   -1    0    0    0    0  0.00000000000E+00  0.00000000000E+00  0.74505805969E-08  0.10566000000E+00  0.10566000000E+00 0. -1.
     999900   -1    0    0    0    0 -0.00000000000E+00 -0.00000000000E+00 -0.74505805969E-08  0.93827000000E+00  0.93827000000E+00 0.  1.
     999902    2    1    2    0    0  0.23163548792E-01 -0.43714174643E-02 -0.13925700720E-02  0.10203164756E+01  0.10200431912E+01 0.  0.
     999903    2    3    3    0    0  0.53352792527E-01  0.81991429309E-01  0.85348563550E-01  0.13133168608E+00  0.19862515372E-01 0.  0.
         14    1    1    2    0    0 -0.23163548792E-01  0.43714174643E-02  0.13925700720E-02  0.23613524402E-01  0.00000000000E+00 0.  1.
     999901    1    3    3    0    0 -0.30189243735E-01 -0.86362846774E-01 -0.86741133622E-01  0.88898478952E+00  0.88000000000E+00 0.  1.
        -11    1    4    4    0    0  0.30609670342E-01  0.34565917389E-01  0.49412892683E-01  0.67628763464E-01  0.51100000000E-03 0.  1.
         11    1    4    4    0    0  0.22743122185E-01  0.47425511920E-01  0.35935670867E-01  0.63702922612E-01  0.51100000000E-03 0. -1.
</event>
<event>
 8    1  0.1114333E+005  0.1043930E+01  0.7957747E-01            NaN
         13   -1    0    0    0    0  0.00000000000E+00  0.00000000000E+00  0.74505805969E-08  0.10566000000E+00  0.10566000000E+00 0. -1.
     999900   -1    0    0    0    0 -0.00000000000E+00 -0.00000000000E+00 -0.74505805969E-08  0.93827000000E+00  0.93827000000E+00 0. -1.
     999902    2    1    2    0    0 -0.16326931712E-01  0.16340806663E-01  0.85179938036E-02  0.10193099496E+01  0.10190125743E+01 0.  0.
     999903    2    3    3    0    0 -0.10004091079E+00  0.38929860352E-01 -0.72744508378E-01  0.13132239910E+00  0.20738639013E-01 0.  0.
         14    1    1    2    0    0  0.16326931712E-01 -0.16340806663E-01 -0.85179938036E-02  0.24620050365E-01  0.00000000000E+00 0.  1.
     999901    1    3    3    0    0  0.83713979078E-01 -0.22589053689E-01  0.81262502181E-01  0.88798755053E+00  0.88000000000E+00 0.  1.
        -11    1    4    4    0    0 -0.40779247701E-01  0.67331376500E-02 -0.21319987016E-01  0.46508979273E-01  0.51100000000E-03 0. -1.
         11    1    4    4    0    0 -0.59261663089E-01  0.32196722702E-01 -0.51424521361E-01  0.84813419829E-01  0.51100000000E-03 0.  1.
</event>
<event>
 8    1  0.1114333E+005  0.1043930E+01  0.7957747E-01            NaN
         13   -1    0    0    0    0  0.00000000000E+00  0.00000000000E+00  0.74505805969E-08  0.10566000000E+00  0.10566000000E+00 0. -1.
     999900   -1    0    0    0    0 -0.00000000000E+00 -0.00000000000E+00 -0.74505805969E-08  0.93827000000E+00  0.93827000000E+00 0. -1.
     999902    2    1    2    0    0 -0.22953243109E-01 -0.51432622409E-02  0.86055882770E-02  0.10188828312E+01  0.10185749177E+01 0.  0.
     999903    2    3    3    0    0 -0.34546108754E-01 -0.10914076351E+00 -0.58501230242E-01  0.13014597481E+00  0.20259341764E-01 0.  0.
         14    1    1    2    0    0  0.22953243109E-01  0.51432622409E-02 -0.86055882770E-02  0.25047168808E-01  0.00000000000E+00 0.  1.
     999901    1    3    3    0    0  0.11592865645E-01  0.10399750127E+00  0.67106818519E-01  0.88873685638E+00  0.88000000000E+00 0.  1.
        -11    1    4    4    0    0 -0.93782515200E-02 -0.50547841740E-01 -0.34936296992E-01  0.62159809158E-01  0.51100000000E-03 0. -1.
         11    1    4    4    0    0 -0.25167857234E-01 -0.58592921772E-01 -0.23564933250E-01  0.67986165649E-01  0.51100000000E-03 0.  1.
</event>
<event>
 8    1  0.1114333E+005  0.1043930E+01  0.7957747E-01            NaN
         13   -1    0    0    0    0  0.00000000000E+00  0.00000000000E+00  0.74505805969E-08  0.10566000000E+00  0.10566000000E+00 0.  1.
     999900   -1    0    0    0    0 -0.00000000000E+00 -0.00000000000E+00 -0.74505805969E-08  0.93827000000E+00  0.93827000000E+00 0. -1.
     999902    2    1    2    0    0  0.81693627547E-03 -0.23224841733E-01  0.12690523508E-02  0.10206561702E+01  0.10203907814E+01 0.  0.
     999903    2    3    3    0    0 -0.15874764584E-01 -0.13108616366E+00 -0.10900327368E-01  0.13382993502E+00  0.18869126074E-01 0.  0.
         14    1    1    2    0    0 -0.81693627547E-03  0.23224841733E-01 -0.12690523508E-02  0.23273829773E-01  0.00000000000E+00 0.  1.
     999901    1    3    3    0    0  0.16691700859E-01  0.10786132192E+00  0.12169379718E-01  0.88682623520E+00  0.88000000000E+00 0.  1.
        -11    1    4    4    0    0  0.23614140911E-02 -0.49729816357E-01 -0.36123245064E-03  0.49789783302E-01  0.51100000000E-03 0.  1.
         11    1    4    4    0    0 -0.18236178675E-01 -0.81356347299E-01 -0.10539094917E-01  0.84040151721E-01  0.51100000000E-03 0. -1.
</event>
<event>
 8    1  0.1114333E+005  0.1043930E+01  0.7957747E-01            NaN
         13   -1    0    0    0    0  0.00000000000E+00  0.00000000000E+00  0.74505805969E-08  0.10566000000E+00  0.10566000000E+00 0. -1.
     999900   -1    0    0    0    0 -0.00000000000E+00 -0.00000000000E+00 -0.74505805969E-08  0.93827000000E+00  0.93827000000E+00 0.  1.
     999902    2    1    2    0    0 -0.20946308074E-01  0.18773531896E-01  0.68386382033E-02  0.10149824562E+01  0.10145695767E+01 0.  0.
     999903    2    3    3    0    0 -0.10536091855E-01 -0.80684723061E-01  0.93177361128E-01  0.12512028023E+00  0.18762466006E-01 0.  0.
         14    1    1    2    0    0  0.20946308074E-01 -0.18773531896E-01 -0.68386382033E-02  0.28947543838E-01  0.00000000000E+00 0. -1.
     999901    1    3    3    0    0 -0.10410216219E-01  0.99458254957E-01 -0.86338722925E-01  0.88986217593E+00  0.88000000000E+00 0.  1.
        -11    1    4    4    0    0  0.80072866179E-04 -0.62007686614E-01  0.68560878322E-01  0.92443576133E-01  0.51100000000E-03 0.  1.
         11    1    4    4    0    0 -0.10616164721E-01 -0.18677036447E-01  0.24616482806E-01  0.32676704096E-01  0.51100000000E-03 0. -1.
</event>
<event>
 8    1  0.1114333E+005  0.1043930E+01  0.7957747E-01            NaN
         13   -1    0    0    0    0  0.00000000000E+00  0.00000000000E+00  0.74505805969E-08  0.10566000000E+00  0.10566000000E+00 0.  1.
     999900   -1    0    0    0    0 -0.00000000000E+00 -0.00000000000E+00 -0.74505805969E-08  0.93827000000E+00  0.93827000000E+00 0. -1.
     999902    2    1    2    0    0 -0.96190386116E-02  0.21912679532E-01 -0.93021645268E-03  0.10199809555E+01  0.10196997563E+01 0.  0.
     999903    2    3    3    0    0  0.87786541279E-01  0.79375318923E-01 -0.53135728106E-01  0.13120920904E+00  0.19634990504E-01 0.  0.
         14    1    1    2    0    0  0.96190386116E-02 -0.21912679532E-01  0.93021645268E-03  0.23949044464E-01  0.00000000000E+00 0. -1.
     999901    1    3    3    0    0 -0.97405579891E-01 -0.57462639390E-01  0.52205511653E-01  0.88877174649E+00  0.88000000000E+00 0.  1.
        -11    1    4    4    0    0  0.58531184283E-01  0.61407852702E-01 -0.30829704758E-01  0.90263811816E-01  0.51100000000E-03 0. -1.
         11    1    4    4    0    0  0.29255356996E-01  0.17967466221E-01 -0.22306023348E-01  0.40945397226E-01  0.51100000000E-03 0.  1.
</event>
<event>
 8    1  0.1114333E+005  0.1043930E+01  0.7957747E-01            NaN
         13   -1    0    0    0    0  0.00000000000E+00  0.00000000000E+00  0.74505805969E-08  0.10566000000E+00  0.10566000000E+00 0. -1.
     999900   -1    0    0    0    0 -0.00000000000E+00 -0.00000000000E+00 -0.74505805969E-08  0.93827000000E+00  0.93827000000E+00 0.  1.
     999902    2    1    2    0    0 -0.92146671824E-02  0.12519972367E-01  0.19119428249E-01  0.10192883212E+01  0.10189904167E+01 0.  0.
     999903    2    3    3    0    0  0.12094904200E-01 -0.56755984353E-01 -0.11134928272E+00  0.12672160626E+00  0.17093105727E-01 0.  0.
         14    1    1    2    0    0  0.92146671824E-02 -0.12519972367E-01 -0.19119428249E-01  0.24641678837E-01  0.00000000000E+00 0.  1.
     999901    1    3    3    0    0 -0.21309571382E-01  0.69275956720E-01  0.13046871097E+00  0.89256671490E+00  0.88000000000E+00 0. -1.
        -11    1    4    4    0    0  0.89996950788E-02 -0.23391625019E-01 -0.32486942109E-01  0.41034438721E-01  0.51100000000E-03 0.  1.
         11    1    4    4    0    0  0.30952091210E-02 -0.33364359334E-01 -0.78862340610E-01  0.85687167539E-01  0.51100000000E-03 0. -1.
</event>
<event>
 8    1  0.1114333E+005  0.1043930E+01  0.7957747E-01            NaN
         13   -1    0    0    0    0  0.00000000000E+00  0.00000000000E+00  0.74505805969E-08  0.10566000000E+00  0.10566000000E+00 0. -1.
     999900   -1    0    0    0    0 -0.00000000000E+00 -0.00000000000E+00 -0.74505805969E-08  0.93827000000E+00  0.93827000000E+00 0. -1.
     999902    2    1    2    0    0 -0.15697706434E-01  0.32434561784E-02 -0.17835520923E-01  0.10199499291E+01  0.10196679920E+01 0.  0.
     999903    2    3    3    0    0 -0.68830710862E-01 -0.10342225752E+00  0.34159536299E-01  0.13039713321E+00  0.20067593817E-01 0.  0.
         14    1    1    2    0    0  0.15697706434E-01 -0.32434561784E-02  0.17835520923E-01  0.23980070931E-01  0.00000000000E+00 0. -1.
     999901    1    3    3    0    0  0.53133004428E-01  0.10666571370E+00 -0.51995057222E-01  0.88955279586E+00  0.88000000000E+00 0. -1.
        -11    1    4    4    0    0 -0.26060213121E-01 -0.46771086087E-01  0.54302058393E-02  0.53818374726E-01  0.51100000000E-03 0. -1.
         11    1    4    4    0    0 -0.42770497741E-01 -0.56651171434E-01  0.28729330459E-01  0.76578758487E-01  0.51100000000E-03 0.  1.
</event>
<event>
 8    1  0.1114333E+005  0.1043930E+01  0.7957747E-01            NaN
         13   -1    0    0    0    0  0.00000000000E+00  0.00000000000E+00  0.74505805969E-08  0.10566000000E+00  0.10566000000E+00 0. -1.
     999900   -1    0    0    0    0 -0.00000000000E+00 -0.00000000000E+00 -0.74505805969E-08  0.93827000000E+00  0.93827000000E+00 0.  1.
     999902    2    1    2    0    0 -0.17154294905E-01 -0.12641109659E-01  0.86503465699E-02  0.10209322614E+01  0.10206732025E+01 0.  0.
     999903    2    3    3    0    0  0.44238659957E-01 -0.83028608598E-01  0.90588854532E-01  0.13220428610E+00  0.20513990759E-01 0.  0.
         14    1    1    2    0    0  0.17154294905E-01  0.12641109659E-01 -0.86503465699E-02  0.22997738647E-01  0.00000000000E+00 0.  1.
     999901    1    3    3    0    0 -0.61392954862E-01  0.70387498939E-01 -0.81938507962E-01  0.88872797525E+00  0.88000000000E+00 0. -1.
        -11    1    4    4    0    0  0.24938457151E-01 -0.45015016897E-01  0.35394780803E-01  0.62460627762E-01  0.51100000000E-03 0.  1.
         11    1    4    4    0    0  0.19300202805E-01 -0.38013591701E-01  0.55194073729E-01  0.69743658336E-01  0.51100000000E-03 0. -1.
</event>
<event>
 8    1  0.1114333E+005  0.1043930E+01  0.7957747E-01            NaN
         13   -1    0    0    0    0  0.00000000000E+00  0.00000000000E+00  0.74505805969E-08  0.10566000000E+00  0.10566000000E+00 0. -1.
     999900   -1    0    0    0    0 -0.00000000000E+00 -0.00000000000E+00 -0.74505805969E-08  0.93827000000E+00  0.93827000000E+00 0. -1.
     999902    2    1    2    0    0 -0.22521857358E-01  0.31002540979E-02  0.92115461079E-02  0.10194004624E+01  0.10191052961E+01 0.  0.
     999903    2    3    3    0    0  0.61153056348E-01 -0.19934740158E-01 -0.10810408988E+00  0.12738305190E+00  0.20071310276E-01 0.  0.
         14    1    1    2    0    0  0.22521857358E-01 -0.31002540979E-02 -0.92115461079E-02  0.24529537623E-01  0.00000000000E+00 0.  1.
     999901    1    3    3    0    0 -0.83674913706E-01  0.23034994256E-01  0.11731563599E+00  0.89201741048E+00  0.88000000000E+00 0. -1.
        -11    1    4    4    0    0  0.15854747801E-01 -0.63257095152E-02 -0.47683381914E-01  0.50649320434E-01  0.51100000000E-03 0.  1.
         11    1    4    4    0    0  0.45298308547E-01 -0.13609030643E-01 -0.60420707970E-01  0.76733731467E-01  0.51100000000E-03 0. -1.
</event>
<event>
 8    1  0.1114333E+005  0.1043930E+01  0.7957747E-01            NaN
         13   -1    0    0    0    0  0.00000000000E+00  0.00000000000E+00  0.74505805969E-08  0.10566000000E+00  0.10566000000E+00 0.  1.
     999900   -1    0    0    0    0 -0.00000000000E+00 -0.00000000000E+00 -0.74505805969E-08  0.93827000000E+00  0.93827000000E+00 0. -1.
     999902    2    1    2    0    0  0.12301122289E-01  0.19875897223E-01  0.86164422272E-02  0.10190179150E+01  0.10187133548E+01 0.  0.
     999903    2    3    3    0    0 -0.60787980329E-01 -0.10885256661E+00 -0.72624366701E-02  0.12651291612E+00  0.20216704694E-01 0.  0.
         14    1    1    2    0    0 -0.12301122289E-01 -0.19875897223E-01 -0.86164422272E-02  0.24912084952E-01  0.00000000000E+00 0. -1.
     999901    1    3    3    0    0  0.73089102618E-01  0.12872846383E+00  0.15878878897E-01  0.89250499893E+00  0.88000000000E+00 0. -1.
        -11    1    4    4    0    0 -0.20408145031E-01 -0.31349601490E-01 -0.11140505016E-01  0.39034111623E-01  0.51100000000E-03 0. -1.
         11    1    4    4    0    0 -0.40379835298E-01 -0.77502965117E-01  0.38780683462E-02  0.87478804494E-01  0.51100000000E-03 0.  1.
</event>
<event>
 8    1  0.1114333E+005  0.1043930E+01  0.7957747E-01            NaN
         13   -1    0    0    0    0  0.00000000000E+00  0.00000000000E+00  0.74505805969E-08  0.10566000000E+00  0.10566000000E+00 0.  1.
     999900   -1    0    0    0    0 -0.00000000000E+00 -0.00000000000E+00 -0.74505805969E-08  0.93827000000E+00  0.93827000000E+00 0. -1.
     999902    2    1    2    0    0 -0.89311303729E-03 -0.16851400808E-01  0.16633137007E-01  0.10202355153E+01  0.10199603316E+01 0.  0.
     999903    2    3    3    0    0  0.88964489246E-01  0.19473015027E-01  0.92943965049E-01  0.13163144463E+00  0.19858950512E-01 0.  0.
         14    1    1    2    0    0  0.89311303729E-03  0.16851400808E-01 -0.16633137007E-01  0.23694484733E-01  0.00000000000E+00 0. -1.
     999901    1    3    3    0    0 -0.89857602283E-01 -0.36324415835E-01 -0.76310828043E-01  0.88860407064E+00  0.88000000000E+00 0. -1.
        -11    1    4    4    0    0  0.71738950298E-01  0.15483483852E-01  0.62394774496E-01  0.96330598812E-01  0.51100000000E-03 0.  1.
         11    1    4    4    0    0  0.17225538947E-01  0.39895311750E-02  0.30549190554E-01  0.35300845819E-01  0.51100000000E-03 0. -1.
</event>
<event>
 8    1  0.1114333E+005  0.1043930E+01  0.7957747E-01            NaN
         13   -1    0    0    0    0  0.00000000000E+00  0.00000000000E+00  0.74505805969E-08  0.10566000000E+00  0.10566000000E+00 0.  1.
     999900   -1    0    0    0    0 -0.00000000000E+00 -0.00000000000E+00 -0.74505805969E-08  0.93827000000E+00  0.93827000000E+00 0. -1.
     999902    2    1    2    0    0  0.22929766628E-02 -0.10786359982E-01 -0.21388102780E-01  0.10198664540E+01  0.10195825272E+01 0.  0.
     999903    2    3    3    0    0  0.12169470814E+00 -0.44798887822E-01 -0.12999249806E-02  0.13092485842E+00  0.17974604581E-01 0.  0.
         14    1    1    2    0    0 -0.22929766628E-02  0.10786359982E-01  0.21388102780E-01  0.24063545960E-01  0.00000000000E+00 0.  1.
     999901    1    3    3    0    0 -0.11940173147E+00  0.34012527840E-01 -0.20088177799E-01  0.88894159562E+00  0.88000000000E+00 0. -1.
        -11    1    4    4    0    0  0.75222291301E-01 -0.19434681280E-01  0.34164958754E-02  0.77769103827E-01  0.51100000000E-03 0. -1.
         11    1    4    4    0    0  0.46472416836E-01 -0.25364206542E-01 -0.47164208560E-02  0.53155754597E-01  0.51100000000E-03 0.  1.
</event>
<event>
 8    1  0.1114333E+005  0.1043930E+01  0.7957747E-01            NaN
         13   -1    0    0    0    0  0.00000000000E+00  0.00000000000E+00  0.74505805969E-08  0.10566000000E+00  0.10566000000E+00 0.  1.
     999900   -1    0    0    0    0 -0.00000000000E+00 -0.00000000000E+00 -0.74505805969E-08  0.93827000000E+00  0.93827000000E+00 0.  1.
     999902    2    1    2    0    0  0.21420892302E-01  0.30060606954E-02 -0.37269527863E-02  0.10219804851E+01  0.10217447483E+01 0.  0.
     999903    2    3    3    0    0  0.58307804013E-01 -0.47839227154E-01  0.10759072309E+00  0.13274625694E+00  0.18905379452E-01 0.  0.
         14    1    1    2    0    0 -0.21420892302E-01 -0.30060606954E-02  0.37269527863E-02  0.21949514915E-01  0.00000000000E+00 0. -1.
     999901    1    3    3    0    0 -0.36886911711E-01  0.50845287849E-01 -0.11131767587E+00  0.88923422815E+00  0.88000000000E+00 0.  1.
        -11    1    4    4    0    0  0.47207450266E-01 -0.30850039162E-01  0.88093882521E-01  0.10459952933E+00  0.51100000000E-03 0. -1.
         11    1    4    4    0    0  0.11100353747E-01 -0.16989187992E-01  0.19496840567E-01  0.28146727607E-01  0.51100000000E-03 0.  1.
</event>
<event>
 8    1  0.1114333E+005  0.1043930E+01  0.7957747E-01            NaN
         13   -1    0    0    0    0  0.00000000000E+00  0.00000000000E+00  0.74505805969E-08  0.10566000000E+00  0.10566000000E+00 0. -1.
     999900   -1    0    0    0    0 -0.00000000000E+00 -0.00000000000E+00 -0.74505805969E-08  0.93827000000E+00  0.93827000000E+00 0.  1.
     999902    2    1    2    0    0  0.18964526935E-01  0.12581046440E-01 -0.55395929781E-02  0.10205072952E+01  0.10202384605E+01 0.  0.
     999903    2    3    3    0    0 -0.99205271355E-01 -0.51493238663E-01 -0.60505326515E-01  0.12860435925E+00  0.19620071043E-01 0.  0.
         14    1    1    2    0    0 -0.18964526935E-01 -0.12581046440E-01  0.55395929781E-02  0.23422704834E-01  0.00000000000E+00 0. -1.
     999901    1    3    3    0    0  0.11816979829E+00  0.64074285102E-01  0.54965733537E-01  0.89190293592E+00  0.88000000000E+00 0. -1.
        -11    1    4    4    0    0 -0.40236727604E-01 -0.11272078117E-01 -0.17786497987E-01  0.45416677829E-01  0.51100000000E-03 0. -1.
         11    1    4    4    0    0 -0.58968543751E-01 -0.40221160546E-01 -0.42718828527E-01  0.83187681417E-01  0.51100000000E-03 0.  1.
</event>
<event>
 8    1  0.1114333E+005  0.1043930E+01  0.7957747E-01            NaN
         13   -1    0    0    0    0  0.00000000000E+00  0.00000000000E+00  0.74505805969E-08  0.10566000000E+00  0.10566000000E+00 0.  1.
     999900   -1    0    0    0    0 -0.00000000000E+00 -0.00000000000E+00 -0.74505805969E-08  0.93827000000E+00  0.93827000000E+00 0. -1.
     999902    2    1    2    0    0  0.16997710198E-01 -0.12511722457E-01  0.10674809689E-01  0.10202780040E+01  0.10200038179E+01 0.  0.
     999903    2    3    3    0    0  0.12495862723E+00  0.96114217541E-02 -0.36752943614E-01  0.13213703275E+00  0.20059377165E-01 0.  0.
         14    1    1    2    0    0 -0.16997710198E-01  0.12511722457E-01 -0.10674809689E-01  0.23651995956E-01  0.00000000000E+00 0.  1.
     999901    1    3    3    0    0 -0.10796091703E+00 -0.22123144211E-01  0.47427753303E-01  0.88814097130E+00  0.88000000000E+00 0.  1.
        -11    1    4    4    0    0  0.71927547129E-01  0.35051904332E-02 -0.31139375137E-01  0.78458780267E-01  0.51100000000E-03 0.  1.
         11    1    4    4    0    0  0.53031080096E-01  0.61062313209E-02 -0.56135684764E-02  0.53678252479E-01  0.51100000000E-03 0. -1.
</event>
<event>
 8    1  0.1114333E+005  0.1043930E+01  0.7957747E-01            NaN
         13   -1    0    0    0    0  0.00000000000E+00  0.00000000000E+00  0.74505805969E-08  0.10566000000E+00  0.10566000000E+00 0. -1.
     999900   -1    0    0    0    0 -0.00000000000E+00 -0.00000000000E+00 -0.74505805969E-08  0.93827000000E+00  0.93827000000E+00 0. -1.
     999902    2    1    2    0    0  0.19493904245E-01  0.45415378761E-02  0.13914226155E-01  0.10195528886E+01  0.10192614234E+01 0.  0.
     999903    2    3    3    0    0 -0.30423384147E-01 -0.15859969114E-01 -0.12109045638E+00  0.12762563741E+00  0.21172713011E-01 0.  0.
         14    1    1    2    0    0 -0.19493904245E-01 -0.45415378761E-02 -0.13914226155E-01  0.24377111365E-01  0.00000000000E+00 0.  1.
     999901    1    3    3    0    0  0.49917288393E-01  0.20401506990E-01  0.13500468253E+00  0.89192725122E+00  0.88000000000E+00 0.  1.
        -11    1    4    4    0    0  0.20619674258E-02 -0.59683718163E-02 -0.20516820552E-01  0.21472638831E-01  0.51100000000E-03 0.  1.
         11    1    4    4    0    0 -0.32485351573E-01 -0.98915972976E-02 -0.10057363582E+00  0.10615299858E+00  0.51100000000E-03 0. -1.
</event>
<event>
 8    1  0.1114333E+005  0.1043930E+01  0.7957747E-01            NaN
         13   -1    0    0    0    0  0.00000000000E+00  0.00000000000E+00  0.74505805969E-08  0.10566000000E+00  0.10566000000E+00 0. -1.
     999900   -1    0    0    0    0 -0.00000000000E+00 -0.00000000000E+00 -0.74505805969E-08  0.93827000000E+00  0.93827000000E+00 0.  1.
     999902    2    1    2    0    0  0.16889067077E-01  0.16000081093E-01 -0.52550641936E-03  0.10206594319E+01  0.10203941183E+01 0.  0.
     999903    2    3    3    0    0 -0.32476916962E-01 -0.25531812055E-01 -0.12137092322E+00  0.13006103012E+00  0.21871145175E-01 0.  0.
         14    1    1    2    0    0 -0.16889067077E-01 -0.16000081093E-01  0.52550641936E-03  0.23270568079E-01  0.00000000000E+00 0.  1.
     999901    1    3    3    0    0  0.49365984040E-01  0.41531893147E-01  0.12084541680E+00  0.89059840180E+00  0.88000000000E+00 0. -1.
        -11    1    4    4    0    0 -0.23313428053E-01 -0.19173770356E-01 -0.11022622763E+00  0.11428574616E+00  0.51100000000E-03 0. -1.
         11    1    4    4    0    0 -0.91634889094E-02 -0.63580416990E-02 -0.11144695586E-01  0.15775283958E-01  0.51100000000E-03 0.  1.
</event>
<event>
 8    1  0.1114333E+005  0.1043930E+01  0.7957747E-01            NaN
         13   -1    0    0    0    0  0.00000000000E+00  0.00000000000E+00  0.74505805969E-08  0.10566000000E+00  0.10566000000E+00 0. -1.
     999900   -1    0    0    0    0 -0.00000000000E+00 -0.00000000000E+00 -0.74505805969E-08  0.93827000000E+00  0.93827000000E+00 0. -1.
     999902    2    1    2    0    0  0.18940042233E-01 -0.11126380648E-01 -0.92814660890E-02  0.10200832568E+01  0.10198044831E+01 0.  0.
     999903    2    3    3    0    0  0.66257497674E-01 -0.58005861512E-01 -0.97726705415E-01  0.13314515998E+00  0.20552097405E-01 0.  0.
         14    1    1    2    0    0 -0.18940042233E-01  0.11126380648E-01  0.92814660890E-02  0.23846743150E-01  0.00000000000E+00 0. -1.
     999901    1    3    3    0    0 -0.47317455441E-01  0.46879480863E-01  0.88445239326E-01  0.88693809687E+00  0.88000000000E+00 0.  1.
        -11    1    4    4    0    0  0.13264347804E-01 -0.19127981027E-01 -0.36656666877E-01  0.43425740389E-01  0.51100000000E-03 0. -1.
         11    1    4    4    0    0  0.52993149869E-01 -0.38877880484E-01 -0.61070038538E-01  0.89719419593E-01  0.51100000000E-03 0.  1.
</event>
<event>
 8    1  0.1214887E+005  0.1043930E+01  0.7957747E-01            NaN
         13   -1    0    0    0    0  0.00000000000E+00  0.00000000000E+00  0.74505805969E-08  0.10566000000E+00  0.10566000000E+00 0.  1.
     999900   -1    0    0    0    0 -0.00000000000E+00 -0.00000000000E+00 -0.74505805969E-08  0.93827000000E+00  0.93827000000E+00 0.  1.
     999902    2    1    2    0    0  0.21545871160E-01 -0.82516208901E-02 -0.25087063738E-02  0.10207220828E+01  0.10204582123E+01 0.  0.
     999903    2    3    3    0    0 -0.91125906237E-01 -0.49192323236E-01  0.71205148356E-01  0.12954039378E+00  0.31412179417E-01 0.  0.
         14    1    1    2    0    0 -0.21545871160E-01  0.82516208901E-02  0.25087063738E-02  0.23207917162E-01  0.00000000000E+00 0. -1.
     999901    1    3    3    0    0  0.11267177740E+00  0.40940702345E-01 -0.73713854730E-01  0.89118168906E+00  0.88000000000E+00 0.  1.
        -11    1    4    4    0    0 -0.65013455095E-01 -0.43905913516E-01  0.65703529938E-01  0.10233129312E+00  0.51100000000E-03 0. -1.
         11    1    4    4    0    0 -0.26112451142E-01 -0.52864097194E-02  0.55016184181E-02  0.27209100657E-01  0.51100000000E-03 0.  1.
</event>
<event>
 8    1  0.1114333E+005  0.1043930E+01  0.7957747E-01            NaN
         13   -1    0    0    0    0  0.00000000000E+00  0.00000000000E+00  0.74505805969E-08  0.10566000000E+00  0.10566000000E+00 0.  1.
     999900   -1    0    0    0    0 -0.00000000000E+00 -0.00000000000E+00 -0.74505805969E-08  0.93827000000E+00  0.93827000000E+00 0. -1.
     999902    2    1    2    0    0 -0.34455347118E-03 -0.18063587625E-01 -0.14210588735E-01  0.10209440750E+01  0.10206852853E+01 0.  0.
     999903    2    3    3    0    0 -0.11774729639E+00  0.48290541797E-01 -0.21473911313E-01  0.13064130046E+00  0.20239028753E-01 0.  0.
         14    1    1    2    0    0  0.34455347118E-03  0.18063587625E-01  0.14210588735E-01  0.22985924980E-01  0.00000000000E+00 0.  1.
     999901    1    3    3    0    0  0.11740274292E+00 -0.66354129422E-01  0.72633225780E-02  0.89030277456E+00  0.88000000000E+00 0.  1.
        -11    1    4    4    0    0 -0.75937852732E-01  0.41077947868E-01 -0.12016897906E-01  0.87170076488E-01  0.51100000000E-03 0. -1.
         11    1    4    4    0    0 -0.41809443656E-01  0.72125939293E-02 -0.94570134069E-02  0.43471223972E-01  0.51100000000E-03 0.  1.
</event>
<event>
 8    1  0.1114333E+005  0.1043930E+01  0.7957747E-01            NaN
         13   -1    0    0    0    0  0.00000000000E+00  0.00000000000E+00  0.74505805969E-08  0.10566000000E+00  0.10566000000E+00 0. -1.
     999900   -1    0    0    0    0 -0.00000000000E+00 -0.00000000000E+00 -0.74505805969E-08  0.93827000000E+00  0.93827000000E+00 0.  1.
     999902    2    1    2    0    0  0.19806827153E-01 -0.13017732788E-01 -0.24821572012E-02  0.10200986578E+01  0.10198202482E+01 0.  0.
     999903    2    3    3    0    0 -0.40958219749E-01 -0.10783463544E+00  0.58131231743E-01  0.13085368652E+00  0.20918001930E-01 0.  0.
         14    1    1    2    0    0 -0.19806827153E-01  0.13017732788E-01  0.24821572012E-02  0.23831342244E-01  0.00000000000E+00 0.  1.
     999901    1    3    3    0    0  0.60765046902E-01  0.94816902656E-01 -0.60613388944E-01  0.88924497124E+00  0.88000000000E+00 0.  1.
        -11    1    4    4    0    0 -0.22306474861E-01 -0.36300051209E-01  0.14489656476E-01  0.45005375283E-01  0.51100000000E-03 0. -1.
         11    1    4    4    0    0 -0.18651744888E-01 -0.71534584235E-01  0.43641575267E-01  0.85848311234E-01  0.51100000000E-03 0.  1.
</event>
<event>
 8    1  0.1114333E+005  0.1043930E+01  0.7957747E-01            NaN
         13   -1    0    0    0    0  0.00000000000E+00  0.00000000000E+00  0.74505805969E-08  0.10566000000E+00  0.10566000000E+00 0. -1.
     999900   -1    0    0    0    0 -0.00000000000E+00 -0.00000000000E+00 -0.74505805969E-08  0.93827000000E+00  0.93827000000E+00 0.  1.
     999902    2    1    2    0    0 -0.59309566554E-02  0.10161009929E-01  0.19935191716E-01  0.10207819064E+01  0.10205194100E+01 0.  0.
     999903    2    3    3    0    0  0.34499161539E-01  0.31107830255E-02  0.12708861792E+00  0.13333266450E+00  0.20644938841E-01 0.  0.
         14    1    1    2    0    0  0.59309566554E-02 -0.10161009929E-01 -0.19935191716E-01  0.23148093623E-01  0.00000000000E+00 0.  1.
     999901    1    3    3    0    0 -0.40430118194E-01  0.70502269035E-02 -0.10715342621E+00  0.88744924187E+00  0.88000000000E+00 0.  1.
        -11    1    4    4    0    0  0.28220506290E-01  0.66611908721E-02  0.11900130216E+00  0.12248403764E+00  0.51100000000E-03 0. -1.
         11    1    4    4    0    0  0.62786552489E-02 -0.35504078465E-02  0.80873157640E-02  0.10848626866E-01  0.51100000000E-03 0.  1.
</event>
<event>
 8    1  0.1114333E+005  0.1043930E+01  0.7957747E-01            NaN
         13   -1    0    0    0    0  0.00000000000E+00  0.00000000000E+00  0.74505805969E-08  0.10566000000E+00  0.10566000000E+00 0.  1.
     999900   -1    0    0    0    0 -0.00000000000E+00 -0.00000000000E+00 -0.74505805969E-08  0.93827000000E+00  0.93827000000E+00 0.  1.
     999902    2    1    2    0    0  0.23358146941E-02 -0.21376757370E-01 -0.95605379661E-02  0.10203964989E+01  0.10201250852E+01 0.  0.
     999903    2    3    3    0    0  0.79824506960E-01 -0.64537864008E-02  0.10069637621E+00  0.13001243596E+00  0.18704813582E-01 0.  0.
         14    1    1    2    0    0 -0.23358146941E-02  0.21376757370E-01  0.95605379661E-02  0.23533501060E-01  0.00000000000E+00 0. -1.
     999901    1    3    3    0    0 -0.77488692266E-01 -0.14922970970E-01 -0.11025691418E+00  0.89038406298E+00  0.88000000000E+00 0.  1.
        -11    1    4    4    0    0  0.11016009590E-01  0.50050347430E-02  0.10811561673E-01  0.16234340975E-01  0.51100000000E-03 0. -1.
         11    1    4    4    0    0  0.68808497369E-01 -0.11458821144E-01  0.89884814537E-01  0.11377809498E+00  0.51100000000E-03 0.  1.
</event>
<event>
 8    1  0.1114333E+005  0.1043930E+01  0.7957747E-01            NaN
         13   -1    0    0    0    0  0.00000000000E+00  0.00000000000E+00  0.74505805969E-08  0.10566000000E+00  0.10566000000E+00 0. -1.
     999900   -1    0    0    0    0 -0.00000000000E+00 -0.00000000000E+00 -0.74505805969E-08  0.93827000000E+00  0.93827000000E+00 0. -1.
     999902    2    1    2    0    0  0.10435256517E-01  0.11618444916E-01 -0.17321138549E-01  0.10206082359E+01  0.10203417400E+01 0.  0.
     999903    2    3    3    0    0 -0.92111214362E-01 -0.87660518836E-01 -0.10109675530E-01  0.12907915810E+00  0.19758065261E-01 0.  0.
         14    1    1    2    0    0 -0.10435256517E-01 -0.11618444916E-01  0.17321138549E-01  0.23321764116E-01  0.00000000000E+00 0. -1.
     999901    1    3    3    0    0  0.10254647088E+00  0.99278963753E-01 -0.72114630191E-02  0.89152907778E+00  0.88000000000E+00 0.  1.
        -11    1    4    4    0    0 -0.31522263795E-02 -0.16682096002E-02 -0.37312160149E-02  0.51867666583E-02  0.51100000000E-03 0. -1.
         11    1    4    4    0    0 -0.88958987982E-01 -0.85992309236E-01 -0.63784595150E-02  0.12389239144E+00  0.51100000000E-03 0.  1.
</event>
<event>
 8    1  0.1114333E+005  0.1043930E+01  0.7957747E-01            NaN
         13   -1    0    0    0    0  0.00000000000E+00  0.00000000000E+00  0.74505805969E-08  0.10566000000E+00  0.10566000000E+00 0.  1.
     999900   -1    0    0    0    0 -0.00000000000E+00 -0.00000000000E+00 -0.74505805969E-08  0.93827000000E+00  0.93827000000E+00 0.  1.
     999902    2    1    2    0    0  0.75917592692E-02 -0.12476702638E-01  0.15717685833E-01  0.10224742650E+01  0.10222491252E+01 0.  0.
     999903    2    3    3    0    0  0.12107491435E+00  0.50822509585E-01  0.55660028257E-02  0.13287420123E+00  0.19557878174E-01 0.  0.
         14    1    1    2    0    0 -0.75917592692E-02  0.12476702638E-01 -0.15717685833E-01  0.21455735025E-01  0.00000000000E+00 0. -1.
     999901    1    3    3    0    0 -0.11348315508E+00 -0.63299212224E-01  0.10151683007E-01  0.88960006375E+00  0.88000000000E+00 0. -1.
        -11    1    4    4    0    0  0.91523254694E-01  0.45330911808E-01  0.94074727395E-02  0.10256782819E+00  0.51100000000E-03 0. -1.
         11    1    4    4    0    0  0.29551659655E-01  0.54915977777E-02 -0.38414699139E-02  0.30306373036E-01  0.51100000000E-03 0.  1.
</event>
<event>
 8    1  0.1114333E+005  0.1043930E+01  0.7957747E-01            NaN
         13   -1    0    0    0    0  0.00000000000E+00  0.00000000000E+00  0.74505805969E-08  0.10566000000E+00  0.10566000000E+00 0.  1.
     999900   -1    0    0    0    0 -0.00000000000E+00 -0.00000000000E+00 -0.74505805969E-08  0.93827000000E+00  0.93827000000E+00 0. -1.
     999902    2    1    2    0    0  0.40300673019E-02 -0.23290216614E-01  0.73938284308E-02  0.10191642105E+01  0.10188632605E+01 0.  0.
     999903    2    3    3    0    0 -0.11686035025E+00  0.47643767163E-01  0.17840052828E-02  0.12805389562E+00  0.21641337722E-01 0.  0.
         14    1    1    2    0    0 -0.40300673019E-02  0.23290216614E-01 -0.73938284308E-02  0.24765789534E-01  0.00000000000E+00 0. -1.
     999901    1    3    3    0    0  0.12089041755E+00 -0.70933983777E-01  0.56098231480E-02  0.89111031485E+00  0.88000000000E+00 0.  1.
        -11    1    4    4    0    0 -0.27115101924E-01  0.40019006136E-02  0.64045101136E-02  0.28151782034E-01  0.51100000000E-03 0. -1.
         11    1    4    4    0    0 -0.89745248326E-01  0.43641866549E-01 -0.46205048308E-02  0.99902113586E-01  0.51100000000E-03 0.  1.
</event>
<event>
 8    1  0.1114333E+005  0.1043930E+01  0.7957747E-01            NaN
         13   -1    0    0    0    0  0.00000000000E+00  0.00000000000E+00  0.74505805969E-08  0.10566000000E+00  0.10566000000E+00 0.  1.
     999900   -1    0    0    0    0 -0.00000000000E+00 -0.00000000000E+00 -0.74505805969E-08  0.93827000000E+00  0.93827000000E+00 0.  1.
     999902    2    1    2    0    0 -0.12171824794E-01  0.18777182339E-01 -0.52861715008E-02  0.10209369683E+01  0.10206780167E+01 0.  0.
     999903    2    3    3    0    0 -0.33487815247E-01  0.20881623398E-01  0.12427286715E+00  0.13119299134E+00  0.14504464875E-01 0.  0.
         14    1    1    2    0    0  0.12171824794E-01 -0.18777182339E-01  0.52861715008E-02  0.22993031651E-01  0.00000000000E+00 0.  1.
     999901    1    3    3    0    0  0.21315990453E-01 -0.21044410593E-02 -0.12955903865E+00  0.88974397701E+00  0.88000000000E+00 0.  1.
        -11    1    4    4    0    0 -0.10319176363E-01 -0.54956624988E-03  0.35406466279E-01  0.36887211866E-01  0.51100000000E-03 0.  1.
         11    1    4    4    0    0 -0.23168638885E-01  0.21431189648E-01  0.88866400874E-01  0.94305779477E-01  0.51100000000E-03 0. -1.
</event>
<event>
 8    1  0.1114333E+005  0.1043930E+01  0.7957747E-01            NaN
         13   -1    0    0    0    0  0.00000000000E+00  0.00000000000E+00  0.74505805969E-08  0.10566000000E+00  0.10566000000E+00 0.  1.
     999900   -1    0    0    0    0 -0.00000000000E+00 -0.00000000000E+00 -0.74505805969E-08  0.93827000000E+00  0.93827000000E+00 0.  1.
     999902    2    1    2    0    0  0.28094919623E-02 -0.64341593597E-03  0.22996474428E-01  0.10207536097E+01  0.10204904638E+01 0.  0.
     999903    2    3    3    0    0 -0.11828602642E+00  0.39605297933E-01  0.36628374643E-01  0.13144493879E+00  0.19389957013E-01 0.  0.
         14    1    1    2    0    0 -0.28094919623E-02  0.64341593597E-03 -0.22996474428E-01  0.23176390255E-01  0.00000000000E+00 0. -1.
     999901    1    3    3    0    0  0.12109551838E+00 -0.40248713869E-01 -0.13631900215E-01  0.88930867096E+00  0.88000000000E+00 0. -1.
        -11    1    4    4    0    0 -0.43333682239E-01  0.17870562535E-01  0.23025980540E-01  0.52226639969E-01  0.51100000000E-03 0.  1.
         11    1    4    4    0    0 -0.74952344180E-01  0.21734735398E-01  0.13602394103E-01  0.79218298816E-01  0.51100000000E-03 0. -1.
</event>
<event>
 8    1  0.1114333E+005  0.1043930E+01  0.7957747E-01            NaN
         13   -1    0    0    0    0  0.00000000000E+00  0.00000000000E+00  0.74505805969E-08  0.10566000000E+00  0.10566000000E+00 0. -1.
     999900   -1    0    0    0    0 -0.00000000000E+00 -0.00000000000E+00 -0.74505805969E-08  0.93827000000E+00  0.93827000000E+00 0. -1.
     999902    2    1    2    0    0 -0.22511683579E-01 -0.79489067853E-02  0.82160329190E-03  0.10200420104E+01  0.10197622600E+01 0.  0.
     999903    2    3    3    0    0 -0.12960582547E+00 -0.60394508861E-02 -0.22530047643E-01  0.13323983353E+00  0.20275730071E-01 0.  0.
         14    1    1    2    0    0  0.22511683579E-01  0.79489067853E-02 -0.82160329190E-03  0.23887989631E-01  0.00000000000E+00 0.  1.
     999901    1    3    3    0    0  0.10709414189E+00 -0.19094558992E-02  0.23351650935E-01  0.88680217684E+00  0.88000000000E+00 0.  1.
        -11    1    4    4    0    0 -0.11495868175E+00 -0.43251752291E-02 -0.13234150469E-01  0.11579986835E+00  0.51100000000E-03 0.  1.
         11    1    4    4    0    0 -0.14647143713E-01 -0.17142756570E-02 -0.92958971748E-02  0.17439965174E-01  0.51100000000E-03 0. -1.
</event>
<event>
 8    1  0.1114333E+005  0.1043930E+01  0.7957747E-01            NaN
         13   -1    0    0    0    0  0.00000000000E+00  0.00000000000E+00  0.74505805969E-08  0.10566000000E+00  0.10566000000E+00 0.  1.
     999900   -1    0    0    0    0 -0.00000000000E+00 -0.00000000000E+00 -0.74505805969E-08  0.93827000000E+00  0.93827000000E+00 0. -1.
     999902    2    1    2    0    0 -0.18955234542E-01  0.38617104178E-02 -0.11989363589E-01  0.10211712970E+01  0.10209176555E+01 0.  0.
     999903    2    3    3    0    0  0.90614754841E-01 -0.55309197549E-01 -0.73082892297E-01  0.13030699857E+00  0.19200614641E-01 0.  0.
         14    1    1    2    0    0  0.18955234542E-01 -0.38617104178E-02  0.11989363589E-01  0.22758703020E-01  0.00000000000E+00 0.  1.
     999901    1    3    3    0    0 -0.10956998938E+00  0.59170907967E-01  0.61093528708E-01  0.89086429841E+00  0.88000000000E+00 0.  1.
        -11    1    4    4    0    0  0.68196729232E-01 -0.50682992180E-01 -0.56598424198E-01  0.10209408561E+00  0.51100000000E-03 0. -1.
         11    1    4    4    0    0  0.22418025609E-01 -0.46262053690E-02 -0.16484468099E-01  0.28212912963E-01  0.51100000000E-03 0.  1.
</event>
<event>
 8    1  0.1114333E+005  0.1043930E+01  0.7957747E-01            NaN
         13   -1    0    0    0    0  0.00000000000E+00  0.00000000000E+00  0.74505805969E-08  0.10566000000E+00  0.10566000000E+00 0. -1.
     999900   -1    0    0    0    0 -0.00000000000E+00 -0.00000000000E+00 -0.74505805969E-08  0.93827000000E+00  0.93827000000E+00 0.  1.
     999902    2    1    2    0    0 -0.11374395056E-01  0.87153317443E-02 -0.18542984103E-01  0.10204954928E+01  0.10202263840E+01 0.  0.
     999903    2    3    3    0    0  0.60826469328E-01  0.13875717810E-01 -0.11495849991E+00  0.13227505498E+00  0.19718989647E-01 0.  0.
         14    1    1    2    0    0  0.11374395056E-01 -0.87153317443E-02  0.18542984103E-01  0.23434507243E-01  0.00000000000E+00 0. -1.
     999901    1    3    3    0    0 -0.72200864384E-01 -0.51603860660E-02  0.96415515804E-01  0.88822043778E+00  0.88000000000E+00 0. -1.
        -11    1    4    4    0    0  0.23223310963E-01  0.14907238988E-01 -0.53930826183E-01  0.60583356461E-01  0.51100000000E-03 0.  1.
         11    1    4    4    0    0  0.37603158365E-01 -0.10315211773E-02 -0.61027673723E-01  0.71691698515E-01  0.51100000000E-03 0. -1.
</event>
<event>
 8    1  0.1114333E+005  0.1043930E+01  0.7957747E-01            NaN
         13   -1    0    0    0    0  0.00000000000E+00  0.00000000000E+00  0.74505805969E-08  0.10566000000E+00  0.10566000000E+00 0. -1.
     999900   -1    0    0    0    0 -0.00000000000E+00 -0.00000000000E+00 -0.74505805969E-08  0.93827000000E+00  0.93827000000E+00 0.  1.
     999902    2    1    2    0    0 -0.62076221803E-02 -0.18297560951E-01 -0.16828443617E-01  0.10183071230E+01  0.10179847076E+01 0.  0.
     999903    2    3    3    0    0 -0.12124097978E+00 -0.43030118346E-01 -0.96353496780E-02  0.13044670981E+00  0.19301240183E-01 0.  0.
         14    1    1    2    0    0  0.62076221803E-02  0.18297560951E-01  0.16828443617E-01  0.25622876974E-01  0.00000000000E+00 0. -1.
     999901    1    3    3    0    0  0.11503335760E+00  0.24732557395E-01 -0.71930939392E-02  0.88786041322E+00  0.88000000000E+00 0. -1.
        -11    1    4    4    0    0 -0.93328147622E-01 -0.38828891616E-01 -0.16139968955E-02  0.10109743849E+00  0.51100000000E-03 0.  1.
         11    1    4    4    0    0 -0.27912832162E-01 -0.42012267293E-02 -0.80213527824E-02  0.29349271316E-01  0.51100000000E-03 0. -1.
</event>
<event>
 8    1  0.1114333E+005  0.1043930E+01  0.7957747E-01            NaN
         13   -1    0    0    0    0  0.00000000000E+00  0.00000000000E+00  0.74505805969E-08  0.10566000000E+00  0.10566000000E+00 0. -1.
     999900   -1    0    0    0    0 -0.00000000000E+00 -0.00000000000E+00 -0.74505805969E-08  0.93827000000E+00  0.93827000000E+00 0.  1.
     999902    2    1    2    0    0 -0.23323261376E-01  0.30545359228E-02  0.16471170646E-02  0.10203499723E+01  0.10200774717E+01 0.  0.
     999903    2    3    3    0    0 -0.31083495139E-01 -0.43983667626E-01 -0.11784386403E+00  0.13099576370E+00  0.19286449409E-01 0.  0.
         14    1    1    2    0    0  0.23323261376E-01 -0.30545359228E-02 -0.16471170646E-02  0.23580027683E-01  0.00000000000E+00 0.  1.
     999901    1    3    3    0    0  0.77602337634E-02  0.47038203549E-01  0.11949098109E+00  0.88935420862E+00  0.88000000000E+00 0. -1.
        -11    1    4    4    0    0 -0.15043330389E-01 -0.35357889354E-01 -0.88082875917E-01  0.96100657020E-01  0.51100000000E-03 0.  1.
         11    1    4    4    0    0 -0.16040164750E-01 -0.86257782718E-02 -0.29760988110E-01  0.34895106681E-01  0.51100000000E-03 0. -1.
</event>
<event>
 8    1  0.1114333E+005  0.1043930E+01  0.7957747E-01            NaN
         13   -1    0    0    0    0  0.00000000000E+00  0.00000000000E+00  0.74505805969E-08  0.10566000000E+00  0.10566000000E+00 0.  1.
     999900   -1    0    0    0    0 -0.00000000000E+00 -0.00000000000E+00 -0.74505805969E-08  0.93827000000E+00  0.93827000000E+00 0. -1.
     999902    2    1    2    0    0  0.37076656214E-02 -0.22401597734E-01 -0.46693195889E-02  0.10207485222E+01  0.10204852595E+01 0.  0.
     999903    2    3    3    0    0  0.78661305272E-01 -0.34145858109E-01  0.97721522382E-01  0.13156920385E+00  0.20184620172E-01 0.  0.
         14    1    1    2    0    0 -0.37076656214E-02  0.22401597734E-01  0.46693195889E-02  0.23181477753E-01  0.00000000000E+00 0. -1.
     999901    1    3    3    0    0 -0.74953639651E-01  0.11744260375E-01 -0.10239084197E+00  0.88917931840E+00  0.88000000000E+00 0. -1.
        -11    1    4    4    0    0  0.34749185699E-01 -0.15274951481E-01  0.28593415960E-01  0.47525515323E-01  0.51100000000E-03 0. -1.
         11    1    4    4    0    0  0.43912119573E-01 -0.18870906628E-01  0.69128106422E-01  0.84043688525E-01  0.51100000000E-03 0.  1.
</event>
<event>
 7    1  0.1114333E+005  0.1043930E+01  0.7957747E-01            NaN
         13   -1    0    0    0    0  0.00000000000E+00  0.00000000000E+00  0.74505805969E-08  0.10566000000E+00  0.10566000000E+00 0. -1.
     999900   -1    0    0    0    0 -0.00000000000E+00 -0.00000000000E+00 -0.74505805969E-08  0.93827000000E+00  0.93827000000E+00 0.  1.
     999902    2    1    2    0    0 -0.21379395042E-01  0.69722696739E-02 -0.23348809570E-02  0.10213215338E+01  0.10210712671E+01 0.  0.
         14    1    1    2    0    0  0.21379395042E-01 -0.69722696739E-02  0.23348809570E-02  0.22608466242E-01  0.00000000000E+00 0.  1.
     999901    1    3    3    0    0 -0.33540038699E-01 -0.51804643463E-01 -0.11891815370E+00  0.89014054090E+00  0.88000000000E+00 0.  1.
        -11    1    3    3    0    0  0.36649320290E-02  0.12746092858E-01  0.28170632518E-01  0.31140652969E-01  0.51100000000E-03 0.  1.
         11    1    3    3    0    0  0.84957116280E-02  0.46030820279E-01  0.88412640226E-01  0.10004033988E+00  0.51100000000E-03 0. -1.
</event>
<event>
 8    1  0.1114333E+005  0.1043930E+01  0.7957747E-01            NaN
         13   -1    0    0    0    0  0.00000000000E+00  0.00000000000E+00  0.74505805969E-08  0.10566000000E+00  0.10566000000E+00 0.  1.
     999900   -1    0    0    0    0 -0.00000000000E+00 -0.00000000000E+00 -0.74505805969E-08  0.93827000000E+00  0.93827000000E+00 0. -1.
     999902    2    1    2    0    0 -0.54574733146E-02  0.37532428151E-03 -0.17029102042E-01  0.10260438266E+01  0.10258879173E+01 0.  0.
     999903    2    3    3    0    0  0.10055866357E+00  0.54882713896E-01 -0.71245833070E-01  0.13635290793E+00  0.19798728939E-01 0.  0.
         14    1    1    2    0    0  0.54574733146E-02 -0.37532428151E-03  0.17029102042E-01  0.17886173421E-01  0.00000000000E+00 0.  1.
     999901    1    3    3    0    0 -0.10601613688E+00 -0.54507389614E-01  0.54216731028E-01  0.88969091865E+00  0.88000000000E+00 0. -1.
        -11    1    4    4    0    0  0.50345975865E-01  0.38639664230E-01 -0.37792177819E-01  0.73866438677E-01  0.51100000000E-03 0. -1.
         11    1    4    4    0    0  0.50212687705E-01  0.16243049666E-01 -0.33453655251E-01  0.62486469253E-01  0.51100000000E-03 0.  1.
</event>
<event>
 8    1  0.1114333E+005  0.1043930E+01  0.7957747E-01            NaN
         13   -1    0    0    0    0  0.00000000000E+00  0.00000000000E+00  0.74505805969E-08  0.10566000000E+00  0.10566000000E+00 0.  1.
     999900   -1    0    0    0    0 -0.00000000000E+00 -0.00000000000E+00 -0.74505805969E-08  0.93827000000E+00  0.93827000000E+00 0.  1.
     999902    2    1    2    0    0 -0.95346164956E-02 -0.20928313356E-01  0.45070604893E-02  0.10204946249E+01  0.10202254960E+01 0.  0.
     999903    2    3    3    0    0  0.10961438657E+00 -0.17468303885E-01  0.65954162890E-01  0.13033497462E+00  0.17798837718E-01 0.  0.
         14    1    1    2    0    0  0.95346164956E-02  0.20928313356E-01 -0.45070604893E-02  0.23435375097E-01  0.00000000000E+00 0.  1.
     999901    1    3    3    0    0 -0.11914900306E+00 -0.34600094710E-02 -0.61447102401E-01  0.89015965028E+00  0.88000000000E+00 0.  1.
        -11    1    4    4    0    0  0.61342981504E-01 -0.11600370182E-02  0.38830518468E-01  0.72611137928E-01  0.51100000000E-03 0.  1.
         11    1    4    4    0    0  0.48271405063E-01 -0.16308266867E-01  0.27123644422E-01  0.57723836694E-01  0.51100000000E-03 0. -1.
</event>
<event>
 8    1  0.1114333E+005  0.1043930E+01  0.7957747E-01            NaN
         13   -1    0    0    0    0  0.00000000000E+00  0.00000000000E+00  0.74505805969E-08  0.10566000000E+00  0.10566000000E+00 0.  1.
     999900   -1    0    0    0    0 -0.00000000000E+00 -0.00000000000E+00 -0.74505805969E-08  0.93827000000E+00  0.93827000000E+00 0. -1.
     999902    2    1    2    0    0 -0.17083383409E-02  0.98433585123E-02 -0.21466649706E-01  0.10202524331E+01  0.10199776468E+01 0.  0.
     999903    2    3    3    0    0 -0.59469144629E-01  0.11315563571E+00  0.22081539798E-01  0.13126076708E+00  0.20025421869E-01 0.  0.
         14    1    1    2    0    0  0.17083383409E-02 -0.98433585123E-02  0.21466649706E-01  0.23677566942E-01  0.00000000000E+00 0. -1.
     999901    1    3    3    0    0  0.57760806288E-01 -0.10331227719E+00 -0.43548189503E-01  0.88899166597E+00  0.88000000000E+00 0. -1.
        -11    1    4    4    0    0 -0.19087351047E-01  0.56665420560E-01  0.70388309602E-02  0.60208829249E-01  0.51100000000E-03 0. -1.
         11    1    4    4    0    0 -0.40381793582E-01  0.56490215146E-01  0.15042708837E-01  0.71051937836E-01  0.51100000000E-03 0.  1.
</event>
<event>
 8    1  0.1114333E+005  0.1043930E+01  0.7957747E-01            NaN
         13   -1    0    0    0    0  0.00000000000E+00  0.00000000000E+00  0.74505805969E-08  0.10566000000E+00  0.10566000000E+00 0. -1.
     999900   -1    0    0    0    0 -0.00000000000E+00 -0.00000000000E+00 -0.74505805969E-08  0.93827000000E+00  0.93827000000E+00 0. -1.
     999902    2    1    2    0    0 -0.14833690126E-01 -0.21304316252E-02  0.14260691572E-01  0.10232431823E+01  0.10230340492E+01 0.  0.
     999903    2    3    3    0    0 -0.12505715056E-01  0.24424760657E-01  0.13083930100E+00  0.13515469017E+00  0.19872235591E-01 0.  0.
         14    1    1    2    0    0  0.14833690126E-01  0.21304316252E-02 -0.14260691572E-01  0.20686817681E-01  0.00000000000E+00 0. -1.
     999901    1    3    3    0    0 -0.23279750704E-02 -0.26555192282E-01 -0.11657860943E+00  0.88808849215E+00  0.88000000000E+00 0. -1.
        -11    1    4    4    0    0 -0.92724138255E-02  0.27501227281E-01  0.10550221786E+00  0.10942245772E+00  0.51100000000E-03 0. -1.
         11    1    4    4    0    0 -0.32333012301E-02 -0.30764666239E-02  0.25337083140E-01  0.25732232448E-01  0.51100000000E-03 0.  1.
</event>
<event>
 8    1  0.1114333E+005  0.1043930E+01  0.7957747E-01            NaN
         13   -1    0    0    0    0  0.00000000000E+00  0.00000000000E+00  0.74505805969E-08  0.10566000000E+00  0.10566000000E+00 0.  1.
     999900   -1    0    0    0    0 -0.00000000000E+00 -0.00000000000E+00 -0.74505805969E-08  0.93827000000E+00  0.93827000000E+00 0. -1.
     999902    2    1    2    0    0 -0.15822602708E-01  0.51878951692E-02  0.17336240267E-01  0.10198922331E+01  0.10196089215E+01 0.  0.
     999903    2    3    3    0    0  0.91693764428E-01 -0.66994081301E-01  0.58786424161E-01  0.12944957647E+00  0.20134443596E-01 0.  0.
         14    1    1    2    0    0  0.15822602708E-01 -0.51878951692E-02 -0.17336240267E-01  0.24037766938E-01  0.00000000000E+00 0. -1.
     999901    1    3    3    0    0 -0.10751636714E+00  0.72181976470E-01 -0.41450183894E-01  0.89044265659E+00  0.88000000000E+00 0. -1.
        -11    1    4    4    0    0  0.55915495214E-01 -0.32116350450E-01  0.40976521217E-01  0.76402480217E-01  0.51100000000E-03 0.  1.
         11    1    4    4    0    0  0.35778269215E-01 -0.34877730851E-01  0.17809902944E-01  0.53047096256E-01  0.51100000000E-03 0. -1.
</event>
<event>
 8    1  0.1114333E+005  0.1043930E+01  0.7957747E-01            NaN
         13   -1    0    0    0    0  0.00000000000E+00  0.00000000000E+00  0.74505805969E-08  0.10566000000E+00  0.10566000000E+00 0. -1.
     999900   -1    0    0    0    0 -0.00000000000E+00 -0.00000000000E+00 -0.74505805969E-08  0.93827000000E+00  0.93827000000E+00 0. -1.
     999902    2    1    2    0    0 -0.12748822285E-01  0.16562040988E-01  0.10806607720E-01  0.10204009447E+01  0.10201296347E+01 0.  0.
     999903    2    3    3    0    0 -0.91136838580E-01 -0.34186310624E-01 -0.84560008313E-01  0.13033641463E+00  0.19040976671E-01 0.  0.
         14    1    1    2    0    0  0.12748822285E-01 -0.16562040988E-01 -0.10806607720E-01  0.23529055267E-01  0.00000000000E+00 0. -1.
     999901    1    3    3    0    0  0.78388016295E-01  0.50748351613E-01  0.95366616034E-01  0.89006453010E+00  0.88000000000E+00 0.  1.
        -11    1    4    4    0    0 -0.24282937150E-01 -0.65101572402E-03 -0.23166666604E-01  0.33571422678E-01  0.51100000000E-03 0. -1.
         11    1    4    4    0    0 -0.66853901431E-01 -0.33535294900E-01 -0.61393341709E-01  0.96764991954E-01  0.51100000000E-03 0.  1.
</event>
