<event>
 8    1  0.1112171E+005  0.1043930E+01  0.7957747E-01            NaN
         13   -1    0    0    0    0  0.00000000000E+00  0.00000000000E+00  0.74505805969E-08  0.10566000000E+00  0.10566000000E+00 0.  1.
     999900   -1    0    0    0    0 -0.00000000000E+00 -0.00000000000E+00 -0.74505805969E-08  0.93827000000E+00  0.93827000000E+00 0.  1.
     999902    2    1    2    0    0  0.10773621754E-01  0.19166744863E-01 -0.42900083467E-02  0.10215282321E+01  0.10212825710E+01 0.  0.
     999903    2    3    3    0    0 -0.23223894976E-01  0.10966943485E+00  0.69258037945E-01  0.13318377009E+00  0.19352171909E-01 0.  0.
         14    1    1    2    0    0 -0.10773621754E-01 -0.19166744863E-01  0.42900083467E-02  0.22401767920E-01  0.00000000000E+00 0. -1.
     999901    1    3    3    0    0  0.33997516729E-01 -0.90502689983E-01 -0.73548046291E-01  0.88834446199E+00  0.88000000000E+00 0.  1.
        -11    1    4    4    0    0 -0.16940375431E-01  0.72872035704E-01  0.35340188855E-01  0.82743579670E-01  0.51100000000E-03 0.  1.
         11    1    4    4    0    0 -0.62835195449E-02  0.36797399143E-01  0.33917849089E-01  0.50440190418E-01  0.51100000000E-03 0. -1.
</event>
<event>
 8    1  0.1112171E+005  0.1043930E+01  0.7957747E-01            NaN
         13   -1    0    0    0    0  0.00000000000E+00  0.00000000000E+00  0.74505805969E-08  0.10566000000E+00  0.10566000000E+00 0. -1.
     999900   -1    0    0    0    0 -0.00000000000E+00 -0.00000000000E+00 -0.74505805969E-08  0.93827000000E+00  0.93827000000E+00 0.  1.
     999902    2    1    2    0    0 -0.16892227215E-01  0.66656930531E-02  0.15203323537E-01  0.10202462534E+01  0.10199713221E+01 0.  0.
     999903    2    3    3    0    0 -0.48434735161E-01 -0.71580525323E-01 -0.94310898300E-01  0.12945404127E+00  0.19852155717E-01 0.  0.
         14    1    1    2    0    0  0.16892227215E-01 -0.66656930531E-02 -0.15203323537E-01  0.23683746552E-01  0.00000000000E+00 0.  1.
     999901    1    3    3    0    0  0.31542507945E-01  0.78246218377E-01  0.10951422184E+00  0.89079221218E+00  0.88000000000E+00 0. -1.
        -11    1    4    4    0    0 -0.35076992773E-01 -0.64801290885E-01 -0.78026732949E-01  0.10732210815E+00  0.51100000000E-03 0.  1.
         11    1    4    4    0    0 -0.13357742388E-01 -0.67792344380E-02 -0.16284165351E-01  0.22131933115E-01  0.51100000000E-03 0. -1.
</event>
<event>
 8    1  0.1112171E+005  0.1043930E+01  0.7957747E-01            NaN
         13   -1    0    0    0    0  0.00000000000E+00  0.00000000000E+00  0.74505805969E-08  0.10566000000E+00  0.10566000000E+00 0.  1.
     999900   -1    0    0    0    0 -0.00000000000E+00 -0.00000000000E+00 -0.74505805969E-08  0.93827000000E+00  0.93827000000E+00 0. -1.
     999902    2    1    2    0    0  0.27418747628E-02 -0.21480213023E-01  0.10154154172E-01  0.10200129710E+01  0.10197325320E+01 0.  0.
     999903    2    3    3    0    0 -0.75843486090E-01  0.91107631658E-01  0.45599767634E-01  0.12866114753E+00  0.20530882752E-01 0.  0.
         14    1    1    2    0    0 -0.27418747628E-02  0.21480213023E-01 -0.10154154172E-01  0.23917028989E-01  0.00000000000E+00 0. -1.
     999901    1    3    3    0    0  0.78585360853E-01 -0.11258784468E+00 -0.35445613462E-01  0.89135182348E+00  0.88000000000E+00 0. -1.
        -11    1    4    4    0    0 -0.33974503027E-01  0.56585641922E-01  0.23421190347E-01  0.70035812310E-01  0.51100000000E-03 0.  1.
         11    1    4    4    0    0 -0.41868983063E-01  0.34521989736E-01  0.22178577287E-01  0.58625335219E-01  0.51100000000E-03 0. -1.
</event>
<event>
 8    1  0.1112171E+005  0.1043930E+01  0.7957747E-01            NaN
         13   -1    0    0    0    0  0.00000000000E+00  0.00000000000E+00  0.74505805969E-08  0.10566000000E+00  0.10566000000E+00 0. -1.
     999900   -1    0    0    0    0 -0.00000000000E+00 -0.00000000000E+00 -0.74505805969E-08  0.93827000000E+00  0.93827000000E+00 0.  1.
     999902    2    1    2    0    0  0.63256198670E-02  0.12334142560E-01 -0.18386368220E-01  0.10209038610E+01  0.10206441546E+01 0.  0.
     999903    2    3    3    0    0 -0.60891865542E-01  0.36455901133E-01  0.10464669406E+00  0.12947961636E+00  0.27878099953E-01 0.  0.
         14    1    1    2    0    0 -0.63256198670E-02 -0.12334142560E-01  0.18386368220E-01  0.23026138966E-01  0.00000000000E+00 0. -1.
     999901    1    3    3    0    0  0.67217485409E-01 -0.24121758573E-01 -0.12303306228E+00  0.89142424468E+00  0.88000000000E+00 0.  1.
        -11    1    4    4    0    0 -0.40106945211E-01  0.32449917278E-01  0.54505647473E-01  0.75051255239E-01  0.51100000000E-03 0.  1.
         11    1    4    4    0    0 -0.20784920332E-01  0.40059838545E-02  0.50141046591E-01  0.54428361119E-01  0.51100000000E-03 0. -1.
</event>
<event>
 8    1  0.1112171E+005  0.1043930E+01  0.7957747E-01            NaN
         13   -1    0    0    0    0  0.00000000000E+00  0.00000000000E+00  0.74505805969E-08  0.10566000000E+00  0.10566000000E+00 0.  1.
     999900   -1    0    0    0    0 -0.00000000000E+00 -0.00000000000E+00 -0.74505805969E-08  0.93827000000E+00  0.93827000000E+00 0. -1.
     999902    2    1    2    0    0  0.16100233603E-01 -0.89248878642E-02 -0.13555428369E-01  0.10210690992E+01  0.10208131487E+01 0.  0.
     999903    2    3    3    0    0  0.99636623823E-01 -0.60881524807E-01  0.59568320769E-01  0.13257323357E+00  0.19830798045E-01 0.  0.
         14    1    1    2    0    0 -0.16100233603E-01  0.89248878642E-02  0.13555428369E-01  0.22860900763E-01  0.00000000000E+00 0.  1.
     999901    1    3    3    0    0 -0.83536390220E-01  0.51956636943E-01 -0.73123749137E-01  0.88849586566E+00  0.88000000000E+00 0.  1.
        -11    1    4    4    0    0  0.32447495404E-01 -0.30228371166E-01  0.26418236599E-01  0.51621494819E-01  0.51100000000E-03 0.  1.
         11    1    4    4    0    0  0.67189128419E-01 -0.30653153642E-01  0.33150084170E-01  0.80951738754E-01  0.51100000000E-03 0. -1.
</event>
<event>
 8    1  0.1112171E+005  0.1043930E+01  0.7957747E-01            NaN
         13   -1    0    0    0    0  0.00000000000E+00  0.00000000000E+00  0.74505805969E-08  0.10566000000E+00  0.10566000000E+00 0. -1.
     999900   -1    0    0    0    0 -0.00000000000E+00 -0.00000000000E+00 -0.74505805969E-08  0.93827000000E+00  0.93827000000E+00 0. -1.
     999902    2    1    2    0    0  0.77866105500E-02 -0.17250310478E-01  0.12186669561E-01  0.10214195706E+01  0.10211714938E+01 0.  0.
     999903    2    3    3    0    0 -0.73966375586E-01 -0.98946383082E-01 -0.42564992658E-01  0.13217520403E+00  0.19927230542E-01 0.  0.
         14    1    1    2    0    0 -0.77866105500E-02  0.17250310478E-01 -0.12186669561E-01  0.22510429370E-01  0.00000000000E+00 0.  1.
     999901    1    3    3    0    0  0.81752986136E-01  0.81696072604E-01  0.54751662219E-01  0.88924436660E+00  0.88000000000E+00 0.  1.
        -11    1    4    4    0    0 -0.43003237980E-01 -0.41138349892E-01 -0.21919766283E-01  0.63422232564E-01  0.51100000000E-03 0.  1.
         11    1    4    4    0    0 -0.30963137606E-01 -0.57808033190E-01 -0.20645226375E-01  0.68752971462E-01  0.51100000000E-03 0. -1.
</event>
<event>
 8    1  0.1112171E+005  0.1043930E+01  0.7957747E-01            NaN
         13   -1    0    0    0    0  0.00000000000E+00  0.00000000000E+00  0.74505805969E-08  0.10566000000E+00  0.10566000000E+00 0.  1.
     999900   -1    0    0    0    0 -0.00000000000E+00 -0.00000000000E+00 -0.74505805969E-08  0.93827000000E+00  0.93827000000E+00 0. -1.
     999902    2    1    2    0    0 -0.13857261049E-01 -0.96337975804E-02  0.16950819951E-01  0.10200100494E+01  0.10197295410E+01 0.  0.
     999903    2    3    3    0    0 -0.58183828137E-01  0.10255942323E+00 -0.49428900833E-01  0.12930334645E+00  0.19296269486E-01 0.  0.
         14    1    1    2    0    0  0.13857261049E-01  0.96337975804E-02 -0.16950819951E-01  0.23919950598E-01  0.00000000000E+00 0. -1.
     999901    1    3    3    0    0  0.44326567089E-01 -0.11219322081E+00  0.66379720784E-01  0.89070670295E+00  0.88000000000E+00 0.  1.
        -11    1    4    4    0    0 -0.45009481331E-01  0.61620564479E-01 -0.34838937698E-01  0.83886590569E-01  0.51100000000E-03 0. -1.
         11    1    4    4    0    0 -0.13174346807E-01  0.40938858753E-01 -0.14589963135E-01  0.45416755884E-01  0.51100000000E-03 0.  1.
</event>
<event>
 8    1  0.1112171E+005  0.1043930E+01  0.7957747E-01            NaN
         13   -1    0    0    0    0  0.00000000000E+00  0.00000000000E+00  0.74505805969E-08  0.10566000000E+00  0.10566000000E+00 0.  1.
     999900   -1    0    0    0    0 -0.00000000000E+00 -0.00000000000E+00 -0.74505805969E-08  0.93827000000E+00  0.93827000000E+00 0. -1.
     999902    2    1    2    0    0  0.71994260428E-02 -0.10532604077E-01  0.20632826181E-01  0.10196713727E+01  0.10193827678E+01 0.  0.
     999903    2    3    3    0    0  0.11191988258E+00 -0.19121733330E-01 -0.59493643067E-01  0.12980599058E+00  0.20454848366E-01 0.  0.
         14    1    1    2    0    0 -0.71994260428E-02  0.10532604077E-01 -0.20632826181E-01  0.24258627335E-01  0.00000000000E+00 0.  1.
     999901    1    3    3    0    0 -0.10472045654E+00  0.85891292527E-02  0.80126469248E-01  0.88986538209E+00  0.88000000000E+00 0.  1.
        -11    1    4    4    0    0  0.45444290474E-01 -0.36038791478E-02 -0.13698380769E-01  0.47603342722E-01  0.51100000000E-03 0.  1.
         11    1    4    4    0    0  0.66475592110E-01 -0.15517854182E-01 -0.45795262298E-01  0.82202647858E-01  0.51100000000E-03 0. -1.
</event>
<event>
 8    1  0.1112171E+005  0.1043930E+01  0.7957747E-01            NaN
         13   -1    0    0    0    0  0.00000000000E+00  0.00000000000E+00  0.74505805969E-08  0.10566000000E+00  0.10566000000E+00 0.  1.
     999900   -1    0    0    0    0 -0.00000000000E+00 -0.00000000000E+00 -0.74505805969E-08  0.93827000000E+00  0.93827000000E+00 0. -1.
     999902    2    1    2    0    0  0.16550055327E-02 -0.12208896362E-01 -0.21653356164E-01  0.10190168704E+01  0.10187122843E+01 0.  0.
     999903    2    3    3    0    0  0.32966220280E-01  0.49199671141E-01  0.11002242207E+00  0.12655403368E+00  0.20090066317E-01 0.  0.
         14    1    1    2    0    0 -0.16550055327E-02  0.12208896362E-01  0.21653356164E-01  0.24913129608E-01  0.00000000000E+00 0.  1.
     999901    1    3    3    0    0 -0.31311214747E-01 -0.61408567503E-01 -0.13167577823E+00  0.89246283671E+00  0.88000000000E+00 0. -1.
        -11    1    4    4    0    0  0.16652879605E-01  0.10426516696E-01  0.26044322845E-01  0.32628186021E-01  0.51100000000E-03 0. -1.
         11    1    4    4    0    0  0.16313340675E-01  0.38773154445E-01  0.83978099220E-01  0.93925847663E-01  0.51100000000E-03 0.  1.
</event>
<event>
 8    1  0.1112171E+005  0.1043930E+01  0.7957747E-01            NaN
         13   -1    0    0    0    0  0.00000000000E+00  0.00000000000E+00  0.74505805969E-08  0.10566000000E+00  0.10566000000E+00 0. -1.
     999900   -1    0    0    0    0 -0.00000000000E+00 -0.00000000000E+00 -0.74505805969E-08  0.93827000000E+00  0.93827000000E+00 0. -1.
     999902    2    1    2    0    0  0.69878697302E-02 -0.11582388590E-01 -0.17704049176E-01  0.10216496184E+01  0.10214066415E+01 0.  0.
     999903    2    3    3    0    0 -0.60882493348E-02 -0.13141651466E+00 -0.41258816821E-02  0.13332784710E+00  0.21258523154E-01 0.  0.
         14    1    1    2    0    0 -0.69878697302E-02  0.11582388590E-01  0.17704049176E-01  0.22280381640E-01  0.00000000000E+00 0. -1.
     999901    1    3    3    0    0  0.13076119065E-01  0.11983412607E+00 -0.13578167494E-01  0.88832177126E+00  0.88000000000E+00 0.  1.
        -11    1    4    4    0    0  0.74693958872E-02 -0.31443824585E-01  0.59541517805E-03  0.32328340812E-01  0.51100000000E-03 0.  1.
         11    1    4    4    0    0 -0.13557645222E-01 -0.99972690078E-01 -0.47212968601E-02  0.10099950629E+00  0.51100000000E-03 0. -1.
</event>
<event>
 8    1  0.1112171E+005  0.1043930E+01  0.7957747E-01            NaN
         13   -1    0    0    0    0  0.00000000000E+00  0.00000000000E+00  0.74505805969E-08  0.10566000000E+00  0.10566000000E+00 0. -1.
     999900   -1    0    0    0    0 -0.00000000000E+00 -0.00000000000E+00 -0.74505805969E-08  0.93827000000E+00  0.93827000000E+00 0.  1.
     999902    2    1    2    0    0  0.69456044582E-02 -0.17794953181E-01  0.45214559187E-02  0.10242997849E+01  0.10241116658E+01 0.  0.
     999903    2    3    3    0    0  0.68568630654E-01  0.22234839761E-01  0.11194471764E+00  0.13472711289E+00  0.20584701386E-01 0.  0.
         14    1    1    2    0    0 -0.69456044582E-02  0.17794953181E-01 -0.45214559187E-02  0.19630215069E-01  0.00000000000E+00 0.  1.
     999901    1    3    3    0    0 -0.61623026196E-01 -0.40029792943E-01 -0.10742326172E+00  0.88957267204E+00  0.88000000000E+00 0.  1.
        -11    1    4    4    0    0  0.25381608719E-01  0.13379096075E-01  0.60598021942E-01  0.67049292742E-01  0.51100000000E-03 0.  1.
         11    1    4    4    0    0  0.43187021935E-01  0.88557436868E-02  0.51346695700E-01  0.67677820150E-01  0.51100000000E-03 0. -1.
</event>
<event>
 8    1  0.1112171E+005  0.1043930E+01  0.7957747E-01            NaN
         13   -1    0    0    0    0  0.00000000000E+00  0.00000000000E+00  0.74505805969E-08  0.10566000000E+00  0.10566000000E+00 0. -1.
     999900   -1    0    0    0    0 -0.00000000000E+00 -0.00000000000E+00 -0.74505805969E-08  0.93827000000E+00  0.93827000000E+00 0. -1.
     999902    2    1    2    0    0  0.17051681692E-01  0.13999868172E-01 -0.73377234864E-02  0.10206792292E+01  0.10204143720E+01 0.  0.
     999903    2    3    3    0    0  0.40651510829E-01 -0.15193897355E-01  0.12127028114E+00  0.13053921395E+00  0.21227469003E-01 0.  0.
         14    1    1    2    0    0 -0.17051681692E-01 -0.13999868172E-01  0.73377234864E-02  0.23250770811E-01  0.00000000000E+00 0.  1.
     999901    1    3    3    0    0 -0.23599829137E-01  0.29193765527E-01 -0.12860800463E+00  0.89014001524E+00  0.88000000000E+00 0. -1.
        -11    1    4    4    0    0  0.12659920745E-01  0.51416824971E-02  0.36638359528E-01  0.39106789718E-01  0.51100000000E-03 0.  1.
         11    1    4    4    0    0  0.27991590084E-01 -0.20335579852E-01  0.84631921613E-01  0.91432424228E-01  0.51100000000E-03 0. -1.
</event>
<event>
 8    1  0.1112171E+005  0.1043930E+01  0.7957747E-01            NaN
         13   -1    0    0    0    0  0.00000000000E+00  0.00000000000E+00  0.74505805969E-08  0.10566000000E+00  0.10566000000E+00 0.  1.
     999900   -1    0    0    0    0 -0.00000000000E+00 -0.00000000000E+00 -0.74505805969E-08  0.93827000000E+00  0.93827000000E+00 0. -1.
     999902    2    1    2    0    0  0.42681067722E-02  0.24644165535E-01  0.91905360488E-02  0.10172838449E+01  0.10169348079E+01 0.  0.
     999903    2    3    3    0    0 -0.19984181713E-01  0.11603328122E+00 -0.51748973961E-01  0.13012333637E+00  0.19774642665E-01 0.  0.
         14    1    1    2    0    0 -0.42681067722E-02 -0.24644165535E-01 -0.91905360488E-02  0.26646155129E-01  0.00000000000E+00 0. -1.
     999901    1    3    3    0    0  0.24252288485E-01 -0.91389115686E-01  0.60939510010E-01  0.88716050850E+00  0.88000000000E+00 0.  1.
        -11    1    4    4    0    0 -0.12072440262E-01  0.46131409499E-01 -0.30608188547E-01  0.56665448762E-01  0.51100000000E-03 0. -1.
         11    1    4    4    0    0 -0.79117414505E-02  0.69901871721E-01 -0.21140785414E-01  0.73457887608E-01  0.51100000000E-03 0.  1.
</event>
<event>
 8    1  0.1112171E+005  0.1043930E+01  0.7957747E-01            NaN
         13   -1    0    0    0    0  0.00000000000E+00  0.00000000000E+00  0.74505805969E-08  0.10566000000E+00  0.10566000000E+00 0. -1.
     999900   -1    0    0    0    0 -0.00000000000E+00 -0.00000000000E+00 -0.74505805969E-08  0.93827000000E+00  0.93827000000E+00 0.  1.
     999902    2    1    2    0    0 -0.14120047666E-01 -0.17049026593E-01 -0.87320402328E-02  0.10201330762E+01  0.10198554798E+01 0.  0.
     999903    2    3    3    0    0 -0.75340356563E-01 -0.53470722777E-01 -0.93672497961E-01  0.13317797730E+00  0.20653068592E-01 0.  0.
         14    1    1    2    0    0  0.14120047666E-01  0.17049026593E-01  0.87320402328E-02  0.23796923761E-01  0.00000000000E+00 0. -1.
     999901    1    3    3    0    0  0.61220308898E-01  0.36421696183E-01  0.84940457728E-01  0.88695509894E+00  0.88000000000E+00 0. -1.
        -11    1    4    4    0    0 -0.58339750901E-01 -0.39135592316E-01 -0.57823018598E-01  0.90988371356E-01  0.51100000000E-03 0. -1.
         11    1    4    4    0    0 -0.17000605662E-01 -0.14335130461E-01 -0.35849479363E-01  0.42189605945E-01  0.51100000000E-03 0.  1.
</event>
<event>
 8    1  0.1112171E+005  0.1043930E+01  0.7957747E-01            NaN
         13   -1    0    0    0    0  0.00000000000E+00  0.00000000000E+00  0.74505805969E-08  0.10566000000E+00  0.10566000000E+00 0.  1.
     999900   -1    0    0    0    0 -0.00000000000E+00 -0.00000000000E+00 -0.74505805969E-08  0.93827000000E+00  0.93827000000E+00 0. -1.
     999902    2    1    2    0    0 -0.10420029300E-01  0.73358042191E-02  0.20397826270E-01  0.10198787557E+01  0.10195951226E+01 0.  0.
     999903    2    3    3    0    0  0.55797534220E-01 -0.90679134340E-01  0.72317044099E-01  0.13044787080E+00  0.21232566941E-01 0.  0.
         14    1    1    2    0    0  0.10420029300E-01 -0.73358042191E-02 -0.20397826270E-01  0.24051244265E-01  0.00000000000E+00 0. -1.
     999901    1    3    3    0    0 -0.66217563521E-01  0.98014938559E-01 -0.51919217829E-01  0.88943088494E+00  0.88000000000E+00 0. -1.
        -11    1    4    4    0    0  0.35138250643E-01 -0.73119712132E-01  0.58453996624E-01  0.99991598661E-01  0.51100000000E-03 0. -1.
         11    1    4    4    0    0  0.20659283577E-01 -0.17559422208E-01  0.13863047475E-01  0.30456272137E-01  0.51100000000E-03 0.  1.
</event>
<event>
 8    1  0.1112171E+005  0.1043930E+01  0.7957747E-01            NaN
         13   -1    0    0    0    0  0.00000000000E+00  0.00000000000E+00  0.74505805969E-08  0.10566000000E+00  0.10566000000E+00 0. -1.
     999900   -1    0    0    0    0 -0.00000000000E+00 -0.00000000000E+00 -0.74505805969E-08  0.93827000000E+00  0.93827000000E+00 0. -1.
     999902    2    1    2    0    0 -0.14434522483E-01 -0.13938289346E-01  0.96514126382E-02  0.10216638572E+01  0.10214211942E+01 0.  0.
     999903    2    3    3    0    0 -0.58260862582E-01 -0.10492913307E+00  0.57424127698E-01  0.13459998462E+00  0.20375827429E-01 0.  0.
         14    1    1    2    0    0  0.14434522483E-01  0.13938289346E-01 -0.96514126382E-02  0.22266142798E-01  0.00000000000E+00 0.  1.
     999901    1    3    3    0    0  0.43826340100E-01  0.90990843724E-01 -0.47772715060E-01  0.88706387258E+00  0.88000000000E+00 0. -1.
        -11    1    4    4    0    0 -0.22661985009E-01 -0.59861067055E-01  0.34916019108E-01  0.72912978439E-01  0.51100000000E-03 0.  1.
         11    1    4    4    0    0 -0.35598877574E-01 -0.45068066015E-01  0.22508108590E-01  0.61687006185E-01  0.51100000000E-03 0. -1.
</event>
<event>
 8    1  0.1112171E+005  0.1043930E+01  0.7957747E-01            NaN
         13   -1    0    0    0    0  0.00000000000E+00  0.00000000000E+00  0.74505805969E-08  0.10566000000E+00  0.10566000000E+00 0. -1.
     999900   -1    0    0    0    0 -0.00000000000E+00 -0.00000000000E+00 -0.74505805969E-08  0.93827000000E+00  0.93827000000E+00 0. -1.
     999902    2    1    2    0    0  0.20285487808E-01 -0.17268310946E-01 -0.11291547760E-01  0.10149956842E+01  0.10145831875E+01 0.  0.
     999903    2    3    3    0    0  0.69960749063E-01 -0.38158188197E-01 -0.99147094069E-01  0.12898066428E+00  0.21338035516E-01 0.  0.
         14    1    1    2    0    0 -0.20285487808E-01  0.17268310946E-01  0.11291547760E-01  0.28934315775E-01  0.00000000000E+00 0. -1.
     999901    1    3    3    0    0 -0.49675261255E-01  0.20889877251E-01  0.87855546309E-01  0.88601501995E+00  0.88000000000E+00 0.  1.
        -11    1    4    4    0    0  0.30979776456E-01 -0.20695288355E-01 -0.62180519658E-01  0.72489445130E-01  0.51100000000E-03 0. -1.
         11    1    4    4    0    0  0.38980972606E-01 -0.17462899843E-01 -0.36966574411E-01  0.56491219149E-01  0.51100000000E-03 0.  1.
</event>
<event>
 8    1  0.1112171E+005  0.1043930E+01  0.7957747E-01            NaN
         13   -1    0    0    0    0  0.00000000000E+00  0.00000000000E+00  0.74505805969E-08  0.10566000000E+00  0.10566000000E+00 0. -1.
     999900   -1    0    0    0    0 -0.00000000000E+00 -0.00000000000E+00 -0.74505805969E-08  0.93827000000E+00  0.93827000000E+00 0.  1.
     999902    2    1    2    0    0 -0.40643696308E-02 -0.25605593150E-01  0.60308177783E-02  0.10173116555E+01  0.10169633563E+01 0.  0.
     999903    2    3    3    0    0  0.51707524398E-01 -0.86995287981E-01 -0.76641295945E-01  0.12955387480E+00  0.25854787213E-01 0.  0.
         14    1    1    2    0    0  0.40643696308E-02  0.25605593150E-01 -0.60308177783E-02  0.26618344504E-01  0.00000000000E+00 0.  1.
     999901    1    3    3    0    0 -0.55771894028E-01  0.61389694830E-01  0.82672113724E-01  0.88775778069E+00  0.88000000000E+00 0. -1.
        -11    1    4    4    0    0  0.10167184378E-01 -0.17112431834E-01 -0.29455212509E-01  0.35553869359E-01  0.51100000000E-03 0.  1.
         11    1    4    4    0    0  0.41540340019E-01 -0.69882856147E-01 -0.47186083436E-01  0.94000005443E-01  0.51100000000E-03 0. -1.
</event>
<event>
 8    1  0.1112171E+005  0.1043930E+01  0.7957747E-01            NaN
         13   -1    0    0    0    0  0.00000000000E+00  0.00000000000E+00  0.74505805969E-08  0.10566000000E+00  0.10566000000E+00 0. -1.
     999900   -1    0    0    0    0 -0.00000000000E+00 -0.00000000000E+00 -0.74505805969E-08  0.93827000000E+00  0.93827000000E+00 0. -1.
     999902    2    1    2    0    0 -0.19556729318E-01 -0.24220622491E-02  0.12197198251E-01  0.10207545023E+01  0.10204913769E+01 0.  0.
     999903    2    3    3    0    0 -0.95898171348E-01 -0.90400941118E-01  0.75380013614E-02  0.13306649012E+00  0.16765437842E-01 0.  0.
         14    1    1    2    0    0  0.19556729318E-01  0.24220622491E-02 -0.12197198251E-01  0.23175497672E-01  0.00000000000E+00 0.  1.
     999901    1    3    3    0    0  0.76341442030E-01  0.87978878869E-01  0.46591968891E-02  0.88768801221E+00  0.88000000000E+00 0.  1.
        -11    1    4    4    0    0 -0.31490052953E-01 -0.26198965014E-01 -0.49725991760E-02  0.41267385019E-01  0.51100000000E-03 0. -1.
         11    1    4    4    0    0 -0.64408118395E-01 -0.64201976105E-01  0.12510600537E-01  0.91799105103E-01  0.51100000000E-03 0.  1.
</event>
<event>
 8    1  0.1112171E+005  0.1043930E+01  0.7957747E-01            NaN
         13   -1    0    0    0    0  0.00000000000E+00  0.00000000000E+00  0.74505805969E-08  0.10566000000E+00  0.10566000000E+00 0. -1.
     999900   -1    0    0    0    0 -0.00000000000E+00 -0.00000000000E+00 -0.74505805969E-08  0.93827000000E+00  0.93827000000E+00 0. -1.
     999902    2    1    2    0    0  0.13597677096E-01 -0.79325750490E-02  0.18360459889E-01  0.10197446934E+01  0.10194578513E+01 0.  0.
     999903    2    3    3    0    0  0.79259852552E-01 -0.81254168602E-01  0.66186816332E-01  0.13296685325E+00  0.20374623055E-01 0.  0.
         14    1    1    2    0    0 -0.13597677096E-01  0.79325750490E-02 -0.18360459889E-01  0.24185306627E-01  0.00000000000E+00 0. -1.
     999901    1    3    3    0    0 -0.65662175456E-01  0.73321593553E-01 -0.47826356443E-01  0.88677784013E+00  0.88000000000E+00 0.  1.
        -11    1    4    4    0    0  0.22190441791E-01 -0.36812518902E-01  0.25112237338E-01  0.49784162541E-01  0.51100000000E-03 0.  1.
         11    1    4    4    0    0  0.57069410761E-01 -0.44441649700E-01  0.41074578994E-01  0.83182690706E-01  0.51100000000E-03 0. -1.
</event>
<event>
 8    1  0.1112171E+005  0.1043930E+01  0.7957747E-01            NaN
         13   -1    0    0    0    0  0.00000000000E+00  0.00000000000E+00  0.74505805969E-08  0.10566000000E+00  0.10566000000E+00 0. -1.
     999900   -1    0    0    0    0 -0.00000000000E+00 -0.00000000000E+00 -0.74505805969E-08  0.93827000000E+00  0.93827000000E+00 0.  1.
     999902    2    1    2    0    0 -0.18969747244E-01 -0.53866308683E-02  0.12685503029E-01  0.10204824183E+01  0.10202130056E+01 0.  0.
     999903    2    3    3    0    0  0.92291093802E-01 -0.40757394365E-01  0.79988221767E-01  0.13022418515E+00  0.19529761542E-01 0.  0.
         14    1    1    2    0    0  0.18969747244E-01  0.53866308683E-02 -0.12685503029E-01  0.23447581746E-01  0.00000000000E+00 0.  1.
     999901    1    3    3    0    0 -0.11126084105E+00  0.35370763497E-01 -0.67302718738E-01  0.89025823310E+00  0.88000000000E+00 0.  1.
        -11    1    4    4    0    0  0.11971927682E-01 -0.12182527129E-01  0.91601382739E-02  0.19388405655E-01  0.51100000000E-03 0. -1.
         11    1    4    4    0    0  0.80319166120E-01 -0.28574867237E-01  0.70828083493E-01  0.11083577949E+00  0.51100000000E-03 0.  1.
</event>
<event>
 8    1  0.1112171E+005  0.1043930E+01  0.7957747E-01            NaN
         13   -1    0    0    0    0  0.00000000000E+00  0.00000000000E+00  0.74505805969E-08  0.10566000000E+00  0.10566000000E+00 0. -1.
     999900   -1    0    0    0    0 -0.00000000000E+00 -0.00000000000E+00 -0.74505805969E-08  0.93827000000E+00  0.93827000000E+00 0. -1.
     999902    2    1    2    0    0 -0.22781344569E-01  0.39386714595E-02 -0.29510538088E-02  0.10206231016E+01  0.10203569493E+01 0.  0.
     999903    2    3    3    0    0 -0.60465441721E-01 -0.40073238129E-01 -0.10861902547E+00  0.13240980540E+00  0.21733150111E-01 0.  0.
         14    1    1    2    0    0  0.22781344569E-01 -0.39386714595E-02  0.29510538088E-02  0.23306898374E-01  0.00000000000E+00 0. -1.
     999901    1    3    3    0    0  0.37684097151E-01  0.44011909589E-01  0.10566797166E+00  0.88821329623E+00  0.88000000000E+00 0.  1.
        -11    1    4    4    0    0 -0.28073500982E-01 -0.22387058047E-01 -0.71780873893E-01  0.80262424603E-01  0.51100000000E-03 0. -1.
         11    1    4    4    0    0 -0.32391940739E-01 -0.17686180082E-01 -0.36838151580E-01  0.52147380793E-01  0.51100000000E-03 0.  1.
</event>
<event>
 8    1  0.1112171E+005  0.1043930E+01  0.7957747E-01            NaN
         13   -1    0    0    0    0  0.00000000000E+00  0.00000000000E+00  0.74505805969E-08  0.10566000000E+00  0.10566000000E+00 0.  1.
     999900   -1    0    0    0    0 -0.00000000000E+00 -0.00000000000E+00 -0.74505805969E-08  0.93827000000E+00  0.93827000000E+00 0.  1.
     999902    2    1    2    0    0  0.12234159150E-03  0.22287545979E-01 -0.75153409130E-02  0.10204091577E+01  0.10201380392E+01 0.  0.
     999903    2    3    3    0    0 -0.75597525164E-01  0.68213451666E-01 -0.82645747176E-01  0.13277901796E+00  0.20781898027E-01 0.  0.
         14    1    1    2    0    0 -0.12234159150E-03 -0.22287545979E-01  0.75153409130E-02  0.23520842295E-01  0.00000000000E+00 0.  1.
     999901    1    3    3    0    0  0.75719866756E-01 -0.45925905687E-01  0.75130406263E-01  0.88763013974E+00  0.88000000000E+00 0. -1.
        -11    1    4    4    0    0 -0.28278141583E-01  0.34412695822E-01 -0.46051330509E-01  0.64069283496E-01  0.51100000000E-03 0. -1.
         11    1    4    4    0    0 -0.47319383581E-01  0.33800755845E-01 -0.36594416667E-01  0.68709734466E-01  0.51100000000E-03 0.  1.
</event>
<event>
 8    1  0.1112171E+005  0.1043930E+01  0.7957747E-01            NaN
         13   -1    0    0    0    0  0.00000000000E+00  0.00000000000E+00  0.74505805969E-08  0.10566000000E+00  0.10566000000E+00 0.  1.
     999900   -1    0    0    0    0 -0.00000000000E+00 -0.00000000000E+00 -0.74505805969E-08  0.93827000000E+00  0.93827000000E+00 0.  1.
     999902    2    1    2    0    0 -0.18733656117E-01 -0.17537651449E-02  0.16820445651E-01  0.10186920731E+01  0.10183793924E+01 0.  0.
     999903    2    3    3    0    0 -0.40069423358E-01 -0.62628440584E-01  0.10701210740E+00  0.13173351884E+00  0.19345505917E-01 0.  0.
         14    1    1    2    0    0  0.18733656117E-01  0.17537651449E-02 -0.16820445651E-01  0.25237926928E-01  0.00000000000E+00 0. -1.
     999901    1    3    3    0    0  0.21335767241E-01  0.60874675439E-01 -0.90191661744E-01  0.88695855423E+00  0.88000000000E+00 0.  1.
        -11    1    4    4    0    0  0.18263112543E-02 -0.54404132390E-02  0.59235431397E-02  0.82633524272E-02  0.51100000000E-03 0.  1.
         11    1    4    4    0    0 -0.41895734612E-01 -0.57188027345E-01  0.10108856426E+00  0.12347016642E+00  0.51100000000E-03 0. -1.
</event>
<event>
 8    1  0.1112171E+005  0.1043930E+01  0.7957747E-01            NaN
         13   -1    0    0    0    0  0.00000000000E+00  0.00000000000E+00  0.74505805969E-08  0.10566000000E+00  0.10566000000E+00 0. -1.
     999900   -1    0    0    0    0 -0.00000000000E+00 -0.00000000000E+00 -0.74505805969E-08  0.93827000000E+00  0.93827000000E+00 0.  1.
     999902    2    1    2    0    0 -0.20627276469E-01 -0.12432758599E-01 -0.73756809720E-02  0.10187415366E+01  0.10184300956E+01 0.  0.
     999903    2    3    3    0    0  0.33956402900E-01  0.16392732341E-01 -0.12006837200E+00  0.12941036675E+00  0.30147472440E-01 0.  0.
         14    1    1    2    0    0  0.20627276469E-01  0.12432758599E-01  0.73756809720E-02  0.25188463445E-01  0.00000000000E+00 0. -1.
     999901    1    3    3    0    0 -0.54583679369E-01 -0.28825490940E-01  0.11269269103E+00  0.88933116981E+00  0.88000000000E+00 0. -1.
        -11    1    4    4    0    0  0.10216718065E-01 -0.37542975423E-03 -0.63739233852E-02  0.12058619151E-01  0.51100000000E-03 0. -1.
         11    1    4    4    0    0  0.23739684835E-01  0.16768162096E-01 -0.11369444862E+00  0.11735174760E+00  0.51100000000E-03 0.  1.
</event>
<event>
 8    1  0.1112171E+005  0.1043930E+01  0.7957747E-01            NaN
         13   -1    0    0    0    0  0.00000000000E+00  0.00000000000E+00  0.74505805969E-08  0.10566000000E+00  0.10566000000E+00 0. -1.
     999900   -1    0    0    0    0 -0.00000000000E+00 -0.00000000000E+00 -0.74505805969E-08  0.93827000000E+00  0.93827000000E+00 0.  1.
     999902    2    1    2    0    0 -0.18823963887E-01 -0.92978017526E-02 -0.10252796567E-01  0.10205652708E+01  0.10202977807E+01 0.  0.
     999903    2    3    3    0    0 -0.10300038216E+00  0.66012921985E-01  0.44043929058E-01  0.13168647763E+00  0.20848887532E-01 0.  0.
         14    1    1    2    0    0  0.18823963887E-01  0.92978017526E-02  0.10252796567E-01  0.23364729215E-01  0.00000000000E+00 0. -1.
     999901    1    3    3    0    0  0.84176418268E-01 -0.75310723738E-01 -0.54296725625E-01  0.88887879315E+00  0.88000000000E+00 0.  1.
        -11    1    4    4    0    0 -0.84729656078E-01  0.53972732813E-01  0.44307070719E-01  0.10979776019E+00  0.51100000000E-03 0.  1.
         11    1    4    4    0    0 -0.18270726077E-01  0.12040189172E-01 -0.26314166071E-03  0.21888717441E-01  0.51100000000E-03 0. -1.
</event>
<event>
 8    1  0.1112171E+005  0.1043930E+01  0.7957747E-01            NaN
         13   -1    0    0    0    0  0.00000000000E+00  0.00000000000E+00  0.74505805969E-08  0.10566000000E+00  0.10566000000E+00 0. -1.
     999900   -1    0    0    0    0 -0.00000000000E+00 -0.00000000000E+00 -0.74505805969E-08  0.93827000000E+00  0.93827000000E+00 0. -1.
     999902    2    1    2    0    0 -0.20057708233E-01  0.97001010686E-02 -0.96739951412E-03  0.10216288906E+01  0.10213854564E+01 0.  0.
     999903    2    3    3    0    0 -0.92917278107E-01 -0.81633996518E-01 -0.44199047384E-01  0.13285478558E+00  0.19977695176E-01 0.  0.
         14    1    1    2    0    0  0.20057708233E-01 -0.97001010686E-02  0.96739951412E-03  0.22301109437E-01  0.00000000000E+00 0. -1.
     999901    1    3    3    0    0  0.72859569874E-01  0.91334097586E-01  0.43231647870E-01  0.88877410498E+00  0.88000000000E+00 0.  1.
        -11    1    4    4    0    0 -0.62297379441E-01 -0.63927704073E-01 -0.25459605846E-01  0.92823313257E-01  0.51100000000E-03 0.  1.
         11    1    4    4    0    0 -0.30619898666E-01 -0.17706292445E-01 -0.18739441538E-01  0.40031472326E-01  0.51100000000E-03 0. -1.
</event>
<event>
 8    1  0.1112171E+005  0.1043930E+01  0.7957747E-01            NaN
         13   -1    0    0    0    0  0.00000000000E+00  0.00000000000E+00  0.74505805969E-08  0.10566000000E+00  0.10566000000E+00 0.  1.
     999900   -1    0    0    0    0 -0.00000000000E+00 -0.00000000000E+00 -0.74505805969E-08  0.93827000000E+00  0.93827000000E+00 0. -1.
     999902    2    1    2    0    0  0.24284031048E-02  0.15702288986E-01  0.16930684788E-01  0.10207113198E+01  0.10204472016E+01 0.  0.
     999903    2    3    3    0    0  0.43023045405E-01  0.18840132284E-01 -0.11844710353E+00  0.12942858321E+00  0.22718027989E-01 0.  0.
         14    1    1    2    0    0 -0.24284031048E-02 -0.15702288986E-01 -0.16930684788E-01  0.23218680161E-01  0.00000000000E+00 0.  1.
     999901    1    3    3    0    0 -0.40594642300E-01 -0.31378432979E-02  0.13537778832E+00  0.89128273663E+00  0.88000000000E+00 0.  1.
        -11    1    4    4    0    0  0.21521276962E-01  0.30052158430E-02 -0.77899175802E-01  0.80874837842E-01  0.51100000000E-03 0.  1.
         11    1    4    4    0    0  0.21501768443E-01  0.15834916441E-01 -0.40547927731E-01  0.48553745367E-01  0.51100000000E-03 0. -1.
</event>
<event>
 8    1  0.1112171E+005  0.1043930E+01  0.7957747E-01            NaN
         13   -1    0    0    0    0  0.00000000000E+00  0.00000000000E+00  0.74505805969E-08  0.10566000000E+00  0.10566000000E+00 0. -1.
     999900   -1    0    0    0    0 -0.00000000000E+00 -0.00000000000E+00 -0.74505805969E-08  0.93827000000E+00  0.93827000000E+00 0. -1.
     999902    2    1    2    0    0 -0.29857230679E-02  0.10075958354E-01  0.20912629908E-01  0.10205253516E+01  0.10202569361E+01 0.  0.
     999903    2    3    3    0    0  0.99543096986E-01  0.29038184590E-01  0.79811172591E-01  0.13241456833E+00  0.20291631590E-01 0.  0.
         14    1    1    2    0    0  0.29857230679E-02 -0.10075958354E-01 -0.20912629908E-01  0.23404648441E-01  0.00000000000E+00 0.  1.
     999901    1    3    3    0    0 -0.10252882005E+00 -0.18962226236E-01 -0.58898542682E-01  0.88811078323E+00  0.88000000000E+00 0. -1.
        -11    1    4    4    0    0  0.64111453921E-01  0.28260098541E-01  0.56289472176E-01  0.89875900508E-01  0.51100000000E-03 0. -1.
         11    1    4    4    0    0  0.35431643066E-01  0.77808604871E-03  0.23521700415E-01  0.42538667817E-01  0.51100000000E-03 0.  1.
</event>
<event>
 8    1  0.1112171E+005  0.1043930E+01  0.7957747E-01            NaN
         13   -1    0    0    0    0  0.00000000000E+00  0.00000000000E+00  0.74505805969E-08  0.10566000000E+00  0.10566000000E+00 0. -1.
     999900   -1    0    0    0    0 -0.00000000000E+00 -0.00000000000E+00 -0.74505805969E-08  0.93827000000E+00  0.93827000000E+00 0. -1.
     999902    2    1    2    0    0  0.19249521431E-01 -0.23074353916E-02  0.55576140982E-02  0.10237618219E+01  0.10235631454E+01 0.  0.
     999903    2    3    3    0    0  0.35841862787E-01  0.93271396672E-01  0.87920351508E-01  0.13460815720E+00  0.20128964483E-01 0.  0.
         14    1    1    2    0    0 -0.19249521431E-01  0.23074353916E-02 -0.55576140982E-02  0.20168178100E-01  0.00000000000E+00 0.  1.
     999901    1    3    3    0    0 -0.16592341356E-01 -0.95578832064E-01 -0.82362737409E-01  0.88915366470E+00  0.88000000000E+00 0. -1.
        -11    1    4    4    0    0  0.43142825613E-02  0.26725023216E-01  0.14905851525E-01  0.30907692094E-01  0.51100000000E-03 0.  1.
         11    1    4    4    0    0  0.31527580226E-01  0.66546373456E-01  0.73014499982E-01  0.10370046511E+00  0.51100000000E-03 0. -1.
</event>
<event>
 8    1  0.1112171E+005  0.1043930E+01  0.7957747E-01            NaN
         13   -1    0    0    0    0  0.00000000000E+00  0.00000000000E+00  0.74505805969E-08  0.10566000000E+00  0.10566000000E+00 0. -1.
     999900   -1    0    0    0    0 -0.00000000000E+00 -0.00000000000E+00 -0.74505805969E-08  0.93827000000E+00  0.93827000000E+00 0.  1.
     999902    2    1    2    0    0  0.96886342237E-02  0.20980484039E-01  0.14716780591E-03  0.10208200021E+01  0.10205583789E+01 0.  0.
     999903    2    3    3    0    0 -0.12103093793E+00  0.44335477322E-01 -0.15974239150E-01  0.13071160309E+00  0.14704570100E-01 0.  0.
         14    1    1    2    0    0 -0.96886342237E-02 -0.20980484039E-01 -0.14716780591E-03  0.23109997879E-01  0.00000000000E+00 0. -1.
     999901    1    3    3    0    0  0.13071957215E+00 -0.23354993284E-01  0.16121406955E-01  0.89010839903E+00  0.88000000000E+00 0.  1.
        -11    1    4    4    0    0 -0.74112941408E-01  0.25233962457E-01 -0.26897809649E-02  0.78338860012E-01  0.51100000000E-03 0. -1.
         11    1    4    4    0    0 -0.46917996521E-01  0.19101514866E-01 -0.13284458185E-01  0.52372743083E-01  0.51100000000E-03 0.  1.
</event>
<event>
 8    1  0.1112171E+005  0.1043930E+01  0.7957747E-01            NaN
         13   -1    0    0    0    0  0.00000000000E+00  0.00000000000E+00  0.74505805969E-08  0.10566000000E+00  0.10566000000E+00 0.  1.
     999900   -1    0    0    0    0 -0.00000000000E+00 -0.00000000000E+00 -0.74505805969E-08  0.93827000000E+00  0.93827000000E+00 0.  1.
     999902    2    1    2    0    0 -0.42615281861E-02 -0.58537854448E-03 -0.23195315353E-01  0.10203391979E+01  0.10200664453E+01 0.  0.
     999903    2    3    3    0    0  0.21114158638E-01 -0.67469807843E-01 -0.11087961434E+00  0.13309290250E+00  0.20529226822E-01 0.  0.
         14    1    1    2    0    0  0.42615281861E-02  0.58537854448E-03  0.23195315353E-01  0.23590802124E-01  0.00000000000E+00 0.  1.
     999901    1    3    3    0    0 -0.25375686825E-01  0.66884429298E-01  0.87684298992E-01  0.88724629537E+00  0.88000000000E+00 0. -1.
        -11    1    4    4    0    0 -0.18510130650E-02 -0.17033836037E-01 -0.17439157564E-01  0.24453285199E-01  0.51100000000E-03 0.  1.
         11    1    4    4    0    0  0.22965171703E-01 -0.50435971806E-01 -0.93440456781E-01  0.10863961730E+00  0.51100000000E-03 0. -1.
</event>
<event>
 8    1  0.1112171E+005  0.1043930E+01  0.7957747E-01            NaN
         13   -1    0    0    0    0  0.00000000000E+00  0.00000000000E+00  0.74505805969E-08  0.10566000000E+00  0.10566000000E+00 0. -1.
     999900   -1    0    0    0    0 -0.00000000000E+00 -0.00000000000E+00 -0.74505805969E-08  0.93827000000E+00  0.93827000000E+00 0.  1.
     999902    2    1    2    0    0 -0.51357734338E-02 -0.23459965106E-01  0.49341800862E-02  0.10194128170E+01  0.10191179515E+01 0.  0.
     999903    2    3    3    0    0 -0.71347585022E-01 -0.10632110961E+00 -0.27589533562E-01  0.13244733554E+00  0.19658537412E-01 0.  0.
         14    1    1    2    0    0  0.51357734338E-02  0.23459965106E-01 -0.49341800862E-02  0.24517183049E-01  0.00000000000E+00 0.  1.
     999901    1    3    3    0    0  0.66211811588E-01  0.82861144503E-01  0.32523713648E-01  0.88696548141E+00  0.88000000000E+00 0. -1.
        -11    1    4    4    0    0 -0.36082422221E-01 -0.37132770401E-01 -0.84396758935E-02  0.52462110910E-01  0.51100000000E-03 0.  1.
         11    1    4    4    0    0 -0.35265162801E-01 -0.69188339207E-01 -0.19149857668E-01  0.79985224632E-01  0.51100000000E-03 0. -1.
</event>
<event>
 8    1  0.1112171E+005  0.1043930E+01  0.7957747E-01            NaN
         13   -1    0    0    0    0  0.00000000000E+00  0.00000000000E+00  0.74505805969E-08  0.10566000000E+00  0.10566000000E+00 0.  1.
     999900   -1    0    0    0    0 -0.00000000000E+00 -0.00000000000E+00 -0.74505805969E-08  0.93827000000E+00  0.93827000000E+00 0. -1.
     999902    2    1    2    0    0 -0.13443870594E-01 -0.23092451681E-02 -0.19207303383E-01  0.10203717579E+01  0.10200997664E+01 0.  0.
     999903    2    3    3    0    0  0.49738797639E-01  0.47597617475E-01  0.10528703642E+00  0.12796961468E+00  0.23481504706E-01 0.  0.
         14    1    1    2    0    0  0.13443870594E-01  0.23092451681E-02  0.19207303383E-01  0.23558242147E-01  0.00000000000E+00 0.  1.
     999901    1    3    3    0    0 -0.63182668233E-01 -0.49906862643E-01 -0.12449433980E+00  0.89240214318E+00  0.88000000000E+00 0. -1.
        -11    1    4    4    0    0  0.28416932916E-01  0.35901234120E-01  0.83890978360E-01  0.95573940271E-01  0.51100000000E-03 0.  1.
         11    1    4    4    0    0  0.21321864723E-01  0.11696383355E-01  0.21396058056E-01  0.32395674405E-01  0.51100000000E-03 0. -1.
</event>
<event>
 8    1  0.1112171E+005  0.1043930E+01  0.7957747E-01            NaN
         13   -1    0    0    0    0  0.00000000000E+00  0.00000000000E+00  0.74505805969E-08  0.10566000000E+00  0.10566000000E+00 0.  1.
     999900   -1    0    0    0    0 -0.00000000000E+00 -0.00000000000E+00 -0.74505805969E-08  0.93827000000E+00  0.93827000000E+00 0.  1.
     999902    2    1    2    0    0 -0.14900430242E-01 -0.10265323453E-01  0.15231950121E-01  0.10202781081E+01  0.10200039244E+01 0.  0.
     999903    2    3    3    0    0 -0.66186591587E-01  0.96985906183E-01 -0.51402044392E-01  0.12978768936E+00  0.20389782685E-01 0.  0.
         14    1    1    2    0    0  0.14900430242E-01  0.10265323453E-01 -0.15231950121E-01  0.23651891921E-01  0.00000000000E+00 0.  1.
     999901    1    3    3    0    0  0.51286161345E-01 -0.10725122964E+00  0.66633994513E-01  0.89049041872E+00  0.88000000000E+00 0. -1.
        -11    1    4    4    0    0 -0.35104683002E-01  0.42018286499E-01 -0.14482000769E-01  0.56638014056E-01  0.51100000000E-03 0. -1.
         11    1    4    4    0    0 -0.31081908585E-01  0.54967619683E-01 -0.36920043624E-01  0.73149675304E-01  0.51100000000E-03 0.  1.
</event>
<event>
 8    1  0.1218460E+005  0.1043930E+01  0.7957747E-01            NaN
         13   -1    0    0    0    0  0.00000000000E+00  0.00000000000E+00  0.74505805969E-08  0.10566000000E+00  0.10566000000E+00 0.  1.
     999900   -1    0    0    0    0 -0.00000000000E+00 -0.00000000000E+00 -0.74505805969E-08  0.93827000000E+00  0.93827000000E+00 0. -1.
     999902    2    1    2    0    0 -0.45536192263E-02  0.16604249686E-01  0.17164322921E-01  0.10196184691E+01  0.10193285888E+01 0.  0.
     999903    2    3    3    0    0  0.26709645186E-01  0.33286577376E-01 -0.11948462267E+00  0.12836731136E+00  0.19498466359E-01 0.  0.
         14    1    1    2    0    0  0.45536192263E-02 -0.16604249686E-01 -0.17164322921E-01  0.24311530948E-01  0.00000000000E+00 0. -1.
     999901    1    3    3    0    0 -0.31263264412E-01 -0.16682327689E-01  0.13664894559E+00  0.89125115769E+00  0.88000000000E+00 0.  1.
        -11    1    4    4    0    0  0.25022894105E-02  0.16589276533E-01 -0.54734452944E-01  0.57250214045E-01  0.51100000000E-03 0. -1.
         11    1    4    4    0    0  0.24207355776E-01  0.16697300843E-01 -0.64750169730E-01  0.71117097313E-01  0.51100000000E-03 0.  1.
</event>
<event>
 8    1  0.1112171E+005  0.1043930E+01  0.7957747E-01            NaN
         13   -1    0    0    0    0  0.00000000000E+00  0.00000000000E+00  0.74505805969E-08  0.10566000000E+00  0.10566000000E+00 0.  1.
     999900   -1    0    0    0    0 -0.00000000000E+00 -0.00000000000E+00 -0.74505805969E-08  0.93827000000E+00  0.93827000000E+00 0.  1.
     999902    2    1    2    0    0  0.18259237436E-01 -0.71772431880E-02  0.15499473638E-01  0.10189270751E+01  0.10186202620E+01 0.  0.
     999903    2    3    3    0    0  0.10948220904E+00 -0.70958313384E-01  0.21339119353E-02  0.13181474076E+00  0.18685180426E-01 0.  0.
         14    1    1    2    0    0 -0.18259237436E-01  0.71772431880E-02 -0.15499473638E-01  0.25002924921E-01  0.00000000000E+00 0. -1.
     999901    1    3    3    0    0 -0.91222971600E-01  0.63781070196E-01  0.13365561702E-01  0.88711233432E+00  0.88000000000E+00 0. -1.
        -11    1    4    4    0    0  0.88281039138E-02 -0.51764888736E-03 -0.10378865449E-02  0.89186158435E-02  0.51100000000E-03 0. -1.
         11    1    4    4    0    0  0.10065410512E+00 -0.70440664497E-01  0.31717984802E-02  0.12289612492E+00  0.51100000000E-03 0.  1.
</event>
<event>
 8    1  0.1112171E+005  0.1043930E+01  0.7957747E-01            NaN
         13   -1    0    0    0    0  0.00000000000E+00  0.00000000000E+00  0.74505805969E-08  0.10566000000E+00  0.10566000000E+00 0.  1.
     999900   -1    0    0    0    0 -0.00000000000E+00 -0.00000000000E+00 -0.74505805969E-08  0.93827000000E+00  0.93827000000E+00 0. -1.
     999902    2    1    2    0    0 -0.72333976855E-02 -0.36505214408E-02  0.21381373086E-01  0.10210649292E+01  0.10208088842E+01 0.  0.
     999903    2    3    3    0    0 -0.75250688966E-01  0.51590232779E-01 -0.89881078115E-01  0.12974162874E+00  0.20737977675E-01 0.  0.
         14    1    1    2    0    0  0.72333976855E-02  0.36505214408E-02 -0.21381373086E-01  0.22865070827E-01  0.00000000000E+00 0. -1.
     999901    1    3    3    0    0  0.68017291281E-01 -0.55240754220E-01  0.11126245120E+00  0.89132330043E+00  0.88000000000E+00 0.  1.
        -11    1    4    4    0    0 -0.37007659308E-01  0.31633304920E-01 -0.59973816690E-01  0.77248641652E-01  0.51100000000E-03 0. -1.
         11    1    4    4    0    0 -0.38243029658E-01  0.19956927859E-01 -0.29907261425E-01  0.52492987093E-01  0.51100000000E-03 0.  1.
</event>
<event>
 8    1  0.1112171E+005  0.1043930E+01  0.7957747E-01            NaN
         13   -1    0    0    0    0  0.00000000000E+00  0.00000000000E+00  0.74505805969E-08  0.10566000000E+00  0.10566000000E+00 0. -1.
     999900   -1    0    0    0    0 -0.00000000000E+00 -0.00000000000E+00 -0.74505805969E-08  0.93827000000E+00  0.93827000000E+00 0. -1.
     999902    2    1    2    0    0  0.66615361845E-02 -0.23998129479E-02 -0.21539021095E-01  0.10212570073E+01  0.10210052940E+01 0.  0.
     999903    2    3    3    0    0 -0.35203284440E-01  0.10234731304E+00 -0.73753694568E-01  0.13252139101E+00  0.20200690332E-01 0.  0.
         14    1    1    2    0    0 -0.66615361845E-02  0.23998129479E-02  0.21539021095E-01  0.22672992662E-01  0.00000000000E+00 0. -1.
     999901    1    3    3    0    0  0.41864820625E-01 -0.10474712599E+00  0.52214673472E-01  0.88873561633E+00  0.88000000000E+00 0.  1.
        -11    1    4    4    0    0 -0.26947153663E-01  0.47385288826E-01 -0.37231701760E-01  0.66014963641E-01  0.51100000000E-03 0.  1.
         11    1    4    4    0    0 -0.82561307771E-02  0.54962024216E-01 -0.36521992808E-01  0.66506427366E-01  0.51100000000E-03 0. -1.
</event>
<event>
 8    1  0.1112171E+005  0.1043930E+01  0.7957747E-01            NaN
         13   -1    0    0    0    0  0.00000000000E+00  0.00000000000E+00  0.74505805969E-08  0.10566000000E+00  0.10566000000E+00 0. -1.
     999900   -1    0    0    0    0 -0.00000000000E+00 -0.00000000000E+00 -0.74505805969E-08  0.93827000000E+00  0.93827000000E+00 0.  1.
     999902    2    1    2    0    0  0.51396783124E-03 -0.45024328784E-02 -0.23036257750E-01  0.10204522395E+01  0.10201821249E+01 0.  0.
     999903    2    3    3    0    0 -0.92035678170E-02 -0.12561815081E+00  0.28521723041E-01  0.13060861676E+00  0.19506322419E-01 0.  0.
         14    1    1    2    0    0 -0.51396783124E-03  0.45024328784E-02  0.23036257750E-01  0.23477760453E-01  0.00000000000E+00 0. -1.
     999901    1    3    3    0    0  0.97175356483E-02  0.12111571793E+00 -0.51557980791E-01  0.88984362279E+00  0.88000000000E+00 0.  1.
        -11    1    4    4    0    0 -0.39638365718E-02 -0.73322523792E-01  0.26308998262E-01  0.78002108986E-01  0.51100000000E-03 0.  1.
         11    1    4    4    0    0 -0.52397312452E-02 -0.52295627015E-01  0.22127247786E-02  0.52606507776E-01  0.51100000000E-03 0. -1.
</event>
<event>
 8    1  0.1112171E+005  0.1043930E+01  0.7957747E-01            NaN
         13   -1    0    0    0    0  0.00000000000E+00  0.00000000000E+00  0.74505805969E-08  0.10566000000E+00  0.10566000000E+00 0.  1.
     999900   -1    0    0    0    0 -0.00000000000E+00 -0.00000000000E+00 -0.74505805969E-08  0.93827000000E+00  0.93827000000E+00 0.  1.
     999902    2    1    2    0    0 -0.19585419842E-01 -0.14209721841E-01 -0.50759907726E-02  0.10192061138E+01  0.10189061939E+01 0.  0.
     999903    2    3    3    0    0 -0.12123344539E+00 -0.34570873306E-01  0.34289479021E-01  0.13224696155E+00  0.20513334840E-01 0.  0.
         14    1    1    2    0    0  0.19585419842E-01  0.14209721841E-01  0.50759907726E-02  0.24723886173E-01  0.00000000000E+00 0.  1.
     999901    1    3    3    0    0  0.10164802555E+00  0.20361151465E-01 -0.39365469794E-01  0.88695915227E+00  0.88000000000E+00 0. -1.
        -11    1    4    4    0    0 -0.13302461918E-01  0.22809750638E-02  0.15757896973E-02  0.13597888605E-01  0.51100000000E-03 0. -1.
         11    1    4    4    0    0 -0.10793098347E+00 -0.36851848369E-01  0.32713689324E-01  0.11864907295E+00  0.51100000000E-03 0.  1.
</event>
<event>
 8    1  0.1112171E+005  0.1043930E+01  0.7957747E-01            NaN
         13   -1    0    0    0    0  0.00000000000E+00  0.00000000000E+00  0.74505805969E-08  0.10566000000E+00  0.10566000000E+00 0.  1.
     999900   -1    0    0    0    0 -0.00000000000E+00 -0.00000000000E+00 -0.74505805969E-08  0.93827000000E+00  0.93827000000E+00 0.  1.
     999902    2    1    2    0    0  0.69738218730E-02 -0.20967410235E-01 -0.83931839257E-02  0.10202929101E+01  0.10200190735E+01 0.  0.
     999903    2    3    3    0    0 -0.57320290470E-01 -0.39704257737E-02  0.11404853938E+00  0.12933016901E+00  0.20441215749E-01 0.  0.
         14    1    1    2    0    0 -0.69738218730E-02  0.20967410235E-01  0.83931839257E-02  0.23637089920E-01  0.00000000000E+00 0. -1.
     999901    1    3    3    0    0  0.64294112343E-01 -0.16996984462E-01 -0.12244172331E+00  0.89096274107E+00  0.88000000000E+00 0.  1.
        -11    1    4    4    0    0 -0.25431355556E-01  0.15495640618E-02  0.30584568908E-01  0.39809948135E-01  0.51100000000E-03 0.  1.
         11    1    4    4    0    0 -0.31888934914E-01 -0.55199898355E-02  0.83463970474E-01  0.89520220878E-01  0.51100000000E-03 0. -1.
</event>
<event>
 8    1  0.1112171E+005  0.1043930E+01  0.7957747E-01            NaN
         13   -1    0    0    0    0  0.00000000000E+00  0.00000000000E+00  0.74505805969E-08  0.10566000000E+00  0.10566000000E+00 0. -1.
     999900   -1    0    0    0    0 -0.00000000000E+00 -0.00000000000E+00 -0.74505805969E-08  0.93827000000E+00  0.93827000000E+00 0. -1.
     999902    2    1    2    0    0  0.17059102254E-01  0.16685667675E-01  0.42737698169E-02  0.10196876902E+01  0.10193994781E+01 0.  0.
     999903    2    3    3    0    0 -0.48566032490E-01  0.78523989014E-02 -0.11760365827E+00  0.12882361953E+00  0.18562996270E-01 0.  0.
         14    1    1    2    0    0 -0.17059102254E-01 -0.16685667675E-01 -0.42737698169E-02  0.24242309790E-01  0.00000000000E+00 0. -1.
     999901    1    3    3    0    0  0.65625134744E-01  0.88332687739E-02  0.12187742809E+00  0.89086407068E+00  0.88000000000E+00 0.  1.
        -11    1    4    4    0    0 -0.29312651744E-01  0.13042757768E-01 -0.63215326112E-01  0.70892761682E-01  0.51100000000E-03 0.  1.
         11    1    4    4    0    0 -0.19253380746E-01 -0.51903588662E-02 -0.54388332159E-01  0.57930857851E-01  0.51100000000E-03 0. -1.
</event>
<event>
 8    1  0.1112171E+005  0.1043930E+01  0.7957747E-01            NaN
         13   -1    0    0    0    0  0.00000000000E+00  0.00000000000E+00  0.74505805969E-08  0.10566000000E+00  0.10566000000E+00 0. -1.
     999900   -1    0    0    0    0 -0.00000000000E+00 -0.00000000000E+00 -0.74505805969E-08  0.93827000000E+00  0.93827000000E+00 0.  1.
     999902    2    1    2    0    0  0.81923592725E-02 -0.91914374238E-02 -0.19529476249E-01  0.10208432567E+01  0.10205821658E+01 0.  0.
     999903    2    3    3    0    0 -0.69288835341E-01 -0.10976526399E+00  0.39567950433E-02  0.13142207694E+00  0.20168048982E-01 0.  0.
         14    1    1    2    0    0 -0.81923592725E-02  0.91914374238E-02  0.19529476249E-01  0.23086743272E-01  0.00000000000E+00 0. -1.
     999901    1    3    3    0    0  0.77481194614E-01  0.10057382657E+00 -0.23486271292E-01  0.88942117978E+00  0.88000000000E+00 0.  1.
        -11    1    4    4    0    0 -0.51825082428E-01 -0.67273311349E-01 -0.28882436733E-02  0.84971410845E-01  0.51100000000E-03 0.  1.
         11    1    4    4    0    0 -0.17463752913E-01 -0.42491952641E-01  0.68450387166E-02  0.46450666099E-01  0.51100000000E-03 0. -1.
</event>
<event>
 8    1  0.1112171E+005  0.1043930E+01  0.7957747E-01            NaN
         13   -1    0    0    0    0  0.00000000000E+00  0.00000000000E+00  0.74505805969E-08  0.10566000000E+00  0.10566000000E+00 0. -1.
     999900   -1    0    0    0    0 -0.00000000000E+00 -0.00000000000E+00 -0.74505805969E-08  0.93827000000E+00  0.93827000000E+00 0.  1.
     999902    2    1    2    0    0 -0.11045029987E-01 -0.21736608335E-01 -0.56138989474E-02  0.10189102340E+01  0.10186030023E+01 0.  0.
     999903    2    3    3    0    0 -0.23613133968E-02 -0.99811913956E-01 -0.83876409063E-01  0.13195128299E+00  0.20196413483E-01 0.  0.
         14    1    1    2    0    0  0.11045029987E-01  0.21736608335E-01  0.56138989474E-02  0.25019766000E-01  0.00000000000E+00 0. -1.
     999901    1    3    3    0    0 -0.86837165899E-02  0.78075305622E-01  0.78262510116E-01  0.88695895101E+00  0.88000000000E+00 0. -1.
        -11    1    4    4    0    0  0.62668296676E-02 -0.31925831425E-01 -0.35427795966E-01  0.48103240164E-01  0.51100000000E-03 0. -1.
         11    1    4    4    0    0 -0.86281430644E-02 -0.67886082532E-01 -0.48448613097E-01  0.83848042829E-01  0.51100000000E-03 0.  1.
</event>
<event>
 8    1  0.1112171E+005  0.1043930E+01  0.7957747E-01            NaN
         13   -1    0    0    0    0  0.00000000000E+00  0.00000000000E+00  0.74505805969E-08  0.10566000000E+00  0.10566000000E+00 0. -1.
     999900   -1    0    0    0    0 -0.00000000000E+00 -0.00000000000E+00 -0.74505805969E-08  0.93827000000E+00  0.93827000000E+00 0. -1.
     999902    2    1    2    0    0 -0.16392393174E-01  0.19455280798E-01 -0.45008646649E-02  0.10180944375E+01  0.10177665781E+01 0.  0.
     999903    2    3    3    0    0 -0.30582972634E-02  0.11390229803E+00  0.60522638825E-01  0.13055509014E+00  0.19963844097E-01 0.  0.
         14    1    1    2    0    0  0.16392393174E-01 -0.19455280798E-01  0.45008646649E-02  0.25835562460E-01  0.00000000000E+00 0. -1.
     999901    1    3    3    0    0 -0.13334095911E-01 -0.94447017237E-01 -0.65023503489E-01  0.88753934740E+00  0.88000000000E+00 0. -1.
        -11    1    4    4    0    0 -0.10342518536E-01  0.44707066751E-01  0.20236971720E-01  0.50154617460E-01  0.51100000000E-03 0. -1.
         11    1    4    4    0    0  0.72842212723E-02  0.69195231284E-01  0.40285667105E-01  0.80400472679E-01  0.51100000000E-03 0.  1.
</event>
<event>
 8    1  0.1112171E+005  0.1043930E+01  0.7957747E-01            NaN
         13   -1    0    0    0    0  0.00000000000E+00  0.00000000000E+00  0.74505805969E-08  0.10566000000E+00  0.10566000000E+00 0.  1.
     999900   -1    0    0    0    0 -0.00000000000E+00 -0.00000000000E+00 -0.74505805969E-08  0.93827000000E+00  0.93827000000E+00 0. -1.
     999902    2    1    2    0    0  0.25012055568E-02  0.55295896628E-02  0.22856735230E-01  0.10202812635E+01  0.10200071539E+01 0.  0.
     999903    2    3    3    0    0  0.22566181328E-01 -0.73140247563E-01  0.10633149603E+00  0.13261038859E+00  0.20503652352E-01 0.  0.
         14    1    1    2    0    0 -0.25012055568E-02 -0.55295896628E-02 -0.22856735230E-01  0.23648736466E-01  0.00000000000E+00 0. -1.
     999901    1    3    3    0    0 -0.20064975771E-01  0.78669837226E-01 -0.83474760798E-01  0.88767087495E+00  0.88000000000E+00 0. -1.
        -11    1    4    4    0    0  0.25285145373E-01 -0.50982327768E-01  0.76144224808E-01  0.95061771569E-01  0.51100000000E-03 0.  1.
         11    1    4    4    0    0 -0.27189640450E-02 -0.22157919795E-01  0.30187271221E-01  0.37548617017E-01  0.51100000000E-03 0. -1.
</event>
<event>
 8    1  0.1112171E+005  0.1043930E+01  0.7957747E-01            NaN
         13   -1    0    0    0    0  0.00000000000E+00  0.00000000000E+00  0.74505805969E-08  0.10566000000E+00  0.10566000000E+00 0.  1.
     999900   -1    0    0    0    0 -0.00000000000E+00 -0.00000000000E+00 -0.74505805969E-08  0.93827000000E+00  0.93827000000E+00 0.  1.
     999902    2    1    2    0    0 -0.11049595867E-01  0.19874844022E-01  0.49086528177E-02  0.10206663402E+01  0.10204011859E+01 0.  0.
     999903    2    3    3    0    0  0.19004470650E-01 -0.11191168768E+00 -0.56100118653E-01  0.12825779754E+00  0.20431435897E-01 0.  0.
         14    1    1    2    0    0  0.11049595867E-01 -0.19874844022E-01 -0.49086528177E-02  0.23263659776E-01  0.00000000000E+00 0.  1.
     999901    1    3    3    0    0 -0.30054066516E-01  0.13178653171E+00  0.61008771471E-01  0.89240854268E+00  0.88000000000E+00 0. -1.
        -11    1    4    4    0    0  0.16344659179E-01 -0.72480882740E-01 -0.26530865788E-01  0.78897238272E-01  0.51100000000E-03 0.  1.
         11    1    4    4    0    0  0.26598114706E-02 -0.39430804944E-01 -0.29569252866E-01  0.49360559272E-01  0.51100000000E-03 0. -1.
</event>
<event>
 8    1  0.1112171E+005  0.1043930E+01  0.7957747E-01            NaN
         13   -1    0    0    0    0  0.00000000000E+00  0.00000000000E+00  0.74505805969E-08  0.10566000000E+00  0.10566000000E+00 0. -1.
     999900   -1    0    0    0    0 -0.00000000000E+00 -0.00000000000E+00 -0.74505805969E-08  0.93827000000E+00  0.93827000000E+00 0.  1.
     999902    2    1    2    0    0 -0.17381687329E-01 -0.11272633176E-01  0.25337597016E-02  0.10230586021E+01  0.10228456814E+01 0.  0.
     999903    2    3    3    0    0 -0.60208474400E-02  0.11804586115E+00 -0.54484031450E-01  0.13170941676E+00  0.20193683197E-01 0.  0.
         14    1    1    2    0    0  0.17381687329E-01  0.11272633176E-01 -0.25337597016E-02  0.20871397925E-01  0.00000000000E+00 0. -1.
     999901    1    3    3    0    0 -0.11360839889E-01 -0.12931849433E+00  0.57017791152E-01  0.89134918532E+00  0.88000000000E+00 0. -1.
        -11    1    4    4    0    0 -0.31866236579E-02  0.96040036944E-01 -0.35296771256E-01  0.10237170727E+00  0.51100000000E-03 0.  1.
         11    1    4    4    0    0 -0.28342237821E-02  0.22005824206E-01 -0.19187260195E-01  0.29337709491E-01  0.51100000000E-03 0. -1.
</event>
<event>
 8    1  0.1112171E+005  0.1043930E+01  0.7957747E-01            NaN
         13   -1    0    0    0    0  0.00000000000E+00  0.00000000000E+00  0.74505805969E-08  0.10566000000E+00  0.10566000000E+00 0. -1.
     999900   -1    0    0    0    0 -0.00000000000E+00 -0.00000000000E+00 -0.74505805969E-08  0.93827000000E+00  0.93827000000E+00 0.  1.
     999902    2    1    2    0    0 -0.73256094981E-02  0.21238963429E-01 -0.78071071846E-02  0.10201453612E+01  0.10198680546E+01 0.  0.
     999903    2    3    3    0    0 -0.99987860049E-01  0.83850605338E-01 -0.16950100735E-01  0.13302073367E+00  0.19460562618E-01 0.  0.
         14    1    1    2    0    0  0.73256094981E-02 -0.21238963429E-01  0.78071071846E-02  0.23784638838E-01  0.00000000000E+00 0. -1.
     999901    1    3    3    0    0  0.92662250551E-01 -0.62611641909E-01  0.91429935505E-02  0.88712462750E+00  0.88000000000E+00 0. -1.
        -11    1    4    4    0    0 -0.62104973892E-01  0.46088800588E-01 -0.18442862767E-01  0.79508525517E-01  0.51100000000E-03 0.  1.
         11    1    4    4    0    0 -0.37882886156E-01  0.37761804750E-01  0.14927620315E-02  0.53512208149E-01  0.51100000000E-03 0. -1.
</event>
<event>
 8    1  0.1112171E+005  0.1043930E+01  0.7957747E-01            NaN
         13   -1    0    0    0    0  0.00000000000E+00  0.00000000000E+00  0.74505805969E-08  0.10566000000E+00  0.10566000000E+00 0.  1.
     999900   -1    0    0    0    0 -0.00000000000E+00 -0.00000000000E+00 -0.74505805969E-08  0.93827000000E+00  0.93827000000E+00 0. -1.
     999902    2    1    2    0    0  0.29107814985E-02  0.11489792355E-01 -0.20630320263E-01  0.10201371840E+01  0.10198596845E+01 0.  0.
     999903    2    3    3    0    0 -0.22032757687E-01 -0.82386738230E-01 -0.97700878088E-01  0.13144440584E+00  0.21427860350E-01 0.  0.
         14    1    1    2    0    0 -0.29107814985E-02 -0.11489792355E-01  0.20630320263E-01  0.23792815963E-01  0.00000000000E+00 0.  1.
     999901    1    3    3    0    0  0.24943539185E-01  0.93876530585E-01  0.77070557825E-01  0.88869277820E+00  0.88000000000E+00 0.  1.
        -11    1    4    4    0    0 -0.84564923415E-02 -0.65774735302E-01 -0.70376732222E-01  0.96700432398E-01  0.51100000000E-03 0. -1.
         11    1    4    4    0    0 -0.13576265345E-01 -0.16612002928E-01 -0.27324145866E-01  0.34743973439E-01  0.51100000000E-03 0.  1.
</event>
<event>
 8    1  0.1112171E+005  0.1043930E+01  0.7957747E-01            NaN
         13   -1    0    0    0    0  0.00000000000E+00  0.00000000000E+00  0.74505805969E-08  0.10566000000E+00  0.10566000000E+00 0. -1.
     999900   -1    0    0    0    0 -0.00000000000E+00 -0.00000000000E+00 -0.74505805969E-08  0.93827000000E+00  0.93827000000E+00 0.  1.
     999902    2    1    2    0    0  0.13581219388E-01 -0.13121489339E-01 -0.14007183145E-01  0.10204177865E+01  0.10201468693E+01 0.  0.
     999903    2    3    3    0    0  0.22268272038E-01  0.69662824755E-02  0.12548875331E+00  0.12916131404E+00  0.19768985972E-01 0.  0.
         14    1    1    2    0    0 -0.13581219388E-01  0.13121489339E-01  0.14007183145E-01  0.23512213469E-01  0.00000000000E+00 0. -1.
     999901    1    3    3    0    0 -0.86870526498E-02 -0.20087771814E-01 -0.13949593646E+00  0.89125647249E+00  0.88000000000E+00 0.  1.
        -11    1    4    4    0    0  0.10656150300E-01  0.13487088197E-01  0.66744547805E-01  0.68924240075E-01  0.51100000000E-03 0.  1.
         11    1    4    4    0    0  0.11612121738E-01 -0.65208057218E-02  0.58744205510E-01  0.60237073970E-01  0.51100000000E-03 0. -1.
</event>
<event>
 8    1  0.1112171E+005  0.1043930E+01  0.7957747E-01            NaN
         13   -1    0    0    0    0  0.00000000000E+00  0.00000000000E+00  0.74505805969E-08  0.10566000000E+00  0.10566000000E+00 0. -1.
     999900   -1    0    0    0    0 -0.00000000000E+00 -0.00000000000E+00 -0.74505805969E-08  0.93827000000E+00  0.93827000000E+00 0.  1.
     999902    2    1    2    0    0  0.19068050697E-01 -0.81215307655E-02 -0.11390857513E-01  0.10202804449E+01  0.10200063161E+01 0.  0.
     999903    2    3    3    0    0 -0.52111306199E-01  0.65842352083E-01  0.95791321244E-01  0.12785387864E+00  0.10946848621E-01 0.  0.
         14    1    1    2    0    0 -0.19068050697E-01  0.81215307655E-02  0.11390857513E-01  0.23649555054E-01  0.00000000000E+00 0. -1.
     999901    1    3    3    0    0  0.71179356896E-01 -0.73963882849E-01 -0.10718217876E+00  0.89242656631E+00  0.88000000000E+00 0.  1.
        -11    1    4    4    0    0 -0.38648069097E-01  0.52669218758E-01  0.79870151561E-01  0.10318537726E+00  0.51100000000E-03 0. -1.
         11    1    4    4    0    0 -0.13463237102E-01  0.13173133325E-01  0.15921169683E-01  0.24668501372E-01  0.51100000000E-03 0.  1.
</event>
<event>
 8    1  0.1112171E+005  0.1043930E+01  0.7957747E-01            NaN
         13   -1    0    0    0    0  0.00000000000E+00  0.00000000000E+00  0.74505805969E-08  0.10566000000E+00  0.10566000000E+00 0.  1.
     999900   -1    0    0    0    0 -0.00000000000E+00 -0.00000000000E+00 -0.74505805969E-08  0.93827000000E+00  0.93827000000E+00 0.  1.
     999902    2    1    2    0    0 -0.52354808957E-02 -0.12407335389E-01 -0.19517194632E-01  0.10202177011E+01  0.10199420986E+01 0.  0.
     999903    2    3    3    0    0 -0.73249511207E-01 -0.77112703469E-01  0.72825274571E-01  0.13042006986E+00  0.19849787868E-01 0.  0.
         14    1    1    2    0    0  0.52354808957E-02  0.12407335389E-01  0.19517194632E-01  0.23712298876E-01  0.00000000000E+00 0. -1.
     999901    1    3    3    0    0  0.68014030311E-01  0.64705368080E-01 -0.92342469204E-01  0.88979763126E+00  0.88000000000E+00 0.  1.
        -11    1    4    4    0    0 -0.18420485089E-01 -0.11752240795E-01  0.80100475774E-02  0.23277702159E-01  0.51100000000E-03 0.  1.
         11    1    4    4    0    0 -0.54829026119E-01 -0.65360462675E-01  0.64815226994E-01  0.10714236771E+00  0.51100000000E-03 0. -1.
</event>
<event>
 8    1  0.1112171E+005  0.1043930E+01  0.7957747E-01            NaN
         13   -1    0    0    0    0  0.00000000000E+00  0.00000000000E+00  0.74505805969E-08  0.10566000000E+00  0.10566000000E+00 0.  1.
     999900   -1    0    0    0    0 -0.00000000000E+00 -0.00000000000E+00 -0.74505805969E-08  0.93827000000E+00  0.93827000000E+00 0. -1.
     999902    2    1    2    0    0 -0.20398036011E-01  0.11963764575E-01  0.14186913067E-02  0.10202398286E+01  0.10199647463E+01 0.  0.
     999903    2    3    3    0    0  0.91044234443E-01  0.18567054532E-02  0.88867387003E-01  0.12885393760E+00  0.20332849852E-01 0.  0.
         14    1    1    2    0    0  0.20398036011E-01 -0.11963764575E-01 -0.14186913067E-02  0.23690171399E-01  0.00000000000E+00 0. -1.
     999901    1    3    3    0    0 -0.11144227045E+00  0.10107059122E-01 -0.87448695696E-01  0.89138589100E+00  0.88000000000E+00 0. -1.
        -11    1    4    4    0    0  0.26347712592E-01  0.78215467025E-02  0.18828227170E-01  0.33318790659E-01  0.51100000000E-03 0.  1.
         11    1    4    4    0    0  0.64696521851E-01 -0.59648412493E-02  0.70039159833E-01  0.95535146945E-01  0.51100000000E-03 0. -1.
</event>
<event>
 8    1  0.1112171E+005  0.1043930E+01  0.7957747E-01            NaN
         13   -1    0    0    0    0  0.00000000000E+00  0.00000000000E+00  0.74505805969E-08  0.10566000000E+00  0.10566000000E+00 0.  1.
     999900   -1    0    0    0    0 -0.00000000000E+00 -0.00000000000E+00 -0.74505805969E-08  0.93827000000E+00  0.93827000000E+00 0. -1.
     999902    2    1    2    0    0 -0.22892396434E-01 -0.32610355011E-02 -0.61180539290E-02  0.10200108288E+01  0.10197303389E+01 0.  0.
     999903    2    3    3    0    0  0.22596802789E-01  0.11808616430E+00 -0.46864229143E-01  0.12958696291E+00  0.11898205255E-01 0.  0.
         14    1    1    2    0    0  0.22892396434E-01  0.32610355011E-02  0.61180539290E-02  0.23919171200E-01  0.00000000000E+00 0. -1.
     999901    1    3    3    0    0 -0.45489199223E-01 -0.12134719980E+00  0.40746175214E-01  0.89042386589E+00  0.88000000000E+00 0. -1.
        -11    1    4    4    0    0  0.10022165727E-01  0.76500669896E-01 -0.26274436178E-01  0.81507075876E-01  0.51100000000E-03 0.  1.
         11    1    4    4    0    0  0.12574637062E-01  0.41585494405E-01 -0.20589792966E-01  0.48079887037E-01  0.51100000000E-03 0. -1.
</event>
<event>
 8    1  0.1112171E+005  0.1043930E+01  0.7957747E-01            NaN
         13   -1    0    0    0    0  0.00000000000E+00  0.00000000000E+00  0.74505805969E-08  0.10566000000E+00  0.10566000000E+00 0.  1.
     999900   -1    0    0    0    0 -0.00000000000E+00 -0.00000000000E+00 -0.74505805969E-08  0.93827000000E+00  0.93827000000E+00 0.  1.
     999902    2    1    2    0    0  0.29227226341E-02 -0.24353314276E-01 -0.76979753247E-03  0.10193898531E+01  0.10190944283E+01 0.  0.
     999903    2    3    3    0    0 -0.81441231279E-01  0.56709684584E-01 -0.78608348320E-01  0.12824041189E+00  0.20436935627E-01 0.  0.
         14    1    1    2    0    0 -0.29227226341E-02  0.24353314276E-01  0.76979753247E-03  0.24540146945E-01  0.00000000000E+00 0. -1.
     999901    1    3    3    0    0  0.84363953913E-01 -0.81062998860E-01  0.77838550787E-01  0.89114944117E+00  0.88000000000E+00 0. -1.
        -11    1    4    4    0    0 -0.21462147408E-02 -0.22991010537E-03 -0.65181899678E-02  0.68852754358E-02  0.51100000000E-03 0. -1.
         11    1    4    4    0    0 -0.79295016538E-01  0.56939594689E-01 -0.72090158352E-01  0.12135513645E+00  0.51100000000E-03 0.  1.
</event>
<event>
 8    1  0.1112171E+005  0.1043930E+01  0.7957747E-01            NaN
         13   -1    0    0    0    0  0.00000000000E+00  0.00000000000E+00  0.74505805969E-08  0.10566000000E+00  0.10566000000E+00 0.  1.
     999900   -1    0    0    0    0 -0.00000000000E+00 -0.00000000000E+00 -0.74505805969E-08  0.93827000000E+00  0.93827000000E+00 0. -1.
     999902    2    1    2    0    0  0.15281637347E-01  0.14216563360E-02 -0.18607768908E-01  0.10198094981E+01  0.10195242096E+01 0.  0.
     999903    2    3    3    0    0  0.77360709911E-01 -0.65725537597E-01 -0.82783570713E-01  0.13274631524E+00  0.21539240914E-01 0.  0.
         14    1    1    2    0    0 -0.15281637347E-01 -0.14216563360E-02  0.18607768908E-01  0.24120501870E-01  0.00000000000E+00 0.  1.
     999901    1    3    3    0    0 -0.62079072564E-01  0.67147193933E-01  0.64175801806E-01  0.88706318289E+00  0.88000000000E+00 0.  1.
        -11    1    4    4    0    0  0.57633191879E-01 -0.35580345336E-01 -0.54809027220E-01  0.87131144640E-01  0.51100000000E-03 0.  1.
         11    1    4    4    0    0  0.19727518032E-01 -0.30145192261E-01 -0.27974543493E-01  0.45615170599E-01  0.51100000000E-03 0. -1.
</event>
<event>
 8    1  0.1112171E+005  0.1043930E+01  0.7957747E-01            NaN
         13   -1    0    0    0    0  0.00000000000E+00  0.00000000000E+00  0.74505805969E-08  0.10566000000E+00  0.10566000000E+00 0.  1.
     999900   -1    0    0    0    0 -0.00000000000E+00 -0.00000000000E+00 -0.74505805969E-08  0.93827000000E+00  0.93827000000E+00 0. -1.
     999902    2    1    2    0    0  0.48854063245E-02 -0.20261926549E-01 -0.12655624806E-01  0.10195460360E+01  0.10192544048E+01 0.  0.
     999903    2    3    3    0    0  0.89200849568E-01 -0.95156529976E-01  0.94153015934E-02  0.13207467228E+00  0.18534141251E-01 0.  0.
         14    1    1    2    0    0 -0.48854063245E-02  0.20261926549E-01  0.12655624806E-01  0.24383964027E-01  0.00000000000E+00 0.  1.
     999901    1    3    3    0    0 -0.84315443243E-01  0.74894603427E-01 -0.22070926400E-01  0.88747136370E+00  0.88000000000E+00 0. -1.
        -11    1    4    4    0    0  0.84941977283E-01 -0.89546872912E-01  0.13082305442E-01  0.12411764496E+00  0.51100000000E-03 0.  1.
         11    1    4    4    0    0  0.42588722842E-02 -0.56096570638E-02 -0.36670038490E-02  0.79570273177E-02  0.51100000000E-03 0. -1.
</event>
<event>
 8    1  0.1112171E+005  0.1043930E+01  0.7957747E-01            NaN
         13   -1    0    0    0    0  0.00000000000E+00  0.00000000000E+00  0.74505805969E-08  0.10566000000E+00  0.10566000000E+00 0. -1.
     999900   -1    0    0    0    0 -0.00000000000E+00 -0.00000000000E+00 -0.74505805969E-08  0.93827000000E+00  0.93827000000E+00 0. -1.
     999902    2    1    2    0    0 -0.10878940970E-01  0.60042727025E-02 -0.18679326837E-01  0.10214952079E+01  0.10212488138E+01 0.  0.
     999903    2    3    3    0    0 -0.46202112773E-01 -0.87503861622E-01  0.82012766334E-01  0.13013086300E+00  0.20405554175E-01 0.  0.
         14    1    1    2    0    0  0.10878940970E-01 -0.60042727025E-02  0.18679326837E-01  0.22434792140E-01  0.00000000000E+00 0. -1.
     999901    1    3    3    0    0  0.35323171804E-01  0.93508134325E-01 -0.10069209317E+00  0.89136434485E+00  0.88000000000E+00 0.  1.
        -11    1    4    4    0    0 -0.31553677217E-01 -0.65236418743E-01  0.48032776346E-01  0.86941552786E-01  0.51100000000E-03 0. -1.
         11    1    4    4    0    0 -0.14648435556E-01 -0.22267442879E-01  0.33979989987E-01  0.43189310218E-01  0.51100000000E-03 0.  1.
</event>
<event>
 7    1  0.1112171E+005  0.1043930E+01  0.7957747E-01            NaN
         13   -1    0    0    0    0  0.00000000000E+00  0.00000000000E+00  0.74505805969E-08  0.10566000000E+00  0.10566000000E+00 0.  1.
     999900   -1    0    0    0    0 -0.00000000000E+00 -0.00000000000E+00 -0.74505805969E-08  0.93827000000E+00  0.93827000000E+00 0.  1.
     999903    2    1    2    0    0  0.85674292331E-02  0.68237910359E-01  0.98458645089E-02  0.71357918700E-01  0.16284908952E-01 0.  0.
         14    1    1    2    0    0  0.68152543799E-01  0.16761919721E-01 -0.46848016623E-01  0.84382864614E-01  0.00000000000E+00 0. -1.
     999901    1    1    2    0    0 -0.76719973032E-01 -0.84999830080E-01  0.37002152114E-01  0.88818921669E+00  0.88000000000E+00 0.  1.
        -11    1    3    3    0    0  0.66765323615E-02  0.22481392260E-01  0.10148230838E-01  0.25558497461E-01  0.51100000000E-03 0. -1.
         11    1    3    3    0    0  0.18908968716E-02  0.45756518098E-01 -0.30236632872E-03  0.45799421239E-01  0.51100000000E-03 0.  1.
</event>
<event>
 8    1  0.1112171E+005  0.1043930E+01  0.7957747E-01            NaN
         13   -1    0    0    0    0  0.00000000000E+00  0.00000000000E+00  0.74505805969E-08  0.10566000000E+00  0.10566000000E+00 0. -1.
     999900   -1    0    0    0    0 -0.00000000000E+00 -0.00000000000E+00 -0.74505805969E-08  0.93827000000E+00  0.93827000000E+00 0. -1.
     999902    2    1    2    0    0 -0.50834009081E-02  0.65271993745E-02  0.22415173557E-01  0.10200367938E+01  0.10197569198E+01 0.  0.
     999903    2    3    3    0    0  0.10849186642E-01  0.68206957913E-01  0.11214803149E+00  0.13318267629E+00  0.19762346484E-01 0.  0.
         14    1    1    2    0    0  0.50834009081E-02 -0.65271993745E-02 -0.22415173557E-01  0.23893206190E-01  0.00000000000E+00 0.  1.
     999901    1    3    3    0    0 -0.15932587550E-01 -0.61679758539E-01 -0.89732857937E-01  0.88685411751E+00  0.88000000000E+00 0. -1.
        -11    1    4    4    0    0  0.12681323545E-01  0.35665934838E-01  0.47132601994E-01  0.60453438004E-01  0.51100000000E-03 0.  1.
         11    1    4    4    0    0 -0.18321369033E-02  0.32541023076E-01  0.65015429499E-01  0.72729238291E-01  0.51100000000E-03 0. -1.
</event>
<event>
 8    1  0.1112171E+005  0.1043930E+01  0.7957747E-01            NaN
         13   -1    0    0    0    0  0.00000000000E+00  0.00000000000E+00  0.74505805969E-08  0.10566000000E+00  0.10566000000E+00 0. -1.
     999900   -1    0    0    0    0 -0.00000000000E+00 -0.00000000000E+00 -0.74505805969E-08  0.93827000000E+00  0.93827000000E+00 0.  1.
     999902    2    1    2    0    0 -0.19274369494E-01  0.70468834665E-02  0.11250866197E-01  0.10205261141E+01  0.10202577163E+01 0.  0.
     999903    2    3    3    0    0  0.87788975782E-01  0.75389013582E-01 -0.53629410758E-01  0.12904271155E+00  0.19634155650E-01 0.  0.
         14    1    1    2    0    0  0.19274369494E-01 -0.70468834665E-02 -0.11250866197E-01  0.23403885920E-01  0.00000000000E+00 0.  1.
     999901    1    3    3    0    0 -0.10706334528E+00 -0.68342130115E-01  0.64880276955E-01  0.89148340253E+00  0.88000000000E+00 0. -1.
        -11    1    4    4    0    0  0.29649781639E-01  0.15253905570E-01 -0.10689566290E-01  0.35018839713E-01  0.51100000000E-03 0.  1.
         11    1    4    4    0    0  0.58139194142E-01  0.60135108011E-01 -0.42939844467E-01  0.94023871835E-01  0.51100000000E-03 0. -1.
</event>
<event>
 8    1  0.1112171E+005  0.1043930E+01  0.7957747E-01            NaN
         13   -1    0    0    0    0  0.00000000000E+00  0.00000000000E+00  0.74505805969E-08  0.10566000000E+00  0.10566000000E+00 0. -1.
     999900   -1    0    0    0    0 -0.00000000000E+00 -0.00000000000E+00 -0.74505805969E-08  0.93827000000E+00  0.93827000000E+00 0. -1.
     999902    2    1    2    0    0  0.18186484531E-01  0.91501916367E-02 -0.93775555551E-02  0.10215154339E+01  0.10212694889E+01 0.  0.
     999903    2    3    3    0    0  0.54741547743E-01 -0.11953720823E-01  0.11736771148E+00  0.13143340929E+00  0.18974532631E-01 0.  0.
         14    1    1    2    0    0 -0.18186484531E-01 -0.91501916367E-02  0.93775555551E-02  0.22414566130E-01  0.00000000000E+00 0. -1.
     999901    1    3    3    0    0 -0.36555063211E-01  0.21103912460E-01 -0.12674526703E+00  0.89008202458E+00  0.88000000000E+00 0. -1.
        -11    1    4    4    0    0  0.41530910832E-01 -0.15712498810E-01  0.98903283631E-01  0.10841503497E+00  0.51100000000E-03 0. -1.
         11    1    4    4    0    0  0.13210636910E-01  0.37587779870E-02  0.18464427848E-01  0.23018374319E-01  0.51100000000E-03 0.  1.
</event>
<event>
 8    1  0.1112171E+005  0.1043930E+01  0.7957747E-01            NaN
         13   -1    0    0    0    0  0.00000000000E+00  0.00000000000E+00  0.74505805969E-08  0.10566000000E+00  0.10566000000E+00 0. -1.
     999900   -1    0    0    0    0 -0.00000000000E+00 -0.00000000000E+00 -0.74505805969E-08  0.93827000000E+00  0.93827000000E+00 0. -1.
     999902    2    1    2    0    0  0.22823046696E-01 -0.30715108608E-02 -0.45102529864E-02  0.10204636833E+01  0.10201938349E+01 0.  0.
     999903    2    3    3    0    0  0.42298621575E-01 -0.11117532751E+00  0.53160609947E-01  0.13176144875E+00  0.19644390867E-01 0.  0.
         14    1    1    2    0    0 -0.22823046696E-01  0.30715108608E-02  0.45102529864E-02  0.23466316742E-01  0.00000000000E+00 0. -1.
     999901    1    3    3    0    0 -0.19475574879E-01  0.10810381665E+00 -0.57670862934E-01  0.88870223451E+00  0.88000000000E+00 0. -1.
        -11    1    4    4    0    0  0.20499666162E-01 -0.29060538790E-01  0.14271547904E-01  0.38323484029E-01  0.51100000000E-03 0. -1.
         11    1    4    4    0    0  0.21798955413E-01 -0.82114788718E-01  0.38889062043E-01  0.93437964719E-01  0.51100000000E-03 0.  1.
</event>
<event>
 8    1  0.1112171E+005  0.1043930E+01  0.7957747E-01            NaN
         13   -1    0    0    0    0  0.00000000000E+00  0.00000000000E+00  0.74505805969E-08  0.10566000000E+00  0.10566000000E+00 0. -1.
     999900   -1    0    0    0    0 -0.00000000000E+00 -0.00000000000E+00 -0.74505805969E-08  0.93827000000E+00  0.93827000000E+00 0.  1.
     999902    2    1    2    0    0 -0.14886991663E-01  0.52616518143E-02 -0.17929475255E-01  0.10200391318E+01  0.10197593132E+01 0.  0.
     999903    2    3    3    0    0 -0.10664937617E-02  0.12933909907E+00  0.37766094731E-02  0.13096243477E+00  0.20178121445E-01 0.  0.
         14    1    1    2    0    0  0.14886991663E-01 -0.52616518143E-02  0.17929475255E-01  0.23890868203E-01  0.00000000000E+00 0. -1.
     999901    1    3    3    0    0 -0.13820497901E-01 -0.12407744725E+00 -0.21706084728E-01  0.88907669703E+00  0.88000000000E+00 0. -1.
        -11    1    4    4    0    0 -0.75428119075E-02  0.69587084791E-01 -0.52100211046E-02  0.70190183232E-01  0.51100000000E-03 0.  1.
         11    1    4    4    0    0  0.64763181457E-02  0.59752014278E-01  0.89866305777E-02  0.60772251539E-01  0.51100000000E-03 0. -1.
</event>
<event>
 8    1  0.1112171E+005  0.1043930E+01  0.7957747E-01            NaN
         13   -1    0    0    0    0  0.00000000000E+00  0.00000000000E+00  0.74505805969E-08  0.10566000000E+00  0.10566000000E+00 0.  1.
     999900   -1    0    0    0    0 -0.00000000000E+00 -0.00000000000E+00 -0.74505805969E-08  0.93827000000E+00  0.93827000000E+00 0.  1.
     999902    2    1    2    0    0 -0.15453091396E-01 -0.41641125783E-02  0.17893504830E-01  0.10199234304E+01  0.10196408625E+01 0.  0.
     999903    2    3    3    0    0  0.93952360486E-01  0.85479461716E-01  0.84775311950E-03  0.12846615105E+00  0.19210644553E-01 0.  0.
         14    1    1    2    0    0  0.15453091396E-01  0.41641125783E-02 -0.17893504830E-01  0.24006569567E-01  0.00000000000E+00 0. -1.
     999901    1    3    3    0    0 -0.10940545188E+00 -0.89643574294E-01  0.17045751710E-01  0.89145727938E+00  0.88000000000E+00 0.  1.
        -11    1    4    4    0    0  0.69321348764E-01  0.73492481605E-01 -0.59030755605E-03  0.10103070737E+00  0.51100000000E-03 0.  1.
         11    1    4    4    0    0  0.24631011722E-01  0.11986980111E-01  0.14380606755E-02  0.27435443684E-01  0.51100000000E-03 0. -1.
</event>
<event>
 8    1  0.1112171E+005  0.1043930E+01  0.7957747E-01            NaN
         13   -1    0    0    0    0  0.00000000000E+00  0.00000000000E+00  0.74505805969E-08  0.10566000000E+00  0.10566000000E+00 0.  1.
     999900   -1    0    0    0    0 -0.00000000000E+00 -0.00000000000E+00 -0.74505805969E-08  0.93827000000E+00  0.93827000000E+00 0.  1.
     999902    2    1    2    0    0 -0.21880920243E-01  0.60468251910E-02 -0.95277190558E-02  0.10193105728E+01  0.10190132127E+01 0.  0.
     999903    2    3    3    0    0 -0.82124750128E-01 -0.52493882317E-01 -0.86503545316E-01  0.13196531231E+00  0.20782156684E-01 0.  0.
         14    1    1    2    0    0  0.21880920243E-01 -0.60468251910E-02  0.95277190558E-02  0.24619427206E-01  0.00000000000E+00 0.  1.
     999901    1    3    3    0    0  0.60243829885E-01  0.58540707508E-01  0.76975826260E-01  0.88734526048E+00  0.88000000000E+00 0.  1.
        -11    1    4    4    0    0 -0.19829091922E-01 -0.11055156007E-01 -0.32684323485E-01  0.39798686956E-01  0.51100000000E-03 0. -1.
         11    1    4    4    0    0 -0.62295658206E-01 -0.41438726310E-01 -0.53819221831E-01  0.92166625354E-01  0.51100000000E-03 0.  1.
</event>
<event>
 8    1  0.1112171E+005  0.1043930E+01  0.7957747E-01            NaN
         13   -1    0    0    0    0  0.00000000000E+00  0.00000000000E+00  0.74505805969E-08  0.10566000000E+00  0.10566000000E+00 0.  1.
     999900   -1    0    0    0    0 -0.00000000000E+00 -0.00000000000E+00 -0.74505805969E-08  0.93827000000E+00  0.93827000000E+00 0.  1.
     999902    2    1    2    0    0 -0.54556523844E-02  0.20807966179E-01  0.93253039076E-02  0.10204843844E+01  0.10202150175E+01 0.  0.
     999903    2    3    3    0    0  0.11696213588E+00 -0.34928897734E-01  0.39407763014E-01  0.12975565617E+00  0.19580331862E-01 0.  0.
         14    1    1    2    0    0  0.54556523844E-02 -0.20807966179E-01 -0.93253039076E-02  0.23445615633E-01  0.00000000000E+00 0.  1.
     999901    1    3    3    0    0 -0.12241778827E+00  0.55736863913E-01 -0.30082459107E-01  0.89072872819E+00  0.88000000000E+00 0.  1.
        -11    1    4    4    0    0  0.40752563265E-01 -0.21964005769E-01  0.13549010818E-01  0.48239255563E-01  0.51100000000E-03 0. -1.
         11    1    4    4    0    0  0.76209572618E-01 -0.12964891965E-01  0.25858752196E-01  0.81516400610E-01  0.51100000000E-03 0.  1.
</event>
<event>
 8    1  0.1112171E+005  0.1043930E+01  0.7957747E-01            NaN
         13   -1    0    0    0    0  0.00000000000E+00  0.00000000000E+00  0.74505805969E-08  0.10566000000E+00  0.10566000000E+00 0.  1.
     999900   -1    0    0    0    0 -0.00000000000E+00 -0.00000000000E+00 -0.74505805969E-08  0.93827000000E+00  0.93827000000E+00 0.  1.
     999902    2    1    2    0    0  0.91030964952E-02 -0.21244375080E-01  0.75970262943E-02  0.10196009095E+01  0.10193106052E+01 0.  0.
     999903    2    3    3    0    0 -0.23216724013E-01 -0.10987347509E+00  0.66928501448E-01  0.13257221087E+00  0.22017492748E-01 0.  0.
         14    1    1    2    0    0 -0.91030964952E-02  0.21244375080E-01 -0.75970262943E-02  0.24329090547E-01  0.00000000000E+00 0. -1.
     999901    1    3    3    0    0  0.32319820508E-01  0.88629100009E-01 -0.59331475153E-01  0.88702869858E+00  0.88000000000E+00 0.  1.
        -11    1    4    4    0    0 -0.22041549249E-01 -0.59985106518E-01  0.44399003973E-01  0.77817578812E-01  0.51100000000E-03 0.  1.
         11    1    4    4    0    0 -0.11751747635E-02 -0.49888368571E-01  0.22529497474E-01  0.54754632058E-01  0.51100000000E-03 0. -1.
</event>
<event>
 8    1  0.1112171E+005  0.1043930E+01  0.7957747E-01            NaN
         13   -1    0    0    0    0  0.00000000000E+00  0.00000000000E+00  0.74505805969E-08  0.10566000000E+00  0.10566000000E+00 0.  1.
     999900   -1    0    0    0    0 -0.00000000000E+00 -0.00000000000E+00 -0.74505805969E-08  0.93827000000E+00  0.93827000000E+00 0. -1.
     999902    2    1    2    0    0  0.33702321842E-02  0.20602422237E-01 -0.94604531432E-02  0.10210101736E+01  0.10207528870E+01 0.  0.
     999903    2    3    3    0    0 -0.77331548424E-01 -0.13055419265E-01 -0.10376007199E+00  0.13166319646E+00  0.20455620485E-01 0.  0.
         14    1    1    2    0    0 -0.33702321842E-02 -0.20602422237E-01  0.94604531432E-02  0.22919826367E-01  0.00000000000E+00 0.  1.
     999901    1    3    3    0    0  0.80701780609E-01  0.33657841502E-01  0.94299618847E-01  0.88934697717E+00  0.88000000000E+00 0.  1.
        -11    1    4    4    0    0 -0.37439871919E-01 -0.72696384001E-02 -0.67053956291E-01  0.77143281153E-01  0.51100000000E-03 0.  1.
         11    1    4    4    0    0 -0.39891676506E-01 -0.57857808651E-02 -0.36706115700E-01  0.54519915310E-01  0.51100000000E-03 0. -1.
</event>
<event>
 8    1  0.1112171E+005  0.1043930E+01  0.7957747E-01            NaN
         13   -1    0    0    0    0  0.00000000000E+00  0.00000000000E+00  0.74505805969E-08  0.10566000000E+00  0.10566000000E+00 0.  1.
     999900   -1    0    0    0    0 -0.00000000000E+00 -0.00000000000E+00 -0.74505805969E-08  0.93827000000E+00  0.93827000000E+00 0.  1.
     999902    2    1    2    0    0  0.11418708821E-02 -0.20820427389E-02 -0.23424728610E-01  0.10203852197E+01  0.10201135426E+01 0.  0.
     999903    2    3    3    0    0 -0.12384549844E-01  0.66909096843E-01 -0.11255641593E+00  0.13309316002E+00  0.20362665896E-01 0.  0.
         14    1    1    2    0    0 -0.11418708821E-02  0.20820427389E-02  0.23424728610E-01  0.23544780346E-01  0.00000000000E+00 0.  1.
     999901    1    3    3    0    0  0.13526420726E-01 -0.68991139582E-01  0.89131687322E-01  0.88729205963E+00  0.88000000000E+00 0. -1.
        -11    1    4    4    0    0 -0.20361554323E-02  0.41858132176E-01 -0.83038647125E-01  0.93015736279E-01  0.51100000000E-03 0. -1.
         11    1    4    4    0    0 -0.10348394412E-01  0.25050964667E-01 -0.29517768807E-01  0.40077423744E-01  0.51100000000E-03 0.  1.
</event>
<event>
 8    1  0.1112171E+005  0.1043930E+01  0.7957747E-01            NaN
         13   -1    0    0    0    0  0.00000000000E+00  0.00000000000E+00  0.74505805969E-08  0.10566000000E+00  0.10566000000E+00 0. -1.
     999900   -1    0    0    0    0 -0.00000000000E+00 -0.00000000000E+00 -0.74505805969E-08  0.93827000000E+00  0.93827000000E+00 0. -1.
     999902    2    1    2    0    0  0.14154737956E-01 -0.78013989227E-02  0.93427935209E-02  0.10252616786E+01  0.10250917049E+01 0.  0.
     999903    2    3    3    0    0  0.88090964750E-01 -0.36461480626E-02 -0.10088134873E+00  0.13529921130E+00  0.18855174091E-01 0.  0.
         14    1    1    2    0    0 -0.14154737956E-01  0.78013989227E-02 -0.93427935209E-02  0.18668321363E-01  0.00000000000E+00 0. -1.
     999901    1    3    3    0    0 -0.73936226794E-01 -0.41552508601E-02  0.11022414225E+00  0.88996246734E+00  0.88000000000E+00 0.  1.
        -11    1    4    4    0    0  0.31929335484E-01  0.21221968428E-02 -0.24443412036E-01  0.40270680363E-01  0.51100000000E-03 0. -1.
         11    1    4    4    0    0  0.56161629265E-01 -0.57683449053E-02 -0.76437936691E-01  0.95028530933E-01  0.51100000000E-03 0.  1.
</event>
<event>
 8    1  0.1112171E+005  0.1043930E+01  0.7957747E-01            NaN
         13   -1    0    0    0    0  0.00000000000E+00  0.00000000000E+00  0.74505805969E-08  0.10566000000E+00  0.10566000000E+00 0. -1.
     999900   -1    0    0    0    0 -0.00000000000E+00 -0.00000000000E+00 -0.74505805969E-08  0.93827000000E+00  0.93827000000E+00 0.  1.
     999902    2    1    2    0    0  0.20426461983E-01 -0.13584937858E-01  0.16152744211E-02  0.10193454521E+01  0.10190489442E+01 0.  0.
     999903    2    3    3    0    0 -0.49521556523E-01 -0.11810697842E+00  0.12415747986E-01  0.13033800975E+00  0.20789494377E-01 0.  0.
         14    1    1    2    0    0 -0.20426461983E-01  0.13584937858E-01 -0.16152744211E-02  0.24584547936E-01  0.00000000000E+00 0. -1.
     999901    1    3    3    0    0  0.69948018507E-01  0.10452204056E+00 -0.10800473565E-01  0.88900744231E+00  0.88000000000E+00 0. -1.
        -11    1    4    4    0    0 -0.15460644150E-01 -0.47700339421E-01  0.14150759165E-01  0.52104308885E-01  0.51100000000E-03 0. -1.
         11    1    4    4    0    0 -0.34060912374E-01 -0.70406638998E-01 -0.17350111787E-02  0.78233700868E-01  0.51100000000E-03 0.  1.
</event>
<event>
 8    1  0.1112171E+005  0.1043930E+01  0.7957747E-01            NaN
         13   -1    0    0    0    0  0.00000000000E+00  0.00000000000E+00  0.74505805969E-08  0.10566000000E+00  0.10566000000E+00 0. -1.
     999900   -1    0    0    0    0 -0.00000000000E+00 -0.00000000000E+00 -0.74505805969E-08  0.93827000000E+00  0.93827000000E+00 0. -1.
     999902    2    1    2    0    0 -0.13176221429E-01 -0.20195812132E-01  0.44620794120E-02  0.10194066684E+01  0.10191116533E+01 0.  0.
     999903    2    3    3    0    0  0.48690398434E-01  0.11459663936E+00  0.14359293882E-01  0.12694129740E+00  0.20118623532E-01 0.  0.
         14    1    1    2    0    0  0.13176221429E-01  0.20195812132E-01 -0.44620794120E-02  0.24523331574E-01  0.00000000000E+00 0.  1.
     999901    1    3    3    0    0 -0.61866619863E-01 -0.13479245149E+00 -0.98972144698E-02  0.89246537103E+00  0.88000000000E+00 0.  1.
        -11    1    4    4    0    0  0.35165951860E-01  0.74993043199E-01  0.42861045920E-03  0.82831428374E-01  0.51100000000E-03 0.  1.
         11    1    4    4    0    0  0.13524446574E-01  0.39603596156E-01  0.13930683423E-01  0.44109869023E-01  0.51100000000E-03 0. -1.
</event>
<event>
 8    1  0.1299697E+005  0.1043930E+01  0.7957747E-01            NaN
         13   -1    0    0    0    0  0.00000000000E+00  0.00000000000E+00  0.74505805969E-08  0.10566000000E+00  0.10566000000E+00 0.  1.
     999900   -1    0    0    0    0 -0.00000000000E+00 -0.00000000000E+00 -0.74505805969E-08  0.93827000000E+00  0.93827000000E+00 0. -1.
     999902    2    1    2    0    0  0.11025970815E-01 -0.14151752658E-01  0.14613234095E-01  0.10207914878E+01  0.10205292112E+01 0.  0.
     999903    2    3    3    0    0  0.12765302595E+00 -0.20472704812E-01 -0.20478666440E-01  0.13238096001E+00  0.19771598756E-01 0.  0.
         14    1    1    2    0    0 -0.11025970815E-01  0.14151752658E-01 -0.14613234095E-01  0.23138512191E-01  0.00000000000E+00 0. -1.
     999901    1    3    3    0    0 -0.11662705513E+00  0.63209521540E-02  0.35091900535E-01  0.88841052780E+00  0.88000000000E+00 0.  1.
        -11    1    4    4    0    0  0.76779871662E-01 -0.11707199715E-01 -0.24816182778E-02  0.77708601634E-01  0.51100000000E-03 0. -1.
         11    1    4    4    0    0  0.50873154286E-01 -0.87655050970E-02 -0.17997048162E-01  0.54672358374E-01  0.51100000000E-03 0.  1.
</event>
<event>
 8    1  0.1112171E+005  0.1043930E+01  0.7957747E-01            NaN
         13   -1    0    0    0    0  0.00000000000E+00  0.00000000000E+00  0.74505805969E-08  0.10566000000E+00  0.10566000000E+00 0.  1.
     999900   -1    0    0    0    0 -0.00000000000E+00 -0.00000000000E+00 -0.74505805969E-08  0.93827000000E+00  0.93827000000E+00 0.  1.
     999902    2    1    2    0    0 -0.12826891960E-01 -0.19176269741E-01 -0.30419990264E-02  0.10206595845E+01  0.10203942744E+01 0.  0.
     999903    2    3    3    0    0 -0.15966697252E-01  0.10636406174E+00  0.68179166703E-01  0.12889577742E+00  0.19936740287E-01 0.  0.
         14    1    1    2    0    0  0.12826891960E-01  0.19176269741E-01  0.30419990264E-02  0.23270415480E-01  0.00000000000E+00 0.  1.
     999901    1    3    3    0    0  0.31398052923E-02 -0.12554033148E+00 -0.71221165730E-01  0.89176380710E+00  0.88000000000E+00 0.  1.
        -11    1    4    4    0    0 -0.19167601955E-01  0.71675616122E-01  0.41492623650E-01  0.85009939710E-01  0.51100000000E-03 0.  1.
         11    1    4    4    0    0  0.32009047033E-02  0.34688445618E-01  0.26686543053E-01  0.43885837709E-01  0.51100000000E-03 0. -1.
</event>
<event>
 8    1  0.1112171E+005  0.1043930E+01  0.7957747E-01            NaN
         13   -1    0    0    0    0  0.00000000000E+00  0.00000000000E+00  0.74505805969E-08  0.10566000000E+00  0.10566000000E+00 0.  1.
     999900   -1    0    0    0    0 -0.00000000000E+00 -0.00000000000E+00 -0.74505805969E-08  0.93827000000E+00  0.93827000000E+00 0.  1.
     999902    2    1    2    0    0 -0.27600975928E-02 -0.10903570934E-01 -0.20691192066E-01  0.10203793858E+01  0.10201075726E+01 0.  0.
     999903    2    3    3    0    0  0.11846277849E+00 -0.49240906901E-01 -0.17813634755E-01  0.13123765510E+00  0.21163641804E-01 0.  0.
         14    1    1    2    0    0  0.27600975928E-02  0.10903570934E-01  0.20691192066E-01  0.23550614152E-01  0.00000000000E+00 0.  1.
     999901    1    3    3    0    0 -0.12122287608E+00  0.38337335967E-01 -0.28775573110E-02  0.88914173074E+00  0.88000000000E+00 0. -1.
        -11    1    4    4    0    0  0.33189571433E-01 -0.21874848344E-01  0.81907233315E-03  0.39761647885E-01  0.51100000000E-03 0.  1.
         11    1    4    4    0    0  0.85273207055E-01 -0.27366058556E-01 -0.18632707088E-01  0.91476007219E-01  0.51100000000E-03 0. -1.
</event>
<event>
 8    1  0.1112171E+005  0.1043930E+01  0.7957747E-01            NaN
         13   -1    0    0    0    0  0.00000000000E+00  0.00000000000E+00  0.74505805969E-08  0.10566000000E+00  0.10566000000E+00 0. -1.
     999900   -1    0    0    0    0 -0.00000000000E+00 -0.00000000000E+00 -0.74505805969E-08  0.93827000000E+00  0.93827000000E+00 0.  1.
     999902    2    1    2    0    0 -0.13889247889E-01  0.13444731309E-01 -0.13727885949E-01  0.10202207853E+01  0.10199452554E+01 0.  0.
     999903    2    3    3    0    0 -0.11859191091E+00  0.47620043256E-01 -0.31441942097E-01  0.13317829066E+00  0.20399792330E-01 0.  0.
         14    1    1    2    0    0  0.13889247889E-01 -0.13444731309E-01  0.13727885949E-01  0.23709214655E-01  0.00000000000E+00 0. -1.
     999901    1    3    3    0    0  0.10470266302E+00 -0.34175311946E-01  0.17714056147E-01  0.88704249468E+00  0.88000000000E+00 0. -1.
        -11    1    4    4    0    0 -0.33523116232E-01  0.23208584926E-01 -0.12742561148E-01  0.42720858158E-01  0.51100000000E-03 0. -1.
         11    1    4    4    0    0 -0.85068794680E-01  0.24411458330E-01 -0.18699380949E-01  0.90457432503E-01  0.51100000000E-03 0.  1.
</event>
<event>
 7    1  0.1112171E+005  0.1043930E+01  0.7957747E-01            NaN
         13   -1    0    0    0    0  0.00000000000E+00  0.00000000000E+00  0.74505805969E-08  0.10566000000E+00  0.10566000000E+00 0. -1.
     999900   -1    0    0    0    0 -0.00000000000E+00 -0.00000000000E+00 -0.74505805969E-08  0.93827000000E+00  0.93827000000E+00 0. -1.
     999902    2    1    2    0    0 -0.16310617553E-01  0.12111143594E-01 -0.13703279016E-01  0.10194249821E+01  0.10191304128E+01 0.  0.
         14    1    1    2    0    0  0.16310617553E-01 -0.12111143594E-01  0.13703279016E-01  0.24505017852E-01  0.00000000000E+00 0. -1.
     999901    1    3    3    0    0 -0.59336659014E-02  0.11965098711E+00 -0.57565790557E-01  0.88998055448E+00  0.88000000000E+00 0. -1.
        -11    1    3    3    0    0  0.12847928860E-02 -0.41632993706E-01  0.46538486963E-01  0.62458376119E-01  0.51100000000E-03 0. -1.
         11    1    3    3    0    0 -0.11661744538E-01 -0.65906849805E-01 -0.26759754217E-02  0.66986051551E-01  0.51100000000E-03 0.  1.
</event>
<event>
 8    1  0.1112171E+005  0.1043930E+01  0.7957747E-01            NaN
         13   -1    0    0    0    0  0.00000000000E+00  0.00000000000E+00  0.74505805969E-08  0.10566000000E+00  0.10566000000E+00 0. -1.
     999900   -1    0    0    0    0 -0.00000000000E+00 -0.00000000000E+00 -0.74505805969E-08  0.93827000000E+00  0.93827000000E+00 0.  1.
     999902    2    1    2    0    0  0.13669032047E-01  0.10362405654E-01 -0.16914304932E-01  0.10198402595E+01  0.10195557068E+01 0.  0.
     999903    2    3    3    0    0  0.94438624767E-02  0.12877688348E+00  0.13815693332E-01  0.13136731479E+00  0.19845043612E-01 0.  0.
         14    1    1    2    0    0 -0.13669032047E-01 -0.10362405654E-01  0.16914304932E-01  0.24089740542E-01  0.00000000000E+00 0. -1.
     999901    1    3    3    0    0  0.42251695701E-02 -0.11841447782E+00 -0.30729998264E-01  0.88847294467E+00  0.88000000000E+00 0.  1.
        -11    1    4    4    0    0  0.15265632341E-01  0.76206325036E-01  0.70253552022E-02  0.78038838042E-01  0.51100000000E-03 0.  1.
         11    1    4    4    0    0 -0.58217698643E-02  0.52570558441E-01  0.67903381299E-02  0.53328476747E-01  0.51100000000E-03 0. -1.
</event>
<event>
 8    1  0.1112171E+005  0.1043930E+01  0.7957747E-01            NaN
         13   -1    0    0    0    0  0.00000000000E+00  0.00000000000E+00  0.74505805969E-08  0.10566000000E+00  0.10566000000E+00 0.  1.
     999900   -1    0    0    0    0 -0.00000000000E+00 -0.00000000000E+00 -0.74505805969E-08  0.93827000000E+00  0.93827000000E+00 0. -1.
     999902    2    1    2    0    0 -0.14135187956E-01  0.33745192426E-02 -0.20180906578E-01  0.10190611458E+01  0.10187576547E+01 0.  0.
     999903    2    3    3    0    0 -0.12125850854E+00 -0.43266660861E-01 -0.16437603478E-01  0.13133099660E+00  0.20050087887E-01 0.  0.
         14    1    1    2    0    0  0.14135187956E-01 -0.33745192426E-02  0.20180906578E-01  0.24868854195E-01  0.00000000000E+00 0.  1.
     999901    1    3    3    0    0  0.10712332058E+00  0.46641180104E-01 -0.37433030999E-02  0.88773014921E+00  0.88000000000E+00 0. -1.
        -11    1    4    4    0    0 -0.46518133726E-01 -0.25888579638E-01 -0.11286981217E-01  0.54422535654E-01  0.51100000000E-03 0.  1.
         11    1    4    4    0    0 -0.74740374812E-01 -0.17378081223E-01 -0.51506222608E-02  0.76908460944E-01  0.51100000000E-03 0. -1.
</event>
<event>
 8    1  0.1112171E+005  0.1043930E+01  0.7957747E-01            NaN
         13   -1    0    0    0    0  0.00000000000E+00  0.00000000000E+00  0.74505805969E-08  0.10566000000E+00  0.10566000000E+00 0. -1.
     999900   -1    0    0    0    0 -0.00000000000E+00 -0.00000000000E+00 -0.74505805969E-08  0.93827000000E+00  0.93827000000E+00 0. -1.
     999902    2    1    2    0    0 -0.21474342942E-01  0.93164882574E-02 -0.78126827564E-02  0.10192524318E+01  0.10189536483E+01 0.  0.
     999903    2    3    3    0    0  0.32216552515E-02  0.30348709375E-01 -0.12564300749E+00  0.13080646721E+00  0.19817752373E-01 0.  0.
         14    1    1    2    0    0  0.21474342942E-01 -0.93164882574E-02  0.78126827564E-02  0.24677568156E-01  0.00000000000E+00 0. -1.
     999901    1    3    3    0    0 -0.24695998194E-01 -0.21032221118E-01  0.11783032473E+00  0.88844596464E+00  0.88000000000E+00 0.  1.
        -11    1    4    4    0    0  0.58636249516E-02  0.15143509227E-01 -0.31889009007E-01  0.35789355760E-01  0.51100000000E-03 0. -1.
         11    1    4    4    0    0 -0.26419697000E-02  0.15205200148E-01 -0.93753998482E-01  0.95017111447E-01  0.51100000000E-03 0.  1.
</event>
<event>
 8    1  0.1112171E+005  0.1043930E+01  0.7957747E-01            NaN
         13   -1    0    0    0    0  0.00000000000E+00  0.00000000000E+00  0.74505805969E-08  0.10566000000E+00  0.10566000000E+00 0.  1.
     999900   -1    0    0    0    0 -0.00000000000E+00 -0.00000000000E+00 -0.74505805969E-08  0.93827000000E+00  0.93827000000E+00 0. -1.
     999902    2    1    2    0    0 -0.16029397508E-01  0.17221268110E-01  0.49567698626E-02  0.10198866386E+01  0.10196031936E+01 0.  0.
     999903    2    3    3    0    0  0.98873769003E-01 -0.31403407134E-01 -0.71822632456E-01  0.12777556181E+00  0.20147145866E-01 0.  0.
         14    1    1    2    0    0  0.16029397508E-01 -0.17221268110E-01 -0.49567698626E-02  0.24043361396E-01  0.00000000000E+00 0. -1.
     999901    1    3    3    0    0 -0.11490316651E+00  0.48624675244E-01  0.76779402319E-01  0.89211107679E+00  0.88000000000E+00 0. -1.
        -11    1    4    4    0    0  0.31403522719E-01 -0.35002067543E-02 -0.13665076260E-01  0.34430046713E-01  0.51100000000E-03 0. -1.
         11    1    4    4    0    0  0.67470246284E-01 -0.27903200379E-01 -0.58157556196E-01  0.93345515097E-01  0.51100000000E-03 0.  1.
</event>
<event>
 8    1  0.1112171E+005  0.1043930E+01  0.7957747E-01            NaN
         13   -1    0    0    0    0  0.00000000000E+00  0.00000000000E+00  0.74505805969E-08  0.10566000000E+00  0.10566000000E+00 0.  1.
     999900   -1    0    0    0    0 -0.00000000000E+00 -0.00000000000E+00 -0.74505805969E-08  0.93827000000E+00  0.93827000000E+00 0. -1.
     999902    2    1    2    0    0 -0.19310771455E-01 -0.81557925270E-02 -0.10453720240E-01  0.10205055872E+01  0.10202367130E+01 0.  0.
     999903    2    3    3    0    0  0.60637765637E-01 -0.25979295418E-01  0.10863838461E+00  0.12871392140E+00  0.20325170125E-01 0.  0.
         14    1    1    2    0    0  0.19310771455E-01  0.81557925270E-02  0.10453720240E-01  0.23424412753E-01  0.00000000000E+00 0.  1.
     999901    1    3    3    0    0 -0.79948537093E-01  0.17823502891E-01 -0.11909210485E+00  0.89179166585E+00  0.88000000000E+00 0. -1.
        -11    1    4    4    0    0  0.32732681677E-01 -0.24337559712E-01  0.70052887111E-01  0.81064254614E-01  0.51100000000E-03 0. -1.
         11    1    4    4    0    0  0.27905083960E-01 -0.16417357063E-02  0.38585497494E-01  0.47649666786E-01  0.51100000000E-03 0.  1.
</event>
<event>
 8    1  0.1112171E+005  0.1043930E+01  0.7957747E-01            NaN
         13   -1    0    0    0    0  0.00000000000E+00  0.00000000000E+00  0.74505805969E-08  0.10566000000E+00  0.10566000000E+00 0. -1.
     999900   -1    0    0    0    0 -0.00000000000E+00 -0.00000000000E+00 -0.74505805969E-08  0.93827000000E+00  0.93827000000E+00 0.  1.
     999902    2    1    2    0    0  0.90217577461E-02 -0.64806222421E-02  0.17291843690E-01  0.10233776659E+01  0.10231712705E+01 0.  0.
     999903    2    3    3    0    0 -0.23716749977E-01 -0.19122695895E-02 -0.12713797028E+00  0.13099173434E+00  0.20703380768E-01 0.  0.
         14    1    1    2    0    0 -0.90217577461E-02  0.64806222421E-02 -0.17291843690E-01  0.20552334068E-01  0.00000000000E+00 0.  1.
     999901    1    3    3    0    0  0.32738507723E-01 -0.45683526526E-02  0.14442981397E+00  0.89238593159E+00  0.88000000000E+00 0. -1.
        -11    1    4    4    0    0 -0.25204512508E-01  0.20728914870E-04 -0.82062949130E-01  0.85847869056E-01  0.51100000000E-03 0.  1.
         11    1    4    4    0    0  0.14877625313E-02 -0.19329985044E-02 -0.45075021149E-01  0.45143865288E-01  0.51100000000E-03 0. -1.
</event>
<event>
 8    1  0.1112171E+005  0.1043930E+01  0.7957747E-01            NaN
         13   -1    0    0    0    0  0.00000000000E+00  0.00000000000E+00  0.74505805969E-08  0.10566000000E+00  0.10566000000E+00 0. -1.
     999900   -1    0    0    0    0 -0.00000000000E+00 -0.00000000000E+00 -0.74505805969E-08  0.93827000000E+00  0.93827000000E+00 0.  1.
     999902    2    1    2    0    0  0.18054295088E-01  0.15385005844E-01 -0.35518959261E-02  0.10199451727E+01  0.10196631225E+01 0.  0.
     999903    2    3    3    0    0  0.87636038263E-01  0.96602179576E-01  0.18283095883E-01  0.13320134545E+00  0.19906545013E-01 0.  0.
         14    1    1    2    0    0 -0.18054295088E-01 -0.15385005844E-01  0.35518959261E-02  0.23984827300E-01  0.00000000000E+00 0. -1.
     999901    1    3    3    0    0 -0.69581743176E-01 -0.81217173732E-01 -0.21834991809E-01  0.88674382725E+00  0.88000000000E+00 0.  1.
        -11    1    4    4    0    0  0.26557400417E-01  0.24503824741E-01  0.13530128332E-01  0.38588319963E-01  0.51100000000E-03 0.  1.
         11    1    4    4    0    0  0.61078637846E-01  0.72098354835E-01  0.47529675504E-02  0.94613025491E-01  0.51100000000E-03 0. -1.
</event>
<event>
 8    1  0.1112171E+005  0.1043930E+01  0.7957747E-01            NaN
         13   -1    0    0    0    0  0.00000000000E+00  0.00000000000E+00  0.74505805969E-08  0.10566000000E+00  0.10566000000E+00 0.  1.
     999900   -1    0    0    0    0 -0.00000000000E+00 -0.00000000000E+00 -0.74505805969E-08  0.93827000000E+00  0.93827000000E+00 0.  1.
     999902    2    1    2    0    0  0.83572457732E-02 -0.82290086596E-02  0.20166834743E-01  0.10206005901E+01  0.10203339175E+01 0.  0.
     999903    2    3    3    0    0 -0.72387675223E-01 -0.10669570547E+00  0.13805271544E-01  0.13141225119E+00  0.21322409591E-01 0.  0.
         14    1    1    2    0    0 -0.83572457732E-02  0.82290086596E-02 -0.20166834743E-01  0.23329409851E-01  0.00000000000E+00 0. -1.
     999901    1    3    3    0    0  0.80744920996E-01  0.98466696814E-01  0.63615631991E-02  0.88918833896E+00  0.88000000000E+00 0. -1.
        -11    1    4    4    0    0 -0.30245907596E-01 -0.57205397028E-01  0.14879018239E-01  0.66399688856E-01  0.51100000000E-03 0. -1.
         11    1    4    4    0    0 -0.42141767627E-01 -0.49490308445E-01 -0.10737466947E-02  0.65012562338E-01  0.51100000000E-03 0.  1.
</event>
<event>
 8    1  0.1112171E+005  0.1043930E+01  0.7957747E-01            NaN
         13   -1    0    0    0    0  0.00000000000E+00  0.00000000000E+00  0.74505805969E-08  0.10566000000E+00  0.10566000000E+00 0. -1.
     999900   -1    0    0    0    0 -0.00000000000E+00 -0.00000000000E+00 -0.74505805969E-08  0.93827000000E+00  0.93827000000E+00 0. -1.
     999902    2    1    2    0    0  0.11700550301E-01 -0.18218441794E-01  0.71254499496E-02  0.10211355591E+01  0.10208811114E+01 0.  0.
     999903    2    3    3    0    0  0.11690945798E+00  0.33654618293E-01  0.48156413217E-01  0.13240429007E+00  0.20283027278E-01 0.  0.
         14    1    1    2    0    0 -0.11700550301E-01  0.18218441794E-01 -0.71254499496E-02  0.22794440895E-01  0.00000000000E+00 0.  1.
     999901    1    3    3    0    0 -0.10520890768E+00 -0.51873060087E-01 -0.41030963267E-01  0.88873126904E+00  0.88000000000E+00 0. -1.
        -11    1    4    4    0    0  0.80439527033E-01  0.13259731653E-01  0.30670060094E-01  0.87104831668E-01  0.51100000000E-03 0. -1.
         11    1    4    4    0    0  0.36469930952E-01  0.20394886641E-01  0.17486353122E-01  0.45299458399E-01  0.51100000000E-03 0.  1.
</event>
<event>
 8    1  0.1112171E+005  0.1043930E+01  0.7957747E-01            NaN
         13   -1    0    0    0    0  0.00000000000E+00  0.00000000000E+00  0.74505805969E-08  0.10566000000E+00  0.10566000000E+00 0.  1.
     999900   -1    0    0    0    0 -0.00000000000E+00 -0.00000000000E+00 -0.74505805969E-08  0.93827000000E+00  0.93827000000E+00 0.  1.
     999902    2    1    2    0    0  0.70224422804E-02  0.19464878889E-01 -0.92295753702E-03  0.10232165248E+01  0.10230068467E+01 0.  0.
     999903    2    3    3    0    0  0.46781401438E-01 -0.48392093965E-01 -0.11263887035E+00  0.13267411209E+00  0.19611492199E-01 0.  0.
         14    1    1    2    0    0 -0.70224422804E-02 -0.19464878889E-01  0.92295753702E-03  0.20713475236E-01  0.00000000000E+00 0.  1.
     999901    1    3    3    0    0 -0.39758959158E-01  0.67856972854E-01  0.11171591281E+00  0.89054241268E+00  0.88000000000E+00 0. -1.
        -11    1    4    4    0    0  0.22319032948E-01 -0.35327762063E-01 -0.75849580680E-01  0.86600288767E-01  0.51100000000E-03 0. -1.
         11    1    4    4    0    0  0.24462368490E-01 -0.13064331902E-01 -0.36789289668E-01  0.46073823322E-01  0.51100000000E-03 0.  1.
</event>
<event>
 8    1  0.1112171E+005  0.1043930E+01  0.7957747E-01            NaN
         13   -1    0    0    0    0  0.00000000000E+00  0.00000000000E+00  0.74505805969E-08  0.10566000000E+00  0.10566000000E+00 0.  1.
     999900   -1    0    0    0    0 -0.00000000000E+00 -0.00000000000E+00 -0.74505805969E-08  0.93827000000E+00  0.93827000000E+00 0.  1.
     999902    2    1    2    0    0 -0.57353319475E-02 -0.12410076112E-01  0.19017633574E-01  0.10205083346E+01  0.10202395242E+01 0.  0.
     999903    2    3    3    0    0  0.18411856201E-01  0.25919427457E-01 -0.12249697754E+00  0.12805182438E+00  0.19517864972E-01 0.  0.
         14    1    1    2    0    0  0.57353319475E-02  0.12410076112E-01 -0.19017633574E-01  0.23421665364E-01  0.00000000000E+00 0. -1.
     999901    1    3    3    0    0 -0.24147188149E-01 -0.38329503569E-01  0.14151461111E+00  0.89245651026E+00  0.88000000000E+00 0. -1.
        -11    1    4    4    0    0 -0.17960458594E-02  0.10234573392E-01 -0.21800471964E-01  0.24155619886E-01  0.51100000000E-03 0. -1.
         11    1    4    4    0    0  0.20207902061E-01  0.15684854065E-01 -0.10069650557E+00  0.10389620449E+00  0.51100000000E-03 0.  1.
</event>
<event>
 7    1  0.1112171E+005  0.1043930E+01  0.7957747E-01            NaN
         13   -1    0    0    0    0  0.00000000000E+00  0.00000000000E+00  0.74505805969E-08  0.10566000000E+00  0.10566000000E+00 0. -1.
     999900   -1    0    0    0    0 -0.00000000000E+00 -0.00000000000E+00 -0.74505805969E-08  0.93827000000E+00  0.93827000000E+00 0.  1.
     999903    2    1    2    0    0  0.43864053563E-01 -0.88110057930E-01  0.97174635214E-02  0.10094396892E+00  0.20194510634E-01 0.  0.
         14    1    1    2    0    0  0.42001829259E-01 -0.23781852429E-01  0.17493807674E-01  0.51339687114E-01  0.00000000000E+00 0.  1.
     999901    1    1    2    0    0 -0.85865882822E-01  0.11189191036E+00 -0.27211271196E-01  0.89164634397E+00  0.88000000000E+00 0.  1.
        -11    1    3    3    0    0  0.17225268887E-01 -0.54991140010E-01  0.14789268044E-02  0.57647061620E-01  0.51100000000E-03 0.  1.
         11    1    3    3    0    0  0.26638784675E-01 -0.33118917919E-01  0.82385367170E-02  0.43296907296E-01  0.51100000000E-03 0. -1.
</event>
<event>
 8    1  0.1112171E+005  0.1043930E+01  0.7957747E-01            NaN
         13   -1    0    0    0    0  0.00000000000E+00  0.00000000000E+00  0.74505805969E-08  0.10566000000E+00  0.10566000000E+00 0.  1.
     999900   -1    0    0    0    0 -0.00000000000E+00 -0.00000000000E+00 -0.74505805969E-08  0.93827000000E+00  0.93827000000E+00 0.  1.
     999902    2    1    2    0    0  0.20900968978E-01  0.12133106930E-01  0.59337763294E-03  0.10197553255E+01  0.10194687387E+01 0.  0.
     999903    2    3    3    0    0 -0.12238924415E+00 -0.28457661081E-01  0.42837191121E-02  0.12723456150E+00  0.19527361169E-01 0.  0.
         14    1    1    2    0    0 -0.20900968978E-01 -0.12133106930E-01 -0.59337763294E-03  0.24174674455E-01  0.00000000000E+00 0.  1.
     999901    1    3    3    0    0  0.14329021313E+00  0.40590768011E-01 -0.36903414792E-02  0.89252076404E+00  0.88000000000E+00 0. -1.
        -11    1    4    4    0    0 -0.43010100944E-01 -0.19084599982E-01  0.47960376452E-02  0.47300674813E-01  0.51100000000E-03 0. -1.
         11    1    4    4    0    0 -0.79379143203E-01 -0.93730610991E-02 -0.51231853303E-03  0.79933886690E-01  0.51100000000E-03 0.  1.
</event>
<event>
 8    1  0.1112171E+005  0.1043930E+01  0.7957747E-01            NaN
         13   -1    0    0    0    0  0.00000000000E+00  0.00000000000E+00  0.74505805969E-08  0.10566000000E+00  0.10566000000E+00 0.  1.
     999900   -1    0    0    0    0 -0.00000000000E+00 -0.00000000000E+00 -0.74505805969E-08  0.93827000000E+00  0.93827000000E+00 0. -1.
     999902    2    1    2    0    0 -0.11003701300E-01  0.19966236358E-01 -0.58182602726E-03  0.10211249445E+01  0.10208702570E+01 0.  0.
     999903    2    3    3    0    0  0.23116570548E-01 -0.10198479942E+00  0.72779017869E-01  0.12903859130E+00  0.20466984560E-01 0.  0.
         14    1    1    2    0    0  0.11003701300E-01 -0.19966236358E-01  0.58182602726E-03  0.22805055539E-01  0.00000000000E+00 0.  1.
     999901    1    3    3    0    0 -0.34120271848E-01  0.12195103577E+00 -0.73360843896E-01  0.89208635316E+00  0.88000000000E+00 0. -1.
        -11    1    4    4    0    0 -0.18854759866E-02 -0.31894531085E-01  0.18438280313E-01  0.36892376377E-01  0.51100000000E-03 0. -1.
         11    1    4    4    0    0  0.25002046534E-01 -0.70090268332E-01  0.54340737556E-01  0.92146214924E-01  0.51100000000E-03 0.  1.
</event>
<event>
 8    1  0.1112171E+005  0.1043930E+01  0.7957747E-01            NaN
         13   -1    0    0    0    0  0.00000000000E+00  0.00000000000E+00  0.74505805969E-08  0.10566000000E+00  0.10566000000E+00 0.  1.
     999900   -1    0    0    0    0 -0.00000000000E+00 -0.00000000000E+00 -0.74505805969E-08  0.93827000000E+00  0.93827000000E+00 0. -1.
     999902    2    1    2    0    0 -0.17307476558E-01 -0.68057852326E-03 -0.14784526435E-01  0.10211573376E+01  0.10209033813E+01 0.  0.
     999903    2    3    3    0    0 -0.82947290009E-01 -0.99458033104E-01 -0.24329132024E-01  0.13315020352E+00  0.19102794642E-01 0.  0.
         14    1    1    2    0    0  0.17307476558E-01  0.68057852326E-03  0.14784526435E-01  0.22772662424E-01  0.00000000000E+00 0.  1.
     999901    1    3    3    0    0  0.65639813450E-01  0.98777454580E-01  0.95446055890E-02  0.88800713406E+00  0.88000000000E+00 0.  1.
        -11    1    4    4    0    0 -0.67390467537E-01 -0.90384453759E-01 -0.23144064874E-01  0.11509445450E+00  0.51100000000E-03 0. -1.
         11    1    4    4    0    0 -0.15556822472E-01 -0.90735793451E-02 -0.11850671506E-02  0.18055749021E-01  0.51100000000E-03 0.  1.
</event>
<event>
 8    1  0.1112171E+005  0.1043930E+01  0.7957747E-01            NaN
         13   -1    0    0    0    0  0.00000000000E+00  0.00000000000E+00  0.74505805969E-08  0.10566000000E+00  0.10566000000E+00 0. -1.
     999900   -1    0    0    0    0 -0.00000000000E+00 -0.00000000000E+00 -0.74505805969E-08  0.93827000000E+00  0.93827000000E+00 0.  1.
     999902    2    1    2    0    0  0.17998511514E-01 -0.73118792536E-02  0.14618585566E-01  0.10196171836E+01  0.10193272723E+01 0.  0.
     999903    2    3    3    0    0  0.76059299194E-01  0.20279462166E-01  0.10487674345E+00  0.13266798992E+00  0.20134315342E-01 0.  0.
         14    1    1    2    0    0 -0.17998511514E-01  0.73118792536E-02 -0.14618585566E-01  0.24312816351E-01  0.00000000000E+00 0. -1.
     999901    1    3    3    0    0 -0.58060787680E-01 -0.27591341419E-01 -0.90258157882E-01  0.88694919373E+00  0.88000000000E+00 0.  1.
        -11    1    4    4    0    0  0.37812901420E-01  0.85731435231E-02  0.67913084024E-01  0.78203340122E-01  0.51100000000E-03 0.  1.
         11    1    4    4    0    0  0.38246397775E-01  0.11706318643E-01  0.36963659424E-01  0.54464649801E-01  0.51100000000E-03 0. -1.
</event>
<event>
 8    1  0.1112171E+005  0.1043930E+01  0.7957747E-01            NaN
         13   -1    0    0    0    0  0.00000000000E+00  0.00000000000E+00  0.74505805969E-08  0.10566000000E+00  0.10566000000E+00 0.  1.
     999900   -1    0    0    0    0 -0.00000000000E+00 -0.00000000000E+00 -0.74505805969E-08  0.93827000000E+00  0.93827000000E+00 0.  1.
     999902    2    1    2    0    0 -0.13941491959E-02  0.17122691159E-01 -0.15515757234E-01  0.10207811571E+01  0.10205186435E+01 0.  0.
     999903    2    3    3    0    0  0.80358963116E-01  0.96995471407E-01  0.34125721485E-01  0.13200249580E+00  0.19859748327E-01 0.  0.
         14    1    1    2    0    0  0.13941491959E-02 -0.17122691159E-01  0.15515757234E-01  0.23148842888E-01  0.00000000000E+00 0.  1.
     999901    1    3    3    0    0 -0.81753112312E-01 -0.79872780248E-01 -0.49641478719E-01  0.88877866131E+00  0.88000000000E+00 0. -1.
        -11    1    4    4    0    0  0.64051366223E-01  0.88097043464E-01  0.28596959730E-01  0.11261311562E+00  0.51100000000E-03 0. -1.
         11    1    4    4    0    0  0.16307596893E-01  0.88984279425E-02  0.55287617544E-02  0.19389380181E-01  0.51100000000E-03 0.  1.
</event>
<event>
 8    1  0.1112171E+005  0.1043930E+01  0.7957747E-01            NaN
         13   -1    0    0    0    0  0.00000000000E+00  0.00000000000E+00  0.74505805969E-08  0.10566000000E+00  0.10566000000E+00 0. -1.
     999900   -1    0    0    0    0 -0.00000000000E+00 -0.00000000000E+00 -0.74505805969E-08  0.93827000000E+00  0.93827000000E+00 0.  1.
     999902    2    1    2    0    0 -0.64060745566E-03  0.18933191311E-01  0.71007949515E-02  0.10236989002E+01  0.10234989696E+01 0.  0.
     999903    2    3    3    0    0 -0.10246853696E-02  0.54802647258E-01 -0.12040458244E+00  0.13378632770E+00  0.19928318577E-01 0.  0.
         14    1    1    2    0    0  0.64060745566E-03 -0.18933191311E-01 -0.71007949515E-02  0.20231099824E-01  0.00000000000E+00 0.  1.
     999901    1    3    3    0    0  0.38407791392E-03 -0.35869455947E-01  0.12750537739E+00  0.88991257247E+00  0.88000000000E+00 0. -1.
        -11    1    4    4    0    0 -0.27576029128E-02  0.95363695193E-02 -0.42686226187E-01  0.43828321261E-01  0.51100000000E-03 0.  1.
         11    1    4    4    0    0  0.17329175433E-02  0.45266277739E-01 -0.77718356250E-01  0.89958006440E-01  0.51100000000E-03 0. -1.
</event>
<event>
 8    1  0.1112171E+005  0.1043930E+01  0.7957747E-01            NaN
         13   -1    0    0    0    0  0.00000000000E+00  0.00000000000E+00  0.74505805969E-08  0.10566000000E+00  0.10566000000E+00 0.  1.
     999900   -1    0    0    0    0 -0.00000000000E+00 -0.00000000000E+00 -0.74505805969E-08  0.93827000000E+00  0.93827000000E+00 0.  1.
     999902    2    1    2    0    0 -0.62646752843E-02  0.49805969358E-02  0.11155670107E-01  0.10302004160E+01  0.10301089241E+01 0.  0.
     999903    2    3    3    0    0  0.17149211151E-01 -0.42109711727E-01 -0.12782427778E+00  0.13774249922E+00  0.23803924818E-01 0.  0.
         14    1    1    2    0    0  0.62646752843E-02 -0.49805969358E-02 -0.11155670107E-01  0.13729584036E-01  0.00000000000E+00 0. -1.
     999901    1    3    3    0    0 -0.23413886436E-01  0.47090308662E-01  0.13897994789E+00  0.89245791675E+00  0.88000000000E+00 0. -1.
        -11    1    4    4    0    0  0.15950601321E-01 -0.92695494448E-02 -0.45683389490E-01  0.49270472148E-01  0.51100000000E-03 0. -1.
         11    1    4    4    0    0  0.11986098304E-02 -0.32840162282E-01 -0.82140888288E-01  0.88472027070E-01  0.51100000000E-03 0.  1.
</event>
<event>
 8    1  0.1112171E+005  0.1043930E+01  0.7957747E-01            NaN
         13   -1    0    0    0    0  0.00000000000E+00  0.00000000000E+00  0.74505805969E-08  0.10566000000E+00  0.10566000000E+00 0.  1.
     999900   -1    0    0    0    0 -0.00000000000E+00 -0.00000000000E+00 -0.74505805969E-08  0.93827000000E+00  0.93827000000E+00 0. -1.
     999902    2    1    2    0    0 -0.44174711561E-02  0.16649415571E-01 -0.16926963715E-01  0.10197796544E+01  0.10194936510E+01 0.  0.
     999903    2    3    3    0    0 -0.12603332831E+00 -0.25686025978E-01 -0.56062801107E-02  0.13033552230E+00  0.20291530742E-01 0.  0.
         14    1    1    2    0    0  0.44174711561E-02 -0.16649415571E-01  0.16926963715E-01  0.24150345564E-01  0.00000000000E+00 0.  1.
     999901    1    3    3    0    0  0.12161585715E+00  0.42335441548E-01 -0.11320683604E-01  0.88944413214E+00  0.88000000000E+00 0.  1.
        -11    1    4    4    0    0 -0.78372717902E-01 -0.23552896970E-01  0.28228302627E-02  0.81885599215E-01  0.51100000000E-03 0. -1.
         11    1    4    4    0    0 -0.47660610408E-01 -0.21331290072E-02 -0.84291103735E-02  0.48449923080E-01  0.51100000000E-03 0.  1.
</event>
<event>
 8    1  0.1112171E+005  0.1043930E+01  0.7957747E-01            NaN
         13   -1    0    0    0    0  0.00000000000E+00  0.00000000000E+00  0.74505805969E-08  0.10566000000E+00  0.10566000000E+00 0.  1.
     999900   -1    0    0    0    0 -0.00000000000E+00 -0.00000000000E+00 -0.74505805969E-08  0.93827000000E+00  0.93827000000E+00 0.  1.
     999902    2    1    2    0    0 -0.12753725108E-01 -0.75104198464E-02  0.18354785928E-01  0.10203511519E+01  0.10200786789E+01 0.  0.
     999903    2    3    3    0    0  0.26799923401E-01  0.96262141943E-02 -0.12326718782E+00  0.12798635051E+00  0.19359918171E-01 0.  0.
         14    1    1    2    0    0  0.12753725108E-01  0.75104198464E-02 -0.18354785928E-01  0.23578848082E-01  0.00000000000E+00 0. -1.
     999901    1    3    3    0    0 -0.39553648509E-01 -0.17136634041E-01  0.14162197375E+00  0.89236480140E+00  0.88000000000E+00 0. -1.
        -11    1    4    4    0    0  0.17524734252E-01  0.30633753507E-02 -0.37970675872E-01  0.41934877206E-01  0.51100000000E-03 0.  1.
         11    1    4    4    0    0  0.92751891491E-02  0.65628388435E-02 -0.85296511946E-01  0.86051473309E-01  0.51100000000E-03 0. -1.
</event>
<event>
 8    1  0.1112171E+005  0.1043930E+01  0.7957747E-01            NaN
         13   -1    0    0    0    0  0.00000000000E+00  0.00000000000E+00  0.74505805969E-08  0.10566000000E+00  0.10566000000E+00 0.  1.
     999900   -1    0    0    0    0 -0.00000000000E+00 -0.00000000000E+00 -0.74505805969E-08  0.93827000000E+00  0.93827000000E+00 0. -1.
     999902    2    1    2    0    0  0.19097851414E-01  0.53503946631E-02 -0.13003386743E-01  0.10202141252E+01  0.10199384386E+01 0.  0.
     999903    2    3    3    0    0  0.77595228464E-01 -0.20041512024E-01 -0.10448503808E+00  0.13317659239E+00  0.19904770633E-01 0.  0.
         14    1    1    2    0    0 -0.19097851414E-01 -0.53503946631E-02  0.13003386743E-01  0.23715874820E-01  0.00000000000E+00 0.  1.
     999901    1    3    3    0    0 -0.58497377050E-01  0.25391906688E-01  0.91481651335E-01  0.88703753279E+00  0.88000000000E+00 0.  1.
        -11    1    4    4    0    0  0.92866384118E-02 -0.92727730034E-03 -0.24747738537E-01  0.26453982307E-01  0.51100000000E-03 0.  1.
         11    1    4    4    0    0  0.68308590052E-01 -0.19114234724E-01 -0.79737299541E-01  0.10672261008E+00  0.51100000000E-03 0. -1.
</event>
<event>
 8    1  0.1348886E+005  0.1043930E+01  0.7957747E-01            NaN
         13   -1    0    0    0    0  0.00000000000E+00  0.00000000000E+00  0.74505805969E-08  0.10566000000E+00  0.10566000000E+00 0. -1.
     999900   -1    0    0    0    0 -0.00000000000E+00 -0.00000000000E+00 -0.74505805969E-08  0.93827000000E+00  0.93827000000E+00 0.  1.
     999902    2    1    2    0    0 -0.10834736491E-01  0.18940543416E-01  0.32739464875E-03  0.10221070101E+01  0.10218740124E+01 0.  0.
     999903    2    3    3    0    0  0.42970691873E-01  0.12840076074E-01  0.12249767015E+00  0.13201835385E+00  0.20293315351E-01 0.  0.
         14    1    1    2    0    0  0.10834736491E-01 -0.18940543416E-01 -0.32739464875E-03  0.21822989873E-01  0.00000000000E+00 0. -1.
     999901    1    3    3    0    0 -0.53805428364E-01  0.61004673421E-02 -0.12217027550E+00  0.89008865628E+00  0.88000000000E+00 0.  1.
        -11    1    4    4    0    0  0.12476572381E-01 -0.20628451602E-02  0.55347489830E-01  0.56776103600E-01  0.51100000000E-03 0. -1.
         11    1    4    4    0    0  0.30494119492E-01  0.14902921234E-01  0.67150180316E-01  0.75242250248E-01  0.51100000000E-03 0.  1.
</event>
<event>
 8    1  0.1112171E+005  0.1043930E+01  0.7957747E-01            NaN
         13   -1    0    0    0    0  0.00000000000E+00  0.00000000000E+00  0.74505805969E-08  0.10566000000E+00  0.10566000000E+00 0. -1.
     999900   -1    0    0    0    0 -0.00000000000E+00 -0.00000000000E+00 -0.74505805969E-08  0.93827000000E+00  0.93827000000E+00 0.  1.
     999902    2    1    2    0    0 -0.23149142481E-01  0.33418611344E-02  0.15195004199E-02  0.10204915761E+01  0.10202223763E+01 0.  0.
     999903    2    3    3    0    0 -0.20367768474E-01 -0.12757025674E+00 -0.38546918911E-02  0.13078679327E+00  0.20032729411E-01 0.  0.
         14    1    1    2    0    0  0.23149142481E-01 -0.33418611344E-02 -0.15195004199E-02  0.23438423902E-01  0.00000000000E+00 0. -1.
     999901    1    3    3    0    0 -0.27813740076E-02  0.13091211787E+00  0.53741923110E-02  0.88970478283E+00  0.88000000000E+00 0.  1.
        -11    1    4    4    0    0  0.91660066845E-04 -0.47001899833E-01  0.46078608411E-02  0.47230080373E-01  0.51100000000E-03 0. -1.
         11    1    4    4    0    0 -0.20459428541E-01 -0.80568356903E-01 -0.84625527322E-02  0.83556712896E-01  0.51100000000E-03 0.  1.
</event>
<event>
 8    1  0.1112171E+005  0.1043930E+01  0.7957747E-01            NaN
         13   -1    0    0    0    0  0.00000000000E+00  0.00000000000E+00  0.74505805969E-08  0.10566000000E+00  0.10566000000E+00 0. -1.
     999900   -1    0    0    0    0 -0.00000000000E+00 -0.00000000000E+00 -0.74505805969E-08  0.93827000000E+00  0.93827000000E+00 0. -1.
     999902    2    1    2    0    0 -0.39167629518E-02 -0.16984051560E-01  0.14932118592E-01  0.10209785903E+01  0.10207205860E+01 0.  0.
     999903    2    3    3    0    0 -0.94026935966E-01  0.18379826919E-01 -0.85164310797E-01  0.13002980262E+00  0.21815293037E-01 0.  0.
         14    1    1    2    0    0  0.39167629518E-02  0.16984051560E-01 -0.14932118592E-01  0.22951409653E-01  0.00000000000E+00 0.  1.
     999901    1    3    3    0    0  0.90110173014E-01 -0.35363878479E-01  0.10009642939E+00  0.89094878773E+00  0.88000000000E+00 0.  1.
        -11    1    4    4    0    0 -0.69967430111E-01  0.42119916763E-02 -0.56736560801E-01  0.90180267258E-01  0.51100000000E-03 0.  1.
         11    1    4    4    0    0 -0.24059505855E-01  0.14167835243E-01 -0.28427749996E-01  0.39849535359E-01  0.51100000000E-03 0. -1.
</event>
<event>
 8    1  0.1112171E+005  0.1043930E+01  0.7957747E-01            NaN
         13   -1    0    0    0    0  0.00000000000E+00  0.00000000000E+00  0.74505805969E-08  0.10566000000E+00  0.10566000000E+00 0.  1.
     999900   -1    0    0    0    0 -0.00000000000E+00 -0.00000000000E+00 -0.74505805969E-08  0.93827000000E+00  0.93827000000E+00 0. -1.
     999902    2    1    2    0    0 -0.19952514018E-01  0.81876850040E-02 -0.59267803621E-02  0.10215633345E+01  0.10213184511E+01 0.  0.
     999903    2    3    3    0    0  0.30436326076E-01  0.11048084917E+00 -0.63153247508E-01  0.13236268491E+00  0.19978981663E-01 0.  0.
         14    1    1    2    0    0  0.19952514018E-01 -0.81876850040E-02  0.59267803621E-02  0.22366665527E-01  0.00000000000E+00 0.  1.
     999901    1    3    3    0    0 -0.50388840093E-01 -0.10229316416E+00  0.57226467146E-01  0.88920064956E+00  0.88000000000E+00 0.  1.
        -11    1    4    4    0    0  0.31257786764E-01  0.96874267171E-01 -0.60655911771E-01  0.11849503630E+00  0.51100000000E-03 0. -1.
         11    1    4    4    0    0 -0.82146068850E-03  0.13606581996E-01 -0.24973357363E-02  0.13867648613E-01  0.51100000000E-03 0.  1.
</event>
<event>
 8    1  0.1112171E+005  0.1043930E+01  0.7957747E-01            NaN
         13   -1    0    0    0    0  0.00000000000E+00  0.00000000000E+00  0.74505805969E-08  0.10566000000E+00  0.10566000000E+00 0. -1.
     999900   -1    0    0    0    0 -0.00000000000E+00 -0.00000000000E+00 -0.74505805969E-08  0.93827000000E+00  0.93827000000E+00 0.  1.
     999902    2    1    2    0    0 -0.46081970714E-02 -0.86924852263E-02 -0.21179388742E-01  0.10205770283E+01  0.10203098105E+01 0.  0.
     999903    2    3    3    0    0 -0.81507893493E-01 -0.87309838944E-02  0.97712207851E-01  0.12925846767E+00  0.20983544009E-01 0.  0.
         14    1    1    2    0    0  0.46081970714E-02  0.86924852263E-02  0.21179388742E-01  0.23352971698E-01  0.00000000000E+00 0. -1.
     999901    1    3    3    0    0  0.76899696421E-01  0.38498668067E-04 -0.11889159659E+00  0.89131856063E+00  0.88000000000E+00 0.  1.
        -11    1    4    4    0    0 -0.51543685059E-01 -0.11725842263E-01  0.49551901795E-01  0.72456186338E-01  0.51100000000E-03 0. -1.
         11    1    4    4    0    0 -0.29964208434E-01  0.29948583689E-02  0.48160306056E-01  0.56802281329E-01  0.51100000000E-03 0.  1.
</event>
<event>
 8    1  0.1112171E+005  0.1043930E+01  0.7957747E-01            NaN
         13   -1    0    0    0    0  0.00000000000E+00  0.00000000000E+00  0.74505805969E-08  0.10566000000E+00  0.10566000000E+00 0. -1.
     999900   -1    0    0    0    0 -0.00000000000E+00 -0.00000000000E+00 -0.74505805969E-08  0.93827000000E+00  0.93827000000E+00 0.  1.
     999902    2    1    2    0    0 -0.37305646398E-02 -0.14004324447E-01  0.18870236090E-01  0.10201366390E+01  0.10198591267E+01 0.  0.
     999903    2    3    3    0    0  0.64059201495E-01 -0.10995064540E+00  0.30198975838E-01  0.13225743034E+00  0.19680549259E-01 0.  0.
         14    1    1    2    0    0  0.37305646398E-02  0.14004324447E-01 -0.18870236090E-01  0.23793360962E-01  0.00000000000E+00 0.  1.
     999901    1    3    3    0    0 -0.67789766135E-01  0.95946320948E-01 -0.11328739748E-01  0.88787920870E+00  0.88000000000E+00 0. -1.
        -11    1    4    4    0    0  0.22558888119E-01 -0.57935936505E-01  0.12844797246E-01  0.63487999725E-01  0.51100000000E-03 0. -1.
         11    1    4    4    0    0  0.41500313377E-01 -0.52014708891E-01  0.17354178591E-01  0.68769430614E-01  0.51100000000E-03 0.  1.
</event>
<event>
 8    1  0.1112171E+005  0.1043930E+01  0.7957747E-01            NaN
         13   -1    0    0    0    0  0.00000000000E+00  0.00000000000E+00  0.74505805969E-08  0.10566000000E+00  0.10566000000E+00 0.  1.
     999900   -1    0    0    0    0 -0.00000000000E+00 -0.00000000000E+00 -0.74505805969E-08  0.93827000000E+00  0.93827000000E+00 0.  1.
     999902    2    1    2    0    0  0.20187097239E-01 -0.10590529041E-01  0.51047224813E-02  0.10205689985E+01  0.10203015948E+01 0.  0.
     999903    2    3    3    0    0  0.10522111742E+00  0.58504411420E-01  0.51829727228E-01  0.13254415567E+00  0.19682044370E-01 0.  0.
         14    1    1    2    0    0 -0.20187097239E-01  0.10590529041E-01 -0.51047224813E-02  0.23361001517E-01  0.00000000000E+00 0. -1.
     999901    1    3    3    0    0 -0.85034020182E-01 -0.69094940460E-01 -0.46725004747E-01  0.88802484281E+00  0.88000000000E+00 0. -1.
        -11    1    4    4    0    0  0.59569113086E-01  0.33096149446E-01  0.39834790800E-01  0.78936088205E-01  0.51100000000E-03 0.  1.
         11    1    4    4    0    0  0.45652004335E-01  0.25408261973E-01  0.11994936428E-01  0.53608067464E-01  0.51100000000E-03 0. -1.
</event>
<event>
 8    1  0.1112171E+005  0.1043930E+01  0.7957747E-01            NaN
         13   -1    0    0    0    0  0.00000000000E+00  0.00000000000E+00  0.74505805969E-08  0.10566000000E+00  0.10566000000E+00 0.  1.
     999900   -1    0    0    0    0 -0.00000000000E+00 -0.00000000000E+00 -0.74505805969E-08  0.93827000000E+00  0.93827000000E+00 0.  1.
     999902    2    1    2    0    0 -0.16989056832E-01 -0.13264070303E-01  0.26946671902E-02  0.10222084705E+01  0.10219776574E+01 0.  0.
     999903    2    3    3    0    0  0.10602133113E+00 -0.32438397599E-01 -0.66663857653E-01  0.13074348781E+00  0.18894903935E-01 0.  0.
         14    1    1    2    0    0  0.16989056832E-01  0.13264070303E-01 -0.26946671902E-02  0.21721529512E-01  0.00000000000E+00 0.  1.
     999901    1    3    3    0    0 -0.12301038796E+00  0.19174327296E-01  0.69358524844E-01  0.89146498268E+00  0.88000000000E+00 0.  1.
        -11    1    4    4    0    0  0.94656279292E-01 -0.28920565855E-01 -0.51846638113E-01  0.11173426217E+00  0.51100000000E-03 0.  1.
         11    1    4    4    0    0  0.11365051835E-01 -0.35178317442E-02 -0.14817219541E-01  0.19009225637E-01  0.51100000000E-03 0. -1.
</event>
<event>
 8    1  0.1112171E+005  0.1043930E+01  0.7957747E-01            NaN
         13   -1    0    0    0    0  0.00000000000E+00  0.00000000000E+00  0.74505805969E-08  0.10566000000E+00  0.10566000000E+00 0. -1.
     999900   -1    0    0    0    0 -0.00000000000E+00 -0.00000000000E+00 -0.74505805969E-08  0.93827000000E+00  0.93827000000E+00 0.  1.
     999902    2    1    2    0    0 -0.17963759744E-01  0.81336052352E-02 -0.13601368799E-01  0.10199748454E+01  0.10196935009E+01 0.  0.
     999903    2    3    3    0    0  0.28473011779E-01  0.85949281929E-01 -0.93490154834E-01  0.13172157555E+00  0.20302042989E-01 0.  0.
         14    1    1    2    0    0  0.17963759744E-01 -0.81336052352E-02  0.13601368799E-01  0.23955154591E-01  0.00000000000E+00 0. -1.
     999901    1    3    3    0    0 -0.46436771523E-01 -0.77815676693E-01  0.79888786034E-01  0.88825326986E+00  0.88000000000E+00 0. -1.
        -11    1    4    4    0    0  0.16906782786E-01  0.59000473672E-01 -0.49502938790E-01  0.78852376423E-01  0.51100000000E-03 0. -1.
         11    1    4    4    0    0  0.11566228993E-01  0.26948808256E-01 -0.43987216044E-01  0.52869199123E-01  0.51100000000E-03 0.  1.
</event>
<event>
 8    1  0.1112171E+005  0.1043930E+01  0.7957747E-01            NaN
         13   -1    0    0    0    0  0.00000000000E+00  0.00000000000E+00  0.74505805969E-08  0.10566000000E+00  0.10566000000E+00 0.  1.
     999900   -1    0    0    0    0 -0.00000000000E+00 -0.00000000000E+00 -0.74505805969E-08  0.93827000000E+00  0.93827000000E+00 0.  1.
     999902    2    1    2    0    0 -0.20083780602E-01 -0.65640877454E-02  0.10341032749E-01  0.10204059177E+01  0.10201347236E+01 0.  0.
     999903    2    3    3    0    0  0.31397043657E-01 -0.66871799586E-01  0.10710354200E+00  0.13155819248E+00  0.19462203602E-01 0.  0.
         14    1    1    2    0    0  0.20083780602E-01  0.65640877454E-02 -0.10341032749E-01  0.23524082331E-01  0.00000000000E+00 0. -1.
     999901    1    3    3    0    0 -0.51480824259E-01  0.60307711841E-01 -0.96762509254E-01  0.88884772519E+00  0.88000000000E+00 0.  1.
        -11    1    4    4    0    0  0.17474906541E-01 -0.53773853340E-01  0.71623741658E-01  0.91253608979E-01  0.51100000000E-03 0.  1.
         11    1    4    4    0    0  0.13922137116E-01 -0.13097946246E-01  0.35479800345E-01  0.40304583502E-01  0.51100000000E-03 0. -1.
</event>
<event>
 8    1  0.1112171E+005  0.1043930E+01  0.7957747E-01            NaN
         13   -1    0    0    0    0  0.00000000000E+00  0.00000000000E+00  0.74505805969E-08  0.10566000000E+00  0.10566000000E+00 0. -1.
     999900   -1    0    0    0    0 -0.00000000000E+00 -0.00000000000E+00 -0.74505805969E-08  0.93827000000E+00  0.93827000000E+00 0. -1.
     999902    2    1    2    0    0 -0.16221428530E-02 -0.21285291543E-01  0.10552347664E-01  0.10201172508E+01  0.10198392806E+01 0.  0.
     999903    2    3    3    0    0 -0.11561929357E+00  0.29047877026E-01 -0.46679605750E-01  0.12949708781E+00  0.19465609472E-01 0.  0.
         14    1    1    2    0    0  0.16221428530E-02  0.21285291543E-01 -0.10552347664E-01  0.23812749205E-01  0.00000000000E+00 0.  1.
     999901    1    3    3    0    0  0.11399715072E+00 -0.50333168569E-01  0.57231953414E-01  0.89062016299E+00  0.88000000000E+00 0. -1.
        -11    1    4    4    0    0 -0.11671467560E-01  0.77151462572E-02 -0.10063492464E-01  0.17241857160E-01  0.51100000000E-03 0.  1.
         11    1    4    4    0    0 -0.10394782601E+00  0.21332730769E-01 -0.36616113287E-01  0.11225523065E+00  0.51100000000E-03 0. -1.
</event>
<event>
 8    1  0.1112171E+005  0.1043930E+01  0.7957747E-01            NaN
         13   -1    0    0    0    0  0.00000000000E+00  0.00000000000E+00  0.74505805969E-08  0.10566000000E+00  0.10566000000E+00 0.  1.
     999900   -1    0    0    0    0 -0.00000000000E+00 -0.00000000000E+00 -0.74505805969E-08  0.93827000000E+00  0.93827000000E+00 0. -1.
     999902    2    1    2    0    0 -0.23871318452E-01  0.15537996296E-02  0.78325848373E-02  0.10187585177E+01  0.10184475017E+01 0.  0.
     999903    2    3    3    0    0  0.97143362489E-01 -0.13970425505E-01  0.78991036023E-01  0.12749588536E+00  0.19585998722E-01 0.  0.
         14    1    1    2    0    0  0.23871318452E-01 -0.15537996296E-02 -0.78325848373E-02  0.25171482339E-01  0.00000000000E+00 0. -1.
     999901    1    3    3    0    0 -0.12101468094E+00  0.15524225134E-01 -0.71158451186E-01  0.89126263231E+00  0.88000000000E+00 0. -1.
        -11    1    4    4    0    0  0.46627941851E-01  0.85248404262E-03  0.45131185383E-01  0.64899743493E-01  0.51100000000E-03 0.  1.
         11    1    4    4    0    0  0.50515420638E-01 -0.14822909547E-01  0.33859850640E-01  0.62596141862E-01  0.51100000000E-03 0. -1.
</event>
<event>
 8    1  0.1112171E+005  0.1043930E+01  0.7957747E-01            NaN
         13   -1    0    0    0    0  0.00000000000E+00  0.00000000000E+00  0.74505805969E-08  0.10566000000E+00  0.10566000000E+00 0.  1.
     999900   -1    0    0    0    0 -0.00000000000E+00 -0.00000000000E+00 -0.74505805969E-08  0.93827000000E+00  0.93827000000E+00 0. -1.
     999902    2    1    2    0    0 -0.11137097315E-01 -0.18421598352E-01 -0.10225203886E-01  0.10200984030E+01  0.10198199874E+01 0.  0.
     999903    2    3    3    0    0 -0.12744198822E+00 -0.22264470996E-01  0.16941915220E-01  0.13202202806E+00  0.20140019155E-01 0.  0.
         14    1    1    2    0    0  0.11137097315E-01  0.18421598352E-01  0.10225203886E-01  0.23831597029E-01  0.00000000000E+00 0. -1.
     999901    1    3    3    0    0  0.11630489090E+00  0.38428726442E-02 -0.27167119105E-01  0.88807637491E+00  0.88000000000E+00 0. -1.
        -11    1    4    4    0    0 -0.97664513478E-01 -0.17303556220E-01  0.21492758229E-01  0.10148876799E+00  0.51100000000E-03 0.  1.
         11    1    4    4    0    0 -0.29777474740E-01 -0.49609147758E-02 -0.45508430094E-02  0.30533260069E-01  0.51100000000E-03 0. -1.
</event>
<event>
 8    1  0.1112171E+005  0.1043930E+01  0.7957747E-01            NaN
         13   -1    0    0    0    0  0.00000000000E+00  0.00000000000E+00  0.74505805969E-08  0.10566000000E+00  0.10566000000E+00 0.  1.
     999900   -1    0    0    0    0 -0.00000000000E+00 -0.00000000000E+00 -0.74505805969E-08  0.93827000000E+00  0.93827000000E+00 0. -1.
     999902    2    1    2    0    0  0.23736896907E-01  0.64086417849E-02  0.21609232031E-02  0.10192484167E+01  0.10189495348E+01 0.  0.
     999903    2    3    3    0    0  0.11249157170E+00 -0.59590557329E-01 -0.28166102350E-01  0.13180657915E+00  0.19345716841E-01 0.  0.
         14    1    1    2    0    0 -0.23736896907E-01 -0.64086417849E-02 -0.21609232031E-02  0.24681583283E-01  0.00000000000E+00 0.  1.
     999901    1    3    3    0    0 -0.88754674792E-01  0.65999199114E-01  0.30327025553E-01  0.88744183756E+00  0.88000000000E+00 0.  1.
        -11    1    4    4    0    0  0.35756602970E-01 -0.17059123689E-01  0.13115090665E-03  0.39621038333E-01  0.51100000000E-03 0. -1.
         11    1    4    4    0    0  0.76734968729E-01 -0.42531433639E-01 -0.28297253256E-01  0.92185540819E-01  0.51100000000E-03 0.  1.
</event>
<event>
 8    1  0.1112171E+005  0.1043930E+01  0.7957747E-01            NaN
         13   -1    0    0    0    0  0.00000000000E+00  0.00000000000E+00  0.74505805969E-08  0.10566000000E+00  0.10566000000E+00 0. -1.
     999900   -1    0    0    0    0 -0.00000000000E+00 -0.00000000000E+00 -0.74505805969E-08  0.93827000000E+00  0.93827000000E+00 0.  1.
     999902    2    1    2    0    0  0.11622896242E-01 -0.42276524267E-02  0.19600452266E-01  0.10207536653E+01  0.10204905206E+01 0.  0.
     999903    2    3    3    0    0  0.10020771038E+00 -0.82478324984E-01 -0.14277491906E-01  0.13220532548E+00  0.20739864999E-01 0.  0.
         14    1    1    2    0    0 -0.11622896242E-01  0.42276524267E-02 -0.19600452266E-01  0.23176334721E-01  0.00000000000E+00 0.  1.
     999901    1    3    3    0    0 -0.88584814134E-01  0.78250672557E-01  0.33877944172E-01  0.88854833979E+00  0.88000000000E+00 0. -1.
        -11    1    4    4    0    0  0.35174431573E-01 -0.18065678392E-01  0.11618931659E-03  0.39545973161E-01  0.51100000000E-03 0. -1.
         11    1    4    4    0    0  0.65033278803E-01 -0.64412646591E-01 -0.14393681222E-01  0.92659352323E-01  0.51100000000E-03 0.  1.
</event>
<event>
 8    1  0.1112171E+005  0.1043930E+01  0.7957747E-01            NaN
         13   -1    0    0    0    0  0.00000000000E+00  0.00000000000E+00  0.74505805969E-08  0.10566000000E+00  0.10566000000E+00 0.  1.
     999900   -1    0    0    0    0 -0.00000000000E+00 -0.00000000000E+00 -0.74505805969E-08  0.93827000000E+00  0.93827000000E+00 0.  1.
     999902    2    1    2    0    0  0.22013087326E-01  0.83935862030E-02  0.43543859365E-02  0.10199719329E+01  0.10196905192E+01 0.  0.
     999903    2    3    3    0    0  0.42654537417E-01 -0.93110556264E-01 -0.77622734393E-01  0.13011272567E+00  0.20372708166E-01 0.  0.
         14    1    1    2    0    0 -0.22013087326E-01 -0.83935862030E-02 -0.43543859365E-02  0.23958067115E-01  0.00000000000E+00 0. -1.
     999901    1    3    3    0    0 -0.20641450090E-01  0.10150414247E+00  0.81977120329E-01  0.88985920721E+00  0.88000000000E+00 0.  1.
        -11    1    4    4    0    0  0.11221159491E-01 -0.29261303423E-01 -0.12830045717E-01  0.33867528584E-01  0.51100000000E-03 0.  1.
         11    1    4    4    0    0  0.31433377926E-01 -0.63849252841E-01 -0.64792688676E-01  0.96245197090E-01  0.51100000000E-03 0. -1.
</event>
<event>
 8    1  0.1112171E+005  0.1043930E+01  0.7957747E-01            NaN
         13   -1    0    0    0    0  0.00000000000E+00  0.00000000000E+00  0.74505805969E-08  0.10566000000E+00  0.10566000000E+00 0.  1.
     999900   -1    0    0    0    0 -0.00000000000E+00 -0.00000000000E+00 -0.74505805969E-08  0.93827000000E+00  0.93827000000E+00 0.  1.
     999902    2    1    2    0    0  0.14249670719E-01 -0.18032469086E-01  0.45102707686E-02  0.10205085227E+01  0.10202397166E+01 0.  0.
     999903    2    3    3    0    0 -0.30563032013E-01  0.12245504481E+00  0.84237452629E-02  0.12823040732E+00  0.21041410440E-01 0.  0.
         14    1    1    2    0    0 -0.14249670719E-01  0.18032469086E-01 -0.45102707686E-02  0.23421477309E-01  0.00000000000E+00 0.  1.
     999901    1    3    3    0    0  0.44812702732E-01 -0.14048751389E+00 -0.39134744943E-02  0.89227811537E+00  0.88000000000E+00 0.  1.
        -11    1    4    4    0    0 -0.28969627225E-01  0.78856150612E-01  0.12934620279E-02  0.84020628158E-01  0.51100000000E-03 0.  1.
         11    1    4    4    0    0 -0.15934047882E-02  0.43598894193E-01  0.71302832350E-02  0.44209779164E-01  0.51100000000E-03 0. -1.
</event>
<event>
 8    1  0.1112171E+005  0.1043930E+01  0.7957747E-01            NaN
         13   -1    0    0    0    0  0.00000000000E+00  0.00000000000E+00  0.74505805969E-08  0.10566000000E+00  0.10566000000E+00 0.  1.
     999900   -1    0    0    0    0 -0.00000000000E+00 -0.00000000000E+00 -0.74505805969E-08  0.93827000000E+00  0.93827000000E+00 0.  1.
     999902    2    1    2    0    0 -0.26574938296E-01 -0.95586544670E-02  0.92794496193E-02  0.10142028507E+01  0.10137670930E+01 0.  0.
     999903    2    3    3    0    0 -0.87197912579E-01  0.66420872668E-01  0.61547436879E-01  0.12730940949E+00  0.20109462318E-01 0.  0.
         14    1    1    2    0    0  0.26574938296E-01  0.95586544670E-02 -0.92794496193E-02  0.29727149306E-01  0.00000000000E+00 0. -1.
     999901    1    3    3    0    0  0.60622974283E-01 -0.75979527135E-01 -0.52267987260E-01  0.88689344120E+00  0.88000000000E+00 0.  1.
        -11    1    4    4    0    0 -0.17662834864E-01  0.43941415918E-02  0.11544733219E-01  0.21559828428E-01  0.51100000000E-03 0. -1.
         11    1    4    4    0    0 -0.69535077714E-01  0.62026731076E-01  0.50002703660E-01  0.10574958106E+00  0.51100000000E-03 0.  1.
</event>
<event>
 8    1  0.1112171E+005  0.1043930E+01  0.7957747E-01            NaN
         13   -1    0    0    0    0  0.00000000000E+00  0.00000000000E+00  0.74505805969E-08  0.10566000000E+00  0.10566000000E+00 0.  1.
     999900   -1    0    0    0    0 -0.00000000000E+00 -0.00000000000E+00 -0.74505805969E-08  0.93827000000E+00  0.93827000000E+00 0.  1.
     999902    2    1    2    0    0  0.22129346076E-02  0.17971242491E-01  0.16680582425E-01  0.10193108110E+01  0.10190134567E+01 0.  0.
     999903    2    3    3    0    0 -0.71489166038E-01 -0.84481841908E-01 -0.60845902445E-01  0.12693253360E+00  0.12718560023E-01 0.  0.
         14    1    1    2    0    0 -0.22129346076E-02 -0.17971242491E-01 -0.16680582425E-01  0.24619188985E-01  0.00000000000E+00 0. -1.
     999901    1    3    3    0    0  0.73702100646E-01  0.10245308440E+00  0.77526484870E-01  0.89237827741E+00  0.88000000000E+00 0. -1.
        -11    1    4    4    0    0 -0.34862076655E-01 -0.33960683518E-01 -0.31478083427E-01  0.57963982532E-01  0.51100000000E-03 0.  1.
         11    1    4    4    0    0 -0.36627089384E-01 -0.50521158390E-01 -0.29367819018E-01  0.68968551070E-01  0.51100000000E-03 0. -1.
</event>
<event>
 8    1  0.1112171E+005  0.1043930E+01  0.7957747E-01            NaN
         13   -1    0    0    0    0  0.00000000000E+00  0.00000000000E+00  0.74505805969E-08  0.10566000000E+00  0.10566000000E+00 0. -1.
     999900   -1    0    0    0    0 -0.00000000000E+00 -0.00000000000E+00 -0.74505805969E-08  0.93827000000E+00  0.93827000000E+00 0.  1.
     999902    2    1    2    0    0  0.21021811526E-01 -0.11789811453E-01  0.12154742651E-02  0.10197971678E+01  0.10195115839E+01 0.  0.
     999903    2    3    3    0    0  0.33775345297E-01  0.11510519116E+00  0.44818697974E-01  0.12953527628E+00  0.19511359045E-01 0.  0.
         14    1    1    2    0    0 -0.21021811526E-01  0.11789811453E-01 -0.12154742651E-02  0.24132832234E-01  0.00000000000E+00 0. -1.
     999901    1    3    3    0    0 -0.12753533770E-01 -0.12689500261E+00 -0.43603223709E-01  0.89026189148E+00  0.88000000000E+00 0. -1.
        -11    1    4    4    0    0  0.11552582270E-01  0.16389200393E-01  0.41633421219E-02  0.20485667801E-01  0.51100000000E-03 0.  1.
         11    1    4    4    0    0  0.22222763026E-01  0.98715990765E-01  0.40655355852E-01  0.10904960848E+00  0.51100000000E-03 0. -1.
</event>
<event>
 8    1  0.1112171E+005  0.1043930E+01  0.7957747E-01            NaN
         13   -1    0    0    0    0  0.00000000000E+00  0.00000000000E+00  0.74505805969E-08  0.10566000000E+00  0.10566000000E+00 0. -1.
     999900   -1    0    0    0    0 -0.00000000000E+00 -0.00000000000E+00 -0.74505805969E-08  0.93827000000E+00  0.93827000000E+00 0.  1.
     999902    2    1    2    0    0  0.83871776998E-02  0.20213250034E-01  0.10374668347E-01  0.10197111237E+01  0.10194234752E+01 0.  0.
     999903    2    3    3    0    0  0.17973347991E-02  0.44519001395E-01  0.12293207640E+00  0.13218458003E+00  0.19372555146E-01 0.  0.
         14    1    1    2    0    0 -0.83871776998E-02 -0.20213250034E-01 -0.10374668347E-01  0.24218876316E-01  0.00000000000E+00 0. -1.
     999901    1    3    3    0    0  0.65898429007E-02 -0.24305751361E-01 -0.11255740805E+00  0.88752654365E+00  0.88000000000E+00 0.  1.
        -11    1    4    4    0    0 -0.70037047280E-02  0.19910718348E-01  0.70568602309E-01  0.73659197239E-01  0.51100000000E-03 0. -1.
         11    1    4    4    0    0  0.88010395271E-02  0.24608283047E-01  0.52363474090E-01  0.58525382793E-01  0.51100000000E-03 0.  1.
</event>
<event>
 8    1  0.1112171E+005  0.1043930E+01  0.7957747E-01            NaN
         13   -1    0    0    0    0  0.00000000000E+00  0.00000000000E+00  0.74505805969E-08  0.10566000000E+00  0.10566000000E+00 0.  1.
     999900   -1    0    0    0    0 -0.00000000000E+00 -0.00000000000E+00 -0.74505805969E-08  0.93827000000E+00  0.93827000000E+00 0.  1.
     999902    2    1    2    0    0  0.58867280728E-02 -0.21681155525E-01  0.36019557144E-02  0.10211769748E+01  0.10209234612E+01 0.  0.
     999903    2    3    3    0    0 -0.82139613502E-01 -0.72448114312E-01  0.69857409633E-01  0.13285512651E+00  0.27834898705E-01 0.  0.
         14    1    1    2    0    0 -0.58867280728E-02  0.21681155525E-01 -0.36019557144E-02  0.22753025233E-01  0.00000000000E+00 0.  1.
     999901    1    3    3    0    0  0.88026341574E-01  0.50766958788E-01 -0.66255453919E-01  0.88832184826E+00  0.88000000000E+00 0. -1.
        -11    1    4    4    0    0 -0.85072432004E-02 -0.22399756534E-01  0.14201676033E-01  0.27858050951E-01  0.51100000000E-03 0. -1.
         11    1    4    4    0    0 -0.73632370301E-01 -0.50048357779E-01  0.55655733601E-01  0.10499707556E+00  0.51100000000E-03 0.  1.
</event>
<event>
 8    1  0.1112171E+005  0.1043930E+01  0.7957747E-01            NaN
         13   -1    0    0    0    0  0.00000000000E+00  0.00000000000E+00  0.74505805969E-08  0.10566000000E+00  0.10566000000E+00 0. -1.
     999900   -1    0    0    0    0 -0.00000000000E+00 -0.00000000000E+00 -0.74505805969E-08  0.93827000000E+00  0.93827000000E+00 0.  1.
     999902    2    1    2    0    0  0.18148983299E-01  0.14944264321E-01  0.15977553714E-02  0.10203658439E+01  0.10200937143E+01 0.  0.
     999903    2    3    3    0    0 -0.29894444276E-01  0.84351719746E-01 -0.93973949256E-01  0.13117547253E+00  0.19157531971E-01 0.  0.
         14    1    1    2    0    0 -0.18148983299E-01 -0.14944264321E-01 -0.15977553714E-02  0.23564156109E-01  0.00000000000E+00 0. -1.
     999901    1    3    3    0    0  0.48043427575E-01 -0.69407455425E-01  0.95571704627E-01  0.88919037136E+00  0.88000000000E+00 0. -1.
        -11    1    4    4    0    0 -0.39161103222E-02  0.29754430041E-02 -0.11126435747E-01  0.12175708380E-01  0.51100000000E-03 0.  1.
         11    1    4    4    0    0 -0.25978333954E-01  0.81376276742E-01 -0.82847513509E-01  0.11899976415E+00  0.51100000000E-03 0. -1.
</event>
<event>
 8    1  0.1112171E+005  0.1043930E+01  0.7957747E-01            NaN
         13   -1    0    0    0    0  0.00000000000E+00  0.00000000000E+00  0.74505805969E-08  0.10566000000E+00  0.10566000000E+00 0.  1.
     999900   -1    0    0    0    0 -0.00000000000E+00 -0.00000000000E+00 -0.74505805969E-08  0.93827000000E+00  0.93827000000E+00 0.  1.
     999902    2    1    2    0    0  0.19931715229E-01 -0.37997352009E-02  0.89055507135E-02  0.10217710268E+01  0.10215307196E+01 0.  0.
     999903    2    3    3    0    0 -0.10198186634E+00 -0.69918701733E-01 -0.33941840328E-01  0.12987947621E+00  0.20681003357E-01 0.  0.
         14    1    1    2    0    0 -0.19931715229E-01  0.37997352009E-02 -0.89055507135E-02  0.22158973196E-01  0.00000000000E+00 0. -1.
     999901    1    3    3    0    0  0.12191358157E+00  0.66118966532E-01  0.42847391042E-01  0.89189155060E+00  0.88000000000E+00 0. -1.
        -11    1    4    4    0    0 -0.60319918310E-01 -0.50660302562E-01 -0.14820189915E-01  0.80155211625E-01  0.51100000000E-03 0.  1.
         11    1    4    4    0    0 -0.41661948035E-01 -0.19258399171E-01 -0.19121650414E-01  0.49724264582E-01  0.51100000000E-03 0. -1.
</event>
<event>
 8    1  0.1112171E+005  0.1043930E+01  0.7957747E-01            NaN
         13   -1    0    0    0    0  0.00000000000E+00  0.00000000000E+00  0.74505805969E-08  0.10566000000E+00  0.10566000000E+00 0.  1.
     999900   -1    0    0    0    0 -0.00000000000E+00 -0.00000000000E+00 -0.74505805969E-08  0.93827000000E+00  0.93827000000E+00 0. -1.
     999902    2    1    2    0    0 -0.11166277708E-01 -0.18772562009E-01  0.96980423399E-02  0.10200313208E+01  0.10197513170E+01 0.  0.
     999903    2    3    3    0    0 -0.30343746926E-01  0.50120926708E-01  0.11524807880E+00  0.13084354631E+00  0.20126193641E-01 0.  0.
         14    1    1    2    0    0  0.11166277708E-01  0.18772562009E-01 -0.96980423399E-02  0.23898679199E-01  0.00000000000E+00 0.  1.
     999901    1    3    3    0    0  0.19177469218E-01 -0.68893488718E-01 -0.10555003646E+00  0.88918777449E+00  0.88000000000E+00 0. -1.
        -11    1    4    4    0    0 -0.11043227165E-01  0.60008525994E-02  0.14632000380E-01  0.19295586393E-01  0.51100000000E-03 0.  1.
         11    1    4    4    0    0 -0.19300519761E-01  0.44120074109E-01  0.10061607842E+00  0.11154795991E+00  0.51100000000E-03 0. -1.
</event>
<event>
 8    1  0.1112171E+005  0.1043930E+01  0.7957747E-01            NaN
         13   -1    0    0    0    0  0.00000000000E+00  0.00000000000E+00  0.74505805969E-08  0.10566000000E+00  0.10566000000E+00 0. -1.
     999900   -1    0    0    0    0 -0.00000000000E+00 -0.00000000000E+00 -0.74505805969E-08  0.93827000000E+00  0.93827000000E+00 0. -1.
     999902    2    1    2    0    0 -0.32673009093E-02  0.21924421922E-01  0.80479622411E-02  0.10203476925E+01  0.10200751386E+01 0.  0.
     999903    2    3    3    0    0 -0.11827425210E+00 -0.27015855694E-01 -0.42415667935E-01  0.13008462598E+00  0.20106363743E-01 0.  0.
         14    1    1    2    0    0  0.32673009093E-02 -0.21924421922E-01 -0.80479622411E-02  0.23582307523E-01  0.00000000000E+00 0.  1.
     999901    1    3    3    0    0  0.11500695119E+00  0.48940277617E-01  0.50463630176E-01  0.89026306649E+00  0.88000000000E+00 0. -1.
        -11    1    4    4    0    0 -0.74516964778E-01 -0.22084307089E-01 -0.35733747881E-01  0.85543302005E-01  0.51100000000E-03 0.  1.
         11    1    4    4    0    0 -0.43757287318E-01 -0.49315486057E-02 -0.66819200538E-02  0.44541323978E-01  0.51100000000E-03 0. -1.
</event>
<event>
 8    1  0.1112171E+005  0.1043930E+01  0.7957747E-01            NaN
         13   -1    0    0    0    0  0.00000000000E+00  0.00000000000E+00  0.74505805969E-08  0.10566000000E+00  0.10566000000E+00 0.  1.
     999900   -1    0    0    0    0 -0.00000000000E+00 -0.00000000000E+00 -0.74505805969E-08  0.93827000000E+00  0.93827000000E+00 0. -1.
     999902    2    1    2    0    0  0.41877152048E-02  0.21574149874E-01  0.95096850867E-02  0.10199839145E+01  0.10197027855E+01 0.  0.
     999903    2    3    3    0    0 -0.28708685333E-02  0.12092285975E+00 -0.50335378141E-01  0.13234580052E+00  0.18739816604E-01 0.  0.
         14    1    1    2    0    0 -0.41877152048E-02 -0.21574149874E-01 -0.95096850867E-02  0.23946085523E-01  0.00000000000E+00 0. -1.
     999901    1    3    3    0    0  0.70585837381E-02 -0.99348709876E-01  0.59845063227E-01  0.88763811396E+00  0.88000000000E+00 0.  1.
        -11    1    4    4    0    0  0.78628559571E-02  0.62655290863E-01 -0.26239812041E-01  0.68383469010E-01  0.51100000000E-03 0.  1.
         11    1    4    4    0    0 -0.10733724490E-01  0.58267568887E-01 -0.24095566100E-01  0.63962331509E-01  0.51100000000E-03 0. -1.
</event>
<event>
 8    1  0.1112171E+005  0.1043930E+01  0.7957747E-01            NaN
         13   -1    0    0    0    0  0.00000000000E+00  0.00000000000E+00  0.74505805969E-08  0.10566000000E+00  0.10566000000E+00 0.  1.
     999900   -1    0    0    0    0 -0.00000000000E+00 -0.00000000000E+00 -0.74505805969E-08  0.93827000000E+00  0.93827000000E+00 0.  1.
     999902    2    1    2    0    0 -0.87750084408E-02 -0.21981472375E-01 -0.46596812691E-02  0.10198074270E+01  0.10195220888E+01 0.  0.
     999903    2    3    3    0    0  0.75031859949E-01  0.26890699594E-01  0.98737471509E-01  0.12845842034E+00  0.19989690959E-01 0.  0.
         14    1    1    2    0    0  0.87750084408E-02  0.21981472375E-01  0.46596812691E-02  0.24122573048E-01  0.00000000000E+00 0. -1.
     999901    1    3    3    0    0 -0.83806868390E-01 -0.48872171969E-01 -0.10339715278E+00  0.89134900661E+00  0.88000000000E+00 0.  1.
        -11    1    4    4    0    0  0.40416341413E-01  0.10605185004E-01  0.36927669727E-01  0.55766159224E-01  0.51100000000E-03 0.  1.
         11    1    4    4    0    0  0.34615518536E-01  0.16285514590E-01  0.61809801783E-01  0.72692261117E-01  0.51100000000E-03 0. -1.
</event>
<event>
 8    1  0.1112171E+005  0.1043930E+01  0.7957747E-01            NaN
         13   -1    0    0    0    0  0.00000000000E+00  0.00000000000E+00  0.74505805969E-08  0.10566000000E+00  0.10566000000E+00 0. -1.
     999900   -1    0    0    0    0 -0.00000000000E+00 -0.00000000000E+00 -0.74505805969E-08  0.93827000000E+00  0.93827000000E+00 0.  1.
     999902    2    1    2    0    0 -0.87680811387E-03 -0.23987933619E-01 -0.10250996528E-01  0.10178287992E+01  0.10174940746E+01 0.  0.
     999903    2    3    3    0    0 -0.11752604565E+00  0.49072980963E-02  0.46390476973E-01  0.12785675722E+00  0.18942571970E-01 0.  0.
         14    1    1    2    0    0  0.87680811387E-03  0.23987933619E-01  0.10250996528E-01  0.26101200770E-01  0.00000000000E+00 0.  1.
     999901    1    3    3    0    0  0.11664923754E+00 -0.28895231716E-01 -0.56641473502E-01  0.88997204201E+00  0.88000000000E+00 0. -1.
        -11    1    4    4    0    0 -0.25094141263E-01  0.80392800229E-03  0.18790894888E-02  0.25182420937E-01  0.51100000000E-03 0.  1.
         11    1    4    4    0    0 -0.92431904389E-01  0.41033700940E-02  0.44511387485E-01  0.10267433629E+00  0.51100000000E-03 0. -1.
</event>
<event>
 8    1  0.1112171E+005  0.1043930E+01  0.7957747E-01            NaN
         13   -1    0    0    0    0  0.00000000000E+00  0.00000000000E+00  0.74505805969E-08  0.10566000000E+00  0.10566000000E+00 0.  1.
     999900   -1    0    0    0    0 -0.00000000000E+00 -0.00000000000E+00 -0.74505805969E-08  0.93827000000E+00  0.93827000000E+00 0.  1.
     999902    2    1    2    0    0  0.76803327374E-02  0.12680509701E-01 -0.18559042200E-01  0.10201766658E+01  0.10199000974E+01 0.  0.
     999903    2    3    3    0    0  0.46857992757E-01  0.11734681711E+00  0.31340655536E-01  0.13170612338E+00  0.19957937658E-01 0.  0.
         14    1    1    2    0    0 -0.76803327374E-02 -0.12680509701E-01  0.18559042200E-01  0.23753334179E-01  0.00000000000E+00 0.  1.
     999901    1    3    3    0    0 -0.39177660019E-01 -0.10466630741E+00 -0.49899697736E-01  0.88847054244E+00  0.88000000000E+00 0.  1.
        -11    1    4    4    0    0  0.30938883098E-01  0.97089590421E-01  0.21652734252E-01  0.10417631726E+00  0.51100000000E-03 0. -1.
         11    1    4    4    0    0  0.15919109658E-01  0.20257226688E-01  0.96879212844E-02  0.27529806124E-01  0.51100000000E-03 0.  1.
</event>
<event>
 8    1  0.1112171E+005  0.1043930E+01  0.7957747E-01            NaN
         13   -1    0    0    0    0  0.00000000000E+00  0.00000000000E+00  0.74505805969E-08  0.10566000000E+00  0.10566000000E+00 0.  1.
     999900   -1    0    0    0    0 -0.00000000000E+00 -0.00000000000E+00 -0.74505805969E-08  0.93827000000E+00  0.93827000000E+00 0. -1.
     999902    2    1    2    0    0  0.84990472317E-04 -0.15795722355E-02  0.22614422955E-01  0.10212603199E+01  0.10210086809E+01 0.  0.
     999903    2    3    3    0    0  0.32196498374E-01  0.24806574850E-01 -0.12059756910E+00  0.12871505358E+00  0.19282393051E-01 0.  0.
         14    1    1    2    0    0 -0.84990472317E-04  0.15795722355E-02 -0.22614422955E-01  0.22669680135E-01  0.00000000000E+00 0. -1.
     999901    1    3    3    0    0 -0.32111507901E-01 -0.26386147086E-01  0.14321199206E+00  0.89254526628E+00  0.88000000000E+00 0.  1.
        -11    1    4    4    0    0  0.24016997088E-01  0.85619754961E-02 -0.84906176524E-01  0.88653502505E-01  0.51100000000E-03 0. -1.
         11    1    4    4    0    0  0.81795012856E-02  0.16244599354E-01 -0.35691392578E-01  0.40061551076E-01  0.51100000000E-03 0.  1.
</event>
<event>
 8    1  0.1112171E+005  0.1043930E+01  0.7957747E-01            NaN
         13   -1    0    0    0    0  0.00000000000E+00  0.00000000000E+00  0.74505805969E-08  0.10566000000E+00  0.10566000000E+00 0. -1.
     999900   -1    0    0    0    0 -0.00000000000E+00 -0.00000000000E+00 -0.74505805969E-08  0.93827000000E+00  0.93827000000E+00 0.  1.
     999902    2    1    2    0    0 -0.21089197078E-01  0.42052610094E-02 -0.14436056036E-01  0.10180294562E+01  0.10176999241E+01 0.  0.
     999903    2    3    3    0    0  0.11782338390E+00 -0.39750253603E-01 -0.14298110413E-02  0.12595437261E+00  0.20000679082E-01 0.  0.
         14    1    1    2    0    0  0.21089197078E-01 -0.42052610094E-02  0.14436056036E-01  0.25900543767E-01  0.00000000000E+00 0. -1.
     999901    1    3    3    0    0 -0.13891258098E+00  0.43955514613E-01 -0.13006244995E-01  0.89207508363E+00  0.88000000000E+00 0.  1.
        -11    1    4    4    0    0  0.46107155917E-01 -0.86165031953E-02 -0.76297548018E-02  0.47524606609E-01  0.51100000000E-03 0.  1.
         11    1    4    4    0    0  0.71716227983E-01 -0.31133750408E-01  0.61999437605E-02  0.78429765996E-01  0.51100000000E-03 0. -1.
</event>
<event>
 8    1  0.1112171E+005  0.1043930E+01  0.7957747E-01            NaN
         13   -1    0    0    0    0  0.00000000000E+00  0.00000000000E+00  0.74505805969E-08  0.10566000000E+00  0.10566000000E+00 0.  1.
     999900   -1    0    0    0    0 -0.00000000000E+00 -0.00000000000E+00 -0.74505805969E-08  0.93827000000E+00  0.93827000000E+00 0. -1.
     999902    2    1    2    0    0  0.11105967428E-01 -0.15842088222E-01 -0.11899638655E-01  0.10212162229E+01  0.10209635930E+01 0.  0.
     999903    2    3    3    0    0  0.12569422412E+00  0.34669802563E-01 -0.11177791694E-01  0.13235040580E+00  0.19764961474E-01 0.  0.
         14    1    1    2    0    0 -0.11105967428E-01  0.15842088222E-01  0.11899638655E-01  0.22713777138E-01  0.00000000000E+00 0.  1.
     999901    1    3    3    0    0 -0.11458825669E+00 -0.50511890785E-01 -0.72184696126E-03  0.88886581706E+00  0.88000000000E+00 0. -1.
        -11    1    4    4    0    0  0.54592573302E-01  0.23384924670E-01  0.62583896781E-03  0.59395762113E-01  0.51100000000E-03 0.  1.
         11    1    4    4    0    0  0.71101650814E-01  0.11284877893E-01 -0.11803630662E-01  0.72954643686E-01  0.51100000000E-03 0. -1.
</event>
<event>
 8    1  0.1112171E+005  0.1043930E+01  0.7957747E-01            NaN
         13   -1    0    0    0    0  0.00000000000E+00  0.00000000000E+00  0.74505805969E-08  0.10566000000E+00  0.10566000000E+00 0. -1.
     999900   -1    0    0    0    0 -0.00000000000E+00 -0.00000000000E+00 -0.74505805969E-08  0.93827000000E+00  0.93827000000E+00 0.  1.
     999902    2    1    2    0    0  0.22178025853E-01  0.18720485012E-03 -0.97020689714E-02  0.10197219431E+01  0.10194345547E+01 0.  0.
     999903    2    3    3    0    0  0.49953702586E-01  0.88620009127E-01 -0.81524475560E-01  0.13194364466E+00  0.20347157842E-01 0.  0.
         14    1    1    2    0    0 -0.22178025853E-01 -0.18720485012E-03  0.97020689714E-02  0.24208056896E-01  0.00000000000E+00 0.  1.
     999901    1    3    3    0    0 -0.27775676734E-01 -0.88432804277E-01  0.71822406589E-01  0.88777829844E+00  0.88000000000E+00 0. -1.
        -11    1    4    4    0    0  0.98284007336E-03  0.16664125277E-01 -0.13487310081E-01  0.21466897774E-01  0.51100000000E-03 0. -1.
         11    1    4    4    0    0  0.48970862513E-01  0.71955883851E-01 -0.68037165480E-01  0.11047674689E+00  0.51100000000E-03 0.  1.
</event>
<event>
 8    1  0.1112171E+005  0.1043930E+01  0.7957747E-01            NaN
         13   -1    0    0    0    0  0.00000000000E+00  0.00000000000E+00  0.74505805969E-08  0.10566000000E+00  0.10566000000E+00 0.  1.
     999900   -1    0    0    0    0 -0.00000000000E+00 -0.00000000000E+00 -0.74505805969E-08  0.93827000000E+00  0.93827000000E+00 0. -1.
     999902    2    1    2    0    0  0.16714071161E-01 -0.16125897265E-01  0.62173106711E-02  0.10198871281E+01  0.10196036948E+01 0.  0.
     999903    2    3    3    0    0 -0.62722482042E-01  0.66565839242E-01  0.88257190284E-01  0.12866401848E+00  0.19999432658E-01 0.  0.
         14    1    1    2    0    0 -0.16714071161E-01  0.16125897265E-01 -0.62173106711E-02  0.24042871903E-01  0.00000000000E+00 0. -1.
     999901    1    3    3    0    0  0.79436553203E-01 -0.82691736507E-01 -0.82039879613E-01  0.89122310962E+00  0.88000000000E+00 0. -1.
        -11    1    4    4    0    0 -0.52850951136E-01  0.56970753368E-01  0.63600586944E-01  0.10042004559E+00  0.51100000000E-03 0.  1.
         11    1    4    4    0    0 -0.98715309063E-02  0.95950858739E-02  0.24656603340E-01  0.28243972890E-01  0.51100000000E-03 0. -1.
</event>
<event>
 8    1  0.1112171E+005  0.1043930E+01  0.7957747E-01            NaN
         13   -1    0    0    0    0  0.00000000000E+00  0.00000000000E+00  0.74505805969E-08  0.10566000000E+00  0.10566000000E+00 0. -1.
     999900   -1    0    0    0    0 -0.00000000000E+00 -0.00000000000E+00 -0.74505805969E-08  0.93827000000E+00  0.93827000000E+00 0. -1.
     999902    2    1    2    0    0 -0.86396548520E-02 -0.12152067438E-03  0.21091036784E-01  0.10211376716E+01  0.10208832715E+01 0.  0.
     999903    2    3    3    0    0  0.11111380937E+00 -0.17937843243E-01  0.65614568376E-01  0.13173300640E+00  0.19500475339E-01 0.  0.
         14    1    1    2    0    0  0.86396548520E-02  0.12152067438E-03 -0.21091036784E-01  0.22792328443E-01  0.00000000000E+00 0.  1.
     999901    1    3    3    0    0 -0.11975346422E+00  0.17816322569E-01 -0.44523531591E-01  0.88940466516E+00  0.88000000000E+00 0. -1.
        -11    1    4    4    0    0  0.55765154870E-02 -0.46865022328E-02  0.77374161204E-02  0.10639058106E-01  0.51100000000E-03 0.  1.
         11    1    4    4    0    0  0.10553729388E+00 -0.13251341010E-01  0.57877152255E-01  0.12109394829E+00  0.51100000000E-03 0. -1.
</event>
<event>
 8    1  0.1112171E+005  0.1043930E+01  0.7957747E-01            NaN
         13   -1    0    0    0    0  0.00000000000E+00  0.00000000000E+00  0.74505805969E-08  0.10566000000E+00  0.10566000000E+00 0. -1.
     999900   -1    0    0    0    0 -0.00000000000E+00 -0.00000000000E+00 -0.74505805969E-08  0.93827000000E+00  0.93827000000E+00 0. -1.
     999902    2    1    2    0    0  0.20661088004E-01 -0.65699127289E-02 -0.86115659101E-02  0.10206018329E+01  0.10203351891E+01 0.  0.
     999903    2    3    3    0    0  0.55444065657E-01 -0.10513202794E+00  0.53891933406E-01  0.13221507397E+00  0.21206074217E-01 0.  0.
         14    1    1    2    0    0 -0.20661088004E-01  0.65699127289E-02  0.86115659101E-02  0.23328167056E-01  0.00000000000E+00 0.  1.
     999901    1    3    3    0    0 -0.34782977653E-01  0.98562115212E-01 -0.62503499316E-01  0.88838675897E+00  0.88000000000E+00 0. -1.
        -11    1    4    4    0    0  0.25492534746E-02 -0.20304693482E-01  0.57781873408E-02  0.21270351211E-01  0.51100000000E-03 0. -1.
         11    1    4    4    0    0  0.52894812183E-01 -0.84827334459E-01  0.48113746065E-01  0.11094472276E+00  0.51100000000E-03 0.  1.
</event>
<event>
 8    1  0.1112171E+005  0.1043930E+01  0.7957747E-01            NaN
         13   -1    0    0    0    0  0.00000000000E+00  0.00000000000E+00  0.74505805969E-08  0.10566000000E+00  0.10566000000E+00 0. -1.
     999900   -1    0    0    0    0 -0.00000000000E+00 -0.00000000000E+00 -0.74505805969E-08  0.93827000000E+00  0.93827000000E+00 0.  1.
     999902    2    1    2    0    0 -0.14625489125E-01 -0.33225847608E-02 -0.16097449840E-01  0.10219283548E+01  0.10216914847E+01 0.  0.
     999903    2    3    3    0    0 -0.96009351716E-01  0.27531912860E-01 -0.88053195682E-01  0.13471194234E+00  0.20448479095E-01 0.  0.
         14    1    1    2    0    0  0.14625489125E-01  0.33225847608E-02  0.16097449840E-01  0.22001645234E-01  0.00000000000E+00 0. -1.
     999901    1    3    3    0    0  0.81383862592E-01 -0.30854497621E-01  0.71955745841E-01  0.88721641242E+00  0.88000000000E+00 0. -1.
        -11    1    4    4    0    0 -0.38778186246E-01  0.60116473132E-02 -0.46178633798E-01  0.60602103696E-01  0.51100000000E-03 0.  1.
         11    1    4    4    0    0 -0.57231165470E-01  0.21520265547E-01 -0.41874561884E-01  0.74109838647E-01  0.51100000000E-03 0. -1.
</event>
<event>
 8    1  0.1112171E+005  0.1043930E+01  0.7957747E-01            NaN
         13   -1    0    0    0    0  0.00000000000E+00  0.00000000000E+00  0.74505805969E-08  0.10566000000E+00  0.10566000000E+00 0.  1.
     999900   -1    0    0    0    0 -0.00000000000E+00 -0.00000000000E+00 -0.74505805969E-08  0.93827000000E+00  0.93827000000E+00 0. -1.
     999902    2    1    2    0    0 -0.23678673820E-01  0.10947013277E-01  0.21077761268E-01  0.10103921302E+01  0.10098353668E+01 0.  0.
     999903    2    3    3    0    0  0.15782900030E-01 -0.11745054057E+00  0.36442477649E-03  0.11995842125E+00  0.18605392000E-01 0.  0.
         14    1    1    2    0    0  0.23678673820E-01 -0.10947013277E-01 -0.21077761268E-01  0.33537869843E-01  0.00000000000E+00 0. -1.
     999901    1    3    3    0    0 -0.39461573849E-01  0.12839755384E+00  0.20713336492E-01  0.89043370890E+00  0.88000000000E+00 0. -1.
        -11    1    4    4    0    0  0.10626851839E-01 -0.52923851631E-01  0.87361143347E-02  0.54684960145E-01  0.51100000000E-03 0. -1.
         11    1    4    4    0    0  0.51560481911E-02 -0.64526688935E-01 -0.83716895582E-02  0.65273461108E-01  0.51100000000E-03 0.  1.
</event>
<event>
 8    1  0.1112171E+005  0.1043930E+01  0.7957747E-01            NaN
         13   -1    0    0    0    0  0.00000000000E+00  0.00000000000E+00  0.74505805969E-08  0.10566000000E+00  0.10566000000E+00 0. -1.
     999900   -1    0    0    0    0 -0.00000000000E+00 -0.00000000000E+00 -0.74505805969E-08  0.93827000000E+00  0.93827000000E+00 0. -1.
     999902    2    1    2    0    0  0.34686602907E-02  0.22909091631E-01 -0.31612331260E-02  0.10205451442E+01  0.10202771878E+01 0.  0.
     999903    2    3    3    0    0  0.95047467586E-02 -0.99527323703E-01 -0.79421395391E-01  0.12878131762E+00  0.16758321733E-01 0.  0.
         14    1    1    2    0    0 -0.34686602907E-02 -0.22909091631E-01  0.31612331260E-02  0.23384855750E-01  0.00000000000E+00 0. -1.
     999901    1    3    3    0    0 -0.60360864679E-02  0.12243641533E+00  0.76260162265E-01  0.89176382663E+00  0.88000000000E+00 0.  1.
        -11    1    4    4    0    0  0.58607258549E-02 -0.36701455673E-01 -0.39577302232E-01  0.54295201713E-01  0.51100000000E-03 0.  1.
         11    1    4    4    0    0  0.36440209037E-02 -0.62825868030E-01 -0.39844093159E-01  0.74486115905E-01  0.51100000000E-03 0. -1.
</event>
<event>
 8    1  0.1112171E+005  0.1043930E+01  0.7957747E-01            NaN
         13   -1    0    0    0    0  0.00000000000E+00  0.00000000000E+00  0.74505805969E-08  0.10566000000E+00  0.10566000000E+00 0.  1.
     999900   -1    0    0    0    0 -0.00000000000E+00 -0.00000000000E+00 -0.74505805969E-08  0.93827000000E+00  0.93827000000E+00 0.  1.
     999902    2    1    2    0    0  0.19104018924E-01 -0.10913911365E-01  0.55828928261E-02  0.10212309760E+01  0.10209786778E+01 0.  0.
     999903    2    3    3    0    0 -0.76828169396E-01 -0.83665250944E-01  0.63343910634E-01  0.13115677829E+00  0.16947201814E-01 0.  0.
         14    1    1    2    0    0 -0.19104018924E-01  0.10913911365E-01 -0.55828928261E-02  0.22699024046E-01  0.00000000000E+00 0.  1.
     999901    1    3    3    0    0  0.95932188319E-01  0.72751339579E-01 -0.57761017808E-01  0.89007419766E+00  0.88000000000E+00 0. -1.
        -11    1    4    4    0    0 -0.40796913010E-01 -0.54049212299E-01  0.31554641408E-01  0.74710521191E-01  0.51100000000E-03 0. -1.
         11    1    4    4    0    0 -0.36031256386E-01 -0.29616038645E-01  0.31789269226E-01  0.56446257101E-01  0.51100000000E-03 0.  1.
</event>
<event>
 8    1  0.1112171E+005  0.1043930E+01  0.7957747E-01            NaN
         13   -1    0    0    0    0  0.00000000000E+00  0.00000000000E+00  0.74505805969E-08  0.10566000000E+00  0.10566000000E+00 0.  1.
     999900   -1    0    0    0    0 -0.00000000000E+00 -0.00000000000E+00 -0.74505805969E-08  0.93827000000E+00  0.93827000000E+00 0. -1.
     999902    2    1    2    0    0  0.16747463465E-01  0.13826762456E-01  0.99659044433E-02  0.10200348929E+01  0.10197549738E+01 0.  0.
     999903    2    3    3    0    0  0.60238937770E-01  0.46305049480E-01 -0.10468161929E+00  0.13093962119E+00  0.20348359853E-01 0.  0.
         14    1    1    2    0    0 -0.16747463465E-01 -0.13826762456E-01 -0.99659044433E-02  0.23895107112E-01  0.00000000000E+00 0. -1.
     999901    1    3    3    0    0 -0.43491474305E-01 -0.32478287024E-01  0.11464752373E+00  0.88909527170E+00  0.88000000000E+00 0.  1.
        -11    1    4    4    0    0  0.24748496186E-01  0.18809973757E-01 -0.60113961895E-01  0.67677564317E-01  0.51100000000E-03 0. -1.
         11    1    4    4    0    0  0.35490441584E-01  0.27495075722E-01 -0.44567657393E-01  0.63262056869E-01  0.51100000000E-03 0.  1.
</event>
<event>
 8    1  0.1112171E+005  0.1043930E+01  0.7957747E-01            NaN
         13   -1    0    0    0    0  0.00000000000E+00  0.00000000000E+00  0.74505805969E-08  0.10566000000E+00  0.10566000000E+00 0.  1.
     999900   -1    0    0    0    0 -0.00000000000E+00 -0.00000000000E+00 -0.74505805969E-08  0.93827000000E+00  0.93827000000E+00 0. -1.
     999902    2    1    2    0    0 -0.11464181643E-01 -0.85888901772E-02 -0.17668606498E-01  0.10211840960E+01  0.10209307428E+01 0.  0.
     999903    2    3    3    0    0 -0.44586542106E-01 -0.61725408226E-01 -0.10881640487E+00  0.13426329822E+00  0.19688512434E-01 0.  0.
         14    1    1    2    0    0  0.11464181643E-01  0.85888901772E-02  0.17668606498E-01  0.22745904044E-01  0.00000000000E+00 0.  1.
     999901    1    3    3    0    0  0.33122360462E-01  0.53136518048E-01  0.91147798372E-01  0.88692079774E+00  0.88000000000E+00 0.  1.
        -11    1    4    4    0    0 -0.32294022928E-01 -0.36541582906E-01 -0.82384771659E-01  0.95737677643E-01  0.51100000000E-03 0. -1.
         11    1    4    4    0    0 -0.12292519177E-01 -0.25183825319E-01 -0.26431633211E-01  0.38525620574E-01  0.51100000000E-03 0.  1.
</event>
<event>
 8    1  0.1112171E+005  0.1043930E+01  0.7957747E-01            NaN
         13   -1    0    0    0    0  0.00000000000E+00  0.00000000000E+00  0.74505805969E-08  0.10566000000E+00  0.10566000000E+00 0.  1.
     999900   -1    0    0    0    0 -0.00000000000E+00 -0.00000000000E+00 -0.74505805969E-08  0.93827000000E+00  0.93827000000E+00 0.  1.
     999902    2    1    2    0    0 -0.20332726825E-01  0.15106586394E-01  0.90006024687E-02  0.10170480436E+01  0.10166927183E+01 0.  0.
     999903    2    3    3    0    0  0.38767138927E-01 -0.11660662907E+00 -0.12917424163E-01  0.12501577677E+00  0.19028599291E-01 0.  0.
         14    1    1    2    0    0  0.20332726825E-01 -0.15106586394E-01 -0.90006024687E-02  0.26881956355E-01  0.00000000000E+00 0. -1.
     999901    1    3    3    0    0 -0.59099865752E-01  0.13171321546E+00  0.21918026631E-01  0.89203226688E+00  0.88000000000E+00 0.  1.
        -11    1    4    4    0    0  0.11732129692E-01 -0.46265099312E-01 -0.13674268680E-01  0.49652281180E-01  0.51100000000E-03 0.  1.
         11    1    4    4    0    0  0.27035009235E-01 -0.70341529755E-01  0.75684451746E-03  0.75363495588E-01  0.51100000000E-03 0. -1.
</event>
<event>
 8    1  0.1112171E+005  0.1043930E+01  0.7957747E-01            NaN
         13   -1    0    0    0    0  0.00000000000E+00  0.00000000000E+00  0.74505805969E-08  0.10566000000E+00  0.10566000000E+00 0.  1.
     999900   -1    0    0    0    0 -0.00000000000E+00 -0.00000000000E+00 -0.74505805969E-08  0.93827000000E+00  0.93827000000E+00 0.  1.
     999902    2    1    2    0    0 -0.43172637940E-02 -0.12099406097E-01  0.24365344949E-01  0.10163854102E+01  0.10160121050E+01 0.  0.
     999903    2    3    3    0    0  0.10711006931E+00  0.63042914789E-01  0.40789626250E-02  0.12595070944E+00  0.19999180474E-01 0.  0.
         14    1    1    2    0    0  0.43172637940E-02  0.12099406097E-01 -0.24365344949E-01  0.27544589833E-01  0.00000000000E+00 0. -1.
     999901    1    3    3    0    0 -0.11142733310E+00 -0.75142320886E-01  0.20286382324E-01  0.89043470073E+00  0.88000000000E+00 0. -1.
        -11    1    4    4    0    0  0.78633421110E-01  0.43008061970E-01 -0.56175179059E-02  0.89803819174E-01  0.51100000000E-03 0. -1.
         11    1    4    4    0    0  0.28476648200E-01  0.20034852819E-01  0.96964805309E-02  0.36146890266E-01  0.51100000000E-03 0.  1.
</event>
<event>
 8    1  0.1112171E+005  0.1043930E+01  0.7957747E-01            NaN
         13   -1    0    0    0    0  0.00000000000E+00  0.00000000000E+00  0.74505805969E-08  0.10566000000E+00  0.10566000000E+00 0.  1.
     999900   -1    0    0    0    0 -0.00000000000E+00 -0.00000000000E+00 -0.74505805969E-08  0.93827000000E+00  0.93827000000E+00 0. -1.
     999902    2    1    2    0    0 -0.17765726559E-01 -0.69402027566E-02 -0.14489434097E-01  0.10199773142E+01  0.10196960284E+01 0.  0.
     999903    2    3    3    0    0 -0.50941825180E-01 -0.66917791685E-01 -0.10088204666E+00  0.13309420571E+00  0.21536477429E-01 0.  0.
         14    1    1    2    0    0  0.17765726559E-01  0.69402027566E-02  0.14489434097E-01  0.23952685756E-01  0.00000000000E+00 0.  1.
     999901    1    3    3    0    0  0.33176098621E-01  0.59977588928E-01  0.86392612559E-01  0.88688310853E+00  0.88000000000E+00 0.  1.
        -11    1    4    4    0    0 -0.25836994848E-01 -0.50634177376E-01 -0.64153623493E-01  0.85716502201E-01  0.51100000000E-03 0.  1.
         11    1    4    4    0    0 -0.25104830332E-01 -0.16283614309E-01 -0.36728423163E-01  0.47377703512E-01  0.51100000000E-03 0. -1.
</event>
<event>
 8    1  0.1112171E+005  0.1043930E+01  0.7957747E-01            NaN
         13   -1    0    0    0    0  0.00000000000E+00  0.00000000000E+00  0.74505805969E-08  0.10566000000E+00  0.10566000000E+00 0. -1.
     999900   -1    0    0    0    0 -0.00000000000E+00 -0.00000000000E+00 -0.74505805969E-08  0.93827000000E+00  0.93827000000E+00 0.  1.
     999902    2    1    2    0    0 -0.48436020498E-04  0.18060730865E-01 -0.14882819228E-01  0.10205272084E+01  0.10202588360E+01 0.  0.
     999903    2    3    3    0    0 -0.12521436568E+00  0.17498183359E-01  0.26259005435E-01  0.13071853453E+00  0.20321813636E-01 0.  0.
         14    1    1    2    0    0  0.48436020498E-04 -0.18060730865E-01  0.14882819228E-01  0.23402791577E-01  0.00000000000E+00 0. -1.
     999901    1    3    3    0    0  0.12516592966E+00  0.56254750610E-03 -0.41141824662E-01  0.88980867390E+00  0.88000000000E+00 0.  1.
        -11    1    4    4    0    0 -0.34782589901E-01 -0.42284927516E-02  0.76994813934E-02  0.35878292127E-01  0.51100000000E-03 0. -1.
         11    1    4    4    0    0 -0.90431775776E-01  0.21726676110E-01  0.18559524041E-01  0.94840242399E-01  0.51100000000E-03 0.  1.
</event>
<event>
 8    1  0.1112171E+005  0.1043930E+01  0.7957747E-01            NaN
         13   -1    0    0    0    0  0.00000000000E+00  0.00000000000E+00  0.74505805969E-08  0.10566000000E+00  0.10566000000E+00 0.  1.
     999900   -1    0    0    0    0 -0.00000000000E+00 -0.00000000000E+00 -0.74505805969E-08  0.93827000000E+00  0.93827000000E+00 0. -1.
     999902    2    1    2    0    0  0.87961559881E-02 -0.21170901683E-01  0.26703455140E-02  0.10208494848E+01  0.10205885363E+01 0.  0.
     999903    2    3    3    0    0 -0.30092081495E-01  0.73591737181E-01  0.10004098775E+00  0.12957326793E+00  0.21441907141E-01 0.  0.
         14    1    1    2    0    0 -0.87961559881E-02  0.21170901683E-01 -0.26703455140E-02  0.23080515232E-01  0.00000000000E+00 0.  1.
     999901    1    3    3    0    0  0.38888237483E-01 -0.94762638864E-01 -0.97370642232E-01  0.89127621684E+00  0.88000000000E+00 0. -1.
        -11    1    4    4    0    0 -0.12220377188E-01  0.52490076875E-01  0.74308461656E-01  0.91796265630E-01  0.51100000000E-03 0. -1.
         11    1    4    4    0    0 -0.17871704307E-01  0.21101660306E-01  0.25732526090E-01  0.37777002296E-01  0.51100000000E-03 0.  1.
</event>
<event>
 8    1  0.1112171E+005  0.1043930E+01  0.7957747E-01            NaN
         13   -1    0    0    0    0  0.00000000000E+00  0.00000000000E+00  0.74505805969E-08  0.10566000000E+00  0.10566000000E+00 0.  1.
     999900   -1    0    0    0    0 -0.00000000000E+00 -0.00000000000E+00 -0.74505805969E-08  0.93827000000E+00  0.93827000000E+00 0. -1.
     999902    2    1    2    0    0  0.98613311851E-03  0.14531558343E-01 -0.16442159908E-01  0.10219644982E+01  0.10217284142E+01 0.  0.
     999903    2    3    3    0    0  0.61679450408E-01  0.85483436536E-01 -0.81440375892E-01  0.13464121109E+00  0.19594600640E-01 0.  0.
         14    1    1    2    0    0 -0.98613311851E-03 -0.14531558343E-01  0.16442159908E-01  0.21965501789E-01  0.00000000000E+00 0.  1.
     999901    1    3    3    0    0 -0.60693317289E-01 -0.70951878193E-01  0.64998215984E-01  0.88732328712E+00  0.88000000000E+00 0.  1.
        -11    1    4    4    0    0  0.13637782951E-01  0.29265864091E-01 -0.33393731135E-01  0.46453012011E-01  0.51100000000E-03 0.  1.
         11    1    4    4    0    0  0.48041667457E-01  0.56217572445E-01 -0.48046644757E-01  0.88188199080E-01  0.51100000000E-03 0. -1.
</event>
<event>
 8    1  0.1112171E+005  0.1043930E+01  0.7957747E-01            NaN
         13   -1    0    0    0    0  0.00000000000E+00  0.00000000000E+00  0.74505805969E-08  0.10566000000E+00  0.10566000000E+00 0.  1.
     999900   -1    0    0    0    0 -0.00000000000E+00 -0.00000000000E+00 -0.74505805969E-08  0.93827000000E+00  0.93827000000E+00 0.  1.
     999902    2    1    2    0    0  0.18160022870E-01  0.41815214790E-02  0.13679376106E-01  0.10208129742E+01  0.10205511900E+01 0.  0.
     999903    2    3    3    0    0  0.73016608774E-02  0.12941294871E+00 -0.10448489400E-01  0.13155318745E+00  0.19900870621E-01 0.  0.
         14    1    1    2    0    0 -0.18160022870E-01 -0.41815214790E-02 -0.13679376106E-01  0.23117025829E-01  0.00000000000E+00 0. -1.
     999901    1    3    3    0    0  0.10858361993E-01 -0.12523142723E+00  0.24127865505E-01  0.88925978672E+00  0.88000000000E+00 0. -1.
        -11    1    4    4    0    0 -0.42704660658E-02  0.80188050710E-01 -0.10476094358E-01  0.80983763997E-01  0.51100000000E-03 0.  1.
         11    1    4    4    0    0  0.11572126943E-01  0.49224897999E-01  0.27604958443E-04  0.50569423450E-01  0.51100000000E-03 0. -1.
</event>
<event>
 8    1  0.1112171E+005  0.1043930E+01  0.7957747E-01            NaN
         13   -1    0    0    0    0  0.00000000000E+00  0.00000000000E+00  0.74505805969E-08  0.10566000000E+00  0.10566000000E+00 0.  1.
     999900   -1    0    0    0    0 -0.00000000000E+00 -0.00000000000E+00 -0.74505805969E-08  0.93827000000E+00  0.93827000000E+00 0.  1.
     999902    2    1    2    0    0 -0.16351543802E-01  0.12129372173E-02 -0.17672923902E-01  0.10198223987E+01  0.10195374189E+01 0.  0.
     999903    2    3    3    0    0  0.10140996177E+00  0.73577655060E-01 -0.23184435144E-01  0.12901669522E+00  0.20251862680E-01 0.  0.
         14    1    1    2    0    0  0.16351543802E-01 -0.12129372173E-02  0.17672923902E-01  0.24107601304E-01  0.00000000000E+00 0.  1.
     999901    1    3    3    0    0 -0.11776150558E+00 -0.72364717842E-01  0.55115112419E-02  0.89080570347E+00  0.88000000000E+00 0.  1.
        -11    1    4    4    0    0  0.16093994283E-01  0.16199243182E-01  0.26772036233E-02  0.22996970928E-01  0.51100000000E-03 0. -1.
         11    1    4    4    0    0  0.85315967492E-01  0.57378411878E-01 -0.25861638768E-01  0.10601972429E+00  0.51100000000E-03 0.  1.
</event>
<event>
 8    1  0.1112171E+005  0.1043930E+01  0.7957747E-01            NaN
         13   -1    0    0    0    0  0.00000000000E+00  0.00000000000E+00  0.74505805969E-08  0.10566000000E+00  0.10566000000E+00 0. -1.
     999900   -1    0    0    0    0 -0.00000000000E+00 -0.00000000000E+00 -0.74505805969E-08  0.93827000000E+00  0.93827000000E+00 0.  1.
     999902    2    1    2    0    0 -0.19774420427E-01 -0.74014750689E-02 -0.11245432560E-01  0.10200078494E+01  0.10197272888E+01 0.  0.
     999903    2    3    3    0    0  0.10403408378E+00  0.12299532916E-01 -0.72910851211E-01  0.12898635734E+00  0.18631131458E-01 0.  0.
         14    1    1    2    0    0  0.19774420427E-01  0.74014750689E-02  0.11245432560E-01  0.23922150612E-01  0.00000000000E+00 0. -1.
     999901    1    3    3    0    0 -0.12380850420E+00 -0.19701007985E-01  0.61665418651E-01  0.89102149204E+00  0.88000000000E+00 0. -1.
        -11    1    4    4    0    0  0.58595510042E-01  0.44476666382E-02 -0.51518047346E-01  0.78151045156E-01  0.51100000000E-03 0.  1.
         11    1    4    4    0    0  0.45438573734E-01  0.78518662780E-02 -0.21392803865E-01  0.50835312188E-01  0.51100000000E-03 0. -1.
</event>
<event>
 8    1  0.1112171E+005  0.1043930E+01  0.7957747E-01            NaN
         13   -1    0    0    0    0  0.00000000000E+00  0.00000000000E+00  0.74505805969E-08  0.10566000000E+00  0.10566000000E+00 0.  1.
     999900   -1    0    0    0    0 -0.00000000000E+00 -0.00000000000E+00 -0.74505805969E-08  0.93827000000E+00  0.93827000000E+00 0. -1.
     999902    2    1    2    0    0 -0.78953549351E-02 -0.10156109722E-01 -0.20481467081E-01  0.10197437707E+01  0.10194569065E+01 0.  0.
     999903    2    3    3    0    0 -0.11631015731E-01 -0.66977640548E-01  0.10760512679E+00  0.12864960224E+00  0.18723567628E-01 0.  0.
         14    1    1    2    0    0  0.78953549351E-02  0.10156109722E-01  0.20481467081E-01  0.24186229306E-01  0.00000000000E+00 0.  1.
     999901    1    3    3    0    0  0.37356607959E-02  0.56821530826E-01 -0.12808659387E+00  0.89109416846E+00  0.88000000000E+00 0. -1.
        -11    1    4    4    0    0 -0.43503893191E-02 -0.47923626884E-01  0.60426632239E-01  0.77247905510E-01  0.51100000000E-03 0. -1.
         11    1    4    4    0    0 -0.72806264119E-02 -0.19054013665E-01  0.47178494549E-01  0.51401696729E-01  0.51100000000E-03 0.  1.
</event>
<event>
 8    1  0.1112171E+005  0.1043930E+01  0.7957747E-01            NaN
         13   -1    0    0    0    0  0.00000000000E+00  0.00000000000E+00  0.74505805969E-08  0.10566000000E+00  0.10566000000E+00 0.  1.
     999900   -1    0    0    0    0 -0.00000000000E+00 -0.00000000000E+00 -0.74505805969E-08  0.93827000000E+00  0.93827000000E+00 0.  1.
     999902    2    1    2    0    0 -0.12020946150E-02  0.48008584678E-02  0.23091251267E-01  0.10203143451E+01  0.10200410107E+01 0.  0.
     999903    2    3    3    0    0 -0.10493089367E+00 -0.74567648106E-01  0.16702069950E-03  0.13037921037E+00  0.20685357423E-01 0.  0.
         14    1    1    2    0    0  0.12020946150E-02 -0.48008584678E-02 -0.23091251267E-01  0.23615654947E-01  0.00000000000E+00 0. -1.
     999901    1    3    3    0    0  0.10372879905E+00  0.79368506574E-01  0.22924230568E-01  0.88993513468E+00  0.88000000000E+00 0.  1.
        -11    1    4    4    0    0 -0.78232686662E-01 -0.65670773889E-01 -0.18578331806E-02  0.10216024898E+00  0.51100000000E-03 0.  1.
         11    1    4    4    0    0 -0.26698207007E-01 -0.88968742169E-02  0.20248538801E-02  0.28218961399E-01  0.51100000000E-03 0. -1.
</event>
<event>
 8    1  0.1112171E+005  0.1043930E+01  0.7957747E-01            NaN
         13   -1    0    0    0    0  0.00000000000E+00  0.00000000000E+00  0.74505805969E-08  0.10566000000E+00  0.10566000000E+00 0. -1.
     999900   -1    0    0    0    0 -0.00000000000E+00 -0.00000000000E+00 -0.74505805969E-08  0.93827000000E+00  0.93827000000E+00 0. -1.
     999902    2    1    2    0    0 -0.36155285571E-02  0.21364647237E-01  0.80885584690E-02  0.10208011225E+01  0.10205390667E+01 0.  0.
     999903    2    3    3    0    0  0.96660300909E-01  0.36726980728E-01 -0.77603072904E-01  0.13083803392E+00  0.20106449495E-01 0.  0.
         14    1    1    2    0    0  0.36155285571E-02 -0.21364647237E-01 -0.80885584690E-02  0.23128877544E-01  0.00000000000E+00 0. -1.
     999901    1    3    3    0    0 -0.10027582947E+00 -0.15362333491E-01  0.85691631373E-01  0.88996308853E+00  0.88000000000E+00 0.  1.
        -11    1    4    4    0    0  0.29718470761E-01  0.18796474463E-01 -0.18401724077E-01  0.39691050964E-01  0.51100000000E-03 0.  1.
         11    1    4    4    0    0  0.66941830148E-01  0.17930506265E-01 -0.59201348827E-01  0.91146982959E-01  0.51100000000E-03 0. -1.
</event>
<event>
 8    1  0.1112171E+005  0.1043930E+01  0.7957747E-01            NaN
         13   -1    0    0    0    0  0.00000000000E+00  0.00000000000E+00  0.74505805969E-08  0.10566000000E+00  0.10566000000E+00 0.  1.
     999900   -1    0    0    0    0 -0.00000000000E+00 -0.00000000000E+00 -0.74505805969E-08  0.93827000000E+00  0.93827000000E+00 0.  1.
     999902    2    1    2    0    0 -0.19235183956E-01  0.12986514195E-01 -0.23040848892E-02  0.10206072502E+01  0.10203407315E+01 0.  0.
     999903    2    3    3    0    0  0.57517755533E-01 -0.10984314989E+00  0.25745182583E-01  0.12832651995E+00  0.20762261838E-01 0.  0.
         14    1    1    2    0    0  0.19235183956E-01 -0.12986514195E-01  0.23040848892E-02  0.23322749836E-01  0.00000000000E+00 0.  1.
     999901    1    3    3    0    0 -0.76752939489E-01  0.12282966409E+00 -0.28049267472E-01  0.89228073021E+00  0.88000000000E+00 0. -1.
        -11    1    4    4    0    0  0.54303681050E-01 -0.87769403591E-01  0.18418920991E-01  0.10484214684E+00  0.51100000000E-03 0. -1.
         11    1    4    4    0    0  0.32140744839E-02 -0.22073746303E-01  0.73262615918E-02  0.23484373114E-01  0.51100000000E-03 0.  1.
</event>
<event>
 8    1  0.1112171E+005  0.1043930E+01  0.7957747E-01            NaN
         13   -1    0    0    0    0  0.00000000000E+00  0.00000000000E+00  0.74505805969E-08  0.10566000000E+00  0.10566000000E+00 0. -1.
     999900   -1    0    0    0    0 -0.00000000000E+00 -0.00000000000E+00 -0.74505805969E-08  0.93827000000E+00  0.93827000000E+00 0.  1.
     999902    2    1    2    0    0 -0.16259154389E-02 -0.20169636837E-01  0.10449759021E-01  0.10211559948E+01  0.10209020082E+01 0.  0.
     999903    2    3    3    0    0  0.84670386875E-02 -0.12769015706E+00 -0.32324396255E-01  0.13352309860E+00  0.20176330461E-01 0.  0.
         14    1    1    2    0    0  0.16259154389E-02  0.20169636837E-01 -0.10449759021E-01  0.22774005241E-01  0.00000000000E+00 0.  1.
     999901    1    3    3    0    0 -0.10092954126E-01  0.10752052022E+00  0.42774155275E-01  0.88763289616E+00  0.88000000000E+00 0. -1.
        -11    1    4    4    0    0 -0.66837029209E-02 -0.41298439649E-01 -0.10222523068E-01  0.43069642454E-01  0.51100000000E-03 0. -1.
         11    1    4    4    0    0  0.15150741608E-01 -0.86391717412E-01 -0.22101873187E-01  0.90453456142E-01  0.51100000000E-03 0.  1.
</event>
<event>
 8    1  0.1112171E+005  0.1043930E+01  0.7957747E-01            NaN
         13   -1    0    0    0    0  0.00000000000E+00  0.00000000000E+00  0.74505805969E-08  0.10566000000E+00  0.10566000000E+00 0.  1.
     999900   -1    0    0    0    0 -0.00000000000E+00 -0.00000000000E+00 -0.74505805969E-08  0.93827000000E+00  0.93827000000E+00 0.  1.
     999902    2    1    2    0    0 -0.47385469590E-02  0.14009191628E-01  0.17977095560E-01  0.10206515284E+01  0.10203860324E+01 0.  0.
     999903    2    3    3    0    0 -0.10049246372E-01  0.11279997791E+00 -0.63196584195E-01  0.13139510343E+00  0.21119720238E-01 0.  0.
         14    1    1    2    0    0  0.47385469590E-02 -0.14009191628E-01 -0.17977095560E-01  0.23278471645E-01  0.00000000000E+00 0. -1.
     999901    1    3    3    0    0  0.53106994126E-02 -0.98790786281E-01  0.81173679755E-01  0.88925642492E+00  0.88000000000E+00 0.  1.
        -11    1    4    4    0    0 -0.42997696155E-02  0.24736365354E-01 -0.24321862210E-01  0.34959832552E-01  0.51100000000E-03 0. -1.
         11    1    4    4    0    0 -0.57494767561E-02  0.88063612556E-01 -0.38874721984E-01  0.96435270880E-01  0.51100000000E-03 0.  1.
</event>
<event>
 8    1  0.1112171E+005  0.1043930E+01  0.7957747E-01            NaN
         13   -1    0    0    0    0  0.00000000000E+00  0.00000000000E+00  0.74505805969E-08  0.10566000000E+00  0.10566000000E+00 0.  1.
     999900   -1    0    0    0    0 -0.00000000000E+00 -0.00000000000E+00 -0.74505805969E-08  0.93827000000E+00  0.93827000000E+00 0.  1.
     999902    2    1    2    0    0  0.10447202838E-01 -0.18601422023E-01 -0.99398117180E-02  0.10203937130E+01  0.10201222342E+01 0.  0.
     999903    2    3    3    0    0 -0.71338600920E-01 -0.10650065433E+00  0.22476805832E-01  0.13164963858E+00  0.19870460050E-01 0.  0.
         14    1    1    2    0    0 -0.10447202838E-01  0.18601422023E-01  0.99398117180E-02  0.23536286993E-01  0.00000000000E+00 0.  1.
     999901    1    3    3    0    0  0.81785803758E-01  0.87899232311E-01 -0.32416617550E-01  0.88874407443E+00  0.88000000000E+00 0. -1.
        -11    1    4    4    0    0 -0.42782039414E-01 -0.66638122080E-01  0.41533557872E-02  0.79299771097E-01  0.51100000000E-03 0. -1.
         11    1    4    4    0    0 -0.28556561506E-01 -0.39862532255E-01  0.18323450045E-01  0.52349867482E-01  0.51100000000E-03 0.  1.
</event>
<event>
 8    1  0.1112171E+005  0.1043930E+01  0.7957747E-01            NaN
         13   -1    0    0    0    0  0.00000000000E+00  0.00000000000E+00  0.74505805969E-08  0.10566000000E+00  0.10566000000E+00 0.  1.
     999900   -1    0    0    0    0 -0.00000000000E+00 -0.00000000000E+00 -0.74505805969E-08  0.93827000000E+00  0.93827000000E+00 0. -1.
     999902    2    1    2    0    0 -0.66049863329E-02  0.22801177065E-01  0.46188734391E-02  0.10197462552E+01  0.10194594506E+01 0.  0.
     999903    2    3    3    0    0 -0.11589856639E+00 -0.32488833374E-01 -0.44749791946E-01  0.12989270714E+00  0.19533804145E-01 0.  0.
         14    1    1    2    0    0  0.66049863329E-02 -0.22801177065E-01 -0.46188734391E-02  0.24183744786E-01  0.00000000000E+00 0. -1.
     999901    1    3    3    0    0  0.10929358006E+00  0.55290010440E-01  0.49368665385E-01  0.88985354807E+00  0.88000000000E+00 0. -1.
        -11    1    4    4    0    0 -0.30431713723E-01  0.23348945585E-05 -0.92972416977E-02  0.31824346493E-01  0.51100000000E-03 0.  1.
         11    1    4    4    0    0 -0.85466852666E-01 -0.32491168269E-01 -0.35452550249E-01  0.98068360648E-01  0.51100000000E-03 0. -1.
</event>
<event>
 8    1  0.1112171E+005  0.1043930E+01  0.7957747E-01            NaN
         13   -1    0    0    0    0  0.00000000000E+00  0.00000000000E+00  0.74505805969E-08  0.10566000000E+00  0.10566000000E+00 0.  1.
     999900   -1    0    0    0    0 -0.00000000000E+00 -0.00000000000E+00 -0.74505805969E-08  0.93827000000E+00  0.93827000000E+00 0.  1.
     999902    2    1    2    0    0  0.12960456482E-01 -0.71604803944E-02  0.15256169935E-01  0.10226697876E+01  0.10224487751E+01 0.  0.
     999903    2    3    3    0    0  0.53200481313E-01 -0.12050289389E+00  0.18687107553E-01  0.13448200695E+00  0.19620488180E-01 0.  0.
         14    1    1    2    0    0 -0.12960456482E-01  0.71604803944E-02 -0.15256169935E-01  0.21260212435E-01  0.00000000000E+00 0. -1.
     999901    1    3    3    0    0 -0.40240024830E-01  0.11334241350E+00 -0.34309376186E-02  0.88818778061E+00  0.88000000000E+00 0.  1.
        -11    1    4    4    0    0  0.20446086614E-01 -0.45588547106E-01 -0.24644990981E-02  0.50026922370E-01  0.51100000000E-03 0.  1.
         11    1    4    4    0    0  0.32754394699E-01 -0.74914346789E-01  0.21151606652E-01  0.84455084582E-01  0.51100000000E-03 0. -1.
</event>
<event>
 8    1  0.1112171E+005  0.1043930E+01  0.7957747E-01            NaN
         13   -1    0    0    0    0  0.00000000000E+00  0.00000000000E+00  0.74505805969E-08  0.10566000000E+00  0.10566000000E+00 0.  1.
     999900   -1    0    0    0    0 -0.00000000000E+00 -0.00000000000E+00 -0.74505805969E-08  0.93827000000E+00  0.93827000000E+00 0.  1.
     999902    2    1    2    0    0 -0.52041799833E-02 -0.16039060256E-02  0.22795796180E-01  0.10204927577E+01  0.10202235854E+01 0.  0.
     999903    2    3    3    0    0  0.27478078492E-01  0.12366281715E+00 -0.21459995386E-01  0.12992077461E+00  0.19270161672E-01 0.  0.
         14    1    1    2    0    0  0.52041799833E-02  0.16039060256E-02 -0.22795796180E-01  0.23437242314E-01  0.00000000000E+00 0. -1.
     999901    1    3    3    0    0 -0.32682258475E-01 -0.12526672317E+00  0.44255791566E-01  0.89057198308E+00  0.88000000000E+00 0.  1.
        -11    1    4    4    0    0  0.25724816936E-01  0.89811510382E-01 -0.22145467484E-01  0.96013313944E-01  0.51100000000E-03 0.  1.
         11    1    4    4    0    0  0.17532615561E-02  0.33851306765E-01  0.68547209767E-03  0.33907460665E-01  0.51100000000E-03 0. -1.
</event>
<event>
 8    1  0.1112171E+005  0.1043930E+01  0.7957747E-01            NaN
         13   -1    0    0    0    0  0.00000000000E+00  0.00000000000E+00  0.74505805969E-08  0.10566000000E+00  0.10566000000E+00 0.  1.
     999900   -1    0    0    0    0 -0.00000000000E+00 -0.00000000000E+00 -0.74505805969E-08  0.93827000000E+00  0.93827000000E+00 0. -1.
     999902    2    1    2    0    0  0.92657689801E-02  0.11955096846E-01  0.28475970640E-01  0.10116862453E+01  0.10111722895E+01 0.  0.
     999903    2    3    3    0    0  0.12506444618E-03  0.82091969686E-01  0.93800990610E-01  0.12643481678E+00  0.21166717404E-01 0.  0.
         14    1    1    2    0    0 -0.92657689801E-02 -0.11955096846E-01 -0.28475970640E-01  0.32243754733E-01  0.00000000000E+00 0. -1.
     999901    1    3    3    0    0  0.91407045340E-02 -0.70136872840E-01 -0.65325019969E-01  0.88525142849E+00  0.88000000000E+00 0. -1.
        -11    1    4    4    0    0  0.26821458053E-02  0.43595015021E-01  0.34390267536E-01  0.55593802379E-01  0.51100000000E-03 0.  1.
         11    1    4    4    0    0 -0.25570813591E-02  0.38496954666E-01  0.59410723074E-01  0.70841014397E-01  0.51100000000E-03 0. -1.
</event>
<event>
 8    1  0.1112171E+005  0.1043930E+01  0.7957747E-01            NaN
         13   -1    0    0    0    0  0.00000000000E+00  0.00000000000E+00  0.74505805969E-08  0.10566000000E+00  0.10566000000E+00 0.  1.
     999900   -1    0    0    0    0 -0.00000000000E+00 -0.00000000000E+00 -0.74505805969E-08  0.93827000000E+00  0.93827000000E+00 0.  1.
     999902    2    1    2    0    0  0.10752541070E-02 -0.22455398328E-01 -0.36200235293E-02  0.10211592807E+01  0.10209053683E+01 0.  0.
     999903    2    3    3    0    0 -0.81926397772E-01 -0.37537339889E-02 -0.10100056983E+00  0.13170889018E+00  0.20496133179E-01 0.  0.
         14    1    1    2    0    0 -0.10752541070E-02  0.22455398328E-01  0.36200235293E-02  0.22770719265E-01  0.00000000000E+00 0.  1.
     999901    1    3    3    0    0  0.83001651879E-01 -0.18701664339E-01  0.97380546301E-01  0.88945039056E+00  0.88000000000E+00 0. -1.
        -11    1    4    4    0    0 -0.54171190404E-01 -0.10604274749E-01 -0.58002908743E-01  0.80072261466E-01  0.51100000000E-03 0. -1.
         11    1    4    4    0    0 -0.27755207368E-01  0.68505407604E-02 -0.42997661088E-01  0.51636628712E-01  0.51100000000E-03 0.  1.
</event>
<event>
 8    1  0.1112171E+005  0.1043930E+01  0.7957747E-01            NaN
         13   -1    0    0    0    0  0.00000000000E+00  0.00000000000E+00  0.74505805969E-08  0.10566000000E+00  0.10566000000E+00 0.  1.
     999900   -1    0    0    0    0 -0.00000000000E+00 -0.00000000000E+00 -0.74505805969E-08  0.93827000000E+00  0.93827000000E+00 0.  1.
     999902    2    1    2    0    0 -0.18684282763E-01 -0.44216138217E-02  0.14547460936E-01  0.10198409628E+01  0.10195564270E+01 0.  0.
     999903    2    3    3    0    0  0.11673447242E+00  0.17183994458E-01  0.47015288699E-01  0.12862875389E+00  0.20314828026E-01 0.  0.
         14    1    1    2    0    0  0.18684282763E-01  0.44216138217E-02 -0.14547460936E-01  0.24089037151E-01  0.00000000000E+00 0.  1.
     999901    1    3    3    0    0 -0.13541875519E+00 -0.21605608279E-01 -0.32467827763E-01  0.89121220896E+00  0.88000000000E+00 0.  1.
        -11    1    4    4    0    0  0.58983721444E-01  0.67847011496E-02  0.34351950917E-01  0.68596131217E-01  0.51100000000E-03 0. -1.
         11    1    4    4    0    0  0.57750750978E-01  0.10399293308E-01  0.12663337782E-01  0.60032622670E-01  0.51100000000E-03 0.  1.
</event>
<event>
 8    1  0.1112171E+005  0.1043930E+01  0.7957747E-01            NaN
         13   -1    0    0    0    0  0.00000000000E+00  0.00000000000E+00  0.74505805969E-08  0.10566000000E+00  0.10566000000E+00 0. -1.
     999900   -1    0    0    0    0 -0.00000000000E+00 -0.00000000000E+00 -0.74505805969E-08  0.93827000000E+00  0.93827000000E+00 0. -1.
     999902    2    1    2    0    0  0.18360526741E-02  0.20222189339E-01  0.11996828494E-01  0.10203454304E+01  0.10200728235E+01 0.  0.
     999903    2    3    3    0    0  0.76995045621E-01  0.30042568143E-01  0.10172327671E+00  0.13254131370E+00  0.19717552127E-01 0.  0.
         14    1    1    2    0    0 -0.18360526741E-02 -0.20222189339E-01 -0.11996828494E-01  0.23584569637E-01  0.00000000000E+00 0. -1.
     999901    1    3    3    0    0 -0.75158992947E-01 -0.98203788042E-02 -0.89726448211E-01  0.88780411667E+00  0.88000000000E+00 0. -1.
        -11    1    4    4    0    0  0.28961410544E-01  0.16293050477E-01  0.54243146104E-01  0.63614517327E-01  0.51100000000E-03 0.  1.
         11    1    4    4    0    0  0.48033635078E-01  0.13749517666E-01  0.47480130602E-01  0.68926796370E-01  0.51100000000E-03 0. -1.
</event>
<event>
 8    1  0.1112171E+005  0.1043930E+01  0.7957747E-01            NaN
         13   -1    0    0    0    0  0.00000000000E+00  0.00000000000E+00  0.74505805969E-08  0.10566000000E+00  0.10566000000E+00 0. -1.
     999900   -1    0    0    0    0 -0.00000000000E+00 -0.00000000000E+00 -0.74505805969E-08  0.93827000000E+00  0.93827000000E+00 0. -1.
     999902    2    1    2    0    0 -0.15002444075E-01  0.93461519803E-02  0.16104164770E-01  0.10200183290E+01  0.10197380171E+01 0.  0.
     999903    2    3    3    0    0 -0.50271217018E-01 -0.74438316315E-01  0.93915057577E-01  0.13192021593E+00  0.22685835560E-01 0.  0.
         14    1    1    2    0    0  0.15002444075E-01 -0.93461519803E-02 -0.16104164770E-01  0.23911670958E-01  0.00000000000E+00 0.  1.
     999901    1    3    3    0    0  0.35268772943E-01  0.83784468296E-01 -0.77810892807E-01  0.88809811311E+00  0.88000000000E+00 0.  1.
        -11    1    4    4    0    0 -0.19233325986E-01 -0.33964293399E-01  0.56450124740E-01  0.68632148143E-01  0.51100000000E-03 0.  1.
         11    1    4    4    0    0 -0.31037891032E-01 -0.40474022916E-01  0.37464932837E-01  0.63288067787E-01  0.51100000000E-03 0. -1.
</event>
<event>
 8    1  0.1112171E+005  0.1043930E+01  0.7957747E-01            NaN
         13   -1    0    0    0    0  0.00000000000E+00  0.00000000000E+00  0.74505805969E-08  0.10566000000E+00  0.10566000000E+00 0. -1.
     999900   -1    0    0    0    0 -0.00000000000E+00 -0.00000000000E+00 -0.74505805969E-08  0.93827000000E+00  0.93827000000E+00 0. -1.
     999902    2    1    2    0    0  0.15012727821E-01  0.99370438267E-02 -0.14180815267E-01  0.10210122698E+01  0.10207550307E+01 0.  0.
     999903    2    3    3    0    0 -0.12238840241E+00  0.29183692916E-01 -0.25039015262E-01  0.13007601808E+00  0.21499051540E-01 0.  0.
         14    1    1    2    0    0 -0.15012727821E-01 -0.99370438267E-02  0.14180815267E-01  0.22917730216E-01  0.00000000000E+00 0. -1.
     999901    1    3    3    0    0  0.13740113023E+00 -0.19246649089E-01  0.10858199995E-01  0.89093625170E+00  0.88000000000E+00 0.  1.
        -11    1    4    4    0    0 -0.67536208553E-01  0.18087517093E-01 -0.24566192490E-01  0.74108411633E-01  0.51100000000E-03 0. -1.
         11    1    4    4    0    0 -0.54852193860E-01  0.11096175823E-01 -0.47282277170E-03  0.55967606449E-01  0.51100000000E-03 0.  1.
</event>
<event>
 8    1  0.1112171E+005  0.1043930E+01  0.7957747E-01            NaN
         13   -1    0    0    0    0  0.00000000000E+00  0.00000000000E+00  0.74505805969E-08  0.10566000000E+00  0.10566000000E+00 0. -1.
     999900   -1    0    0    0    0 -0.00000000000E+00 -0.00000000000E+00 -0.74505805969E-08  0.93827000000E+00  0.93827000000E+00 0.  1.
     999902    2    1    2    0    0 -0.22398090955E-01  0.54137175632E-02 -0.28112294546E-02  0.10207160855E+01  0.10204520769E+01 0.  0.
     999903    2    3    3    0    0  0.19429891987E-01 -0.11563374835E+00  0.52527941390E-01  0.12972534872E+00  0.17910807172E-01 0.  0.
         14    1    1    2    0    0  0.22398090955E-01 -0.54137175632E-02  0.28112294546E-02  0.23213914520E-01  0.00000000000E+00 0. -1.
     999901    1    3    3    0    0 -0.41827982942E-01  0.12104746591E+00 -0.55339170845E-01  0.89099073676E+00  0.88000000000E+00 0.  1.
        -11    1    4    4    0    0  0.22203519052E-01 -0.10208696554E+00  0.49269130941E-01  0.11550953717E+00  0.51100000000E-03 0.  1.
         11    1    4    4    0    0 -0.27736270652E-02 -0.13546782808E-01  0.32588104488E-02  0.14215811552E-01  0.51100000000E-03 0. -1.
</event>
<event>
 8    1  0.1112171E+005  0.1043930E+01  0.7957747E-01            NaN
         13   -1    0    0    0    0  0.00000000000E+00  0.00000000000E+00  0.74505805969E-08  0.10566000000E+00  0.10566000000E+00 0.  1.
     999900   -1    0    0    0    0 -0.00000000000E+00 -0.00000000000E+00 -0.74505805969E-08  0.93827000000E+00  0.93827000000E+00 0.  1.
     999902    2    1    2    0    0 -0.18359877816E-01 -0.13394187730E-01 -0.49964154682E-02  0.10206608456E+01  0.10203955646E+01 0.  0.
     999903    2    3    3    0    0  0.11310887853E+00 -0.52941137823E-01 -0.29071726384E-01  0.12969080361E+00  0.19446253833E-01 0.  0.
         14    1    1    2    0    0  0.18359877816E-01  0.13394187730E-01  0.49964154682E-02  0.23269154387E-01  0.00000000000E+00 0. -1.
     999901    1    3    3    0    0 -0.13146875635E+00  0.39546950093E-01  0.24075310916E-01  0.89097004201E+00  0.88000000000E+00 0. -1.
        -11    1    4    4    0    0  0.44691469791E-01 -0.11507786575E-01 -0.67145728657E-02  0.46638002033E-01  0.51100000000E-03 0. -1.
         11    1    4    4    0    0  0.68417408742E-01 -0.41433351248E-01 -0.22357153518E-01  0.83052801573E-01  0.51100000000E-03 0.  1.
</event>
<event>
 8    1  0.1112171E+005  0.1043930E+01  0.7957747E-01            NaN
         13   -1    0    0    0    0  0.00000000000E+00  0.00000000000E+00  0.74505805969E-08  0.10566000000E+00  0.10566000000E+00 0.  1.
     999900   -1    0    0    0    0 -0.00000000000E+00 -0.00000000000E+00 -0.74505805969E-08  0.93827000000E+00  0.93827000000E+00 0.  1.
     999902    2    1    2    0    0  0.27157541450E-02 -0.11479427325E-01 -0.19800195583E-01  0.10208822166E+01  0.10206220162E+01 0.  0.
     999903    2    3    3    0    0  0.58861626108E-02 -0.18803320907E-01  0.12522104098E+00  0.12897703673E+00  0.23802418219E-01 0.  0.
         14    1    1    2    0    0 -0.27157541450E-02  0.11479427325E-01  0.19800195583E-01  0.23047783351E-01  0.00000000000E+00 0. -1.
     999901    1    3    3    0    0 -0.31704084659E-02  0.73238935827E-02 -0.14502123656E+00  0.89190517992E+00  0.88000000000E+00 0.  1.
        -11    1    4    4    0    0 -0.58787190333E-02  0.19294741641E-02  0.40171634029E-01  0.40648536377E-01  0.51100000000E-03 0. -1.
         11    1    4    4    0    0  0.11764881644E-01 -0.20732795071E-01  0.85049406950E-01  0.88328500356E-01  0.51100000000E-03 0.  1.
</event>
<event>
 8    1  0.1112171E+005  0.1043930E+01  0.7957747E-01            NaN
         13   -1    0    0    0    0  0.00000000000E+00  0.00000000000E+00  0.74505805969E-08  0.10566000000E+00  0.10566000000E+00 0. -1.
     999900   -1    0    0    0    0 -0.00000000000E+00 -0.00000000000E+00 -0.74505805969E-08  0.93827000000E+00  0.93827000000E+00 0. -1.
     999902    2    1    2    0    0 -0.83467422135E-02 -0.23281404345E-01  0.54462132540E-02  0.10186050492E+01  0.10182901812E+01 0.  0.
     999903    2    3    3    0    0 -0.51511291576E-01 -0.11822908636E+00  0.21208584511E-01  0.13230561166E+00  0.20577677197E-01 0.  0.
         14    1    1    2    0    0  0.83467422135E-02  0.23281404345E-01 -0.54462132540E-02  0.25324950793E-01  0.00000000000E+00 0.  1.
     999901    1    3    3    0    0  0.43164549363E-01  0.94947682017E-01 -0.15762371257E-01  0.88629943754E+00  0.88000000000E+00 0. -1.
        -11    1    4    4    0    0 -0.35692583883E-01 -0.81885650048E-01  0.24214399684E-01  0.92551707176E-01  0.51100000000E-03 0.  1.
         11    1    4    4    0    0 -0.15818707693E-01 -0.36343436314E-01 -0.30058151728E-02  0.39753904488E-01  0.51100000000E-03 0. -1.
</event>
<event>
 8    1  0.1112171E+005  0.1043930E+01  0.7957747E-01            NaN
         13   -1    0    0    0    0  0.00000000000E+00  0.00000000000E+00  0.74505805969E-08  0.10566000000E+00  0.10566000000E+00 0.  1.
     999900   -1    0    0    0    0 -0.00000000000E+00 -0.00000000000E+00 -0.74505805969E-08  0.93827000000E+00  0.93827000000E+00 0.  1.
     999902    2    1    2    0    0 -0.22691150342E-01  0.51186265148E-02 -0.77649710604E-02  0.10194068800E+01  0.10191118700E+01 0.  0.
     999903    2    3    3    0    0 -0.92270253975E-01 -0.31293790328E-02  0.91177522515E-01  0.13109449217E+00  0.18677057668E-01 0.  0.
         14    1    1    2    0    0  0.22691150342E-01 -0.51186265148E-02  0.77649710604E-02  0.24523120046E-01  0.00000000000E+00 0.  1.
     999901    1    3    3    0    0  0.69579103633E-01  0.82480055475E-02 -0.98942493576E-01  0.88831238779E+00  0.88000000000E+00 0.  1.
        -11    1    4    4    0    0 -0.11145076482E-01 -0.39848488515E-02  0.53785439195E-02  0.13010826486E-01  0.51100000000E-03 0. -1.
         11    1    4    4    0    0 -0.81125177493E-01  0.85546981871E-03  0.85798978596E-01  0.11808366568E+00  0.51100000000E-03 0.  1.
</event>
<event>
 8    1  0.1112171E+005  0.1043930E+01  0.7957747E-01            NaN
         13   -1    0    0    0    0  0.00000000000E+00  0.00000000000E+00  0.74505805969E-08  0.10566000000E+00  0.10566000000E+00 0.  1.
     999900   -1    0    0    0    0 -0.00000000000E+00 -0.00000000000E+00 -0.74505805969E-08  0.93827000000E+00  0.93827000000E+00 0. -1.
     999902    2    1    2    0    0 -0.11003473659E-01 -0.71711295674E-03  0.17699987505E-01  0.10230762176E+01  0.10228636599E+01 0.  0.
     999903    2    3    3    0    0  0.23743844585E-01 -0.13842412740E-01 -0.12615114034E+00  0.13062297141E+00  0.19820895666E-01 0.  0.
         14    1    1    2    0    0  0.11003473659E-01  0.71711295674E-03 -0.17699987505E-01  0.20853782421E-01  0.00000000000E+00 0. -1.
     999901    1    3    3    0    0 -0.34747318244E-01  0.13125299783E-01  0.14385112784E+00  0.89245324617E+00  0.88000000000E+00 0.  1.
        -11    1    4    4    0    0  0.26272125726E-01 -0.79854637690E-02 -0.10411783412E+00  0.10767904496E+00  0.51100000000E-03 0. -1.
         11    1    4    4    0    0 -0.25282811406E-02 -0.58569489709E-02 -0.22033306221E-01  0.22943926447E-01  0.51100000000E-03 0.  1.
</event>
<event>
 8    1  0.1112171E+005  0.1043930E+01  0.7957747E-01            NaN
         13   -1    0    0    0    0  0.00000000000E+00  0.00000000000E+00  0.74505805969E-08  0.10566000000E+00  0.10566000000E+00 0.  1.
     999900   -1    0    0    0    0 -0.00000000000E+00 -0.00000000000E+00 -0.74505805969E-08  0.93827000000E+00  0.93827000000E+00 0.  1.
     999902    2    1    2    0    0  0.10059440104E-01  0.16315356181E-02 -0.20130222429E-01  0.10213671966E+01  0.10211179511E+01 0.  0.
     999903    2    3    3    0    0 -0.12097800571E-01  0.37791550181E-01 -0.12649652900E+00  0.13394830949E+00  0.19136868186E-01 0.  0.
         14    1    1    2    0    0 -0.10059440104E-01 -0.16315356181E-02  0.20130222429E-01  0.22562803432E-01  0.00000000000E+00 0.  1.
     999901    1    3    3    0    0  0.22157240675E-01 -0.36160014563E-01  0.10636630657E+00  0.88741888708E+00  0.88000000000E+00 0. -1.
        -11    1    4    4    0    0 -0.12613473665E-01  0.17000221743E-01 -0.84069767926E-01  0.86695410821E-01  0.51100000000E-03 0.  1.
         11    1    4    4    0    0  0.51567309344E-03  0.20791328438E-01 -0.42426761069E-01  0.47252898670E-01  0.51100000000E-03 0. -1.
</event>
<event>
 8    1  0.1112171E+005  0.1043930E+01  0.7957747E-01            NaN
         13   -1    0    0    0    0  0.00000000000E+00  0.00000000000E+00  0.74505805969E-08  0.10566000000E+00  0.10566000000E+00 0. -1.
     999900   -1    0    0    0    0 -0.00000000000E+00 -0.00000000000E+00 -0.74505805969E-08  0.93827000000E+00  0.93827000000E+00 0.  1.
     999902    2    1    2    0    0 -0.18979330833E-02 -0.16279216994E-01  0.14181758568E-01  0.10222565754E+01  0.10220267945E+01 0.  0.
     999903    2    3    3    0    0 -0.58928189239E-01 -0.45835220671E-01 -0.10649082988E+00  0.13170175901E+00  0.20776369655E-01 0.  0.
         14    1    1    2    0    0  0.18979330833E-02  0.16279216994E-01 -0.14181758568E-01  0.21673424556E-01  0.00000000000E+00 0.  1.
     999901    1    3    3    0    0  0.57030256156E-01  0.29556003677E-01  0.12067258845E+00  0.89055481643E+00  0.88000000000E+00 0.  1.
        -11    1    4    4    0    0 -0.58663543562E-01 -0.41219672912E-01 -0.10428302675E+00  0.12655308596E+00  0.51100000000E-03 0. -1.
         11    1    4    4    0    0 -0.26464567740E-03 -0.46155477594E-02 -0.22078031359E-02  0.51486730466E-02  0.51100000000E-03 0.  1.
</event>
<event>
 8    1  0.1112171E+005  0.1043930E+01  0.7957747E-01            NaN
         13   -1    0    0    0    0  0.00000000000E+00  0.00000000000E+00  0.74505805969E-08  0.10566000000E+00  0.10566000000E+00 0. -1.
     999900   -1    0    0    0    0 -0.00000000000E+00 -0.00000000000E+00 -0.74505805969E-08  0.93827000000E+00  0.93827000000E+00 0. -1.
     999902    2    1    2    0    0 -0.16097979577E-01  0.16520497156E-01 -0.34282847104E-02  0.10206099462E+01  0.10203434899E+01 0.  0.
     999903    2    3    3    0    0  0.64554572151E-01  0.53406593421E-01 -0.98941438741E-01  0.13100993452E+00  0.18831825126E-01 0.  0.
         14    1    1    2    0    0  0.16097979577E-01 -0.16520497156E-01  0.34282847104E-02  0.23320053790E-01  0.00000000000E+00 0. -1.
     999901    1    3    3    0    0 -0.80652551727E-01 -0.36886096265E-01  0.95513154030E-01  0.88960001169E+00  0.88000000000E+00 0.  1.
        -11    1    4    4    0    0  0.65006271143E-01  0.52562292585E-01 -0.93340937859E-01  0.12530523409E+00  0.51100000000E-03 0.  1.
         11    1    4    4    0    0 -0.45169899258E-03  0.84430083593E-03 -0.56005008819E-02  0.57047004312E-02  0.51100000000E-03 0. -1.
</event>
<event>
 8    1  0.1112171E+005  0.1043930E+01  0.7957747E-01            NaN
         13   -1    0    0    0    0  0.00000000000E+00  0.00000000000E+00  0.74505805969E-08  0.10566000000E+00  0.10566000000E+00 0.  1.
     999900   -1    0    0    0    0 -0.00000000000E+00 -0.00000000000E+00 -0.74505805969E-08  0.93827000000E+00  0.93827000000E+00 0.  1.
     999902    2    1    2    0    0 -0.23533114726E-01  0.39247066442E-02 -0.20008792829E-02  0.10199881052E+01  0.10197070757E+01 0.  0.
     999903    2    3    3    0    0  0.62792223396E-01 -0.10753990111E+00  0.23894173122E-01  0.12839011473E+00  0.20134458100E-01 0.  0.
         14    1    1    2    0    0  0.23533114726E-01 -0.39247066442E-02  0.20008792829E-02  0.23941894847E-01  0.00000000000E+00 0.  1.
     999901    1    3    3    0    0 -0.86325338122E-01  0.11146460775E+00 -0.25895052405E-01  0.89159799042E+00  0.88000000000E+00 0. -1.
        -11    1    4    4    0    0  0.32656891805E-01 -0.36963591719E-01  0.11565336478E-01  0.50663574923E-01  0.51100000000E-03 0.  1.
         11    1    4    4    0    0  0.30135331591E-01 -0.70576309387E-01  0.12328836644E-01  0.77726539809E-01  0.51100000000E-03 0. -1.
</event>
<event>
 8    1  0.1112171E+005  0.1043930E+01  0.7957747E-01            NaN
         13   -1    0    0    0    0  0.00000000000E+00  0.00000000000E+00  0.74505805969E-08  0.10566000000E+00  0.10566000000E+00 0.  1.
     999900   -1    0    0    0    0 -0.00000000000E+00 -0.00000000000E+00 -0.74505805969E-08  0.93827000000E+00  0.93827000000E+00 0.  1.
     999902    2    1    2    0    0  0.15433046227E-01 -0.40384198862E-02  0.16048032575E-01  0.10213019842E+01  0.10210512797E+01 0.  0.
     999903    2    3    3    0    0  0.99931509395E-02 -0.87603176777E-01 -0.93626105214E-01  0.13054888844E+00  0.22427328131E-01 0.  0.
         14    1    1    2    0    0 -0.15433046227E-01  0.40384198862E-02 -0.16048032575E-01  0.22628015833E-01  0.00000000000E+00 0. -1.
     999901    1    3    3    0    0  0.54398952877E-02  0.83564756891E-01  0.10967413779E+00  0.89075309573E+00  0.88000000000E+00 0. -1.
        -11    1    4    4    0    0  0.64047779861E-02 -0.68134644068E-01 -0.57650045540E-01  0.89482622755E-01  0.51100000000E-03 0. -1.
         11    1    4    4    0    0  0.35883729534E-02 -0.19468532709E-01 -0.35976059674E-01  0.41066265681E-01  0.51100000000E-03 0.  1.
</event>
<event>
 8    1  0.1112171E+005  0.1043930E+01  0.7957747E-01            NaN
         13   -1    0    0    0    0  0.00000000000E+00  0.00000000000E+00  0.74505805969E-08  0.10566000000E+00  0.10566000000E+00 0.  1.
     999900   -1    0    0    0    0 -0.00000000000E+00 -0.00000000000E+00 -0.74505805969E-08  0.93827000000E+00  0.93827000000E+00 0.  1.
     999902    2    1    2    0    0 -0.10656522461E-02  0.33713017655E-02  0.14888451564E-01  0.10286274747E+01  0.10285136433E+01 0.  0.
     999903    2    3    3    0    0  0.12552464157E+00  0.27693522014E-01 -0.44010849533E-01  0.13728814507E+00  0.19690431604E-01 0.  0.
         14    1    1    2    0    0  0.10656522461E-02 -0.33713017655E-02 -0.14888451564E-01  0.15302525291E-01  0.00000000000E+00 0. -1.
     999901    1    3    3    0    0 -0.12659029382E+00 -0.24322220248E-01  0.58899301097E-01  0.89133932964E+00  0.88000000000E+00 0.  1.
        -11    1    4    4    0    0  0.38991258276E-01  0.13873657125E-01 -0.62141338400E-02  0.41852994688E-01  0.51100000000E-03 0. -1.
         11    1    4    4    0    0  0.86533383299E-01  0.13819864888E-01 -0.37796715693E-01  0.95435150384E-01  0.51100000000E-03 0.  1.
</event>
<event>
 8    1  0.1112171E+005  0.1043930E+01  0.7957747E-01            NaN
         13   -1    0    0    0    0  0.00000000000E+00  0.00000000000E+00  0.74505805969E-08  0.10566000000E+00  0.10566000000E+00 0. -1.
     999900   -1    0    0    0    0 -0.00000000000E+00 -0.00000000000E+00 -0.74505805969E-08  0.93827000000E+00  0.93827000000E+00 0.  1.
     999902    2    1    2    0    0 -0.89389474915E-02 -0.15892888191E-01 -0.15920419504E-01  0.10197236282E+01  0.10194362803E+01 0.  0.
     999903    2    3    3    0    0  0.32318911287E-01 -0.11532057348E+00 -0.55074712686E-01  0.13229975307E+00  0.11254065512E-01 0.  0.
         14    1    1    2    0    0  0.89389474915E-02  0.15892888191E-01  0.15920419504E-01  0.24206371775E-01  0.00000000000E+00 0. -1.
     999901    1    3    3    0    0 -0.41257858779E-01  0.99427685293E-01  0.39154293182E-01  0.88742387515E+00  0.88000000000E+00 0.  1.
        -11    1    4    4    0    0  0.43320427287E-02 -0.86166589262E-02 -0.71925279856E-02  0.12041884615E-01  0.51100000000E-03 0.  1.
         11    1    4    4    0    0  0.27986868559E-01 -0.10670391456E+00 -0.47882184700E-01  0.12025786846E+00  0.51100000000E-03 0. -1.
</event>
<event>
 8    1  0.1112171E+005  0.1043930E+01  0.7957747E-01            NaN
         13   -1    0    0    0    0  0.00000000000E+00  0.00000000000E+00  0.74505805969E-08  0.10566000000E+00  0.10566000000E+00 0. -1.
     999900   -1    0    0    0    0 -0.00000000000E+00 -0.00000000000E+00 -0.74505805969E-08  0.93827000000E+00  0.93827000000E+00 0. -1.
     999902    2    1    2    0    0  0.40014201128E-02 -0.23500757929E-01  0.34717116269E-02  0.10198395503E+01  0.10195549806E+01 0.  0.
     999903    2    3    3    0    0 -0.72308751444E-01 -0.10088106236E+00 -0.40550853727E-01  0.13206202181E+00  0.19760100878E-01 0.  0.
         14    1    1    2    0    0 -0.40014201128E-02  0.23500757929E-01 -0.34717116269E-02  0.24090449722E-01  0.00000000000E+00 0.  1.
     999901    1    3    3    0    0  0.76310171557E-01  0.77380304435E-01  0.44022565354E-01  0.88777752847E+00  0.88000000000E+00 0.  1.
        -11    1    4    4    0    0 -0.19663815775E-01 -0.17966783340E-01 -0.25969628269E-02  0.26767074762E-01  0.51100000000E-03 0. -1.
         11    1    4    4    0    0 -0.52644935669E-01 -0.82914279025E-01 -0.37953890900E-01  0.10529494705E+00  0.51100000000E-03 0.  1.
</event>
<event>
 8    1  0.1112171E+005  0.1043930E+01  0.7957747E-01            NaN
         13   -1    0    0    0    0  0.00000000000E+00  0.00000000000E+00  0.74505805969E-08  0.10566000000E+00  0.10566000000E+00 0.  1.
     999900   -1    0    0    0    0 -0.00000000000E+00 -0.00000000000E+00 -0.74505805969E-08  0.93827000000E+00  0.93827000000E+00 0. -1.
     999902    2    1    2    0    0  0.21883790477E-02 -0.14059129429E-02  0.22125891744E-01  0.10216517442E+01  0.10214088143E+01 0.  0.
     999903    2    3    3    0    0 -0.95014473347E-01 -0.51589993212E-02 -0.86077706118E-01  0.12970415679E+00  0.18958675563E-01 0.  0.
         14    1    1    2    0    0 -0.21883790477E-02  0.14059129429E-02 -0.22125891744E-01  0.22278255756E-01  0.00000000000E+00 0. -1.
     999901    1    3    3    0    0  0.97202852395E-01  0.37530863782E-02  0.10820359786E+00  0.89194758745E+00  0.88000000000E+00 0.  1.
        -11    1    4    4    0    0 -0.21433494767E-01  0.16514453885E-02 -0.30132705356E-01  0.37018414646E-01  0.51100000000E-03 0. -1.
         11    1    4    4    0    0 -0.73580978580E-01 -0.68104447097E-02 -0.55945000762E-01  0.92685742146E-01  0.51100000000E-03 0.  1.
</event>
<event>
 8    1  0.1112171E+005  0.1043930E+01  0.7957747E-01            NaN
         13   -1    0    0    0    0  0.00000000000E+00  0.00000000000E+00  0.74505805969E-08  0.10566000000E+00  0.10566000000E+00 0.  1.
     999900   -1    0    0    0    0 -0.00000000000E+00 -0.00000000000E+00 -0.74505805969E-08  0.93827000000E+00  0.93827000000E+00 0.  1.
     999902    2    1    2    0    0  0.13470973725E-01 -0.17161427897E-01  0.89925989658E-02  0.10203323608E+01  0.10200594482E+01 0.  0.
     999903    2    3    3    0    0  0.92003395134E-01 -0.64137848166E-01  0.69459578394E-01  0.13352326020E+00  0.20628613622E-01 0.  0.
         14    1    1    2    0    0 -0.13470973725E-01  0.17161427897E-01 -0.89925989658E-02  0.23597639219E-01  0.00000000000E+00 0. -1.
     999901    1    3    3    0    0 -0.78532421409E-01  0.46976420269E-01 -0.60466979428E-01  0.88680910058E+00  0.88000000000E+00 0. -1.
        -11    1    4    4    0    0  0.21952120305E-01 -0.25879104491E-01  0.16546262945E-01  0.37757960401E-01  0.51100000000E-03 0.  1.
         11    1    4    4    0    0  0.70051274829E-01 -0.38258743674E-01  0.52913315448E-01  0.95765299798E-01  0.51100000000E-03 0. -1.
</event>
<event>
 8    1  0.1112171E+005  0.1043930E+01  0.7957747E-01            NaN
         13   -1    0    0    0    0  0.00000000000E+00  0.00000000000E+00  0.74505805969E-08  0.10566000000E+00  0.10566000000E+00 0. -1.
     999900   -1    0    0    0    0 -0.00000000000E+00 -0.00000000000E+00 -0.74505805969E-08  0.93827000000E+00  0.93827000000E+00 0.  1.
     999902    2    1    2    0    0  0.93886063199E-03 -0.23476925480E-01 -0.19881226298E-02  0.10203503452E+01  0.10200778533E+01 0.  0.
     999903    2    3    3    0    0 -0.71668361187E-01  0.10348746584E+00  0.13412822108E-01  0.12814579778E+00  0.19885474846E-01 0.  0.
         14    1    1    2    0    0 -0.93886063199E-03  0.23476925480E-01  0.19881226298E-02  0.23579654808E-01  0.00000000000E+00 0. -1.
     999901    1    3    3    0    0  0.72607221819E-01 -0.12696439132E+00 -0.15400944738E-01  0.89220454741E+00  0.88000000000E+00 0. -1.
        -11    1    4    4    0    0 -0.37041719962E-01  0.60567501027E-01 -0.15072496751E-02  0.71014393760E-01  0.51100000000E-03 0. -1.
         11    1    4    4    0    0 -0.34626641224E-01  0.42919964815E-01  0.14920071783E-01  0.57131404020E-01  0.51100000000E-03 0.  1.
</event>
<event>
 8    1  0.1112171E+005  0.1043930E+01  0.7957747E-01            NaN
         13   -1    0    0    0    0  0.00000000000E+00  0.00000000000E+00  0.74505805969E-08  0.10566000000E+00  0.10566000000E+00 0. -1.
     999900   -1    0    0    0    0 -0.00000000000E+00 -0.00000000000E+00 -0.74505805969E-08  0.93827000000E+00  0.93827000000E+00 0. -1.
     999902    2    1    2    0    0 -0.85664219608E-02 -0.84574029597E-02 -0.20587397723E-01  0.10200814739E+01  0.10198026580E+01 0.  0.
     999903    2    3    3    0    0 -0.99164578682E-01 -0.83895699469E-01 -0.14125920131E-01  0.13219594457E+00  0.20102837765E-01 0.  0.
         14    1    1    2    0    0  0.85664219608E-02  0.84574029597E-02  0.20587397723E-01  0.23848526056E-01  0.00000000000E+00 0. -1.
     999901    1    3    3    0    0  0.90598156721E-01  0.75438296509E-01 -0.64614775920E-02  0.88788552938E+00  0.88000000000E+00 0.  1.
        -11    1    4    4    0    0 -0.42374263605E-01 -0.46192709803E-01 -0.12989256608E-01  0.64018173695E-01  0.51100000000E-03 0. -1.
         11    1    4    4    0    0 -0.56790315077E-01 -0.37702989666E-01 -0.11366635236E-02  0.68177770873E-01  0.51100000000E-03 0.  1.
</event>
<event>
 8    1  0.1112171E+005  0.1043930E+01  0.7957747E-01            NaN
         13   -1    0    0    0    0  0.00000000000E+00  0.00000000000E+00  0.74505805969E-08  0.10566000000E+00  0.10566000000E+00 0. -1.
     999900   -1    0    0    0    0 -0.00000000000E+00 -0.00000000000E+00 -0.74505805969E-08  0.93827000000E+00  0.93827000000E+00 0. -1.
     999902    2    1    2    0    0 -0.72198056378E-03 -0.18175404900E-01 -0.14680332100E-01  0.10205552540E+01  0.10202875319E+01 0.  0.
     999903    2    3    3    0    0 -0.70793607253E-01 -0.10508291661E+00  0.31767252864E-01  0.13228709259E+00  0.20894073788E-01 0.  0.
         14    1    1    2    0    0  0.72198056378E-03  0.18175404900E-01  0.14680332100E-01  0.23374745983E-01  0.00000000000E+00 0. -1.
     999901    1    3    3    0    0  0.70071626689E-01  0.86907511712E-01 -0.46447584964E-01  0.88826816143E+00  0.88000000000E+00 0. -1.
        -11    1    4    4    0    0 -0.70318021140E-01 -0.94494508703E-01  0.28555655441E-01  0.12120034179E+00  0.51100000000E-03 0.  1.
         11    1    4    4    0    0 -0.47558611294E-03 -0.10588407909E-01  0.32115974229E-02  0.11086750796E-01  0.51100000000E-03 0. -1.
</event>
<event>
 8    1  0.1112171E+005  0.1043930E+01  0.7957747E-01            NaN
         13   -1    0    0    0    0  0.00000000000E+00  0.00000000000E+00  0.74505805969E-08  0.10566000000E+00  0.10566000000E+00 0. -1.
     999900   -1    0    0    0    0 -0.00000000000E+00 -0.00000000000E+00 -0.74505805969E-08  0.93827000000E+00  0.93827000000E+00 0.  1.
     999902    2    1    2    0    0 -0.87044435247E-02 -0.10681998328E-01 -0.45997320365E-02  0.10294031297E+01  0.10293006235E+01 0.  0.
     999903    2    3    3    0    0 -0.35717396658E-02  0.13442279339E+00 -0.19366360016E-01  0.13738306350E+00  0.20415815667E-01 0.  0.
         14    1    1    2    0    0  0.87044435247E-02  0.10681998328E-01  0.45997320365E-02  0.14526870281E-01  0.00000000000E+00 0. -1.
     999901    1    3    3    0    0 -0.51327038589E-02 -0.14510479172E+00  0.14766627980E-01  0.89202006622E+00  0.88000000000E+00 0. -1.
        -11    1    4    4    0    0  0.50996420754E-02  0.91316182520E-01 -0.71205296351E-02  0.91736658990E-01  0.51100000000E-03 0.  1.
         11    1    4    4    0    0 -0.86713817412E-02  0.43106610873E-01 -0.12245830381E-01  0.45646404513E-01  0.51100000000E-03 0. -1.
</event>
<event>
 8    1  0.1112171E+005  0.1043930E+01  0.7957747E-01            NaN
         13   -1    0    0    0    0  0.00000000000E+00  0.00000000000E+00  0.74505805969E-08  0.10566000000E+00  0.10566000000E+00 0. -1.
     999900   -1    0    0    0    0 -0.00000000000E+00 -0.00000000000E+00 -0.74505805969E-08  0.93827000000E+00  0.93827000000E+00 0.  1.
     999902    2    1    2    0    0  0.27042361959E-02  0.18032226545E-01 -0.14483141386E-01  0.10206440499E+01  0.10203783814E+01 0.  0.
     999903    2    3    3    0    0 -0.25886602671E-01 -0.11699190292E+00 -0.44584385739E-01  0.12937807584E+00  0.19841812147E-01 0.  0.
         14    1    1    2    0    0 -0.27042361959E-02 -0.18032226545E-01  0.14483141386E-01  0.23285950099E-01  0.00000000000E+00 0. -1.
     999901    1    3    3    0    0  0.28590838866E-01  0.13502412947E+00  0.30101244353E-01  0.89126597406E+00  0.88000000000E+00 0. -1.
        -11    1    4    4    0    0 -0.32483222717E-02 -0.59428222640E-01 -0.24164477795E-01  0.64237437307E-01  0.51100000000E-03 0.  1.
         11    1    4    4    0    0 -0.22638280399E-01 -0.57563680283E-01 -0.20419907944E-01  0.65140638534E-01  0.51100000000E-03 0. -1.
</event>
<event>
 8    1  0.1112171E+005  0.1043930E+01  0.7957747E-01            NaN
         13   -1    0    0    0    0  0.00000000000E+00  0.00000000000E+00  0.74505805969E-08  0.10566000000E+00  0.10566000000E+00 0.  1.
     999900   -1    0    0    0    0 -0.00000000000E+00 -0.00000000000E+00 -0.74505805969E-08  0.93827000000E+00  0.93827000000E+00 0.  1.
     999902    2    1    2    0    0  0.10661241394E-01 -0.19259015205E-01 -0.43388031667E-02  0.10214934907E+01  0.10212470586E+01 0.  0.
     999903    2    3    3    0    0  0.96567242424E-01 -0.89322821023E-01  0.19421441011E-01  0.13422051860E+00  0.18279950121E-01 0.  0.
         14    1    1    2    0    0 -0.10661241394E-01  0.19259015205E-01  0.43388031667E-02  0.22436509257E-01  0.00000000000E+00 0.  1.
     999901    1    3    3    0    0 -0.85906001030E-01  0.70063805818E-01 -0.23760244178E-01  0.88727297215E+00  0.88000000000E+00 0.  1.
        -11    1    4    4    0    0  0.71553352945E-01 -0.59353249120E-01  0.69071655950E-02  0.93223712415E-01  0.51100000000E-03 0.  1.
         11    1    4    4    0    0  0.25013889478E-01 -0.29969571903E-01  0.12514275416E-01  0.40996806182E-01  0.51100000000E-03 0. -1.
</event>
<event>
 8    1  0.1112171E+005  0.1043930E+01  0.7957747E-01            NaN
         13   -1    0    0    0    0  0.00000000000E+00  0.00000000000E+00  0.74505805969E-08  0.10566000000E+00  0.10566000000E+00 0. -1.
     999900   -1    0    0    0    0 -0.00000000000E+00 -0.00000000000E+00 -0.74505805969E-08  0.93827000000E+00  0.93827000000E+00 0. -1.
     999902    2    1    2    0    0 -0.34149754774E-02  0.23475089807E-01 -0.37129325892E-02  0.10199190074E+01  0.10196363341E+01 0.  0.
     999903    2    3    3    0    0  0.93110281293E-01 -0.56699411183E-01 -0.66054688678E-01  0.12883451622E+00  0.18728666863E-01 0.  0.
         14    1    1    2    0    0  0.34149754774E-02 -0.23475089807E-01  0.37129325892E-02  0.24010992636E-01  0.00000000000E+00 0. -1.
     999901    1    3    3    0    0 -0.96525256770E-01  0.80174500990E-01  0.62341756089E-01  0.89108449114E+00  0.88000000000E+00 0.  1.
        -11    1    4    4    0    0  0.49055051584E-01 -0.29002249355E-01 -0.45329097716E-01  0.72818382118E-01  0.51100000000E-03 0. -1.
         11    1    4    4    0    0  0.44055229709E-01 -0.27697161828E-01 -0.20725590962E-01  0.56016134102E-01  0.51100000000E-03 0.  1.
</event>
<event>
 8    1  0.1112171E+005  0.1043930E+01  0.7957747E-01            NaN
         13   -1    0    0    0    0  0.00000000000E+00  0.00000000000E+00  0.74505805969E-08  0.10566000000E+00  0.10566000000E+00 0. -1.
     999900   -1    0    0    0    0 -0.00000000000E+00 -0.00000000000E+00 -0.74505805969E-08  0.93827000000E+00  0.93827000000E+00 0. -1.
     999902    2    1    2    0    0 -0.22074111564E-01 -0.69005538688E-02 -0.10914045945E-01  0.10183565676E+01  0.10180354112E+01 0.  0.
     999903    2    3    3    0    0  0.92029417166E-01 -0.13597359983E-01 -0.85397217613E-01  0.12784424016E+00  0.19928952425E-01 0.  0.
         14    1    1    2    0    0  0.22074111564E-01  0.69005538688E-02  0.10914045945E-01  0.25573432384E-01  0.00000000000E+00 0. -1.
     999901    1    3    3    0    0 -0.11410352873E+00  0.66968061141E-02  0.74483171669E-01  0.89051232745E+00  0.88000000000E+00 0.  1.
        -11    1    4    4    0    0  0.40644953000E-01 -0.15168365270E-01 -0.44506465600E-01  0.62154469755E-01  0.51100000000E-03 0.  1.
         11    1    4    4    0    0  0.51384464166E-01  0.15710052875E-02 -0.40890752014E-01  0.65689770409E-01  0.51100000000E-03 0. -1.
</event>
<event>
 8    1  0.1112171E+005  0.1043930E+01  0.7957747E-01            NaN
         13   -1    0    0    0    0  0.00000000000E+00  0.00000000000E+00  0.74505805969E-08  0.10566000000E+00  0.10566000000E+00 0. -1.
     999900   -1    0    0    0    0 -0.00000000000E+00 -0.00000000000E+00 -0.74505805969E-08  0.93827000000E+00  0.93827000000E+00 0. -1.
     999902    2    1    2    0    0  0.40591662389E-03  0.22447083710E-01  0.39530071529E-02  0.10211338907E+01  0.10208794052E+01 0.  0.
     999903    2    3    3    0    0  0.67631686248E-01 -0.87175333154E-01 -0.64131597947E-01  0.12918552230E+00  0.20061246727E-01 0.  0.
         14    1    1    2    0    0 -0.40591662389E-03 -0.22447083710E-01 -0.39530071529E-02  0.22796109338E-01  0.00000000000E+00 0.  1.
     999901    1    3    3    0    0 -0.67225769624E-01  0.10962241686E+00  0.68084605100E-01  0.89194836837E+00  0.88000000000E+00 0.  1.
        -11    1    4    4    0    0  0.61421595098E-01 -0.67625020546E-01 -0.55726630450E-01  0.10701156111E+00  0.51100000000E-03 0. -1.
         11    1    4    4    0    0  0.62100911498E-02 -0.19550312608E-01 -0.84049674976E-02  0.22173961189E-01  0.51100000000E-03 0.  1.
</event>
<event>
 8    1  0.1112171E+005  0.1043930E+01  0.7957747E-01            NaN
         13   -1    0    0    0    0  0.00000000000E+00  0.00000000000E+00  0.74505805969E-08  0.10566000000E+00  0.10566000000E+00 0.  1.
     999900   -1    0    0    0    0 -0.00000000000E+00 -0.00000000000E+00 -0.74505805969E-08  0.93827000000E+00  0.93827000000E+00 0.  1.
     999902    2    1    2    0    0  0.14004615768E-01  0.10357918130E-02  0.18300474346E-01  0.10208625015E+01  0.10206018506E+01 0.  0.
     999903    2    3    3    0    0  0.11442544571E+00 -0.61712761304E-01  0.19611384781E-01  0.13293038554E+00  0.19601873718E-01 0.  0.
         14    1    1    2    0    0 -0.14004615768E-01 -0.10357918130E-02 -0.18300474346E-01  0.23067498538E-01  0.00000000000E+00 0. -1.
     999901    1    3    3    0    0 -0.10042082994E+00  0.62748553117E-01 -0.13109104342E-02  0.88793211592E+00  0.88000000000E+00 0.  1.
        -11    1    4    4    0    0  0.98153199980E-01 -0.58876889336E-01  0.13250978975E-01  0.11522321089E+00  0.51100000000E-03 0. -1.
         11    1    4    4    0    0  0.16272245727E-01 -0.28358719680E-02  0.63604058056E-02  0.17707174643E-01  0.51100000000E-03 0.  1.
</event>
<event>
 8    1  0.1112171E+005  0.1043930E+01  0.7957747E-01            NaN
         13   -1    0    0    0    0  0.00000000000E+00  0.00000000000E+00  0.74505805969E-08  0.10566000000E+00  0.10566000000E+00 0. -1.
     999900   -1    0    0    0    0 -0.00000000000E+00 -0.00000000000E+00 -0.74505805969E-08  0.93827000000E+00  0.93827000000E+00 0.  1.
     999902    2    1    2    0    0  0.16991112587E-01 -0.13738141103E-01 -0.92521215781E-02  0.10202016165E+01  0.10199256356E+01 0.  0.
     999903    2    3    3    0    0 -0.11584673875E+00  0.31171122228E-01  0.39365964521E-01  0.12777433380E+00  0.19608556167E-01 0.  0.
         14    1    1    2    0    0 -0.16991112587E-01  0.13738141103E-01  0.92521215781E-02  0.23728383459E-01  0.00000000000E+00 0. -1.
     999901    1    3    3    0    0  0.13283785134E+00 -0.44909263330E-01 -0.48618086099E-01  0.89242728274E+00  0.88000000000E+00 0.  1.
        -11    1    4    4    0    0 -0.60804119339E-01  0.22466108006E-01  0.12963512004E-01  0.66107342270E-01  0.51100000000E-03 0. -1.
         11    1    4    4    0    0 -0.55042619415E-01  0.87050142213E-02  0.26402452516E-01  0.61666991531E-01  0.51100000000E-03 0.  1.
</event>
<event>
 8    1  0.1112171E+005  0.1043930E+01  0.7957747E-01            NaN
         13   -1    0    0    0    0  0.00000000000E+00  0.00000000000E+00  0.74505805969E-08  0.10566000000E+00  0.10566000000E+00 0.  1.
     999900   -1    0    0    0    0 -0.00000000000E+00 -0.00000000000E+00 -0.74505805969E-08  0.93827000000E+00  0.93827000000E+00 0. -1.
     999902    2    1    2    0    0 -0.19126023151E-01  0.90314983470E-02  0.25147008644E-02  0.10226298487E+01  0.10224079964E+01 0.  0.
     999903    2    3    3    0    0 -0.88838836117E-01 -0.90685387004E-01  0.35437137208E-01  0.13364884762E+00  0.22136972618E-01 0.  0.
         14    1    1    2    0    0  0.19126023151E-01 -0.90314983470E-02 -0.25147008644E-02  0.21300151277E-01  0.00000000000E+00 0. -1.
     999901    1    3    3    0    0  0.69712812965E-01  0.99716885351E-01 -0.32922436344E-01  0.88898100111E+00  0.88000000000E+00 0. -1.
        -11    1    4    4    0    0 -0.15548202509E-01 -0.63596390165E-02  0.14530842772E-02  0.16869030340E-01  0.51100000000E-03 0.  1.
         11    1    4    4    0    0 -0.73290633608E-01 -0.84325747988E-01  0.33984052931E-01  0.11677981728E+00  0.51100000000E-03 0. -1.
</event>
<event>
 8    1  0.1112171E+005  0.1043930E+01  0.7957747E-01            NaN
         13   -1    0    0    0    0  0.00000000000E+00  0.00000000000E+00  0.74505805969E-08  0.10566000000E+00  0.10566000000E+00 0.  1.
     999900   -1    0    0    0    0 -0.00000000000E+00 -0.00000000000E+00 -0.74505805969E-08  0.93827000000E+00  0.93827000000E+00 0.  1.
     999902    2    1    2    0    0 -0.20362343709E-01 -0.91823463372E-02  0.23512900672E-01  0.10114985797E+01  0.10109785258E+01 0.  0.
     999903    2    3    3    0    0 -0.99949005930E-01  0.14412641537E-01  0.73113559459E-01  0.12620146255E+00  0.19587969537E-01 0.  0.
         14    1    1    2    0    0  0.20362343709E-01  0.91823463372E-02 -0.23512900672E-01  0.32431420314E-01  0.00000000000E+00 0. -1.
     999901    1    3    3    0    0  0.79586662221E-01 -0.23594987874E-01 -0.49600658786E-01  0.88529711714E+00  0.88000000000E+00 0. -1.
        -11    1    4    4    0    0 -0.56262120772E-01  0.17726216150E-01  0.39833982781E-01  0.71180420608E-01  0.51100000000E-03 0. -1.
         11    1    4    4    0    0 -0.43686885158E-01 -0.33135746127E-02  0.33279576678E-01  0.55021041942E-01  0.51100000000E-03 0.  1.
</event>
<event>
 8    1  0.1112171E+005  0.1043930E+01  0.7957747E-01            NaN
         13   -1    0    0    0    0  0.00000000000E+00  0.00000000000E+00  0.74505805969E-08  0.10566000000E+00  0.10566000000E+00 0.  1.
     999900   -1    0    0    0    0 -0.00000000000E+00 -0.00000000000E+00 -0.74505805969E-08  0.93827000000E+00  0.93827000000E+00 0. -1.
     999902    2    1    2    0    0 -0.78960590354E-02  0.21344462030E-01 -0.22990683972E-02  0.10210560077E+01  0.10207997607E+01 0.  0.
     999903    2    3    3    0    0 -0.20977257456E-01  0.11082130358E+00  0.68694573400E-01  0.13357794032E+00  0.20067761942E-01 0.  0.
         14    1    1    2    0    0  0.78960590354E-02 -0.21344462030E-01  0.22990683972E-02  0.22873992287E-01  0.00000000000E+00 0.  1.
     999901    1    3    3    0    0  0.13081198421E-01 -0.89476841546E-01 -0.70993641797E-01  0.88747806739E+00  0.88000000000E+00 0.  1.
        -11    1    4    4    0    0 -0.11044288163E-01  0.62566029171E-01  0.50115837563E-01  0.80921830200E-01  0.51100000000E-03 0. -1.
         11    1    4    4    0    0 -0.99329692930E-02  0.48255274405E-01  0.18578735837E-01  0.52656110122E-01  0.51100000000E-03 0.  1.
</event>
<event>
 8    1  0.1112171E+005  0.1043930E+01  0.7957747E-01            NaN
         13   -1    0    0    0    0  0.00000000000E+00  0.00000000000E+00  0.74505805969E-08  0.10566000000E+00  0.10566000000E+00 0. -1.
     999900   -1    0    0    0    0 -0.00000000000E+00 -0.00000000000E+00 -0.74505805969E-08  0.93827000000E+00  0.93827000000E+00 0.  1.
     999902    2    1    2    0    0 -0.74017852084E-02  0.21746625476E-01 -0.21483625318E-02  0.10208579909E+01  0.10205972369E+01 0.  0.
     999903    2    3    3    0    0 -0.11360366971E+00  0.31035430977E-01  0.57262358264E-01  0.13243536850E+00  0.19777699786E-01 0.  0.
         14    1    1    2    0    0  0.74017852084E-02 -0.21746625476E-01  0.21483625318E-02  0.23072009133E-01  0.00000000000E+00 0. -1.
     999901    1    3    3    0    0  0.10620188450E+00 -0.92888055008E-02 -0.59410720796E-01  0.88842262236E+00  0.88000000000E+00 0. -1.
        -11    1    4    4    0    0 -0.63394586493E-01  0.17084068161E-01  0.42712449968E-01  0.78328497272E-01  0.51100000000E-03 0. -1.
         11    1    4    4    0    0 -0.50209083220E-01  0.13951362816E-01  0.14549908296E-01  0.54106871233E-01  0.51100000000E-03 0.  1.
</event>
<event>
 8    1  0.1112171E+005  0.1043930E+01  0.7957747E-01            NaN
         13   -1    0    0    0    0  0.00000000000E+00  0.00000000000E+00  0.74505805969E-08  0.10566000000E+00  0.10566000000E+00 0.  1.
     999900   -1    0    0    0    0 -0.00000000000E+00 -0.00000000000E+00 -0.74505805969E-08  0.93827000000E+00  0.93827000000E+00 0. -1.
     999902    2    1    2    0    0  0.10024101389E-01  0.10934745594E-01 -0.15470455103E-01  0.10224967023E+01  0.10222720381E+01 0.  0.
     999903    2    3    3    0    0 -0.72824895554E-01 -0.31554378895E-01 -0.10492463781E+00  0.13307479295E+00  0.20014411316E-01 0.  0.
         14    1    1    2    0    0 -0.10024101389E-01 -0.10934745594E-01  0.15470455103E-01  0.21433297716E-01  0.00000000000E+00 0. -1.
     999901    1    3    3    0    0  0.82848996943E-01  0.42489124490E-01  0.89454182706E-01  0.88942190933E+00  0.88000000000E+00 0.  1.
        -11    1    4    4    0    0 -0.47861043288E-01 -0.11994858019E-01 -0.54644834237E-01  0.73626592432E-01  0.51100000000E-03 0. -1.
         11    1    4    4    0    0 -0.24963852266E-01 -0.19559520877E-01 -0.50279803572E-01  0.59448200521E-01  0.51100000000E-03 0.  1.
</event>
<event>
 8    1  0.1112171E+005  0.1043930E+01  0.7957747E-01            NaN
         13   -1    0    0    0    0  0.00000000000E+00  0.00000000000E+00  0.74505805969E-08  0.10566000000E+00  0.10566000000E+00 0. -1.
     999900   -1    0    0    0    0 -0.00000000000E+00 -0.00000000000E+00 -0.74505805969E-08  0.93827000000E+00  0.93827000000E+00 0. -1.
     999902    2    1    2    0    0 -0.16011111714E-01 -0.16189588888E-01 -0.49788173208E-02  0.10206223380E+01  0.10203561681E+01 0.  0.
     999903    2    3    3    0    0  0.42578662621E-01 -0.82821595600E-01 -0.91355198728E-01  0.13195284642E+00  0.19834871698E-01 0.  0.
         14    1    1    2    0    0  0.16011111714E-01  0.16189588888E-01  0.49788173208E-02  0.23307662014E-01  0.00000000000E+00 0.  1.
     999901    1    3    3    0    0 -0.58589774335E-01  0.66632006712E-01  0.86376381407E-01  0.88866949157E+00  0.88000000000E+00 0.  1.
        -11    1    4    4    0    0  0.19658754397E-01 -0.18777242297E-01 -0.26178501578E-01  0.37744224971E-01  0.51100000000E-03 0.  1.
         11    1    4    4    0    0  0.22919908224E-01 -0.64044353303E-01 -0.65176697150E-01  0.94208621449E-01  0.51100000000E-03 0. -1.
</event>
<event>
 8    1  0.1112171E+005  0.1043930E+01  0.7957747E-01            NaN
         13   -1    0    0    0    0  0.00000000000E+00  0.00000000000E+00  0.74505805969E-08  0.10566000000E+00  0.10566000000E+00 0. -1.
     999900   -1    0    0    0    0 -0.00000000000E+00 -0.00000000000E+00 -0.74505805969E-08  0.93827000000E+00  0.93827000000E+00 0.  1.
     999902    2    1    2    0    0 -0.72333572229E-02  0.18513664469E-01 -0.11369577603E-01  0.10210314297E+01  0.10207746254E+01 0.  0.
     999903    2    3    3    0    0 -0.12651388190E+00 -0.18793817524E-01  0.23198838177E-01  0.13152894672E+00  0.20067581903E-01 0.  0.
         14    1    1    2    0    0  0.72333572229E-02 -0.18513664469E-01  0.11369577603E-01  0.22898570341E-01  0.00000000000E+00 0. -1.
     999901    1    3    3    0    0  0.11928052467E+00  0.37307481993E-01 -0.34568415780E-01  0.88950248294E+00  0.88000000000E+00 0. -1.
        -11    1    4    4    0    0 -0.70118329595E-01 -0.14305074990E-01  0.36027443871E-02  0.71655119871E-01  0.51100000000E-03 0. -1.
         11    1    4    4    0    0 -0.56395552302E-01 -0.44887425333E-02  0.19596093790E-01  0.59873826852E-01  0.51100000000E-03 0.  1.
</event>
<event>
 8    1  0.1112171E+005  0.1043930E+01  0.7957747E-01            NaN
         13   -1    0    0    0    0  0.00000000000E+00  0.00000000000E+00  0.74505805969E-08  0.10566000000E+00  0.10566000000E+00 0.  1.
     999900   -1    0    0    0    0 -0.00000000000E+00 -0.00000000000E+00 -0.74505805969E-08  0.93827000000E+00  0.93827000000E+00 0.  1.
     999902    2    1    2    0    0 -0.13377316254E-01 -0.10338187412E-01  0.16689890827E-01  0.10201732501E+01  0.10198966012E+01 0.  0.
     999903    2    3    3    0    0  0.22822479226E-01 -0.57485063239E-02  0.12868760853E+00  0.13232473875E+00  0.19885296427E-01 0.  0.
         14    1    1    2    0    0  0.13377316254E-01  0.10338187412E-01 -0.16689890827E-01  0.23756749882E-01  0.00000000000E+00 0. -1.
     999901    1    3    3    0    0 -0.36199795480E-01 -0.45896810883E-02 -0.11199771770E+00  0.88784851137E+00  0.88000000000E+00 0.  1.
        -11    1    4    4    0    0  0.18968268861E-01 -0.12526510258E-01  0.87734796062E-01  0.90633129946E-01  0.51100000000E-03 0.  1.
         11    1    4    4    0    0  0.38542103643E-02  0.67780039343E-02  0.40952812467E-01  0.41691608806E-01  0.51100000000E-03 0. -1.
</event>
<event>
 8    1  0.1112171E+005  0.1043930E+01  0.7957747E-01            NaN
         13   -1    0    0    0    0  0.00000000000E+00  0.00000000000E+00  0.74505805969E-08  0.10566000000E+00  0.10566000000E+00 0.  1.
     999900   -1    0    0    0    0 -0.00000000000E+00 -0.00000000000E+00 -0.74505805969E-08  0.93827000000E+00  0.93827000000E+00 0. -1.
     999902    2    1    2    0    0 -0.60024836094E-03 -0.22390660387E-01  0.61835689094E-02  0.10206934233E+01  0.10204288931E+01 0.  0.
     999903    2    3    3    0    0 -0.65292171232E-01 -0.26475894800E-01 -0.10845871628E+00  0.13089311564E+00  0.20141349400E-01 0.  0.
         14    1    1    2    0    0  0.60024836094E-03  0.22390660387E-01 -0.61835689094E-02  0.23236576665E-01  0.00000000000E+00 0.  1.
     999901    1    3    3    0    0  0.64691922871E-01  0.40852344136E-02  0.11464228518E+00  0.88980030770E+00  0.88000000000E+00 0.  1.
        -11    1    4    4    0    0 -0.26023385362E-01 -0.10768593347E-01 -0.61798737794E-01  0.67915567452E-01  0.51100000000E-03 0. -1.
         11    1    4    4    0    0 -0.39268785871E-01 -0.15707301453E-01 -0.46659978481E-01  0.62977548186E-01  0.51100000000E-03 0.  1.
</event>
<event>
 8    1  0.1112171E+005  0.1043930E+01  0.7957747E-01            NaN
         13   -1    0    0    0    0  0.00000000000E+00  0.00000000000E+00  0.74505805969E-08  0.10566000000E+00  0.10566000000E+00 0.  1.
     999900   -1    0    0    0    0 -0.00000000000E+00 -0.00000000000E+00 -0.74505805969E-08  0.93827000000E+00  0.93827000000E+00 0.  1.
     999902    2    1    2    0    0  0.82969618044E-02  0.13757593688E-02  0.22099452627E-01  0.10202843218E+01  0.10200102839E+01 0.  0.
     999903    2    3    3    0    0  0.53321714702E-01 -0.95722893292E-01 -0.64647657301E-01  0.12956526524E+00  0.24530813328E-01 0.  0.
         14    1    1    2    0    0 -0.82969618044E-02 -0.13757593688E-02 -0.22099452627E-01  0.23645678156E-01  0.00000000000E+00 0. -1.
     999901    1    3    3    0    0 -0.45024752897E-01  0.97098652661E-01  0.86747109928E-01  0.89071905661E+00  0.88000000000E+00 0.  1.
        -11    1    4    4    0    0  0.21132570324E-01 -0.37734977706E-01 -0.12004003173E-01  0.44887317631E-01  0.51100000000E-03 0.  1.
         11    1    4    4    0    0  0.32189144377E-01 -0.57987915587E-01 -0.52643654128E-01  0.84677947606E-01  0.51100000000E-03 0. -1.
</event>
<event>
 8    1  0.1112171E+005  0.1043930E+01  0.7957747E-01            NaN
         13   -1    0    0    0    0  0.00000000000E+00  0.00000000000E+00  0.74505805969E-08  0.10566000000E+00  0.10566000000E+00 0. -1.
     999900   -1    0    0    0    0 -0.00000000000E+00 -0.00000000000E+00 -0.74505805969E-08  0.93827000000E+00  0.93827000000E+00 0.  1.
     999902    2    1    2    0    0 -0.13243575476E-01  0.18965988211E-01 -0.68251536129E-02  0.10198118798E+01  0.10195266482E+01 0.  0.
     999903    2    3    3    0    0 -0.15674953825E-01 -0.85982799932E-01 -0.92754925142E-01  0.12941641408E+00  0.22503022778E-01 0.  0.
         14    1    1    2    0    0  0.13243575476E-01 -0.18965988211E-01  0.68251536129E-02  0.24118120201E-01  0.00000000000E+00 0.  1.
     999901    1    3    3    0    0  0.24313783491E-02  0.10494878814E+00  0.85929771529E-01  0.89039546572E+00  0.88000000000E+00 0.  1.
        -11    1    4    4    0    0 -0.87172602852E-02 -0.18180679187E-01 -0.33488453657E-01  0.39093034827E-01  0.51100000000E-03 0.  1.
         11    1    4    4    0    0 -0.69576935401E-02 -0.67802120745E-01 -0.59266471485E-01  0.90323379255E-01  0.51100000000E-03 0. -1.
</event>
<event>
 8    1  0.1112171E+005  0.1043930E+01  0.7957747E-01            NaN
         13   -1    0    0    0    0  0.00000000000E+00  0.00000000000E+00  0.74505805969E-08  0.10566000000E+00  0.10566000000E+00 0.  1.
     999900   -1    0    0    0    0 -0.00000000000E+00 -0.00000000000E+00 -0.74505805969E-08  0.93827000000E+00  0.93827000000E+00 0.  1.
     999902    2    1    2    0    0  0.20205348246E-01  0.99458943661E-02 -0.91075423215E-02  0.10196375271E+01  0.10193481066E+01 0.  0.
     999903    2    3    3    0    0  0.15564761645E-01 -0.31786203469E-01 -0.12463990612E+00  0.13109330754E+00  0.19943032568E-01 0.  0.
         14    1    1    2    0    0 -0.20205348246E-01 -0.99458943661E-02  0.91075423215E-02  0.24292472901E-01  0.00000000000E+00 0.  1.
     999901    1    3    3    0    0  0.46405866009E-02  0.41732097835E-01  0.11553236380E+00  0.88854421956E+00  0.88000000000E+00 0. -1.
        -11    1    4    4    0    0  0.13803905167E-01 -0.88688463597E-02 -0.68258987320E-01  0.70205090304E-01  0.51100000000E-03 0.  1.
         11    1    4    4    0    0  0.17608564785E-02 -0.22917357109E-01 -0.56380918797E-01  0.60888217233E-01  0.51100000000E-03 0. -1.
</event>
<event>
 8    1  0.1112171E+005  0.1043930E+01  0.7957747E-01            NaN
         13   -1    0    0    0    0  0.00000000000E+00  0.00000000000E+00  0.74505805969E-08  0.10566000000E+00  0.10566000000E+00 0.  1.
     999900   -1    0    0    0    0 -0.00000000000E+00 -0.00000000000E+00 -0.74505805969E-08  0.93827000000E+00  0.93827000000E+00 0. -1.
     999902    2    1    2    0    0  0.21885871382E-01 -0.81663089755E-02  0.97620273766E-02  0.10186124735E+01  0.10182977924E+01 0.  0.
     999903    2    3    3    0    0  0.45151635289E-01 -0.10923418258E+00  0.54215023738E-01  0.13140782986E+00  0.18920151609E-01 0.  0.
         14    1    1    2    0    0 -0.21885871382E-01  0.81663089755E-02 -0.97620273766E-02  0.25317526478E-01  0.00000000000E+00 0. -1.
     999901    1    3    3    0    0 -0.23265763906E-01  0.10106787361E+00 -0.44452996362E-01  0.88720464366E+00  0.88000000000E+00 0. -1.
        -11    1    4    4    0    0  0.33907939896E-01 -0.67350292872E-01  0.26443217872E-01  0.79908167482E-01  0.51100000000E-03 0. -1.
         11    1    4    4    0    0  0.11243695392E-01 -0.41883889710E-01  0.27771805866E-01  0.51499662381E-01  0.51100000000E-03 0.  1.
</event>
<event>
 8    1  0.1112171E+005  0.1043930E+01  0.7957747E-01            NaN
         13   -1    0    0    0    0  0.00000000000E+00  0.00000000000E+00  0.74505805969E-08  0.10566000000E+00  0.10566000000E+00 0.  1.
     999900   -1    0    0    0    0 -0.00000000000E+00 -0.00000000000E+00 -0.74505805969E-08  0.93827000000E+00  0.93827000000E+00 0.  1.
     999902    2    1    2    0    0 -0.11878365081E-01  0.64833987906E-02 -0.19594189656E-01  0.10201169304E+01  0.10198389527E+01 0.  0.
     999903    2    3    3    0    0 -0.90482131459E-01  0.32866474587E-01  0.85015663731E-01  0.13005073047E+00  0.20452583006E-01 0.  0.
         14    1    1    2    0    0  0.11878365081E-01 -0.64833987906E-02  0.19594189656E-01  0.23813069629E-01  0.00000000000E+00 0.  1.
     999901    1    3    3    0    0  0.78603766378E-01 -0.26383075797E-01 -0.10460985339E+00  0.89006619990E+00  0.88000000000E+00 0.  1.
        -11    1    4    4    0    0 -0.56050781568E-01  0.18652417250E-01  0.38745855782E-01  0.70647754706E-01  0.51100000000E-03 0.  1.
         11    1    4    4    0    0 -0.34431349891E-01  0.14214057337E-01  0.46269807949E-01  0.59402975766E-01  0.51100000000E-03 0. -1.
</event>
<event>
 8    1  0.1112171E+005  0.1043930E+01  0.7957747E-01            NaN
         13   -1    0    0    0    0  0.00000000000E+00  0.00000000000E+00  0.74505805969E-08  0.10566000000E+00  0.10566000000E+00 0. -1.
     999900   -1    0    0    0    0 -0.00000000000E+00 -0.00000000000E+00 -0.74505805969E-08  0.93827000000E+00  0.93827000000E+00 0. -1.
     999902    2    1    2    0    0 -0.20120140482E-01 -0.11544453741E-01 -0.89298206219E-02  0.10190736897E+01  0.10187705084E+01 0.  0.
     999903    2    3    3    0    0  0.21107463614E-01 -0.10084187426E+00  0.76003687451E-01  0.12953029816E+00  0.19670511186E-01 0.  0.
         14    1    1    2    0    0  0.20120140482E-01  0.11544453741E-01  0.89298206219E-02  0.24856310296E-01  0.00000000000E+00 0. -1.
     999901    1    3    3    0    0 -0.41227604095E-01  0.89297420519E-01 -0.84933508073E-01  0.88954339155E+00  0.88000000000E+00 0. -1.
        -11    1    4    4    0    0  0.19345887943E-01 -0.44657081678E-01  0.34749664997E-01  0.59802329910E-01  0.51100000000E-03 0. -1.
         11    1    4    4    0    0  0.17615756705E-02 -0.56184792582E-01  0.41254022454E-01  0.69727968247E-01  0.51100000000E-03 0.  1.
</event>
<event>
 8    1  0.1112171E+005  0.1043930E+01  0.7957747E-01            NaN
         13   -1    0    0    0    0  0.00000000000E+00  0.00000000000E+00  0.74505805969E-08  0.10566000000E+00  0.10566000000E+00 0.  1.
     999900   -1    0    0    0    0 -0.00000000000E+00 -0.00000000000E+00 -0.74505805969E-08  0.93827000000E+00  0.93827000000E+00 0. -1.
     999902    2    1    2    0    0 -0.10362187875E-01 -0.15056167139E-02 -0.23365094192E-01  0.10183259096E+01  0.10180039728E+01 0.  0.
     999903    2    3    3    0    0 -0.30381205299E-01 -0.83264775368E-01 -0.94823257501E-01  0.13142592076E+00  0.20622367260E-01 0.  0.
         14    1    1    2    0    0  0.10362187875E-01  0.15056167139E-02  0.23365094192E-01  0.25604090413E-01  0.00000000000E+00 0.  1.
     999901    1    3    3    0    0  0.20019017424E-01  0.81759158654E-01  0.71458163309E-01  0.88689998883E+00  0.88000000000E+00 0.  1.
        -11    1    4    4    0    0 -0.24219181954E-01 -0.49228147414E-01 -0.69538946123E-01  0.88577115675E-01  0.51100000000E-03 0. -1.
         11    1    4    4    0    0 -0.61620233450E-02 -0.34036627954E-01 -0.25284311378E-01  0.42848805083E-01  0.51100000000E-03 0.  1.
</event>
<event>
 8    1  0.1112171E+005  0.1043930E+01  0.7957747E-01            NaN
         13   -1    0    0    0    0  0.00000000000E+00  0.00000000000E+00  0.74505805969E-08  0.10566000000E+00  0.10566000000E+00 0.  1.
     999900   -1    0    0    0    0 -0.00000000000E+00 -0.00000000000E+00 -0.74505805969E-08  0.93827000000E+00  0.93827000000E+00 0.  1.
     999902    2    1    2    0    0 -0.17026882963E-01  0.15684381174E-01  0.64984381267E-02  0.10198853695E+01  0.10196018942E+01 0.  0.
     999903    2    3    3    0    0 -0.96150789161E-01 -0.85497773730E-01  0.95953454612E-02  0.13055527793E+00  0.19944081087E-01 0.  0.
         14    1    1    2    0    0  0.17026882963E-01 -0.15684381174E-01 -0.64984381267E-02  0.24044630468E-01  0.00000000000E+00 0.  1.
     999901    1    3    3    0    0  0.79123906198E-01  0.10118215490E+00 -0.30969073345E-02  0.88933009161E+00  0.88000000000E+00 0.  1.
        -11    1    4    4    0    0 -0.25914319784E-01 -0.35548183312E-01  0.43241654346E-02  0.44206162855E-01  0.51100000000E-03 0. -1.
         11    1    4    4    0    0 -0.70236469377E-01 -0.49949590419E-01  0.52711800266E-02  0.86349115070E-01  0.51100000000E-03 0.  1.
</event>
<event>
 8    1  0.1112171E+005  0.1043930E+01  0.7957747E-01            NaN
         13   -1    0    0    0    0  0.00000000000E+00  0.00000000000E+00  0.74505805969E-08  0.10566000000E+00  0.10566000000E+00 0.  1.
     999900   -1    0    0    0    0 -0.00000000000E+00 -0.00000000000E+00 -0.74505805969E-08  0.93827000000E+00  0.93827000000E+00 0.  1.
     999902    2    1    2    0    0 -0.51429234714E-02  0.18902799766E-01  0.13215305972E-01  0.10202993036E+01  0.10200256169E+01 0.  0.
     999903    2    3    3    0    0 -0.12225868099E+00 -0.34775084648E-01 -0.20348969670E-01  0.13028583373E+00  0.20095430209E-01 0.  0.
         14    1    1    2    0    0  0.51429234714E-02 -0.18902799766E-01 -0.13215305972E-01  0.23630696409E-01  0.00000000000E+00 0. -1.
     999901    1    3    3    0    0  0.11711575752E+00  0.53677884414E-01  0.33564275641E-01  0.89001346986E+00  0.88000000000E+00 0.  1.
        -11    1    4    4    0    0 -0.75189483807E-01 -0.20943756455E-01 -0.22326779101E-01  0.81184023032E-01  0.51100000000E-03 0.  1.
         11    1    4    4    0    0 -0.47069197180E-01 -0.13831328193E-01  0.19778094312E-02  0.49101810699E-01  0.51100000000E-03 0. -1.
</event>
<event>
 8    1  0.1112171E+005  0.1043930E+01  0.7957747E-01            NaN
         13   -1    0    0    0    0  0.00000000000E+00  0.00000000000E+00  0.74505805969E-08  0.10566000000E+00  0.10566000000E+00 0.  1.
     999900   -1    0    0    0    0 -0.00000000000E+00 -0.00000000000E+00 -0.74505805969E-08  0.93827000000E+00  0.93827000000E+00 0.  1.
     999902    2    1    2    0    0  0.13733527879E-01 -0.16228153352E-01 -0.10804601347E-01  0.10200825230E+01  0.10198037319E+01 0.  0.
     999903    2    3    3    0    0  0.24949190259E-01  0.11695720755E+00 -0.44676398143E-01  0.12934606923E+00  0.20808041267E-01 0.  0.
         14    1    1    2    0    0 -0.13733527879E-01  0.16228153352E-01  0.10804601347E-01  0.23847477005E-01  0.00000000000E+00 0. -1.
     999901    1    3    3    0    0 -0.11215662380E-01 -0.13318536091E+00  0.33871796796E-01  0.89073645376E+00  0.88000000000E+00 0. -1.
        -11    1    4    4    0    0  0.13437710374E-01  0.22383435069E-01 -0.96233550953E-02  0.27829127005E-01  0.51100000000E-03 0.  1.
         11    1    4    4    0    0  0.11511479885E-01  0.94573772486E-01 -0.35053043048E-01  0.10151694223E+00  0.51100000000E-03 0. -1.
</event>
<event>
 8    1  0.1112171E+005  0.1043930E+01  0.7957747E-01            NaN
         13   -1    0    0    0    0  0.00000000000E+00  0.00000000000E+00  0.74505805969E-08  0.10566000000E+00  0.10566000000E+00 0. -1.
     999900   -1    0    0    0    0 -0.00000000000E+00 -0.00000000000E+00 -0.74505805969E-08  0.93827000000E+00  0.93827000000E+00 0.  1.
     999902    2    1    2    0    0  0.13570071015E-01  0.10865591706E-01  0.18595453008E-01  0.10184741798E+01  0.10181560077E+01 0.  0.
     999903    2    3    3    0    0 -0.82952343044E-01 -0.38328090842E-01 -0.84231483185E-01  0.12588806426E+00  0.20068089066E-01 0.  0.
         14    1    1    2    0    0 -0.13570071015E-01 -0.10865591706E-01 -0.18595453008E-01  0.25455820219E-01  0.00000000000E+00 0.  1.
     999901    1    3    3    0    0  0.96522414059E-01  0.49193682549E-01  0.10282693619E+00  0.89258611552E+00  0.88000000000E+00 0. -1.
        -11    1    4    4    0    0 -0.10274650392E-01 -0.12609037489E-01 -0.17817975898E-01  0.24130844435E-01  0.51100000000E-03 0. -1.
         11    1    4    4    0    0 -0.72677692653E-01 -0.25719053353E-01 -0.66413507287E-01  0.10175721982E+00  0.51100000000E-03 0.  1.
</event>
<event>
 8    1  0.1112171E+005  0.1043930E+01  0.7957747E-01            NaN
         13   -1    0    0    0    0  0.00000000000E+00  0.00000000000E+00  0.74505805969E-08  0.10566000000E+00  0.10566000000E+00 0.  1.
     999900   -1    0    0    0    0 -0.00000000000E+00 -0.00000000000E+00 -0.74505805969E-08  0.93827000000E+00  0.93827000000E+00 0.  1.
     999902    2    1    2    0    0  0.35764403574E-02  0.13364465499E-01  0.11612011930E-01  0.10258679214E+01  0.10257089029E+01 0.  0.
     999903    2    3    3    0    0  0.33182530244E-01  0.93832687589E-01 -0.90539569539E-01  0.13581927049E+00  0.18542033598E-01 0.  0.
         14    1    1    2    0    0 -0.35764403574E-02 -0.13364465499E-01 -0.11612011930E-01  0.18062078639E-01  0.00000000000E+00 0. -1.
     999901    1    3    3    0    0 -0.29606089887E-01 -0.80468222089E-01  0.10215158147E+00  0.89004865087E+00  0.88000000000E+00 0. -1.
        -11    1    4    4    0    0  0.10778790336E-01  0.47864723249E-01 -0.54031774094E-01  0.72985668357E-01  0.51100000000E-03 0. -1.
         11    1    4    4    0    0  0.22403739908E-01  0.45967964340E-01 -0.36507795446E-01  0.62833602131E-01  0.51100000000E-03 0.  1.
</event>
<event>
 8    1  0.1112171E+005  0.1043930E+01  0.7957747E-01            NaN
         13   -1    0    0    0    0  0.00000000000E+00  0.00000000000E+00  0.74505805969E-08  0.10566000000E+00  0.10566000000E+00 0. -1.
     999900   -1    0    0    0    0 -0.00000000000E+00 -0.00000000000E+00 -0.74505805969E-08  0.93827000000E+00  0.93827000000E+00 0. -1.
     999902    2    1    2    0    0  0.20450313531E-01  0.70451335010E-02 -0.14647931421E-01  0.10178070001E+01  0.10174717088E+01 0.  0.
     999903    2    3    3    0    0 -0.11029938065E+00  0.57788162126E-01 -0.11779837032E-01  0.12669614085E+00  0.20192139381E-01 0.  0.
         14    1    1    2    0    0 -0.20450313531E-01 -0.70451335010E-02  0.14647931421E-01  0.26122999913E-01  0.00000000000E+00 0.  1.
     999901    1    3    3    0    0  0.13074969418E+00 -0.50743028625E-01 -0.28680943886E-02  0.89111085924E+00  0.88000000000E+00 0.  1.
        -11    1    4    4    0    0 -0.76990719207E-01  0.41492490034E-01  0.10125433021E-02  0.87467044869E-01  0.51100000000E-03 0.  1.
         11    1    4    4    0    0 -0.33308661441E-01  0.16295672092E-01 -0.12792380334E-01  0.39229095982E-01  0.51100000000E-03 0. -1.
</event>
<event>
 8    1  0.1112171E+005  0.1043930E+01  0.7957747E-01            NaN
         13   -1    0    0    0    0  0.00000000000E+00  0.00000000000E+00  0.74505805969E-08  0.10566000000E+00  0.10566000000E+00 0.  1.
     999900   -1    0    0    0    0 -0.00000000000E+00 -0.00000000000E+00 -0.74505805969E-08  0.93827000000E+00  0.93827000000E+00 0.  1.
     999902    2    1    2    0    0 -0.20393475748E-01  0.16922129151E-02 -0.13137089752E-01  0.10196125050E+01  0.10193224807E+01 0.  0.
     999903    2    3    3    0    0 -0.12252307209E+00 -0.29525815482E-01 -0.36959063179E-01  0.13283603586E+00  0.19893795454E-01 0.  0.
         14    1    1    2    0    0  0.20393475748E-01 -0.16922129151E-02  0.13137089752E-01  0.24317495035E-01  0.00000000000E+00 0.  1.
     999901    1    3    3    0    0  0.10212959634E+00  0.31218028397E-01  0.23821973427E-01  0.88677646911E+00  0.88000000000E+00 0.  1.
        -11    1    4    4    0    0 -0.57943801074E-01 -0.39847136362E-02 -0.14813566138E-01  0.59942179543E-01  0.51100000000E-03 0.  1.
         11    1    4    4    0    0 -0.64579271013E-01 -0.25541101846E-01 -0.22145497041E-01  0.72893856314E-01  0.51100000000E-03 0. -1.
</event>
<event>
 8    1  0.1112171E+005  0.1043930E+01  0.7957747E-01            NaN
         13   -1    0    0    0    0  0.00000000000E+00  0.00000000000E+00  0.74505805969E-08  0.10566000000E+00  0.10566000000E+00 0.  1.
     999900   -1    0    0    0    0 -0.00000000000E+00 -0.00000000000E+00 -0.74505805969E-08  0.93827000000E+00  0.93827000000E+00 0. -1.
     999902    2    1    2    0    0  0.23677551499E-02  0.60100762606E-03 -0.24021478147E-01  0.10197846301E+01  0.10194987459E+01 0.  0.
     999903    2    3    3    0    0  0.12646903019E+00  0.23931881616E-01  0.43239198510E-02  0.13031910648E+00  0.19930445956E-01 0.  0.
         14    1    1    2    0    0 -0.23677551499E-02 -0.60100762606E-03  0.24021478147E-01  0.24145369887E-01  0.00000000000E+00 0.  1.
     999901    1    3    3    0    0 -0.12410127504E+00 -0.23330873990E-01 -0.28345397998E-01  0.88946552363E+00  0.88000000000E+00 0. -1.
        -11    1    4    4    0    0  0.69611526895E-01  0.22512692067E-01 -0.12087758713E-02  0.73173138793E-01  0.51100000000E-03 0.  1.
         11    1    4    4    0    0  0.56857503293E-01  0.14191895497E-02  0.55326957223E-02  0.57145967685E-01  0.51100000000E-03 0. -1.
</event>
<event>
 8    1  0.1112171E+005  0.1043930E+01  0.7957747E-01            NaN
         13   -1    0    0    0    0  0.00000000000E+00  0.00000000000E+00  0.74505805969E-08  0.10566000000E+00  0.10566000000E+00 0. -1.
     999900   -1    0    0    0    0 -0.00000000000E+00 -0.00000000000E+00 -0.74505805969E-08  0.93827000000E+00  0.93827000000E+00 0. -1.
     999902    2    1    2    0    0  0.15950841401E-01 -0.28121437367E-03  0.20247498022E-01  0.10181526922E+01  0.10178263285E+01 0.  0.
     999903    2    3    3    0    0  0.65140891904E-02  0.12020095151E+00  0.43511780888E-01  0.12958855186E+00  0.20229077951E-01 0.  0.
         14    1    1    2    0    0 -0.15950841401E-01  0.28121437367E-03 -0.20247498022E-01  0.25777307832E-01  0.00000000000E+00 0.  1.
     999901    1    3    3    0    0  0.94367522104E-02 -0.12048216588E+00 -0.23264282865E-01  0.88856414031E+00  0.88000000000E+00 0.  1.
        -11    1    4    4    0    0  0.13144288755E-01  0.73649147105E-01  0.30539138613E-01  0.80807606723E-01  0.51100000000E-03 0.  1.
         11    1    4    4    0    0 -0.66301995645E-02  0.46551804404E-01  0.12972642275E-01  0.48780945134E-01  0.51100000000E-03 0. -1.
</event>
<event>
 8    1  0.1112171E+005  0.1043930E+01  0.7957747E-01            NaN
         13   -1    0    0    0    0  0.00000000000E+00  0.00000000000E+00  0.74505805969E-08  0.10566000000E+00  0.10566000000E+00 0.  1.
     999900   -1    0    0    0    0 -0.00000000000E+00 -0.00000000000E+00 -0.74505805969E-08  0.93827000000E+00  0.93827000000E+00 0.  1.
     999902    2    1    2    0    0  0.15019544409E-01 -0.32025914284E-02 -0.17906996718E-01  0.10203396664E+01  0.10200669248E+01 0.  0.
     999903    2    3    3    0    0  0.95630588829E-02  0.12509964394E+00 -0.31059105361E-01  0.13092175859E+00  0.20843844099E-01 0.  0.
         14    1    1    2    0    0 -0.15019544409E-01  0.32025914284E-02  0.17906996718E-01  0.23590333562E-01  0.00000000000E+00 0. -1.
     999901    1    3    3    0    0  0.54564855259E-02 -0.12830223537E+00  0.13152108644E-01  0.88941790785E+00  0.88000000000E+00 0. -1.
        -11    1    4    4    0    0 -0.11292580696E-02  0.90011072619E-01 -0.16861344135E-01  0.91585121416E-01  0.51100000000E-03 0. -1.
         11    1    4    4    0    0  0.10692316952E-01  0.35088571325E-01 -0.14197761226E-01  0.39336637176E-01  0.51100000000E-03 0.  1.
</event>
<event>
 8    1  0.1112171E+005  0.1043930E+01  0.7957747E-01            NaN
         13   -1    0    0    0    0  0.00000000000E+00  0.00000000000E+00  0.74505805969E-08  0.10566000000E+00  0.10566000000E+00 0.  1.
     999900   -1    0    0    0    0 -0.00000000000E+00 -0.00000000000E+00 -0.74505805969E-08  0.93827000000E+00  0.93827000000E+00 0. -1.
     999902    2    1    2    0    0  0.62255464324E-02 -0.34512827655E-02 -0.19532988353E-01  0.10231404253E+01  0.10229291879E+01 0.  0.
     999903    2    3    3    0    0  0.11754544854E+00  0.26113838061E-01  0.52010521010E-01  0.13275585071E+00  0.20497721621E-01 0.  0.
         14    1    1    2    0    0 -0.62255464324E-02  0.34512827655E-02  0.19532988353E-01  0.20789574674E-01  0.00000000000E+00 0.  1.
     999901    1    3    3    0    0 -0.11131990211E+00 -0.29565120827E-01 -0.71543509363E-01  0.89038457461E+00  0.88000000000E+00 0. -1.
        -11    1    4    4    0    0  0.97335655908E-01  0.29335803928E-01  0.43938682937E-01  0.11075056786E+00  0.51100000000E-03 0. -1.
         11    1    4    4    0    0  0.20209792636E-01 -0.32219658670E-02  0.80718380728E-02  0.22005282850E-01  0.51100000000E-03 0.  1.
</event>
<event>
 8    1  0.1112171E+005  0.1043930E+01  0.7957747E-01            NaN
         13   -1    0    0    0    0  0.00000000000E+00  0.00000000000E+00  0.74505805969E-08  0.10566000000E+00  0.10566000000E+00 0.  1.
     999900   -1    0    0    0    0 -0.00000000000E+00 -0.00000000000E+00 -0.74505805969E-08  0.93827000000E+00  0.93827000000E+00 0.  1.
     999902    2    1    2    0    0  0.21752162689E-01  0.51968098873E-02  0.84348980085E-02  0.10200278888E+01  0.10197478036E+01 0.  0.
     999903    2    3    3    0    0 -0.53234175931E-01 -0.11529958204E+00  0.17070374798E-03  0.12861853933E+00  0.20367336918E-01 0.  0.
         14    1    1    2    0    0 -0.21752162689E-01 -0.51968098873E-02 -0.84348980085E-02  0.23902111184E-01  0.00000000000E+00 0. -1.
     999901    1    3    3    0    0  0.74986338620E-01  0.12049639193E+00  0.82641942605E-02  0.89140934949E+00  0.88000000000E+00 0.  1.
        -11    1    4    4    0    0 -0.88737506648E-02 -0.35034661070E-01  0.63637381544E-02  0.36700534212E-01  0.51100000000E-03 0.  1.
         11    1    4    4    0    0 -0.44360425266E-01 -0.80264920971E-01 -0.61930344064E-02  0.91918005116E-01  0.51100000000E-03 0. -1.
</event>
<event>
 8    1  0.1112171E+005  0.1043930E+01  0.7957747E-01            NaN
         13   -1    0    0    0    0  0.00000000000E+00  0.00000000000E+00  0.74505805969E-08  0.10566000000E+00  0.10566000000E+00 0.  1.
     999900   -1    0    0    0    0 -0.00000000000E+00 -0.00000000000E+00 -0.74505805969E-08  0.93827000000E+00  0.93827000000E+00 0. -1.
     999902    2    1    2    0    0  0.57061449812E-02  0.22413385622E-01 -0.64441261457E-02  0.10199206954E+01  0.10196380624E+01 0.  0.
     999903    2    3    3    0    0  0.27800069658E-01  0.87319526615E-01 -0.94144852244E-01  0.13290752413E+00  0.20090126065E-01 0.  0.
         14    1    1    2    0    0 -0.57061449812E-02 -0.22413385622E-01  0.64441261457E-02  0.24009304600E-01  0.00000000000E+00 0.  1.
     999901    1    3    3    0    0 -0.22093924677E-01 -0.64906140993E-01  0.87700726098E-01  0.88701317127E+00  0.88000000000E+00 0.  1.
        -11    1    4    4    0    0  0.10766264069E-01  0.63107401688E-01 -0.60423229164E-01  0.88032291424E-01  0.51100000000E-03 0. -1.
         11    1    4    4    0    0  0.17033805590E-01  0.24212124928E-01 -0.33721623080E-01  0.44875232707E-01  0.51100000000E-03 0.  1.
</event>
<event>
 8    1  0.1112171E+005  0.1043930E+01  0.7957747E-01            NaN
         13   -1    0    0    0    0  0.00000000000E+00  0.00000000000E+00  0.74505805969E-08  0.10566000000E+00  0.10566000000E+00 0. -1.
     999900   -1    0    0    0    0 -0.00000000000E+00 -0.00000000000E+00 -0.74505805969E-08  0.93827000000E+00  0.93827000000E+00 0.  1.
     999902    2    1    2    0    0  0.16745753859E-01 -0.10223375590E-01 -0.12961514962E-01  0.10204153545E+01  0.10201443806E+01 0.  0.
     999903    2    3    3    0    0 -0.62802762249E-01  0.94287415777E-01 -0.59472588530E-01  0.12945309278E+00  0.19667504259E-01 0.  0.
         14    1    1    2    0    0 -0.16745753859E-01  0.10223375590E-01  0.12961514962E-01  0.23514645454E-01  0.00000000000E+00 0. -1.
     999901    1    3    3    0    0  0.79548516107E-01 -0.10451079137E+00  0.46511073568E-01  0.89096226177E+00  0.88000000000E+00 0. -1.
        -11    1    4    4    0    0 -0.60789560990E-01  0.86223039478E-01 -0.59509081613E-01  0.12112545223E+00  0.51100000000E-03 0.  1.
         11    1    4    4    0    0 -0.20132012589E-02  0.80643762988E-02  0.36493083391E-04  0.83276405508E-02  0.51100000000E-03 0. -1.
</event>
<event>
 8    1  0.1112171E+005  0.1043930E+01  0.7957747E-01            NaN
         13   -1    0    0    0    0  0.00000000000E+00  0.00000000000E+00  0.74505805969E-08  0.10566000000E+00  0.10566000000E+00 0.  1.
     999900   -1    0    0    0    0 -0.00000000000E+00 -0.00000000000E+00 -0.74505805969E-08  0.93827000000E+00  0.93827000000E+00 0. -1.
     999902    2    1    2    0    0 -0.21918698178E-01 -0.54939080577E-02 -0.70198394914E-02  0.10202679945E+01  0.10199935736E+01 0.  0.
     999903    2    3    3    0    0 -0.73549213431E-01 -0.87588210088E-01  0.63096791322E-01  0.13216804159E+00  0.20149560768E-01 0.  0.
         14    1    1    2    0    0  0.21918698178E-01  0.54939080577E-02  0.70198394914E-02  0.23662005453E-01  0.00000000000E+00 0.  1.
     999901    1    3    3    0    0  0.51630515253E-01  0.82094302030E-01 -0.70116630814E-01  0.88809995296E+00  0.88000000000E+00 0. -1.
        -11    1    4    4    0    0 -0.23079779555E-01 -0.15157743110E-01  0.18693307109E-01  0.33348676918E-01  0.51100000000E-03 0.  1.
         11    1    4    4    0    0 -0.50469433876E-01 -0.72430466978E-01  0.44403484213E-01  0.98819364669E-01  0.51100000000E-03 0. -1.
</event>
<event>
 8    1  0.1112171E+005  0.1043930E+01  0.7957747E-01            NaN
         13   -1    0    0    0    0  0.00000000000E+00  0.00000000000E+00  0.74505805969E-08  0.10566000000E+00  0.10566000000E+00 0.  1.
     999900   -1    0    0    0    0 -0.00000000000E+00 -0.00000000000E+00 -0.74505805969E-08  0.93827000000E+00  0.93827000000E+00 0. -1.
     999902    2    1    2    0    0  0.87022284142E-02  0.70437869566E-02 -0.23127886355E-01  0.10182348090E+01  0.10179105478E+01 0.  0.
     999903    2    3    3    0    0  0.94175910292E-01  0.57472920837E-01 -0.68603641079E-01  0.13148969786E+00  0.20269246778E-01 0.  0.
         14    1    1    2    0    0 -0.87022284142E-02 -0.70437869566E-02  0.23127886355E-01  0.25695191015E-01  0.00000000000E+00 0.  1.
     999901    1    3    3    0    0 -0.85473681878E-01 -0.50429133880E-01  0.45475754723E-01  0.88674511113E+00  0.88000000000E+00 0. -1.
        -11    1    4    4    0    0  0.44719183916E-01  0.29042974145E-01 -0.21453883608E-01  0.57478952671E-01  0.51100000000E-03 0. -1.
         11    1    4    4    0    0  0.49456726376E-01  0.28429946692E-01 -0.47149757470E-01  0.74010745188E-01  0.51100000000E-03 0.  1.
</event>
<event>
 8    1  0.1112171E+005  0.1043930E+01  0.7957747E-01            NaN
         13   -1    0    0    0    0  0.00000000000E+00  0.00000000000E+00  0.74505805969E-08  0.10566000000E+00  0.10566000000E+00 0.  1.
     999900   -1    0    0    0    0 -0.00000000000E+00 -0.00000000000E+00 -0.74505805969E-08  0.93827000000E+00  0.93827000000E+00 0. -1.
     999902    2    1    2    0    0 -0.40133506490E-02  0.20471942970E-01 -0.12426122480E-01  0.10196479912E+01  0.10193588230E+01 0.  0.
     999903    2    3    3    0    0  0.83865054822E-01 -0.74906338884E-01  0.56364482047E-01  0.12748669519E+00  0.20774878774E-01 0.  0.
         14    1    1    2    0    0  0.40133506490E-02 -0.20471942970E-01  0.12426122480E-01  0.24282008819E-01  0.00000000000E+00 0.  1.
     999901    1    3    3    0    0 -0.87878405471E-01  0.95378281854E-01 -0.68790604527E-01  0.89216129599E+00  0.88000000000E+00 0. -1.
        -11    1    4    4    0    0  0.77987680351E-01 -0.60553331763E-01  0.50452042118E-01  0.11088035872E+00  0.51100000000E-03 0.  1.
         11    1    4    4    0    0  0.58773744717E-02 -0.14353007121E-01  0.59124399286E-02  0.16606336472E-01  0.51100000000E-03 0. -1.
</event>
<event>
 8    1  0.1112171E+005  0.1043930E+01  0.7957747E-01            NaN
         13   -1    0    0    0    0  0.00000000000E+00  0.00000000000E+00  0.74505805969E-08  0.10566000000E+00  0.10566000000E+00 0.  1.
     999900   -1    0    0    0    0 -0.00000000000E+00 -0.00000000000E+00 -0.74505805969E-08  0.93827000000E+00  0.93827000000E+00 0. -1.
     999902    2    1    2    0    0  0.20763914123E-01  0.18770705429E-02 -0.84708695255E-02  0.10214262413E+01  0.10211783132E+01 0.  0.
     999903    2    3    3    0    0 -0.91439819787E-01  0.77401094416E-01  0.45355956845E-01  0.12946722696E+00  0.18773118449E-01 0.  0.
         14    1    1    2    0    0 -0.20763914123E-01 -0.18770705429E-02  0.84708695255E-02  0.22503758665E-01  0.00000000000E+00 0.  1.
     999901    1    3    3    0    0  0.11220373391E+00 -0.75524023873E-01 -0.53826826371E-01  0.89195901437E+00  0.88000000000E+00 0. -1.
        -11    1    4    4    0    0 -0.31721830836E-01  0.26800234927E-01  0.63540313468E-02  0.42013830807E-01  0.51100000000E-03 0.  1.
         11    1    4    4    0    0 -0.59717988952E-01  0.50600859489E-01  0.39001925498E-01  0.87453396155E-01  0.51100000000E-03 0. -1.
</event>
<event>
 8    1  0.1112171E+005  0.1043930E+01  0.7957747E-01            NaN
         13   -1    0    0    0    0  0.00000000000E+00  0.00000000000E+00  0.74505805969E-08  0.10566000000E+00  0.10566000000E+00 0. -1.
     999900   -1    0    0    0    0 -0.00000000000E+00 -0.00000000000E+00 -0.74505805969E-08  0.93827000000E+00  0.93827000000E+00 0.  1.
     999902    2    1    2    0    0 -0.10424319663E-02  0.17660158445E-01  0.15816173498E-01  0.10201998672E+01  0.10199238451E+01 0.  0.
     999903    2    3    3    0    0 -0.90881515547E-01  0.92816480077E-01 -0.12173585676E-01  0.13199777290E+00  0.20021663780E-01 0.  0.
         14    1    1    2    0    0  0.10424319663E-02 -0.17660158445E-01 -0.15816173498E-01  0.23730132845E-01  0.00000000000E+00 0.  1.
     999901    1    3    3    0    0  0.89839083581E-01 -0.75156321632E-01  0.27989759175E-01  0.88820209425E+00  0.88000000000E+00 0. -1.
        -11    1    4    4    0    0 -0.81063255624E-01  0.74567109806E-01 -0.14677423370E-01  0.11111792454E+00  0.51100000000E-03 0.  1.
         11    1    4    4    0    0 -0.98182599228E-02  0.18249370270E-01  0.25038376937E-02  0.20879848356E-01  0.51100000000E-03 0. -1.
</event>
<event>
 8    1  0.1112171E+005  0.1043930E+01  0.7957747E-01            NaN
         13   -1    0    0    0    0  0.00000000000E+00  0.00000000000E+00  0.74505805969E-08  0.10566000000E+00  0.10566000000E+00 0. -1.
     999900   -1    0    0    0    0 -0.00000000000E+00 -0.00000000000E+00 -0.74505805969E-08  0.93827000000E+00  0.93827000000E+00 0. -1.
     999902    2    1    2    0    0  0.11275093720E-03 -0.22022904947E-01 -0.40483089599E-02  0.10215378170E+01  0.10212923684E+01 0.  0.
     999903    2    3    3    0    0  0.91033162477E-01 -0.62550056290E-01 -0.71915691433E-01  0.13332897170E+00  0.20129625113E-01 0.  0.
         14    1    1    2    0    0 -0.11275093720E-03  0.22022904947E-01  0.40483089599E-02  0.22392183022E-01  0.00000000000E+00 0. -1.
     999901    1    3    3    0    0 -0.90920411539E-01  0.40527151344E-01  0.67867382473E-01  0.88820884528E+00  0.88000000000E+00 0.  1.
        -11    1    4    4    0    0  0.53623359830E-01 -0.41646561496E-01 -0.33227069747E-01  0.75592328241E-01  0.51100000000E-03 0. -1.
         11    1    4    4    0    0  0.37409802646E-01 -0.20903494795E-01 -0.38688621686E-01  0.57736643457E-01  0.51100000000E-03 0.  1.
</event>
<event>
 8    1  0.1112171E+005  0.1043930E+01  0.7957747E-01            NaN
         13   -1    0    0    0    0  0.00000000000E+00  0.00000000000E+00  0.74505805969E-08  0.10566000000E+00  0.10566000000E+00 0.  1.
     999900   -1    0    0    0    0 -0.00000000000E+00 -0.00000000000E+00 -0.74505805969E-08  0.93827000000E+00  0.93827000000E+00 0. -1.
     999902    2    1    2    0    0  0.12895595377E-03 -0.22820033700E-01 -0.80464287688E-02  0.10197325707E+01  0.10194454376E+01 0.  0.
     999903    2    3    3    0    0  0.45275252964E-01  0.11524604743E+00 -0.24822807258E-01  0.12766649819E+00  0.18736675821E-01 0.  0.
         14    1    1    2    0    0 -0.12895595377E-03  0.22820033700E-01  0.80464287688E-02  0.24197429277E-01  0.00000000000E+00 0.  1.
     999901    1    3    3    0    0 -0.45146297010E-01 -0.13806608113E+00  0.16776378489E-01  0.89206607253E+00  0.88000000000E+00 0.  1.
        -11    1    4    4    0    0  0.22721197608E-01  0.48733348848E-01 -0.19618980944E-01  0.57239476281E-01  0.51100000000E-03 0. -1.
         11    1    4    4    0    0  0.22554055356E-01  0.66512698580E-01 -0.52038263137E-02  0.70427021907E-01  0.51100000000E-03 0.  1.
</event>
<event>
 8    1  0.1112171E+005  0.1043930E+01  0.7957747E-01            NaN
         13   -1    0    0    0    0  0.00000000000E+00  0.00000000000E+00  0.74505805969E-08  0.10566000000E+00  0.10566000000E+00 0.  1.
     999900   -1    0    0    0    0 -0.00000000000E+00 -0.00000000000E+00 -0.74505805969E-08  0.93827000000E+00  0.93827000000E+00 0.  1.
     999902    2    1    2    0    0 -0.21333709931E-02  0.16156223206E-01  0.16494136663E-01  0.10207431209E+01  0.10204797340E+01 0.  0.
     999903    2    3    3    0    0  0.88900189967E-01  0.45372936664E-01  0.85427820163E-01  0.13288469842E+00  0.19962050486E-01 0.  0.
         14    1    1    2    0    0  0.21333709931E-02 -0.16156223206E-01 -0.16494136663E-01  0.23186879142E-01  0.00000000000E+00 0. -1.
     999901    1    3    3    0    0 -0.91033560960E-01 -0.29216713458E-01 -0.68933683499E-01  0.88785842243E+00  0.88000000000E+00 0.  1.
        -11    1    4    4    0    0  0.35905026481E-01  0.19523092275E-01  0.47996101783E-01  0.63041327444E-01  0.51100000000E-03 0. -1.
         11    1    4    4    0    0  0.52995163487E-01  0.25849844389E-01  0.37431718380E-01  0.69843370980E-01  0.51100000000E-03 0.  1.
</event>
<event>
 8    1  0.1112171E+005  0.1043930E+01  0.7957747E-01            NaN
         13   -1    0    0    0    0  0.00000000000E+00  0.00000000000E+00  0.74505805969E-08  0.10566000000E+00  0.10566000000E+00 0. -1.
     999900   -1    0    0    0    0 -0.00000000000E+00 -0.00000000000E+00 -0.74505805969E-08  0.93827000000E+00  0.93827000000E+00 0. -1.
     999902    2    1    2    0    0 -0.79806463231E-02  0.78778165640E-02 -0.22753761551E-01  0.10185630062E+01  0.10182470787E+01 0.  0.
     999903    2    3    3    0    0  0.66277549687E-01 -0.47509014748E-01 -0.99828618597E-01  0.13034990433E+00  0.19378451742E-01 0.  0.
         14    1    1    2    0    0  0.79806463231E-02 -0.78778165640E-02  0.22753761551E-01  0.25366993797E-01  0.00000000000E+00 0.  1.
     999901    1    3    3    0    0 -0.74258196010E-01  0.55386831312E-01  0.77074857046E-01  0.88821310188E+00  0.88000000000E+00 0.  1.
        -11    1    4    4    0    0  0.56843496141E-02 -0.40876789969E-02 -0.19668062669E-01  0.20883360847E-01  0.51100000000E-03 0. -1.
         11    1    4    4    0    0  0.60593200073E-01 -0.43421335751E-01 -0.80160555928E-01  0.10946654348E+00  0.51100000000E-03 0.  1.
</event>
<event>
 8    1  0.1112171E+005  0.1043930E+01  0.7957747E-01            NaN
         13   -1    0    0    0    0  0.00000000000E+00  0.00000000000E+00  0.74505805969E-08  0.10566000000E+00  0.10566000000E+00 0.  1.
     999900   -1    0    0    0    0 -0.00000000000E+00 -0.00000000000E+00 -0.74505805969E-08  0.93827000000E+00  0.93827000000E+00 0.  1.
     999902    2    1    2    0    0  0.16552970919E-01  0.71151236510E-02  0.15042706013E-01  0.10204585528E+01  0.10201885851E+01 0.  0.
     999903    2    3    3    0    0 -0.99703054201E-01 -0.42312704268E-01 -0.64829712353E-01  0.12785663883E+00  0.20331368144E-01 0.  0.
         14    1    1    2    0    0 -0.16552970919E-01 -0.71151236510E-02 -0.15042706013E-01  0.23471447228E-01  0.00000000000E+00 0.  1.
     999901    1    3    3    0    0  0.11625602512E+00  0.49427827919E-01  0.79872418366E-01  0.89260191394E+00  0.88000000000E+00 0. -1.
        -11    1    4    4    0    0 -0.73092650831E-01 -0.32587676156E-01 -0.57628725579E-01  0.98619589208E-01  0.51100000000E-03 0.  1.
         11    1    4    4    0    0 -0.26610403370E-01 -0.97250281120E-02 -0.72009867746E-02  0.29237049626E-01  0.51100000000E-03 0. -1.
</event>
<event>
 8    1  0.1112171E+005  0.1043930E+01  0.7957747E-01            NaN
         13   -1    0    0    0    0  0.00000000000E+00  0.00000000000E+00  0.74505805969E-08  0.10566000000E+00  0.10566000000E+00 0.  1.
     999900   -1    0    0    0    0 -0.00000000000E+00 -0.00000000000E+00 -0.74505805969E-08  0.93827000000E+00  0.93827000000E+00 0. -1.
     999902    2    1    2    0    0 -0.17861088673E-01  0.74668423081E-02  0.10813688503E-01  0.10217555083E+01  0.10215148607E+01 0.  0.
     999903    2    3    3    0    0  0.41878615560E-01  0.73329654318E-01 -0.97680253419E-01  0.13064514607E+00  0.19891345824E-01 0.  0.
         14    1    1    2    0    0  0.17861088673E-01 -0.74668423081E-02 -0.10813688503E-01  0.22174491689E-01  0.00000000000E+00 0. -1.
     999901    1    3    3    0    0 -0.59739704233E-01 -0.65862812010E-01  0.10849394192E+00  0.89111036225E+00  0.88000000000E+00 0.  1.
        -11    1    4    4    0    0  0.14860689356E-01  0.26232467771E-01 -0.21244713295E-01  0.36886059934E-01  0.51100000000E-03 0. -1.
         11    1    4    4    0    0  0.27017926204E-01  0.47097186548E-01 -0.76435540124E-01  0.93759086131E-01  0.51100000000E-03 0.  1.
</event>
<event>
 8    1  0.1112171E+005  0.1043930E+01  0.7957747E-01            NaN
         13   -1    0    0    0    0  0.00000000000E+00  0.00000000000E+00  0.74505805969E-08  0.10566000000E+00  0.10566000000E+00 0.  1.
     999900   -1    0    0    0    0 -0.00000000000E+00 -0.00000000000E+00 -0.74505805969E-08  0.93827000000E+00  0.93827000000E+00 0.  1.
     999902    2    1    2    0    0  0.13701218239E-01  0.21536782206E-01 -0.15082559114E-02  0.10183598767E+01  0.10180388044E+01 0.  0.
     999903    2    3    3    0    0  0.59056178646E-01 -0.49891627712E-01  0.10060070612E+00  0.12842430022E+00  0.19886982297E-01 0.  0.
         14    1    1    2    0    0 -0.13701218239E-01 -0.21536782206E-01  0.15082559114E-02  0.25570123287E-01  0.00000000000E+00 0. -1.
     999901    1    3    3    0    0 -0.45354960407E-01  0.71428409918E-01 -0.10210896203E+00  0.88993557649E+00  0.88000000000E+00 0.  1.
        -11    1    4    4    0    0  0.40895380867E-01 -0.38853988307E-01  0.58543550463E-01  0.81299895483E-01  0.51100000000E-03 0.  1.
         11    1    4    4    0    0  0.18160797779E-01 -0.11037639405E-01  0.42057155652E-01  0.47124404740E-01  0.51100000000E-03 0. -1.
</event>
<event>
 8    1  0.1112171E+005  0.1043930E+01  0.7957747E-01            NaN
         13   -1    0    0    0    0  0.00000000000E+00  0.00000000000E+00  0.74505805969E-08  0.10566000000E+00  0.10566000000E+00 0. -1.
     999900   -1    0    0    0    0 -0.00000000000E+00 -0.00000000000E+00 -0.74505805969E-08  0.93827000000E+00  0.93827000000E+00 0.  1.
     999902    2    1    2    0    0  0.12398590239E-02 -0.20449565991E-01 -0.18449518076E-01  0.10163599670E+01  0.10159859625E+01 0.  0.
     999903    2    3    3    0    0 -0.62218572659E-01 -0.10679393743E+00 -0.33963567471E-01  0.12972418571E+00  0.19968589987E-01 0.  0.
         14    1    1    2    0    0 -0.12398590239E-02  0.20449565991E-01  0.18449518076E-01  0.27570032950E-01  0.00000000000E+00 0. -1.
     999901    1    3    3    0    0  0.63458431683E-01  0.86344371439E-01  0.15514049395E-01  0.88663578134E+00  0.88000000000E+00 0.  1.
        -11    1    4    4    0    0 -0.70960049302E-02 -0.28665523282E-01 -0.65285231222E-02  0.30248111448E-01  0.51100000000E-03 0.  1.
         11    1    4    4    0    0 -0.55122567729E-01 -0.78128414148E-01 -0.27435044349E-01  0.99476074258E-01  0.51100000000E-03 0. -1.
</event>
<event>
 8    1  0.1112171E+005  0.1043930E+01  0.7957747E-01            NaN
         13   -1    0    0    0    0  0.00000000000E+00  0.00000000000E+00  0.74505805969E-08  0.10566000000E+00  0.10566000000E+00 0. -1.
     999900   -1    0    0    0    0 -0.00000000000E+00 -0.00000000000E+00 -0.74505805969E-08  0.93827000000E+00  0.93827000000E+00 0.  1.
     999902    2    1    2    0    0 -0.23958208806E-02 -0.19824337724E-01 -0.11177928914E-01  0.10210457168E+01  0.10207892365E+01 0.  0.
     999903    2    3    3    0    0 -0.26401119604E-01  0.88272776911E-01  0.87529587445E-01  0.12863078282E+00  0.19883343556E-01 0.  0.
         14    1    1    2    0    0  0.23958208806E-02  0.19824337724E-01  0.11177928914E-01  0.22884283225E-01  0.00000000000E+00 0. -1.
     999901    1    3    3    0    0  0.24005298723E-01 -0.10809711464E+00 -0.98707516358E-01  0.89241493395E+00  0.88000000000E+00 0. -1.
        -11    1    4    4    0    0 -0.26492075222E-01  0.56481168830E-01  0.55549213910E-01  0.83533997683E-01  0.51100000000E-03 0.  1.
         11    1    4    4    0    0  0.90955618366E-04  0.31791608082E-01  0.31980373535E-01  0.45096785138E-01  0.51100000000E-03 0. -1.
</event>
<event>
 8    1  0.1112171E+005  0.1043930E+01  0.7957747E-01            NaN
         13   -1    0    0    0    0  0.00000000000E+00  0.00000000000E+00  0.74505805969E-08  0.10566000000E+00  0.10566000000E+00 0. -1.
     999900   -1    0    0    0    0 -0.00000000000E+00 -0.00000000000E+00 -0.74505805969E-08  0.93827000000E+00  0.93827000000E+00 0. -1.
     999902    2    1    2    0    0  0.26370560056E-02 -0.65365381727E-03 -0.27355407184E-01  0.10164400086E+01  0.10160682021E+01 0.  0.
     999903    2    3    3    0    0  0.84635691474E-01  0.84548071609E-01  0.34458628935E-01  0.12638153559E+00  0.21755889895E-01 0.  0.
         14    1    1    2    0    0 -0.26370560056E-02  0.65365381727E-03  0.27355407184E-01  0.27489991449E-01  0.00000000000E+00 0. -1.
     999901    1    3    3    0    0 -0.81998635468E-01 -0.85201725426E-01 -0.61814036119E-01  0.89005847296E+00  0.88000000000E+00 0.  1.
        -11    1    4    4    0    0  0.62708938738E-01  0.54401154174E-01  0.32157261888E-01  0.89029473694E-01  0.51100000000E-03 0.  1.
         11    1    4    4    0    0  0.21926752736E-01  0.30146917434E-01  0.23013670474E-02  0.37352061893E-01  0.51100000000E-03 0. -1.
</event>
<event>
 8    1  0.1112171E+005  0.1043930E+01  0.7957747E-01            NaN
         13   -1    0    0    0    0  0.00000000000E+00  0.00000000000E+00  0.74505805969E-08  0.10566000000E+00  0.10566000000E+00 0. -1.
     999900   -1    0    0    0    0 -0.00000000000E+00 -0.00000000000E+00 -0.74505805969E-08  0.93827000000E+00  0.93827000000E+00 0. -1.
     999902    2    1    2    0    0 -0.19872514273E-02  0.16479022300E-01  0.17245309990E-01  0.10199945021E+01  0.10197136246E+01 0.  0.
     999903    2    3    3    0    0  0.67012685262E-01 -0.40012327142E-03 -0.10759942640E+00  0.12834877365E+00  0.20122401695E-01 0.  0.
         14    1    1    2    0    0  0.19872514273E-02 -0.16479022300E-01 -0.17245309990E-01  0.23935497924E-01  0.00000000000E+00 0.  1.
     999901    1    3    3    0    0 -0.68999936689E-01  0.16879145571E-01  0.12484473639E+00  0.89164572843E+00  0.88000000000E+00 0.  1.
        -11    1    4    4    0    0  0.33345813514E-01  0.74878400949E-02 -0.65366052600E-01  0.73763086851E-01  0.51100000000E-03 0. -1.
         11    1    4    4    0    0  0.33666871748E-01 -0.78879633663E-02 -0.42233373804E-01  0.54585686798E-01  0.51100000000E-03 0.  1.
</event>
<event>
 8    1  0.1112171E+005  0.1043930E+01  0.7957747E-01            NaN
         13   -1    0    0    0    0  0.00000000000E+00  0.00000000000E+00  0.74505805969E-08  0.10566000000E+00  0.10566000000E+00 0.  1.
     999900   -1    0    0    0    0 -0.00000000000E+00 -0.00000000000E+00 -0.74505805969E-08  0.93827000000E+00  0.93827000000E+00 0. -1.
     999902    2    1    2    0    0  0.89163370455E-02 -0.15754327595E-01  0.14703574135E-01  0.10206084435E+01  0.10203419525E+01 0.  0.
     999903    2    3    3    0    0  0.64112687135E-01  0.21035539587E-01 -0.10824388897E+00  0.12958868500E+00  0.22881372417E-01 0.  0.
         14    1    1    2    0    0 -0.89163370455E-02  0.15754327595E-01 -0.14703574135E-01  0.23321556479E-01  0.00000000000E+00 0. -1.
     999901    1    3    3    0    0 -0.55196350089E-01 -0.36789867182E-01  0.12294746310E+00  0.89101975852E+00  0.88000000000E+00 0.  1.
        -11    1    4    4    0    0  0.44055188269E-01  0.20627553493E-01 -0.90746088246E-01  0.10296343637E+00  0.51100000000E-03 0. -1.
         11    1    4    4    0    0  0.20057498866E-01  0.40798609430E-03 -0.17497800723E-01  0.26625248629E-01  0.51100000000E-03 0.  1.
</event>
<event>
 8    1  0.1112171E+005  0.1043930E+01  0.7957747E-01            NaN
         13   -1    0    0    0    0  0.00000000000E+00  0.00000000000E+00  0.74505805969E-08  0.10566000000E+00  0.10566000000E+00 0. -1.
     999900   -1    0    0    0    0 -0.00000000000E+00 -0.00000000000E+00 -0.74505805969E-08  0.93827000000E+00  0.93827000000E+00 0. -1.
     999902    2    1    2    0    0  0.17399880830E-01 -0.16041116216E-01  0.50669535586E-02  0.10197277836E+01  0.10194405354E+01 0.  0.
     999903    2    3    3    0    0  0.64039241909E-01 -0.11372285252E+00 -0.15713542329E-01  0.13285192944E+00  0.19204375875E-01 0.  0.
         14    1    1    2    0    0 -0.17399880830E-01  0.16041116216E-01 -0.50669535586E-02  0.24202216443E-01  0.00000000000E+00 0. -1.
     999901    1    3    3    0    0 -0.46639361078E-01  0.97681736307E-01  0.20780495887E-01  0.88687585412E+00  0.88000000000E+00 0. -1.
        -11    1    4    4    0    0  0.37890381494E-02 -0.20740848622E-01 -0.35872283112E-02  0.21393198442E-01  0.51100000000E-03 0.  1.
         11    1    4    4    0    0  0.60250203759E-01 -0.92982003902E-01 -0.12126314017E-01  0.11145873100E+00  0.51100000000E-03 0. -1.
</event>
<event>
 8    1  0.1112171E+005  0.1043930E+01  0.7957747E-01            NaN
         13   -1    0    0    0    0  0.00000000000E+00  0.00000000000E+00  0.74505805969E-08  0.10566000000E+00  0.10566000000E+00 0.  1.
     999900   -1    0    0    0    0 -0.00000000000E+00 -0.00000000000E+00 -0.74505805969E-08  0.93827000000E+00  0.93827000000E+00 0.  1.
     999902    2    1    2    0    0  0.17297698557E-01  0.12595068168E-01  0.10744795855E-01  0.10199863838E+01  0.10197053135E+01 0.  0.
     999903    2    3    3    0    0 -0.62820506979E-01 -0.84193744258E-01  0.71648048148E-01  0.12897785008E+00  0.21606488338E-01 0.  0.
         14    1    1    2    0    0 -0.17297698557E-01 -0.12595068168E-01 -0.10744795855E-01  0.23943616174E-01  0.00000000000E+00 0. -1.
     999901    1    3    3    0    0  0.80118205536E-01  0.96788812426E-01 -0.60903252293E-01  0.89100853375E+00  0.88000000000E+00 0.  1.
        -11    1    4    4    0    0 -0.72198965088E-02 -0.13045970738E-02  0.36957906145E-02  0.82309700758E-02  0.51100000000E-03 0.  1.
         11    1    4    4    0    0 -0.55600610471E-01 -0.82889147184E-01  0.67952257534E-01  0.12074688000E+00  0.51100000000E-03 0. -1.
</event>
<event>
 8    1  0.1112171E+005  0.1043930E+01  0.7957747E-01            NaN
         13   -1    0    0    0    0  0.00000000000E+00  0.00000000000E+00  0.74505805969E-08  0.10566000000E+00  0.10566000000E+00 0.  1.
     999900   -1    0    0    0    0 -0.00000000000E+00 -0.00000000000E+00 -0.74505805969E-08  0.93827000000E+00  0.93827000000E+00 0.  1.
     999902    2    1    2    0    0 -0.93197530421E-02  0.52897356996E-02  0.21154877161E-01  0.10202157020E+01  0.10199400525E+01 0.  0.
     999903    2    3    3    0    0  0.12686509772E+00  0.27220865517E-03  0.18225231233E-01  0.12972141683E+00  0.20016488503E-01 0.  0.
         14    1    1    2    0    0  0.93197530421E-02 -0.52897356996E-02 -0.21154877161E-01  0.23714297970E-01  0.00000000000E+00 0. -1.
     999901    1    3    3    0    0 -0.13618485076E+00  0.50175270445E-02  0.29296459277E-02  0.89049428520E+00  0.88000000000E+00 0. -1.
        -11    1    4    4    0    0  0.43091349226E-01  0.95667654752E-02  0.59264701067E-02  0.44539550388E-01  0.51100000000E-03 0. -1.
         11    1    4    4    0    0  0.83773748496E-01 -0.92945568200E-02  0.12298761127E-01  0.85181866438E-01  0.51100000000E-03 0.  1.
</event>
<event>
 8    1  0.1112171E+005  0.1043930E+01  0.7957747E-01            NaN
         13   -1    0    0    0    0  0.00000000000E+00  0.00000000000E+00  0.74505805969E-08  0.10566000000E+00  0.10566000000E+00 0.  1.
     999900   -1    0    0    0    0 -0.00000000000E+00 -0.00000000000E+00 -0.74505805969E-08  0.93827000000E+00  0.93827000000E+00 0. -1.
     999902    2    1    2    0    0  0.17747181944E-01 -0.74815233064E-02  0.13452366510E-01  0.10204374092E+01  0.10201669492E+01 0.  0.
     999903    2    3    3    0    0  0.46376960852E-01 -0.11748922346E+00  0.35476208898E-01  0.13285281719E+00  0.20899031342E-01 0.  0.
         14    1    1    2    0    0 -0.17747181944E-01  0.74815233064E-02 -0.13452366510E-01  0.23492590803E-01  0.00000000000E+00 0. -1.
     999901    1    3    3    0    0 -0.28629778908E-01  0.11000770015E+00 -0.22023842389E-01  0.88758459201E+00  0.88000000000E+00 0. -1.
        -11    1    4    4    0    0  0.36553972943E-01 -0.10204284010E+00  0.36856715397E-01  0.11448848302E+00  0.51100000000E-03 0.  1.
         11    1    4    4    0    0  0.98229879094E-02 -0.15446383360E-01 -0.13805064985E-02  0.18364334171E-01  0.51100000000E-03 0. -1.
</event>
<event>
 8    1  0.1112171E+005  0.1043930E+01  0.7957747E-01            NaN
         13   -1    0    0    0    0  0.00000000000E+00  0.00000000000E+00  0.74505805969E-08  0.10566000000E+00  0.10566000000E+00 0. -1.
     999900   -1    0    0    0    0 -0.00000000000E+00 -0.00000000000E+00 -0.74505805969E-08  0.93827000000E+00  0.93827000000E+00 0. -1.
     999902    2    1    2    0    0  0.18424032936E-01  0.68552350032E-02  0.11573861586E-01  0.10211178649E+01  0.10208630175E+01 0.  0.
     999903    2    3    3    0    0 -0.11410836742E+00 -0.54730716395E-01  0.16473693215E-01  0.12905190605E+00  0.19153095206E-01 0.  0.
         14    1    1    2    0    0 -0.18424032936E-01 -0.68552350032E-02 -0.11573861586E-01  0.22812135117E-01  0.00000000000E+00 0.  1.
     999901    1    3    3    0    0  0.13253240035E+00  0.61585951398E-01 -0.48998316294E-02  0.89206595883E+00  0.88000000000E+00 0. -1.
        -11    1    4    4    0    0 -0.21151745101E-01 -0.29742146435E-02 -0.14644391323E-03  0.21366441922E-01  0.51100000000E-03 0.  1.
         11    1    4    4    0    0 -0.92956622317E-01 -0.51756501751E-01  0.16620137128E-01  0.10768546413E+00  0.51100000000E-03 0. -1.
</event>
<event>
 8    1  0.1112171E+005  0.1043930E+01  0.7957747E-01            NaN
         13   -1    0    0    0    0  0.00000000000E+00  0.00000000000E+00  0.74505805969E-08  0.10566000000E+00  0.10566000000E+00 0.  1.
     999900   -1    0    0    0    0 -0.00000000000E+00 -0.00000000000E+00 -0.74505805969E-08  0.93827000000E+00  0.93827000000E+00 0. -1.
     999902    2    1    2    0    0  0.11803690793E-01 -0.41567193410E-02 -0.19315282536E-01  0.10209151011E+01  0.10206556511E+01 0.  0.
     999903    2    3    3    0    0  0.40057583053E-01 -0.27753265231E-02  0.12137376911E+00  0.12929096508E+00  0.19293766505E-01 0.  0.
         14    1    1    2    0    0 -0.11803690793E-01  0.41567193410E-02  0.19315282536E-01  0.23014898902E-01  0.00000000000E+00 0.  1.
     999901    1    3    3    0    0 -0.28253892260E-01 -0.13813928178E-02 -0.14068905165E+00  0.89162413602E+00  0.88000000000E+00 0.  1.
        -11    1    4    4    0    0  0.38171010379E-01  0.30572576475E-02  0.10137562755E+00  0.10836813111E+00  0.51100000000E-03 0.  1.
         11    1    4    4    0    0  0.18865726739E-02 -0.58325841706E-02  0.19998141559E-01  0.20922833971E-01  0.51100000000E-03 0. -1.
</event>
<event>
 8    1  0.1112171E+005  0.1043930E+01  0.7957747E-01            NaN
         13   -1    0    0    0    0  0.00000000000E+00  0.00000000000E+00  0.74505805969E-08  0.10566000000E+00  0.10566000000E+00 0.  1.
     999900   -1    0    0    0    0 -0.00000000000E+00 -0.00000000000E+00 -0.74505805969E-08  0.93827000000E+00  0.93827000000E+00 0.  1.
     999902    2    1    2    0    0  0.10542908027E-01  0.46493866225E-02 -0.20435698462E-01  0.10204696616E+01  0.10201999524E+01 0.  0.
     999903    2    3    3    0    0  0.11379004504E+00 -0.55269753861E-01  0.27988836638E-01  0.13109054656E+00  0.19960871202E-01 0.  0.
         14    1    1    2    0    0 -0.10542908027E-01 -0.46493866225E-02  0.20435698462E-01  0.23460338388E-01  0.00000000000E+00 0.  1.
     999901    1    3    3    0    0 -0.10324713701E+00  0.59919140483E-01 -0.48424535100E-01  0.88937911506E+00  0.88000000000E+00 0.  1.
        -11    1    4    4    0    0  0.28867689385E-01 -0.53305193844E-02  0.34553956841E-02  0.29562794315E-01  0.51100000000E-03 0.  1.
         11    1    4    4    0    0  0.84922355651E-01 -0.49939234477E-01  0.24533440954E-01  0.10152775224E+00  0.51100000000E-03 0. -1.
</event>
<event>
 8    1  0.1112171E+005  0.1043930E+01  0.7957747E-01            NaN
         13   -1    0    0    0    0  0.00000000000E+00  0.00000000000E+00  0.74505805969E-08  0.10566000000E+00  0.10566000000E+00 0. -1.
     999900   -1    0    0    0    0 -0.00000000000E+00 -0.00000000000E+00 -0.74505805969E-08  0.93827000000E+00  0.93827000000E+00 0. -1.
     999902    2    1    2    0    0  0.17270461992E-02  0.19998343337E-01  0.12712483938E-01  0.10201702931E+01  0.10198935745E+01 0.  0.
     999903    2    3    3    0    0  0.53730887132E-01  0.10336790074E+00 -0.58411690203E-01  0.13184966926E+00  0.20011961295E-01 0.  0.
         14    1    1    2    0    0 -0.17270461992E-02 -0.19998343337E-01 -0.12712483938E-01  0.23759706915E-01  0.00000000000E+00 0.  1.
     999901    1    3    3    0    0 -0.52003840933E-01 -0.83369557404E-01  0.71124174142E-01  0.88832062383E+00  0.88000000000E+00 0. -1.
        -11    1    4    4    0    0  0.32035196697E-01  0.55063772911E-01 -0.21254053089E-01  0.67158534888E-01  0.51100000000E-03 0.  1.
         11    1    4    4    0    0  0.21695690435E-01  0.48304127830E-01 -0.37157637115E-01  0.64691134368E-01  0.51100000000E-03 0. -1.
</event>
<event>
 8    1  0.1112171E+005  0.1043930E+01  0.7957747E-01            NaN
         13   -1    0    0    0    0  0.00000000000E+00  0.00000000000E+00  0.74505805969E-08  0.10566000000E+00  0.10566000000E+00 0. -1.
     999900   -1    0    0    0    0 -0.00000000000E+00 -0.00000000000E+00 -0.74505805969E-08  0.93827000000E+00  0.93827000000E+00 0. -1.
     999902    2    1    2    0    0 -0.59790664733E-02  0.21763088641E-01  0.71783117659E-02  0.10202464736E+01  0.10199715474E+01 0.  0.
     999903    2    3    3    0    0  0.46331058431E-01 -0.52216749986E-01 -0.10604690727E+00  0.12837803267E+00  0.19021481985E-01 0.  0.
         14    1    1    2    0    0  0.59790664733E-02 -0.21763088641E-01 -0.71783117659E-02  0.23683526403E-01  0.00000000000E+00 0. -1.
     999901    1    3    3    0    0 -0.52310124905E-01  0.73979838627E-01  0.11322521904E+00  0.89186844092E+00  0.88000000000E+00 0.  1.
        -11    1    4    4    0    0  0.17447468398E-01 -0.31339958376E-01 -0.62931727121E-01  0.72438046246E-01  0.51100000000E-03 0. -1.
         11    1    4    4    0    0  0.28883590033E-01 -0.20876791610E-01 -0.43115180149E-01  0.55939986427E-01  0.51100000000E-03 0.  1.
</event>
<event>
 8    1  0.1112171E+005  0.1043930E+01  0.7957747E-01            NaN
         13   -1    0    0    0    0  0.00000000000E+00  0.00000000000E+00  0.74505805969E-08  0.10566000000E+00  0.10566000000E+00 0. -1.
     999900   -1    0    0    0    0 -0.00000000000E+00 -0.00000000000E+00 -0.74505805969E-08  0.93827000000E+00  0.93827000000E+00 0. -1.
     999902    2    1    2    0    0  0.68391929770E-02  0.94305175255E-03  0.22560133541E-01  0.10203371296E+01  0.10200643286E+01 0.  0.
     999903    2    3    3    0    0  0.25828382692E-01  0.22765044192E-01 -0.12176548666E+00  0.12811144443E+00  0.20008894607E-01 0.  0.
         14    1    1    2    0    0 -0.68391929770E-02 -0.94305175255E-03 -0.22560133541E-01  0.23592870375E-01  0.00000000000E+00 0.  1.
     999901    1    3    3    0    0 -0.18989189715E-01 -0.21821992440E-01  0.14432562020E+00  0.89222568520E+00  0.88000000000E+00 0.  1.
        -11    1    4    4    0    0  0.50187179632E-02 -0.14747546871E-02 -0.39684548997E-01  0.40031075197E-01  0.51100000000E-03 0. -1.
         11    1    4    4    0    0  0.20809664729E-01  0.24239798880E-01 -0.82080937659E-01  0.88080369230E-01  0.51100000000E-03 0.  1.
</event>
<event>
 8    1  0.1112171E+005  0.1043930E+01  0.7957747E-01            NaN
         13   -1    0    0    0    0  0.00000000000E+00  0.00000000000E+00  0.74505805969E-08  0.10566000000E+00  0.10566000000E+00 0.  1.
     999900   -1    0    0    0    0 -0.00000000000E+00 -0.00000000000E+00 -0.74505805969E-08  0.93827000000E+00  0.93827000000E+00 0. -1.
     999902    2    1    2    0    0 -0.54168042907E-02  0.11377278516E-01  0.20114000318E-01  0.10201948521E+01  0.10199187120E+01 0.  0.
     999903    2    3    3    0    0 -0.32646455087E-01  0.11658334786E+00  0.51298544884E-01  0.13296193643E+00  0.19745070359E-01 0.  0.
         14    1    1    2    0    0  0.54168042907E-02 -0.11377278516E-01 -0.20114000318E-01  0.23735147860E-01  0.00000000000E+00 0.  1.
     999901    1    3    3    0    0  0.27229650797E-01 -0.10520606934E+00 -0.31184544567E-01  0.88723291572E+00  0.88000000000E+00 0.  1.
        -11    1    4    4    0    0  0.17889614599E-02  0.20388181526E-01  0.94747948275E-02  0.22559059977E-01  0.51100000000E-03 0. -1.
         11    1    4    4    0    0 -0.34435416547E-01  0.96195166331E-01  0.41823750057E-01  0.11040287645E+00  0.51100000000E-03 0.  1.
</event>
<event>
 8    1  0.1112171E+005  0.1043930E+01  0.7957747E-01            NaN
         13   -1    0    0    0    0  0.00000000000E+00  0.00000000000E+00  0.74505805969E-08  0.10566000000E+00  0.10566000000E+00 0.  1.
     999900   -1    0    0    0    0 -0.00000000000E+00 -0.00000000000E+00 -0.74505805969E-08  0.93827000000E+00  0.93827000000E+00 0.  1.
     999902    2    1    2    0    0 -0.90436626439E-03 -0.28938816205E-02  0.23491060690E-01  0.10202440894E+01  0.10199691072E+01 0.  0.
     999903    2    3    3    0    0  0.98813548415E-01 -0.58162239743E-01  0.61576647583E-01  0.13207250357E+00  0.22461059431E-01 0.  0.
         14    1    1    2    0    0  0.90436626439E-03  0.28938816205E-02 -0.23491060690E-01  0.23685910612E-01  0.00000000000E+00 0. -1.
     999901    1    3    3    0    0 -0.99717914679E-01  0.55268358122E-01 -0.38085586894E-01  0.88817158581E+00  0.88000000000E+00 0.  1.
        -11    1    4    4    0    0  0.68674891655E-01 -0.29590049008E-01  0.45513270532E-01  0.87541593883E-01  0.51100000000E-03 0. -1.
         11    1    4    4    0    0  0.30138656760E-01 -0.28572190735E-01  0.16063377051E-01  0.44530909692E-01  0.51100000000E-03 0.  1.
</event>
<event>
 8    1  0.1112171E+005  0.1043930E+01  0.7957747E-01            NaN
         13   -1    0    0    0    0  0.00000000000E+00  0.00000000000E+00  0.74505805969E-08  0.10566000000E+00  0.10566000000E+00 0.  1.
     999900   -1    0    0    0    0 -0.00000000000E+00 -0.00000000000E+00 -0.74505805969E-08  0.93827000000E+00  0.93827000000E+00 0. -1.
     999902    2    1    2    0    0 -0.24870779778E-02 -0.49057439551E-02 -0.22860786253E-01  0.10204168669E+01  0.10201459282E+01 0.  0.
     999903    2    3    3    0    0 -0.30526665170E-01  0.32654619191E-01 -0.12397730832E+00  0.13338724485E+00  0.20581124109E-01 0.  0.
         14    1    1    2    0    0  0.24870779778E-02  0.49057439551E-02  0.22860786253E-01  0.23513133112E-01  0.00000000000E+00 0.  1.
     999901    1    3    3    0    0  0.28039587193E-01 -0.37560363146E-01  0.10111652207E+00  0.88702962203E+00  0.88000000000E+00 0.  1.
        -11    1    4    4    0    0 -0.27134719831E-01  0.33564520485E-01 -0.96907357439E-01  0.10608565927E+00  0.51100000000E-03 0. -1.
         11    1    4    4    0    0 -0.33919453390E-02 -0.90990129423E-03 -0.27069950885E-01  0.27301585585E-01  0.51100000000E-03 0.  1.
</event>
<event>
 8    1  0.1112171E+005  0.1043930E+01  0.7957747E-01            NaN
         13   -1    0    0    0    0  0.00000000000E+00  0.00000000000E+00  0.74505805969E-08  0.10566000000E+00  0.10566000000E+00 0.  1.
     999900   -1    0    0    0    0 -0.00000000000E+00 -0.00000000000E+00 -0.74505805969E-08  0.93827000000E+00  0.93827000000E+00 0.  1.
     999902    2    1    2    0    0  0.16002522620E-01 -0.12933085411E-01 -0.11238748411E-01  0.10204852800E+01  0.10202159339E+01 0.  0.
     999903    2    3    3    0    0  0.84961859979E-01  0.11371152647E-01 -0.99776247185E-01  0.13302543594E+00  0.19815305704E-01 0.  0.
         14    1    1    2    0    0 -0.16002522620E-01  0.12933085411E-01  0.11238748411E-01  0.23444719966E-01  0.00000000000E+00 0.  1.
     999901    1    3    3    0    0 -0.68959337359E-01 -0.24304238058E-01  0.88537498774E-01  0.88745984410E+00  0.88000000000E+00 0. -1.
        -11    1    4    4    0    0  0.58346149071E-01  0.16825645059E-01 -0.66269251967E-01  0.89884650082E-01  0.51100000000E-03 0.  1.
         11    1    4    4    0    0  0.26615710908E-01 -0.54544924119E-02 -0.33506995218E-01  0.43140785854E-01  0.51100000000E-03 0. -1.
</event>
<event>
 8    1  0.1112171E+005  0.1043930E+01  0.7957747E-01            NaN
         13   -1    0    0    0    0  0.00000000000E+00  0.00000000000E+00  0.74505805969E-08  0.10566000000E+00  0.10566000000E+00 0. -1.
     999900   -1    0    0    0    0 -0.00000000000E+00 -0.00000000000E+00 -0.74505805969E-08  0.93827000000E+00  0.93827000000E+00 0.  1.
     999902    2    1    2    0    0  0.53685168350E-04  0.92176544069E-02 -0.22120998803E-01  0.10199653047E+01  0.10196837334E+01 0.  0.
     999903    2    3    3    0    0 -0.12314979819E-01  0.85624144505E-01  0.93555638393E-01  0.12902646276E+00  0.20298220799E-01 0.  0.
         14    1    1    2    0    0 -0.53685168350E-04 -0.92176544069E-02  0.22120998803E-01  0.23964695344E-01  0.00000000000E+00 0. -1.
     999901    1    3    3    0    0  0.12368664987E-01 -0.76406490098E-01 -0.11567663720E+00  0.89093884189E+00  0.88000000000E+00 0.  1.
        -11    1    4    4    0    0 -0.51499819773E-03  0.63890529359E-01  0.63227028631E-01  0.89889839445E-01  0.51100000000E-03 0. -1.
         11    1    4    4    0    0 -0.11799981621E-01  0.21733615146E-01  0.30328609761E-01  0.39136623317E-01  0.51100000000E-03 0.  1.
</event>
<event>
 8    1  0.1112171E+005  0.1043930E+01  0.7957747E-01            NaN
         13   -1    0    0    0    0  0.00000000000E+00  0.00000000000E+00  0.74505805969E-08  0.10566000000E+00  0.10566000000E+00 0.  1.
     999900   -1    0    0    0    0 -0.00000000000E+00 -0.00000000000E+00 -0.74505805969E-08  0.93827000000E+00  0.93827000000E+00 0. -1.
     999902    2    1    2    0    0  0.24153978554E-01 -0.46166314129E-02 -0.19763622241E-03  0.10193379886E+01  0.10190412984E+01 0.  0.
     999903    2    3    3    0    0 -0.75412977869E-01  0.13692763176E-01 -0.10041903865E+00  0.12788235747E+00  0.19882279393E-01 0.  0.
         14    1    1    2    0    0 -0.24153978554E-01  0.46166314129E-02  0.19763622241E-03  0.24592011419E-01  0.00000000000E+00 0. -1.
     999901    1    3    3    0    0  0.99566956423E-01 -0.18309394588E-01  0.10022140242E+00  0.89145563111E+00  0.88000000000E+00 0.  1.
        -11    1    4    4    0    0 -0.17177841794E-01  0.10327406299E-01 -0.18249697493E-01  0.27111734529E-01  0.51100000000E-03 0. -1.
         11    1    4    4    0    0 -0.58235136075E-01  0.33653568769E-02 -0.82169341154E-01  0.10077062294E+00  0.51100000000E-03 0.  1.
</event>
<event>
 8    1  0.1112171E+005  0.1043930E+01  0.7957747E-01            NaN
         13   -1    0    0    0    0  0.00000000000E+00  0.00000000000E+00  0.74505805969E-08  0.10566000000E+00  0.10566000000E+00 0. -1.
     999900   -1    0    0    0    0 -0.00000000000E+00 -0.00000000000E+00 -0.74505805969E-08  0.93827000000E+00  0.93827000000E+00 0. -1.
     999902    2    1    2    0    0 -0.22269658519E-01 -0.66799342914E-02 -0.24003660124E-02  0.10205564900E+01  0.10202887965E+01 0.  0.
     999903    2    3    3    0    0 -0.34645985903E-01 -0.87759678389E-01 -0.90686034375E-01  0.13234398298E+00  0.19719723918E-01 0.  0.
         14    1    1    2    0    0  0.22269658519E-01  0.66799342914E-02  0.24003660124E-02  0.23373509999E-01  0.00000000000E+00 0. -1.
     999901    1    3    3    0    0  0.12376327384E-01  0.81079744098E-01  0.88285668362E-01  0.88821250702E+00  0.88000000000E+00 0.  1.
        -11    1    4    4    0    0 -0.27402206056E-01 -0.64585939624E-01 -0.54857932308E-01  0.89061093369E-01  0.51100000000E-03 0. -1.
         11    1    4    4    0    0 -0.72437798466E-02 -0.23173738766E-01 -0.35828102066E-01  0.43282889616E-01  0.51100000000E-03 0.  1.
</event>
<event>
 8    1  0.1112171E+005  0.1043930E+01  0.7957747E-01            NaN
         13   -1    0    0    0    0  0.00000000000E+00  0.00000000000E+00  0.74505805969E-08  0.10566000000E+00  0.10566000000E+00 0.  1.
     999900   -1    0    0    0    0 -0.00000000000E+00 -0.00000000000E+00 -0.74505805969E-08  0.93827000000E+00  0.93827000000E+00 0.  1.
     999902    2    1    2    0    0  0.17882672119E-01 -0.64589739504E-02 -0.14486529922E-01  0.10200266978E+01  0.10197465844E+01 0.  0.
     999903    2    3    3    0    0 -0.64723612091E-01 -0.65986184475E-02 -0.11178258121E+00  0.13081899469E+00  0.19636093850E-01 0.  0.
         14    1    1    2    0    0 -0.17882672119E-01  0.64589739504E-02  0.14486529922E-01  0.23903302194E-01  0.00000000000E+00 0.  1.
     999901    1    3    3    0    0  0.82606284210E-01  0.13964449711E-03  0.97296051286E-01  0.88920770312E+00  0.88000000000E+00 0. -1.
        -11    1    4    4    0    0 -0.21143818639E-01  0.67365629662E-02 -0.32202463197E-01  0.39111406318E-01  0.51100000000E-03 0. -1.
         11    1    4    4    0    0 -0.43579793453E-01 -0.13335181414E-01 -0.79580118011E-01  0.91707588368E-01  0.51100000000E-03 0.  1.
</event>
<event>
 8    1  0.1267890E+005  0.1043930E+01  0.7957747E-01            NaN
         13   -1    0    0    0    0  0.00000000000E+00  0.00000000000E+00  0.74505805969E-08  0.10566000000E+00  0.10566000000E+00 0.  1.
     999900   -1    0    0    0    0 -0.00000000000E+00 -0.00000000000E+00 -0.74505805969E-08  0.93827000000E+00  0.93827000000E+00 0.  1.
     999902    2    1    2    0    0 -0.13566550636E-01 -0.11851849265E-01 -0.16465302158E-01  0.10195245948E+01  0.10192324444E+01 0.  0.
     999903    2    3    3    0    0  0.61311586758E-01  0.68141828466E-01  0.85425179256E-01  0.12689511169E+00  0.20062120093E-01 0.  0.
         14    1    1    2    0    0  0.13566550636E-01  0.11851849265E-01  0.16465302158E-01  0.24405405187E-01  0.00000000000E+00 0. -1.
     999901    1    3    3    0    0 -0.74878137394E-01 -0.79993677731E-01 -0.10189048141E+00  0.89262948312E+00  0.88000000000E+00 0.  1.
        -11    1    4    4    0    0  0.31994703897E-01  0.31935250796E-01  0.55240785779E-01  0.71381558230E-01  0.51100000000E-03 0. -1.
         11    1    4    4    0    0  0.29316882861E-01  0.36206577670E-01  0.30184393477E-01  0.55513553461E-01  0.51100000000E-03 0.  1.
</event>
<event>
 8    1  0.1112171E+005  0.1043930E+01  0.7957747E-01            NaN
         13   -1    0    0    0    0  0.00000000000E+00  0.00000000000E+00  0.74505805969E-08  0.10566000000E+00  0.10566000000E+00 0.  1.
     999900   -1    0    0    0    0 -0.00000000000E+00 -0.00000000000E+00 -0.74505805969E-08  0.93827000000E+00  0.93827000000E+00 0.  1.
     999902    2    1    2    0    0 -0.68398249276E-02  0.19303777803E-01 -0.11934018247E-01  0.10202268392E+01  0.10199514515E+01 0.  0.
     999903    2    3    3    0    0  0.70260817471E-01  0.37716544517E-01  0.10024758191E+00  0.12957076050E+00  0.19490615581E-01 0.  0.
         14    1    1    2    0    0  0.68398249276E-02 -0.19303777803E-01  0.11934018247E-01  0.23703160845E-01  0.00000000000E+00 0.  1.
     999901    1    3    3    0    0 -0.77100642399E-01 -0.18412766714E-01 -0.11218160015E+00  0.89065607866E+00  0.88000000000E+00 0. -1.
        -11    1    4    4    0    0  0.24595657266E-01  0.52346765448E-02  0.40324849285E-01  0.47525811784E-01  0.51100000000E-03 0. -1.
         11    1    4    4    0    0  0.45665160205E-01  0.32481867973E-01  0.59922732622E-01  0.82044948714E-01  0.51100000000E-03 0.  1.
</event>
<event>
 8    1  0.1112171E+005  0.1043930E+01  0.7957747E-01            NaN
         13   -1    0    0    0    0  0.00000000000E+00  0.00000000000E+00  0.74505805969E-08  0.10566000000E+00  0.10566000000E+00 0. -1.
     999900   -1    0    0    0    0 -0.00000000000E+00 -0.00000000000E+00 -0.74505805969E-08  0.93827000000E+00  0.93827000000E+00 0.  1.
     999902    2    1    2    0    0 -0.15616724480E-01  0.10283312312E-01  0.14543613627E-01  0.10202414945E+01  0.10199664513E+01 0.  0.
     999903    2    3    3    0    0 -0.11965885458E+00  0.11177820228E-01 -0.49926944870E-01  0.13176976288E+00  0.20673302575E-01 0.  0.
         14    1    1    2    0    0  0.15616724480E-01 -0.10283312312E-01 -0.14543613627E-01  0.23688505502E-01  0.00000000000E+00 0.  1.
     999901    1    3    3    0    0  0.10404213010E+00 -0.89450791601E-03  0.64470558496E-01  0.88847173162E+00  0.88000000000E+00 0.  1.
        -11    1    4    4    0    0 -0.88514125477E-01  0.11873072014E-01 -0.27728463473E-01  0.93513897660E-01  0.51100000000E-03 0.  1.
         11    1    4    4    0    0 -0.31144729104E-01 -0.69525178654E-03 -0.22198481396E-01  0.38255865215E-01  0.51100000000E-03 0. -1.
</event>
<event>
 8    1  0.1112171E+005  0.1043930E+01  0.7957747E-01            NaN
         13   -1    0    0    0    0  0.00000000000E+00  0.00000000000E+00  0.74505805969E-08  0.10566000000E+00  0.10566000000E+00 0.  1.
     999900   -1    0    0    0    0 -0.00000000000E+00 -0.00000000000E+00 -0.74505805969E-08  0.93827000000E+00  0.93827000000E+00 0.  1.
     999902    2    1    2    0    0 -0.55139557278E-02 -0.72220594319E-02  0.21631508352E-01  0.10204676045E+01  0.10201978474E+01 0.  0.
     999903    2    3    3    0    0 -0.49759520842E-01 -0.10863031387E-01  0.12180932440E+00  0.13367195635E+00  0.20896531735E-01 0.  0.
         14    1    1    2    0    0  0.55139557278E-02  0.72220594319E-02 -0.21631508352E-01  0.23462395526E-01  0.00000000000E+00 0. -1.
     999901    1    3    3    0    0  0.44245565114E-01  0.36409719556E-02 -0.10017781604E+00  0.88679564813E+00  0.88000000000E+00 0.  1.
        -11    1    4    4    0    0 -0.12193587472E-01 -0.12030004496E-01  0.31656442897E-01  0.35997167687E-01  0.51100000000E-03 0.  1.
         11    1    4    4    0    0 -0.37565933369E-01  0.11669731089E-02  0.90152881500E-01  0.97674788660E-01  0.51100000000E-03 0. -1.
</event>
<event>
 8    1  0.1112171E+005  0.1043930E+01  0.7957747E-01            NaN
         13   -1    0    0    0    0  0.00000000000E+00  0.00000000000E+00  0.74505805969E-08  0.10566000000E+00  0.10566000000E+00 0. -1.
     999900   -1    0    0    0    0 -0.00000000000E+00 -0.00000000000E+00 -0.74505805969E-08  0.93827000000E+00  0.93827000000E+00 0.  1.
     999902    2    1    2    0    0 -0.13284094099E-01  0.16714018119E-01 -0.74149947140E-02  0.10213289446E+01  0.10210788439E+01 0.  0.
     999903    2    3    3    0    0 -0.47755170992E-01  0.94113596915E-01  0.78892076678E-01  0.13305654242E+00  0.18497519756E-01 0.  0.
         14    1    1    2    0    0  0.13284094099E-01 -0.16714018119E-01  0.74149947140E-02  0.22601055381E-01  0.00000000000E+00 0. -1.
     999901    1    3    3    0    0  0.34471076893E-01 -0.77399578796E-01 -0.86307071392E-01  0.88827240220E+00  0.88000000000E+00 0.  1.
        -11    1    4    4    0    0 -0.39210514274E-01  0.58808098709E-01  0.55223610924E-01  0.89698189658E-01  0.51100000000E-03 0.  1.
         11    1    4    4    0    0 -0.85446567181E-02  0.35305498205E-01  0.23668465753E-01  0.43358352760E-01  0.51100000000E-03 0. -1.
</event>
<event>
 8    1  0.1112171E+005  0.1043930E+01  0.7957747E-01            NaN
         13   -1    0    0    0    0  0.00000000000E+00  0.00000000000E+00  0.74505805969E-08  0.10566000000E+00  0.10566000000E+00 0. -1.
     999900   -1    0    0    0    0 -0.00000000000E+00 -0.00000000000E+00 -0.74505805969E-08  0.93827000000E+00  0.93827000000E+00 0. -1.
     999902    2    1    2    0    0 -0.23149712477E-01 -0.26793763530E-02 -0.24940194826E-01  0.10097964159E+01  0.10092193518E+01 0.  0.
     999903    2    3    3    0    0  0.58942005167E-01  0.16881137494E-01 -0.10390322903E+00  0.12223975598E+00  0.19686141391E-01 0.  0.
         14    1    1    2    0    0  0.23149712477E-01  0.26793763530E-02  0.24940194826E-01  0.34133584098E-01  0.00000000000E+00 0. -1.
     999901    1    3    3    0    0 -0.82091717644E-01 -0.19560513847E-01  0.78963034201E-01  0.88755665993E+00  0.88000000000E+00 0.  1.
        -11    1    4    4    0    0  0.33767205787E-01  0.16374160382E-01 -0.75258454545E-01  0.84097761067E-01  0.51100000000E-03 0.  1.
         11    1    4    4    0    0  0.25174799381E-01  0.50697711226E-03 -0.28644774481E-01  0.38141994910E-01  0.51100000000E-03 0. -1.
</event>
<event>
 8    1  0.1112171E+005  0.1043930E+01  0.7957747E-01            NaN
         13   -1    0    0    0    0  0.00000000000E+00  0.00000000000E+00  0.74505805969E-08  0.10566000000E+00  0.10566000000E+00 0. -1.
     999900   -1    0    0    0    0 -0.00000000000E+00 -0.00000000000E+00 -0.74505805969E-08  0.93827000000E+00  0.93827000000E+00 0. -1.
     999902    2    1    2    0    0 -0.12108506302E-01  0.17342189470E-01  0.10384369199E-01  0.10203672628E+01  0.10200951664E+01 0.  0.
     999903    2    3    3    0    0 -0.52165187839E-01  0.68566033677E-01  0.10033400642E+00  0.13339524679E+00  0.17460562026E-01 0.  0.
         14    1    1    2    0    0  0.12108506302E-01 -0.17342189470E-01 -0.10384369199E-01  0.23562737196E-01  0.00000000000E+00 0.  1.
     999901    1    3    3    0    0  0.40056681537E-01 -0.51223844207E-01 -0.89949637221E-01  0.88697201601E+00  0.88000000000E+00 0. -1.
        -11    1    4    4    0    0 -0.14449845046E-01  0.10056951441E-01  0.27393924090E-01  0.32567291754E-01  0.51100000000E-03 0. -1.
         11    1    4    4    0    0 -0.37715342793E-01  0.58509082236E-01  0.72940082330E-01  0.10082795504E+00  0.51100000000E-03 0.  1.
</event>
<event>
 8    1  0.1112171E+005  0.1043930E+01  0.7957747E-01            NaN
         13   -1    0    0    0    0  0.00000000000E+00  0.00000000000E+00  0.74505805969E-08  0.10566000000E+00  0.10566000000E+00 0. -1.
     999900   -1    0    0    0    0 -0.00000000000E+00 -0.00000000000E+00 -0.74505805969E-08  0.93827000000E+00  0.93827000000E+00 0.  1.
     999902    2    1    2    0    0  0.20305154846E-01 -0.10072214823E-01  0.73131304119E-02  0.10201133944E+01  0.10198353332E+01 0.  0.
     999903    2    3    3    0    0  0.53582505357E-01  0.39565916700E-01  0.11225008621E+00  0.13186619299E+00  0.18763378022E-01 0.  0.
         14    1    1    2    0    0 -0.20305154846E-01  0.10072214823E-01 -0.73131304119E-02  0.23816605576E-01  0.00000000000E+00 0. -1.
     999901    1    3    3    0    0 -0.33277350512E-01 -0.49638131523E-01 -0.10493695580E+00  0.88824720143E+00  0.88000000000E+00 0.  1.
        -11    1    4    4    0    0  0.54057652981E-01  0.34621865646E-01  0.10354196881E+00  0.12182817348E+00  0.51100000000E-03 0. -1.
         11    1    4    4    0    0 -0.47514762399E-03  0.49440510543E-02  0.87081174001E-02  0.10038019513E-01  0.51100000000E-03 0.  1.
</event>
<event>
 8    1  0.1112171E+005  0.1043930E+01  0.7957747E-01            NaN
         13   -1    0    0    0    0  0.00000000000E+00  0.00000000000E+00  0.74505805969E-08  0.10566000000E+00  0.10566000000E+00 0.  1.
     999900   -1    0    0    0    0 -0.00000000000E+00 -0.00000000000E+00 -0.74505805969E-08  0.93827000000E+00  0.93827000000E+00 0. -1.
     999902    2    1    2    0    0 -0.19809956085E-01  0.58722055280E-02 -0.10488463863E-01  0.10207583572E+01  0.10204953203E+01 0.  0.
     999903    2    3    3    0    0 -0.11806381154E+00 -0.24856750462E-01 -0.54069669294E-01  0.13368597549E+00  0.19786087713E-01 0.  0.
         14    1    1    2    0    0  0.19809956085E-01 -0.58722055280E-02  0.10488463863E-01  0.23171642843E-01  0.00000000000E+00 0.  1.
     999901    1    3    3    0    0  0.98253855452E-01  0.30728955990E-01  0.43581205431E-01  0.88707238167E+00  0.88000000000E+00 0.  1.
        -11    1    4    4    0    0 -0.62857459157E-01 -0.18458251941E-01 -0.38412570505E-01  0.75944413423E-01  0.51100000000E-03 0. -1.
         11    1    4    4    0    0 -0.55206352381E-01 -0.63984985206E-02 -0.15657098790E-01  0.57741562068E-01  0.51100000000E-03 0.  1.
</event>
<event>
 8    1  0.1112171E+005  0.1043930E+01  0.7957747E-01            NaN
         13   -1    0    0    0    0  0.00000000000E+00  0.00000000000E+00  0.74505805969E-08  0.10566000000E+00  0.10566000000E+00 0. -1.
     999900   -1    0    0    0    0 -0.00000000000E+00 -0.00000000000E+00 -0.74505805969E-08  0.93827000000E+00  0.93827000000E+00 0.  1.
     999902    2    1    2    0    0 -0.21793517248E-01 -0.38261717000E-02 -0.91856231532E-02  0.10199722736E+01  0.10196908679E+01 0.  0.
     999903    2    3    3    0    0  0.17109704841E-01  0.19151053894E-01  0.12230287182E+00  0.12905665583E+00  0.32219917681E-01 0.  0.
         14    1    1    2    0    0  0.21793517248E-01  0.38261717000E-02  0.91856231532E-02  0.23957726449E-01  0.00000000000E+00 0. -1.
     999901    1    3    3    0    0 -0.38903222088E-01 -0.22977225594E-01 -0.13148849497E+00  0.89091561772E+00  0.88000000000E+00 0.  1.
        -11    1    4    4    0    0 -0.19225833037E-02 -0.78374333118E-02  0.27567425383E-01  0.28728831350E-01  0.51100000000E-03 0. -1.
         11    1    4    4    0    0  0.19032288144E-01  0.26988487206E-01  0.94735446433E-01  0.10032782448E+00  0.51100000000E-03 0.  1.
</event>
<event>
 8    1  0.1112171E+005  0.1043930E+01  0.7957747E-01            NaN
         13   -1    0    0    0    0  0.00000000000E+00  0.00000000000E+00  0.74505805969E-08  0.10566000000E+00  0.10566000000E+00 0. -1.
     999900   -1    0    0    0    0 -0.00000000000E+00 -0.00000000000E+00 -0.74505805969E-08  0.93827000000E+00  0.93827000000E+00 0. -1.
     999902    2    1    2    0    0  0.13781646262E-02 -0.22396991813E-01  0.58678847470E-02  0.10207361075E+01  0.10204725594E+01 0.  0.
     999903    2    3    3    0    0  0.77694633709E-01  0.46267088564E-01  0.91974928168E-01  0.13059376922E+00  0.20451052706E-01 0.  0.
         14    1    1    2    0    0 -0.13781646262E-02  0.22396991813E-01 -0.58678847470E-02  0.23193892545E-01  0.00000000000E+00 0.  1.
     999901    1    3    3    0    0 -0.76316469083E-01 -0.68664080377E-01 -0.86107043421E-01  0.89014233823E+00  0.88000000000E+00 0. -1.
        -11    1    4    4    0    0  0.37516429596E-01  0.33827043493E-01  0.53624630821E-01  0.73672338858E-01  0.51100000000E-03 0. -1.
         11    1    4    4    0    0  0.40178204113E-01  0.12440045072E-01  0.38350297347E-01  0.56921430364E-01  0.51100000000E-03 0.  1.
</event>
<event>
 8    1  0.1112171E+005  0.1043930E+01  0.7957747E-01            NaN
         13   -1    0    0    0    0  0.00000000000E+00  0.00000000000E+00  0.74505805969E-08  0.10566000000E+00  0.10566000000E+00 0. -1.
     999900   -1    0    0    0    0 -0.00000000000E+00 -0.00000000000E+00 -0.74505805969E-08  0.93827000000E+00  0.93827000000E+00 0.  1.
     999902    2    1    2    0    0 -0.78274861295E-02  0.21523847448E-01  0.48259619869E-02  0.10205241149E+01  0.10202556707E+01 0.  0.
     999903    2    3    3    0    0  0.24208041723E-01  0.32012083276E-01  0.12413867366E+00  0.13183305424E+00  0.18940462867E-01 0.  0.
         14    1    1    2    0    0  0.78274861295E-02 -0.21523847448E-01 -0.48259619869E-02  0.23405885097E-01  0.00000000000E+00 0.  1.
     999901    1    3    3    0    0 -0.32035527853E-01 -0.10488235828E-01 -0.11931271167E+00  0.88869106066E+00  0.88000000000E+00 0.  1.
        -11    1    4    4    0    0  0.17912648204E-03  0.14140966344E-01  0.33229524537E-01  0.36117328769E-01  0.51100000000E-03 0.  1.
         11    1    4    4    0    0  0.24028915241E-01  0.17871116932E-01  0.90909149119E-01  0.95715725472E-01  0.51100000000E-03 0. -1.
</event>
<event>
 8    1  0.1112171E+005  0.1043930E+01  0.7957747E-01            NaN
         13   -1    0    0    0    0  0.00000000000E+00  0.00000000000E+00  0.74505805969E-08  0.10566000000E+00  0.10566000000E+00 0.  1.
     999900   -1    0    0    0    0 -0.00000000000E+00 -0.00000000000E+00 -0.74505805969E-08  0.93827000000E+00  0.93827000000E+00 0.  1.
     999902    2    1    2    0    0 -0.10081299840E-02  0.96006186156E-02 -0.21556597909E-01  0.10203106199E+01  0.10200371983E+01 0.  0.
     999903    2    3    3    0    0  0.12079653355E+00  0.15652787971E-01 -0.45420011113E-01  0.13157980163E+00  0.20333580579E-01 0.  0.
         14    1    1    2    0    0  0.10081299840E-02 -0.96006186156E-02  0.21556597909E-01  0.23619380121E-01  0.00000000000E+00 0.  1.
     999901    1    3    3    0    0 -0.12180466353E+00 -0.60521693553E-02  0.23863413204E-01  0.88873081825E+00  0.88000000000E+00 0. -1.
        -11    1    4    4    0    0  0.93170103830E-02  0.28447928907E-02 -0.98502757958E-02  0.13863209705E-01  0.51100000000E-03 0.  1.
         11    1    4    4    0    0  0.11147952317E+00  0.12807995080E-01 -0.35569735318E-01  0.11771659193E+00  0.51100000000E-03 0. -1.
</event>
<event>
 8    1  0.1112171E+005  0.1043930E+01  0.7957747E-01            NaN
         13   -1    0    0    0    0  0.00000000000E+00  0.00000000000E+00  0.74505805969E-08  0.10566000000E+00  0.10566000000E+00 0. -1.
     999900   -1    0    0    0    0 -0.00000000000E+00 -0.00000000000E+00 -0.74505805969E-08  0.93827000000E+00  0.93827000000E+00 0. -1.
     999902    2    1    2    0    0  0.23299687588E-01 -0.96141639389E-02  0.38133608784E-02  0.10184378579E+01  0.10181187657E+01 0.  0.
     999903    2    3    3    0    0  0.58736917215E-01  0.80230729438E-01  0.80963312169E-01  0.12979843880E+00  0.20139051819E-01 0.  0.
         14    1    1    2    0    0 -0.23299687588E-01  0.96141639389E-02 -0.38133608784E-02  0.25492142145E-01  0.00000000000E+00 0. -1.
     999901    1    3    3    0    0 -0.35437229626E-01 -0.89844893377E-01 -0.77149951290E-01  0.88863941905E+00  0.88000000000E+00 0. -1.
        -11    1    4    4    0    0  0.39734406912E-01  0.66749964854E-01  0.56839968606E-01  0.96257072742E-01  0.51100000000E-03 0.  1.
         11    1    4    4    0    0  0.19002510303E-01  0.13480764584E-01  0.24123343562E-01  0.33541366061E-01  0.51100000000E-03 0. -1.
</event>
<event>
 8    1  0.1112171E+005  0.1043930E+01  0.7957747E-01            NaN
         13   -1    0    0    0    0  0.00000000000E+00  0.00000000000E+00  0.74505805969E-08  0.10566000000E+00  0.10566000000E+00 0. -1.
     999900   -1    0    0    0    0 -0.00000000000E+00 -0.00000000000E+00 -0.74505805969E-08  0.93827000000E+00  0.93827000000E+00 0. -1.
     999902    2    1    2    0    0 -0.95028570690E-03 -0.77266641270E-02 -0.22829548806E-01  0.10198096211E+01  0.10195243354E+01 0.  0.
     999903    2    3    3    0    0 -0.69687957508E-01 -0.39831154148E-01  0.98035240604E-01  0.12831432487E+00  0.20266358959E-01 0.  0.
         14    1    1    2    0    0  0.95028570690E-03  0.77266641270E-02  0.22829548806E-01  0.24120378939E-01  0.00000000000E+00 0. -1.
     999901    1    3    3    0    0  0.68737671801E-01  0.32104490021E-01 -0.12086478941E+00  0.89149529619E+00  0.88000000000E+00 0. -1.
        -11    1    4    4    0    0 -0.54855899832E-01 -0.22656011430E-01  0.62876475233E-01  0.86464888013E-01  0.51100000000E-03 0. -1.
         11    1    4    4    0    0 -0.14832057675E-01 -0.17175142718E-01  0.35158765370E-01  0.41849436861E-01  0.51100000000E-03 0.  1.
</event>
<event>
 8    1  0.1112171E+005  0.1043930E+01  0.7957747E-01            NaN
         13   -1    0    0    0    0  0.00000000000E+00  0.00000000000E+00  0.74505805969E-08  0.10566000000E+00  0.10566000000E+00 0.  1.
     999900   -1    0    0    0    0 -0.00000000000E+00 -0.00000000000E+00 -0.74505805969E-08  0.93827000000E+00  0.93827000000E+00 0. -1.
     999902    2    1    2    0    0 -0.15678019336E-01 -0.26862530989E-02  0.17900366229E-01  0.10199834061E+01  0.10197022651E+01 0.  0.
     999903    2    3    3    0    0  0.46326911335E-01 -0.92580064380E-01 -0.73602148954E-01  0.12852492758E+00  0.19599225577E-01 0.  0.
         14    1    1    2    0    0  0.15678019336E-01  0.26862530989E-02 -0.17900366229E-01  0.23946593852E-01  0.00000000000E+00 0. -1.
     999901    1    3    3    0    0 -0.62004930671E-01  0.89893811281E-01  0.91502515182E-01  0.89145847857E+00  0.88000000000E+00 0.  1.
        -11    1    4    4    0    0  0.70905641686E-02 -0.34141904031E-01 -0.21788252274E-01  0.41120977241E-01  0.51100000000E-03 0.  1.
         11    1    4    4    0    0  0.39236347166E-01 -0.58438160348E-01 -0.51813896680E-01  0.87403950334E-01  0.51100000000E-03 0. -1.
</event>
<event>
 8    1  0.1112171E+005  0.1043930E+01  0.7957747E-01            NaN
         13   -1    0    0    0    0  0.00000000000E+00  0.00000000000E+00  0.74505805969E-08  0.10566000000E+00  0.10566000000E+00 0. -1.
     999900   -1    0    0    0    0 -0.00000000000E+00 -0.00000000000E+00 -0.74505805969E-08  0.93827000000E+00  0.93827000000E+00 0.  1.
     999902    2    1    2    0    0 -0.94524887850E-02  0.94108464277E-02 -0.19824191099E-01  0.10200362325E+01  0.10197563451E+01 0.  0.
     999903    2    3    3    0    0 -0.12795302356E+00  0.96281274387E-02 -0.23841917202E-01  0.13208433845E+00  0.20326297530E-01 0.  0.
         14    1    1    2    0    0  0.94524887850E-02 -0.94108464277E-02  0.19824191099E-01  0.23893767544E-01  0.00000000000E+00 0. -1.
     999901    1    3    3    0    0  0.11850053477E+00 -0.21728101100E-03  0.40177261033E-02  0.88795189401E+00  0.88000000000E+00 0. -1.
        -11    1    4    4    0    0 -0.70276421752E-01  0.12376815585E-01 -0.58371089060E-02  0.71598142292E-01  0.51100000000E-03 0. -1.
         11    1    4    4    0    0 -0.57676601806E-01 -0.27486881465E-02 -0.18004808296E-01  0.60486196154E-01  0.51100000000E-03 0.  1.
</event>
<event>
 8    1  0.1112171E+005  0.1043930E+01  0.7957747E-01            NaN
         13   -1    0    0    0    0  0.00000000000E+00  0.00000000000E+00  0.74505805969E-08  0.10566000000E+00  0.10566000000E+00 0. -1.
     999900   -1    0    0    0    0 -0.00000000000E+00 -0.00000000000E+00 -0.74505805969E-08  0.93827000000E+00  0.93827000000E+00 0.  1.
     999902    2    1    2    0    0 -0.67793369956E-02  0.14020391473E-01  0.16866973487E-01  0.10209729623E+01  0.10207148300E+01 0.  0.
     999903    2    3    3    0    0  0.12509859102E+00  0.16962330371E-01  0.29138866660E-01  0.13105665032E+00  0.19733066576E-01 0.  0.
         14    1    1    2    0    0  0.67793369956E-02 -0.14020391473E-01 -0.16866973487E-01  0.22957037739E-01  0.00000000000E+00 0.  1.
     999901    1    3    3    0    0 -0.13187792801E+00 -0.29419388977E-02 -0.12271893173E-01  0.88991631194E+00  0.88000000000E+00 0.  1.
        -11    1    4    4    0    0  0.35527814937E-01 -0.91383478171E-03  0.15214842154E-01  0.38662815094E-01  0.51100000000E-03 0. -1.
         11    1    4    4    0    0  0.89570776078E-01  0.17876165152E-01  0.13924024506E-01  0.92393835223E-01  0.51100000000E-03 0.  1.
</event>
<event>
 8    1  0.1112171E+005  0.1043930E+01  0.7957747E-01            NaN
         13   -1    0    0    0    0  0.00000000000E+00  0.00000000000E+00  0.74505805969E-08  0.10566000000E+00  0.10566000000E+00 0. -1.
     999900   -1    0    0    0    0 -0.00000000000E+00 -0.00000000000E+00 -0.74505805969E-08  0.93827000000E+00  0.93827000000E+00 0. -1.
     999902    2    1    2    0    0 -0.10471702616E-01  0.20220836123E-01  0.52130995979E-02  0.10205694526E+01  0.10203020594E+01 0.  0.
     999903    2    3    3    0    0 -0.85600359075E-01 -0.91715624142E-01 -0.26744212827E-01  0.12972976105E+00  0.19374746361E-01 0.  0.
         14    1    1    2    0    0  0.10471702616E-01 -0.20220836123E-01 -0.52130995979E-02  0.23360547438E-01  0.00000000000E+00 0. -1.
     999901    1    3    3    0    0  0.75128656459E-01  0.11193646026E+00  0.31957312425E-01  0.89083969151E+00  0.88000000000E+00 0.  1.
        -11    1    4    4    0    0 -0.20547294076E-01 -0.17561073967E-01  0.16322772052E-02  0.27083353976E-01  0.51100000000E-03 0.  1.
         11    1    4    4    0    0 -0.65053065000E-01 -0.74154550175E-01 -0.28376490032E-01  0.10264640707E+00  0.51100000000E-03 0. -1.
</event>
<event>
 8    1  0.1312565E+005  0.1043930E+01  0.7957747E-01            NaN
         13   -1    0    0    0    0  0.00000000000E+00  0.00000000000E+00  0.74505805969E-08  0.10566000000E+00  0.10566000000E+00 0.  1.
     999900   -1    0    0    0    0 -0.00000000000E+00 -0.00000000000E+00 -0.74505805969E-08  0.93827000000E+00  0.93827000000E+00 0. -1.
     999902    2    1    2    0    0  0.13942898667E-01  0.12137273627E-01  0.13728059499E-01  0.10209044174E+01  0.10206447237E+01 0.  0.
     999903    2    3    3    0    0  0.61807647646E-01  0.61787422849E-02 -0.11325184344E+00  0.13048292510E+00  0.18478407265E-01 0.  0.
         14    1    1    2    0    0 -0.13942898667E-01 -0.12137273627E-01 -0.13728059499E-01  0.23025582554E-01  0.00000000000E+00 0. -1.
     999901    1    3    3    0    0 -0.47864748980E-01  0.59585313421E-02  0.12697990294E+00  0.89042149235E+00  0.88000000000E+00 0.  1.
        -11    1    4    4    0    0  0.25980838650E-01  0.11791596562E-01 -0.49302776583E-01  0.56965521381E-01  0.51100000000E-03 0. -1.
         11    1    4    4    0    0  0.35826808997E-01 -0.56128542767E-02 -0.63949066857E-01  0.73517403714E-01  0.51100000000E-03 0.  1.
</event>
<event>
 8    1  0.1112171E+005  0.1043930E+01  0.7957747E-01            NaN
         13   -1    0    0    0    0  0.00000000000E+00  0.00000000000E+00  0.74505805969E-08  0.10566000000E+00  0.10566000000E+00 0.  1.
     999900   -1    0    0    0    0 -0.00000000000E+00 -0.00000000000E+00 -0.74505805969E-08  0.93827000000E+00  0.93827000000E+00 0.  1.
     999902    2    1    2    0    0 -0.45832485052E-02 -0.20505757043E-01  0.93031299626E-02  0.10209508689E+01  0.10206922339E+01 0.  0.
     999903    2    3    3    0    0  0.10291444843E+00 -0.57795040358E-01 -0.54324863193E-01  0.13134715544E+00  0.19215464999E-01 0.  0.
         14    1    1    2    0    0  0.45832485052E-02  0.20505757043E-01 -0.93031299626E-02  0.22979131095E-01  0.00000000000E+00 0.  1.
     999901    1    3    3    0    0 -0.10749769694E+00  0.37289283315E-01  0.63627993156E-01  0.88960371346E+00  0.88000000000E+00 0. -1.
        -11    1    4    4    0    0  0.98616223744E-01 -0.51412706057E-01 -0.47090614392E-01  0.12077339531E+00  0.51100000000E-03 0. -1.
         11    1    4    4    0    0  0.42982246889E-02 -0.63823343010E-02 -0.72342488007E-02  0.10573760131E-01  0.51100000000E-03 0.  1.
</event>
<event>
 8    1  0.1112171E+005  0.1043930E+01  0.7957747E-01            NaN
         13   -1    0    0    0    0  0.00000000000E+00  0.00000000000E+00  0.74505805969E-08  0.10566000000E+00  0.10566000000E+00 0. -1.
     999900   -1    0    0    0    0 -0.00000000000E+00 -0.00000000000E+00 -0.74505805969E-08  0.93827000000E+00  0.93827000000E+00 0. -1.
     999902    2    1    2    0    0  0.37765351831E-02 -0.21961349267E-01 -0.24664900992E-02  0.10215102174E+01  0.10212641566E+01 0.  0.
     999903    2    3    3    0    0 -0.12531704938E+00 -0.35440524478E-01 -0.39934966887E-02  0.13198833822E+00  0.21085060363E-01 0.  0.
         14    1    1    2    0    0 -0.37765351831E-02  0.21961349267E-01  0.24664900992E-02  0.22419782626E-01  0.00000000000E+00 0. -1.
     999901    1    3    3    0    0  0.12909358456E+00  0.13479175212E-01  0.15270065895E-02  0.88952187915E+00  0.88000000000E+00 0. -1.
        -11    1    4    4    0    0 -0.27023650210E-01 -0.15308449313E-01 -0.59821529080E-02  0.31633424814E-01  0.51100000000E-03 0.  1.
         11    1    4    4    0    0 -0.98293399169E-01 -0.20132075166E-01  0.19886562194E-02  0.10035491341E+00  0.51100000000E-03 0. -1.
</event>
<event>
 8    1  0.1112171E+005  0.1043930E+01  0.7957747E-01            NaN
         13   -1    0    0    0    0  0.00000000000E+00  0.00000000000E+00  0.74505805969E-08  0.10566000000E+00  0.10566000000E+00 0.  1.
     999900   -1    0    0    0    0 -0.00000000000E+00 -0.00000000000E+00 -0.74505805969E-08  0.93827000000E+00  0.93827000000E+00 0. -1.
     999902    2    1    2    0    0 -0.13936321012E-01 -0.15888080424E-01  0.14735429930E-01  0.10181659740E+01  0.10178399508E+01 0.  0.
     999903    2    3    3    0    0  0.62872280222E-01 -0.48610942637E-01 -0.97284774357E-01  0.12714472106E+00  0.19634291637E-01 0.  0.
         14    1    1    2    0    0  0.13936321012E-01  0.15888080424E-01 -0.14735429930E-01  0.25764026047E-01  0.00000000000E+00 0. -1.
     999901    1    3    3    0    0 -0.76808601234E-01  0.32722862213E-01  0.11202020429E+00  0.89102125289E+00  0.88000000000E+00 0. -1.
        -11    1    4    4    0    0  0.23575766850E-01 -0.72920095311E-02 -0.25864865105E-01  0.35752518142E-01  0.51100000000E-03 0.  1.
         11    1    4    4    0    0  0.39296513371E-01 -0.41318933106E-01 -0.71419909252E-01  0.91392202921E-01  0.51100000000E-03 0. -1.
</event>
<event>
 8    1  0.1112171E+005  0.1043930E+01  0.7957747E-01            NaN
         13   -1    0    0    0    0  0.00000000000E+00  0.00000000000E+00  0.74505805969E-08  0.10566000000E+00  0.10566000000E+00 0. -1.
     999900   -1    0    0    0    0 -0.00000000000E+00 -0.00000000000E+00 -0.74505805969E-08  0.93827000000E+00  0.93827000000E+00 0. -1.
     999902    2    1    2    0    0  0.20934405048E-01 -0.25871947083E-02 -0.88749786760E-02  0.10210453296E+01  0.10207888406E+01 0.  0.
     999903    2    3    3    0    0 -0.90802104400E-01  0.64162282100E-01  0.61447698031E-01  0.12869684443E+00  0.20621289099E-01 0.  0.
         14    1    1    2    0    0 -0.20934405048E-01  0.25871947083E-02  0.88749786760E-02  0.22884670364E-01  0.00000000000E+00 0. -1.
     999901    1    3    3    0    0  0.11173650945E+00 -0.66749476808E-01 -0.70322676707E-01  0.89234848521E+00  0.88000000000E+00 0. -1.
        -11    1    4    4    0    0 -0.65647471795E-01  0.46091821415E-01  0.54422233938E-01  0.96933416437E-01  0.51100000000E-03 0.  1.
         11    1    4    4    0    0 -0.25154632605E-01  0.18070460685E-01  0.70254640933E-02  0.31763427989E-01  0.51100000000E-03 0. -1.
</event>
<event>
 8    1  0.1112171E+005  0.1043930E+01  0.7957747E-01            NaN
         13   -1    0    0    0    0  0.00000000000E+00  0.00000000000E+00  0.74505805969E-08  0.10566000000E+00  0.10566000000E+00 0.  1.
     999900   -1    0    0    0    0 -0.00000000000E+00 -0.00000000000E+00 -0.74505805969E-08  0.93827000000E+00  0.93827000000E+00 0.  1.
     999902    2    1    2    0    0  0.16781101088E-01 -0.74639024570E-02  0.10209885908E-01  0.10229167431E+01  0.10227008881E+01 0.  0.
     999903    2    3    3    0    0 -0.11216385097E+00  0.55263863848E-01  0.33505641058E-01  0.13100628489E+00  0.20129445727E-01 0.  0.
         14    1    1    2    0    0 -0.16781101088E-01  0.74639024570E-02 -0.10209885908E-01  0.21013256860E-01  0.00000000000E+00 0. -1.
     999901    1    3    3    0    0  0.12894495206E+00 -0.62727766306E-01 -0.23295755150E-01  0.89191045825E+00  0.88000000000E+00 0.  1.
        -11    1    4    4    0    0 -0.53103828699E-01  0.21466790743E-01  0.24741268844E-01  0.62395762935E-01  0.51100000000E-03 0.  1.
         11    1    4    4    0    0 -0.59060022275E-01  0.33797073106E-01  0.87643722146E-02  0.68610521955E-01  0.51100000000E-03 0. -1.
</event>
<event>
 8    1  0.1112171E+005  0.1043930E+01  0.7957747E-01            NaN
         13   -1    0    0    0    0  0.00000000000E+00  0.00000000000E+00  0.74505805969E-08  0.10566000000E+00  0.10566000000E+00 0. -1.
     999900   -1    0    0    0    0 -0.00000000000E+00 -0.00000000000E+00 -0.74505805969E-08  0.93827000000E+00  0.93827000000E+00 0. -1.
     999902    2    1    2    0    0 -0.16005322371E-01  0.14402116694E-01 -0.12102417929E-01  0.10192306108E+01  0.10189312921E+01 0.  0.
     999903    2    3    3    0    0  0.93219261039E-01  0.57660665495E-01  0.63441894448E-01  0.12821531638E+00  0.19992758954E-01 0.  0.
         14    1    1    2    0    0  0.16005322371E-01 -0.14402116694E-01  0.12102417929E-01  0.24699389247E-01  0.00000000000E+00 0. -1.
     999901    1    3    3    0    0 -0.10922458341E+00 -0.43258548801E-01 -0.75544312377E-01  0.89101529437E+00  0.88000000000E+00 0. -1.
        -11    1    4    4    0    0  0.11613414964E-01  0.23137206998E-02  0.12508228884E-01  0.17231994122E-01  0.51100000000E-03 0. -1.
         11    1    4    4    0    0  0.81605846075E-01  0.55346944795E-01  0.50933665563E-01  0.11098332226E+00  0.51100000000E-03 0.  1.
</event>
<event>
 8    1  0.1112171E+005  0.1043930E+01  0.7957747E-01            NaN
         13   -1    0    0    0    0  0.00000000000E+00  0.00000000000E+00  0.74505805969E-08  0.10566000000E+00  0.10566000000E+00 0.  1.
     999900   -1    0    0    0    0 -0.00000000000E+00 -0.00000000000E+00 -0.74505805969E-08  0.93827000000E+00  0.93827000000E+00 0.  1.
     999902    2    1    2    0    0  0.16371804740E-01 -0.14797119970E-02  0.20123988217E-01  0.10179453807E+01  0.10176136780E+01 0.  0.
     999903    2    3    3    0    0  0.42337601538E-02 -0.52050047314E-01 -0.11364982524E+00  0.12631758611E+00  0.17683824036E-01 0.  0.
         14    1    1    2    0    0 -0.16371804740E-01  0.14797119970E-02 -0.20123988217E-01  0.25984619293E-01  0.00000000000E+00 0. -1.
     999901    1    3    3    0    0  0.12138044586E-01  0.50570335317E-01  0.13377381345E+00  0.89162779460E+00  0.88000000000E+00 0. -1.
        -11    1    4    4    0    0 -0.58938630334E-02 -0.97392873370E-02 -0.28555660312E-01  0.30745376826E-01  0.51100000000E-03 0.  1.
         11    1    4    4    0    0  0.10127623187E-01 -0.42310759977E-01 -0.85094164925E-01  0.95572209279E-01  0.51100000000E-03 0. -1.
</event>
<event>
 8    1  0.1464526E+005  0.1043930E+01  0.7957747E-01            NaN
         13   -1    0    0    0    0  0.00000000000E+00  0.00000000000E+00  0.74505805969E-08  0.10566000000E+00  0.10566000000E+00 0. -1.
     999900   -1    0    0    0    0 -0.00000000000E+00 -0.00000000000E+00 -0.74505805969E-08  0.93827000000E+00  0.93827000000E+00 0. -1.
     999902    2    1    2    0    0 -0.99396443167E-02  0.22775219914E-01  0.23132412357E-01  0.10099798060E+01  0.10094090315E+01 0.  0.
     999903    2    3    3    0    0 -0.21013626394E-01  0.28241071121E-02 -0.11638112405E+00  0.11869718706E+00  0.97420791726E-02 0.  0.
         14    1    1    2    0    0  0.99396443167E-02 -0.22775219914E-01 -0.23132412357E-01  0.33950194002E-01  0.00000000000E+00 0.  1.
     999901    1    3    3    0    0  0.11073982077E-01  0.19951112802E-01  0.13951353640E+00  0.89128261894E+00  0.88000000000E+00 0.  1.
        -11    1    4    4    0    0 -0.13925437022E-01 -0.11897280854E-02 -0.53884142423E-01  0.55669517466E-01  0.51100000000E-03 0. -1.
         11    1    4    4    0    0 -0.70881893716E-02  0.40138351975E-02 -0.62496981623E-01  0.63027669595E-01  0.51100000000E-03 0.  1.
</event>
<event>
 8    1  0.1112171E+005  0.1043930E+01  0.7957747E-01            NaN
         13   -1    0    0    0    0  0.00000000000E+00  0.00000000000E+00  0.74505805969E-08  0.10566000000E+00  0.10566000000E+00 0.  1.
     999900   -1    0    0    0    0 -0.00000000000E+00 -0.00000000000E+00 -0.74505805969E-08  0.93827000000E+00  0.93827000000E+00 0. -1.
     999902    2    1    2    0    0  0.10626790567E-01  0.20227833196E-01 -0.55100190833E-02  0.10204256552E+01  0.10201549214E+01 0.  0.
     999903    2    3    3    0    0  0.22687619071E-01 -0.11598158194E+00  0.46349136679E-01  0.12835624065E+00  0.18990172104E-01 0.  0.
         14    1    1    2    0    0 -0.10626790567E-01 -0.20227833196E-01  0.55100190833E-02  0.23504344787E-01  0.00000000000E+00 0.  1.
     999901    1    3    3    0    0 -0.12060828504E-01  0.13620941513E+00 -0.51859155762E-01  0.89206941456E+00  0.88000000000E+00 0.  1.
        -11    1    4    4    0    0  0.62087926167E-02 -0.61794713703E-01  0.32279410662E-01  0.69995408572E-01  0.51100000000E-03 0. -1.
         11    1    4    4    0    0  0.16478826454E-01 -0.54186868233E-01  0.14069726017E-01  0.58360832083E-01  0.51100000000E-03 0.  1.
</event>
<event>
 8    1  0.1112171E+005  0.1043930E+01  0.7957747E-01            NaN
         13   -1    0    0    0    0  0.00000000000E+00  0.00000000000E+00  0.74505805969E-08  0.10566000000E+00  0.10566000000E+00 0. -1.
     999900   -1    0    0    0    0 -0.00000000000E+00 -0.00000000000E+00 -0.74505805969E-08  0.93827000000E+00  0.93827000000E+00 0.  1.
     999902    2    1    2    0    0  0.59269113936E-02  0.23144609316E-01 -0.39142335516E-03  0.10200353472E+01  0.10197554389E+01 0.  0.
     999903    2    3    3    0    0 -0.67534040448E-01 -0.76205657261E-01  0.75500207963E-01  0.12816847004E+00  0.18940076337E-01 0.  0.
         14    1    1    2    0    0 -0.59269113936E-02 -0.23144609316E-01  0.39142335516E-03  0.23894652777E-01  0.00000000000E+00 0.  1.
     999901    1    3    3    0    0  0.73460951842E-01  0.99350266578E-01 -0.75891631319E-01  0.89186687718E+00  0.88000000000E+00 0.  1.
        -11    1    4    4    0    0 -0.40585675882E-01 -0.58656436499E-01  0.49724118760E-01  0.86951272199E-01  0.51100000000E-03 0. -1.
         11    1    4    4    0    0 -0.26948364566E-01 -0.17549220763E-01  0.25776089203E-01  0.41217197840E-01  0.51100000000E-03 0.  1.
</event>
<event>
 8    1  0.1112171E+005  0.1043930E+01  0.7957747E-01            NaN
         13   -1    0    0    0    0  0.00000000000E+00  0.00000000000E+00  0.74505805969E-08  0.10566000000E+00  0.10566000000E+00 0. -1.
     999900   -1    0    0    0    0 -0.00000000000E+00 -0.00000000000E+00 -0.74505805969E-08  0.93827000000E+00  0.93827000000E+00 0. -1.
     999902    2    1    2    0    0  0.47907736020E-02  0.20606251062E-01  0.10473533719E-01  0.10203235601E+01  0.10200504416E+01 0.  0.
     999903    2    3    3    0    0  0.12232932385E-01  0.64400442230E-01  0.11414797035E+00  0.13312476295E+00  0.19884209394E-01 0.  0.
         14    1    1    2    0    0 -0.47907736020E-02 -0.20606251062E-01 -0.10473533719E-01  0.23606439865E-01  0.00000000000E+00 0. -1.
     999901    1    3    3    0    0 -0.74421587833E-02 -0.43794191168E-01 -0.10367443663E+00  0.88719879718E+00  0.88000000000E+00 0. -1.
        -11    1    4    4    0    0  0.91970459733E-02  0.18504844523E-01  0.22328150375E-01  0.30427328927E-01  0.51100000000E-03 0. -1.
         11    1    4    4    0    0  0.30358864120E-02  0.45895597707E-01  0.91819819972E-01  0.10269743403E+00  0.51100000000E-03 0.  1.
</event>
<event>
 8    1  0.1112171E+005  0.1043930E+01  0.7957747E-01            NaN
         13   -1    0    0    0    0  0.00000000000E+00  0.00000000000E+00  0.74505805969E-08  0.10566000000E+00  0.10566000000E+00 0. -1.
     999900   -1    0    0    0    0 -0.00000000000E+00 -0.00000000000E+00 -0.74505805969E-08  0.93827000000E+00  0.93827000000E+00 0.  1.
     999902    2    1    2    0    0  0.20142420573E-01 -0.31231839082E-02  0.93689723706E-02  0.10214967874E+01  0.10212504285E+01 0.  0.
     999903    2    3    3    0    0 -0.11021758713E+00  0.55132907307E-01  0.35265781563E-01  0.12961218248E+00  0.19185633051E-01 0.  0.
         14    1    1    2    0    0 -0.20142420573E-01  0.31231839082E-02 -0.93689723706E-02  0.22433212600E-01  0.00000000000E+00 0. -1.
     999901    1    3    3    0    0  0.13036000771E+00 -0.58256091215E-01 -0.25896809193E-01  0.89188460492E+00  0.88000000000E+00 0.  1.
        -11    1    4    4    0    0 -0.21694095399E-01  0.19841341761E-01  0.73770605335E-02  0.30314926376E-01  0.51100000000E-03 0. -1.
         11    1    4    4    0    0 -0.88523491734E-01  0.35291565546E-01  0.27888721030E-01  0.99297256101E-01  0.51100000000E-03 0.  1.
</event>
<event>
 8    1  0.1112171E+005  0.1043930E+01  0.7957747E-01            NaN
         13   -1    0    0    0    0  0.00000000000E+00  0.00000000000E+00  0.74505805969E-08  0.10566000000E+00  0.10566000000E+00 0.  1.
     999900   -1    0    0    0    0 -0.00000000000E+00 -0.00000000000E+00 -0.74505805969E-08  0.93827000000E+00  0.93827000000E+00 0. -1.
     999902    2    1    2    0    0  0.13798682150E-01  0.16428173034E-01 -0.18720269645E-02  0.10223941466E+01  0.10221673043E+01 0.  0.
     999903    2    3    3    0    0  0.12933598941E+00  0.10169164776E-01  0.28178104871E-01  0.13431134920E+00  0.20354922245E-01 0.  0.
         14    1    1    2    0    0 -0.13798682150E-01 -0.16428173034E-01  0.18720269645E-02  0.21535853437E-01  0.00000000000E+00 0. -1.
     999901    1    3    3    0    0 -0.11553730726E+00  0.62590082579E-02 -0.30050131835E-01  0.88808279737E+00  0.88000000000E+00 0. -1.
        -11    1    4    4    0    0  0.80611039828E-01  0.94065064814E-02  0.79557954572E-02  0.81548622972E-01  0.51100000000E-03 0.  1.
         11    1    4    4    0    0  0.48724949584E-01  0.76265829478E-03  0.20222309414E-01  0.52762726225E-01  0.51100000000E-03 0. -1.
</event>
<event>
 8    1  0.1112171E+005  0.1043930E+01  0.7957747E-01            NaN
         13   -1    0    0    0    0  0.00000000000E+00  0.00000000000E+00  0.74505805969E-08  0.10566000000E+00  0.10566000000E+00 0.  1.
     999900   -1    0    0    0    0 -0.00000000000E+00 -0.00000000000E+00 -0.74505805969E-08  0.93827000000E+00  0.93827000000E+00 0. -1.
     999902    2    1    2    0    0 -0.12477723977E-01  0.18983061947E-01 -0.81728739218E-02  0.10197877941E+01  0.10195019857E+01 0.  0.
     999903    2    3    3    0    0  0.29235505386E-01 -0.11576652563E+00  0.39250736100E-01  0.12729328790E+00  0.20158314109E-01 0.  0.
         14    1    1    2    0    0  0.12477723977E-01 -0.18983061947E-01  0.81728739218E-02  0.24142205878E-01  0.00000000000E+00 0.  1.
     999901    1    3    3    0    0 -0.41713229364E-01  0.13474958758E+00 -0.47423610022E-01  0.89249450623E+00  0.88000000000E+00 0. -1.
        -11    1    4    4    0    0 -0.17765349998E-02 -0.20136836384E-01  0.10187951621E-01  0.22642962160E-01  0.51100000000E-03 0. -1.
         11    1    4    4    0    0  0.31012040386E-01 -0.95629689244E-01  0.29062784479E-01  0.10465032574E+00  0.51100000000E-03 0.  1.
</event>
<event>
 8    1  0.1112171E+005  0.1043930E+01  0.7957747E-01            NaN
         13   -1    0    0    0    0  0.00000000000E+00  0.00000000000E+00  0.74505805969E-08  0.10566000000E+00  0.10566000000E+00 0.  1.
     999900   -1    0    0    0    0 -0.00000000000E+00 -0.00000000000E+00 -0.74505805969E-08  0.93827000000E+00  0.93827000000E+00 0. -1.
     999902    2    1    2    0    0 -0.35061317278E-02  0.17310898028E-01  0.12797403951E-01  0.10221186796E+01  0.10218859337E+01 0.  0.
     999903    2    3    3    0    0  0.58511966851E-01  0.11749596947E+00 -0.10624519507E-01  0.13395660002E+00  0.24546632501E-01 0.  0.
         14    1    1    2    0    0  0.35061317278E-02 -0.17310898028E-01 -0.12797403951E-01  0.21811320412E-01  0.00000000000E+00 0.  1.
     999901    1    3    3    0    0 -0.62018098578E-01 -0.10018507144E+00  0.23421923458E-01  0.88816207957E+00  0.88000000000E+00 0.  1.
        -11    1    4    4    0    0  0.25656738984E-01  0.45587008321E-01 -0.16020933306E-01  0.54711744698E-01  0.51100000000E-03 0. -1.
         11    1    4    4    0    0  0.32855227866E-01  0.71908961148E-01  0.53964137992E-02  0.79244855318E-01  0.51100000000E-03 0.  1.
</event>
<event>
 8    1  0.1792734E+005  0.1043930E+01  0.7957747E-01            NaN
         13   -1    0    0    0    0  0.00000000000E+00  0.00000000000E+00  0.74505805969E-08  0.10566000000E+00  0.10566000000E+00 0.  1.
     999900   -1    0    0    0    0 -0.00000000000E+00 -0.00000000000E+00 -0.74505805969E-08  0.93827000000E+00  0.93827000000E+00 0. -1.
     999902    2    1    2    0    0 -0.13804282898E-01 -0.15445724121E-01  0.11641270364E-01  0.10201676812E+01  0.10198909010E+01 0.  0.
     999903    2    3    3    0    0  0.55133349233E-01 -0.98576713960E-02  0.11690920728E+00  0.13119919918E+00  0.20214035606E-01 0.  0.
         14    1    1    2    0    0  0.13804282898E-01  0.15445724121E-01 -0.11641270364E-01  0.23762318819E-01  0.00000000000E+00 0. -1.
     999901    1    3    3    0    0 -0.68937632130E-01 -0.55880527252E-02 -0.10526793691E+00  0.88896848201E+00  0.88000000000E+00 0. -1.
        -11    1    4    4    0    0  0.32425627782E-01 -0.15309847945E-01  0.77336640822E-01  0.85246876282E-01  0.51100000000E-03 0. -1.
         11    1    4    4    0    0  0.22707721451E-01  0.54521765488E-02  0.39572566455E-01  0.45952322895E-01  0.51100000000E-03 0.  1.
</event>
<event>
 8    1  0.1112171E+005  0.1043930E+01  0.7957747E-01            NaN
         13   -1    0    0    0    0  0.00000000000E+00  0.00000000000E+00  0.74505805969E-08  0.10566000000E+00  0.10566000000E+00 0.  1.
     999900   -1    0    0    0    0 -0.00000000000E+00 -0.00000000000E+00 -0.74505805969E-08  0.93827000000E+00  0.93827000000E+00 0.  1.
     999902    2    1    2    0    0 -0.15328921476E-01  0.99973106316E-02 -0.15227969249E-01  0.10201221630E+01  0.10198443089E+01 0.  0.
     999903    2    3    3    0    0 -0.37697698363E-01 -0.12005438090E+00 -0.26356864588E-01  0.13021337166E+00  0.20655919578E-01 0.  0.
         14    1    1    2    0    0  0.15328921476E-01 -0.99973106316E-02  0.15227969249E-01  0.23807836965E-01  0.00000000000E+00 0.  1.
     999901    1    3    3    0    0  0.22368776887E-01  0.13005169153E+00  0.11128895339E-01  0.88990879137E+00  0.88000000000E+00 0. -1.
        -11    1    4    4    0    0 -0.23952115795E-01 -0.83786145739E-01 -0.86447444277E-02  0.87571769401E-01  0.51100000000E-03 0. -1.
         11    1    4    4    0    0 -0.13745582568E-01 -0.36268235163E-01 -0.17712120160E-01  0.42641602263E-01  0.51100000000E-03 0.  1.
</event>
<event>
 8    1  0.1112171E+005  0.1043930E+01  0.7957747E-01            NaN
         13   -1    0    0    0    0  0.00000000000E+00  0.00000000000E+00  0.74505805969E-08  0.10566000000E+00  0.10566000000E+00 0. -1.
     999900   -1    0    0    0    0 -0.00000000000E+00 -0.00000000000E+00 -0.74505805969E-08  0.93827000000E+00  0.93827000000E+00 0. -1.
     999902    2    1    2    0    0 -0.70628648651E-02  0.29436159558E-02 -0.22359413584E-01  0.10202975581E+01  0.10200238305E+01 0.  0.
     999903    2    3    3    0    0 -0.18877543000E-01 -0.84286492941E-01 -0.97613682856E-01  0.13270988154E+00  0.24958105993E-01 0.  0.
         14    1    1    2    0    0  0.70628648651E-02 -0.29436159558E-02  0.22359413584E-01  0.23632441914E-01  0.00000000000E+00 0. -1.
     999901    1    3    3    0    0  0.11814678135E-01  0.87230108897E-01  0.75254269272E-01  0.88758767655E+00  0.88000000000E+00 0. -1.
        -11    1    4    4    0    0 -0.16478888345E-01 -0.63507889946E-01 -0.56535639477E-01  0.86610308269E-01  0.51100000000E-03 0.  1.
         11    1    4    4    0    0 -0.23986546552E-02 -0.20778602996E-01 -0.41078043379E-01  0.46099573268E-01  0.51100000000E-03 0. -1.
</event>
<event>
 8    1  0.1112171E+005  0.1043930E+01  0.7957747E-01            NaN
         13   -1    0    0    0    0  0.00000000000E+00  0.00000000000E+00  0.74505805969E-08  0.10566000000E+00  0.10566000000E+00 0. -1.
     999900   -1    0    0    0    0 -0.00000000000E+00 -0.00000000000E+00 -0.74505805969E-08  0.93827000000E+00  0.93827000000E+00 0. -1.
     999902    2    1    2    0    0 -0.79346461350E-02 -0.20511185721E-01  0.93630554667E-02  0.10200274027E+01  0.10197473060E+01 0.  0.
     999903    2    3    3    0    0  0.69897972153E-01  0.78910884529E-01 -0.69353202248E-01  0.12753711496E+00  0.18525518128E-01 0.  0.
         14    1    1    2    0    0  0.79346461350E-02  0.20511185721E-01 -0.93630554667E-02  0.23902597278E-01  0.00000000000E+00 0.  1.
     999901    1    3    3    0    0 -0.77832618288E-01 -0.99422070250E-01  0.78716257714E-01  0.89249028776E+00  0.88000000000E+00 0.  1.
        -11    1    4    4    0    0  0.61099826868E-01  0.58893744775E-01 -0.51193669078E-01  0.99109610491E-01  0.51100000000E-03 0. -1.
         11    1    4    4    0    0  0.87981452847E-02  0.20017139754E-01 -0.18159533169E-01  0.28427504468E-01  0.51100000000E-03 0.  1.
</event>
<event>
 8    1  0.1112171E+005  0.1043930E+01  0.7957747E-01            NaN
         13   -1    0    0    0    0  0.00000000000E+00  0.00000000000E+00  0.74505805969E-08  0.10566000000E+00  0.10566000000E+00 0.  1.
     999900   -1    0    0    0    0 -0.00000000000E+00 -0.00000000000E+00 -0.74505805969E-08  0.93827000000E+00  0.93827000000E+00 0. -1.
     999902    2    1    2    0    0  0.41664838927E-02 -0.84622442388E-02 -0.21751447544E-01  0.10202214649E+01  0.10199459509E+01 0.  0.
     999903    2    3    3    0    0 -0.31073988336E-01 -0.11398983970E+00  0.51136143883E-01  0.13022676534E+00  0.19617056179E-01 0.  0.
         14    1    1    2    0    0 -0.41664838927E-02  0.84622442388E-02  0.21751447544E-01  0.23708535084E-01  0.00000000000E+00 0.  1.
     999901    1    3    3    0    0  0.35240472229E-01  0.10552759546E+00 -0.72887591427E-01  0.88999469957E+00  0.88000000000E+00 0. -1.
        -11    1    4    4    0    0 -0.52527976663E-02 -0.44221490313E-01  0.11798105832E-01  0.46071558592E-01  0.51100000000E-03 0. -1.
         11    1    4    4    0    0 -0.25821190670E-01 -0.69768349390E-01  0.39338038051E-01  0.84155206749E-01  0.51100000000E-03 0.  1.
</event>
<event>
 8    1  0.1112171E+005  0.1043930E+01  0.7957747E-01            NaN
         13   -1    0    0    0    0  0.00000000000E+00  0.00000000000E+00  0.74505805969E-08  0.10566000000E+00  0.10566000000E+00 0.  1.
     999900   -1    0    0    0    0 -0.00000000000E+00 -0.00000000000E+00 -0.74505805969E-08  0.93827000000E+00  0.93827000000E+00 0. -1.
     999902    2    1    2    0    0  0.18405063487E-01  0.13838672765E-01 -0.38301357010E-02  0.10205863678E+01  0.10203193661E+01 0.  0.
     999903    2    3    3    0    0 -0.14947027848E-01  0.48398737065E-01  0.11893455561E+00  0.13076732467E+00  0.19718349159E-01 0.  0.
         14    1    1    2    0    0 -0.18405063487E-01 -0.13838672765E-01  0.38301357010E-02  0.23343632223E-01  0.00000000000E+00 0.  1.
     999901    1    3    3    0    0  0.33352091336E-01 -0.34560064300E-01 -0.12276469131E+00  0.88981904311E+00  0.88000000000E+00 0. -1.
        -11    1    4    4    0    0 -0.77948529160E-03  0.11246490788E-01  0.49332171024E-01  0.50606475587E-01  0.51100000000E-03 0.  1.
         11    1    4    4    0    0 -0.14167542557E-01  0.37152246276E-01  0.69602384583E-01  0.80160849085E-01  0.51100000000E-03 0. -1.
</event>
<event>
 7    1  0.1112171E+005  0.1043930E+01  0.7957747E-01            NaN
         13   -1    0    0    0    0  0.00000000000E+00  0.00000000000E+00  0.74505805969E-08  0.10566000000E+00  0.10566000000E+00 0.  1.
     999900   -1    0    0    0    0 -0.00000000000E+00 -0.00000000000E+00 -0.74505805969E-08  0.93827000000E+00  0.93827000000E+00 0. -1.
     999903    2    1    2    0    0  0.81526159771E-01  0.87518318298E-02  0.47828351492E-01  0.97110423587E-01  0.20488383917E-01 0.  0.
         14    1    1    2    0    0 -0.62132800324E-01  0.17226401011E-01 -0.11345688536E-01  0.65467231622E-01  0.00000000000E+00 0. -1.
     999901    1    1    2    0    0 -0.19393359447E-01 -0.25978232841E-01 -0.36482662956E-01  0.88135234479E+00  0.88000000000E+00 0. -1.
        -11    1    3    3    0    0  0.41001605207E-01 -0.54683232841E-02  0.20149337976E-01  0.46014031892E-01  0.51100000000E-03 0. -1.
         11    1    3    3    0    0  0.40524554564E-01  0.14220155114E-01  0.27679013516E-01  0.51096391695E-01  0.51100000000E-03 0.  1.
</event>
<event>
 8    1  0.1112171E+005  0.1043930E+01  0.7957747E-01            NaN
         13   -1    0    0    0    0  0.00000000000E+00  0.00000000000E+00  0.74505805969E-08  0.10566000000E+00  0.10566000000E+00 0. -1.
     999900   -1    0    0    0    0 -0.00000000000E+00 -0.00000000000E+00 -0.74505805969E-08  0.93827000000E+00  0.93827000000E+00 0.  1.
     999902    2    1    2    0    0  0.13390135399E-02 -0.18898386980E-01  0.74084643549E-02  0.10235872536E+01  0.10233850880E+01 0.  0.
     999903    2    3    3    0    0 -0.77983924352E-02  0.12937111938E+00  0.48734031484E-02  0.13113346473E+00  0.19352882484E-01 0.  0.
         14    1    1    2    0    0 -0.13390135399E-02  0.18898386980E-01 -0.74084643549E-02  0.20342746417E-01  0.00000000000E+00 0.  1.
     999901    1    3    3    0    0  0.91374059751E-02 -0.14826950636E+00  0.25350612065E-02  0.89245378885E+00  0.88000000000E+00 0.  1.
        -11    1    4    4    0    0 -0.11835418604E-01  0.47529786770E-01  0.45005797603E-02  0.49190182995E-01  0.51100000000E-03 0. -1.
         11    1    4    4    0    0  0.40370261693E-02  0.81841332606E-01  0.37282338806E-03  0.81943281734E-01  0.51100000000E-03 0.  1.
</event>
<event>
 8    1  0.1112171E+005  0.1043930E+01  0.7957747E-01            NaN
         13   -1    0    0    0    0  0.00000000000E+00  0.00000000000E+00  0.74505805969E-08  0.10566000000E+00  0.10566000000E+00 0. -1.
     999900   -1    0    0    0    0 -0.00000000000E+00 -0.00000000000E+00 -0.74505805969E-08  0.93827000000E+00  0.93827000000E+00 0. -1.
     999902    2    1    2    0    0 -0.63771671113E-02  0.17450727540E-01  0.16431429697E-01  0.10191270156E+01  0.10188251498E+01 0.  0.
     999903    2    3    3    0    0  0.97930524379E-01 -0.25989387482E-02 -0.79193319972E-01  0.12759677140E+00  0.20303006060E-01 0.  0.
         14    1    1    2    0    0  0.63771671113E-02 -0.17450727540E-01 -0.16431429697E-01  0.24802984376E-01  0.00000000000E+00 0.  1.
     999901    1    3    3    0    0 -0.10430769149E+00  0.20049666289E-01  0.95624749669E-01  0.89153024423E+00  0.88000000000E+00 0.  1.
        -11    1    4    4    0    0  0.29585471352E-01  0.17253957290E-02 -0.35990497466E-01  0.46624608678E-01  0.51100000000E-03 0.  1.
         11    1    4    4    0    0  0.68345053027E-01 -0.43243344772E-02 -0.43202822506E-01  0.80972162719E-01  0.51100000000E-03 0. -1.
</event>
<event>
 8    1  0.1112171E+005  0.1043930E+01  0.7957747E-01            NaN
         13   -1    0    0    0    0  0.00000000000E+00  0.00000000000E+00  0.74505805969E-08  0.10566000000E+00  0.10566000000E+00 0.  1.
     999900   -1    0    0    0    0 -0.00000000000E+00 -0.00000000000E+00 -0.74505805969E-08  0.93827000000E+00  0.93827000000E+00 0. -1.
     999902    2    1    2    0    0  0.90870248579E-02  0.18388303345E-01  0.13722662229E-01  0.10192517671E+01  0.10189529673E+01 0.  0.
     999903    2    3    3    0    0 -0.54263944742E-01 -0.10576102713E+00 -0.39155017511E-01  0.12671468068E+00  0.19837448050E-01 0.  0.
         14    1    1    2    0    0 -0.90870248579E-02 -0.18388303345E-01 -0.13722662229E-01  0.24678232905E-01  0.00000000000E+00 0. -1.
     999901    1    3    3    0    0  0.63350969600E-01  0.12414933048E+00  0.52877679740E-01  0.89253708641E+00  0.88000000000E+00 0. -1.
        -11    1    4    4    0    0 -0.28619160921E-01 -0.75321307312E-01 -0.23414400492E-01  0.83909778801E-01  0.51100000000E-03 0.  1.
         11    1    4    4    0    0 -0.25644783820E-01 -0.30439719820E-01 -0.15740617020E-01  0.42804901882E-01  0.51100000000E-03 0. -1.
</event>
<event>
 8    1  0.1112171E+005  0.1043930E+01  0.7957747E-01            NaN
         13   -1    0    0    0    0  0.00000000000E+00  0.00000000000E+00  0.74505805969E-08  0.10566000000E+00  0.10566000000E+00 0. -1.
     999900   -1    0    0    0    0 -0.00000000000E+00 -0.00000000000E+00 -0.74505805969E-08  0.93827000000E+00  0.93827000000E+00 0.  1.
     999902    2    1    2    0    0 -0.21507595077E-02  0.23353233802E-01  0.13150539879E-01  0.10170425309E+01  0.10166870579E+01 0.  0.
     999903    2    3    3    0    0 -0.20869551400E-01  0.12628534786E+00 -0.15231716213E-01  0.13039098394E+00  0.19653911928E-01 0.  0.
         14    1    1    2    0    0  0.21507595077E-02 -0.23353233802E-01 -0.13150539879E-01  0.26887469100E-01  0.00000000000E+00 0.  1.
     999901    1    3    3    0    0  0.18718791892E-01 -0.10293211405E+00  0.28382256092E-01  0.88665154696E+00  0.88000000000E+00 0.  1.
        -11    1    4    4    0    0 -0.11571234117E-01  0.35455260365E-01  0.24847053466E-02  0.37381864964E-01  0.51100000000E-03 0.  1.
         11    1    4    4    0    0 -0.92983172830E-02  0.90830087492E-01 -0.17716421559E-01  0.93009118972E-01  0.51100000000E-03 0. -1.
</event>
<event>
 8    1  0.1112171E+005  0.1043930E+01  0.7957747E-01            NaN
         13   -1    0    0    0    0  0.00000000000E+00  0.00000000000E+00  0.74505805969E-08  0.10566000000E+00  0.10566000000E+00 0. -1.
     999900   -1    0    0    0    0 -0.00000000000E+00 -0.00000000000E+00 -0.74505805969E-08  0.93827000000E+00  0.93827000000E+00 0. -1.
     999902    2    1    2    0    0 -0.22568645504E-01 -0.19093132777E-02 -0.67821392885E-02  0.10202871015E+01  0.10200131287E+01 0.  0.
     999903    2    3    3    0    0 -0.12424186723E+00 -0.24058018959E-01 -0.38080780928E-01  0.13360360995E+00  0.19620113878E-01 0.  0.
         14    1    1    2    0    0  0.22568645504E-01  0.19093132777E-02  0.67821392885E-02  0.23642898520E-01  0.00000000000E+00 0.  1.
     999901    1    3    3    0    0  0.10167322172E+00  0.22148705681E-01  0.31298641640E-01  0.88668349153E+00  0.88000000000E+00 0.  1.
        -11    1    4    4    0    0 -0.66591687921E-01 -0.22821847928E-01 -0.20801079894E-01  0.73404602641E-01  0.51100000000E-03 0. -1.
         11    1    4    4    0    0 -0.57650179304E-01 -0.12361710305E-02 -0.17279701034E-01  0.60199007312E-01  0.51100000000E-03 0.  1.
</event>
<event>
 8    1  0.1112171E+005  0.1043930E+01  0.7957747E-01            NaN
         13   -1    0    0    0    0  0.00000000000E+00  0.00000000000E+00  0.74505805969E-08  0.10566000000E+00  0.10566000000E+00 0.  1.
     999900   -1    0    0    0    0 -0.00000000000E+00 -0.00000000000E+00 -0.74505805969E-08  0.93827000000E+00  0.93827000000E+00 0.  1.
     999902    2    1    2    0    0 -0.15108331215E-01  0.63848113220E-02  0.15511579256E-01  0.10213548681E+01  0.10211053472E+01 0.  0.
     999903    2    3    3    0    0 -0.74290023948E-01 -0.97419489976E-01 -0.42925854467E-01  0.13135894714E+00  0.20074345006E-01 0.  0.
         14    1    1    2    0    0  0.15108331215E-01 -0.63848113220E-02 -0.15511579256E-01  0.22575131865E-01  0.00000000000E+00 0.  1.
     999901    1    3    3    0    0  0.59181692734E-01  0.10380430130E+00  0.58437433723E-01  0.88999592099E+00  0.88000000000E+00 0.  1.
        -11    1    4    4    0    0 -0.44611312429E-01 -0.46241498917E-01 -0.29440022685E-01  0.70678295646E-01  0.51100000000E-03 0. -1.
         11    1    4    4    0    0 -0.29678711519E-01 -0.51177991059E-01 -0.13485831783E-01  0.60680651497E-01  0.51100000000E-03 0.  1.
</event>
<event>
 8    1  0.1112171E+005  0.1043930E+01  0.7957747E-01            NaN
         13   -1    0    0    0    0  0.00000000000E+00  0.00000000000E+00  0.74505805969E-08  0.10566000000E+00  0.10566000000E+00 0. -1.
     999900   -1    0    0    0    0 -0.00000000000E+00 -0.00000000000E+00 -0.74505805969E-08  0.93827000000E+00  0.93827000000E+00 0. -1.
     999902    2    1    2    0    0 -0.15572129430E-01 -0.90626909192E-03  0.25411033286E-01  0.10141133410E+01  0.10136749160E+01 0.  0.
     999903    2    3    3    0    0  0.85512111655E-01  0.83705828541E-01  0.28713785292E-01  0.12428856108E+00  0.17440698918E-01 0.  0.
         14    1    1    2    0    0  0.15572129430E-01  0.90626909192E-03 -0.25411033286E-01  0.29816658957E-01  0.00000000000E+00 0.  1.
     999901    1    3    3    0    0 -0.10108424109E+00 -0.84612097633E-01 -0.33027520054E-02  0.88982477996E+00  0.88000000000E+00 0. -1.
        -11    1    4    4    0    0  0.81170460748E-01  0.76252057153E-01  0.30486692266E-01  0.11546739559E+00  0.51100000000E-03 0.  1.
         11    1    4    4    0    0  0.43416509070E-02  0.74537713881E-02 -0.17729069738E-02  0.88211654923E-02  0.51100000000E-03 0. -1.
</event>
<event>
 8    1  0.1112171E+005  0.1043930E+01  0.7957747E-01            NaN
         13   -1    0    0    0    0  0.00000000000E+00  0.00000000000E+00  0.74505805969E-08  0.10566000000E+00  0.10566000000E+00 0.  1.
     999900   -1    0    0    0    0 -0.00000000000E+00 -0.00000000000E+00 -0.74505805969E-08  0.93827000000E+00  0.93827000000E+00 0. -1.
     999902    2    1    2    0    0 -0.23502692296E-02  0.22088562765E-01  0.77883906160E-02  0.10203909389E+01  0.10201193953E+01 0.  0.
     999903    2    3    3    0    0  0.10375408365E+00 -0.11168446407E-01  0.76161083230E-01  0.13076237174E+00  0.20214925084E-01 0.  0.
         14    1    1    2    0    0  0.23502692296E-02 -0.22088562765E-01 -0.77883906160E-02  0.23539061129E-01  0.00000000000E+00 0. -1.
     999901    1    3    3    0    0 -0.10610435288E+00  0.33257009172E-01 -0.68372692614E-01  0.88962856713E+00  0.88000000000E+00 0. -1.
        -11    1    4    4    0    0  0.77942715425E-01 -0.11550024658E-02  0.49615699617E-01  0.92403353230E-01  0.51100000000E-03 0.  1.
         11    1    4    4    0    0  0.25811368221E-01 -0.10013443941E-01  0.26545383613E-01  0.38359018511E-01  0.51100000000E-03 0. -1.
</event>
<event>
 8    1  0.1112171E+005  0.1043930E+01  0.7957747E-01            NaN
         13   -1    0    0    0    0  0.00000000000E+00  0.00000000000E+00  0.74505805969E-08  0.10566000000E+00  0.10566000000E+00 0.  1.
     999900   -1    0    0    0    0 -0.00000000000E+00 -0.00000000000E+00 -0.74505805969E-08  0.93827000000E+00  0.93827000000E+00 0.  1.
     999902    2    1    2    0    0  0.79341026889E-02  0.21955005130E-01 -0.23188500270E-02  0.10204704753E+01  0.10202007849E+01 0.  0.
     999903    2    3    3    0    0  0.78455192268E-01  0.51039296573E-01 -0.91615275419E-01  0.13266814834E+00  0.21148331054E-01 0.  0.
         14    1    1    2    0    0 -0.79341026889E-02 -0.21955005130E-01  0.23188500270E-02  0.23459524744E-01  0.00000000000E+00 0.  1.
     999901    1    3    3    0    0 -0.70521089579E-01 -0.29084291443E-01  0.89296425392E-01  0.88780232691E+00  0.88000000000E+00 0. -1.
        -11    1    4    4    0    0  0.47735692558E-01  0.25103735025E-01 -0.64936518907E-01  0.84415084345E-01  0.51100000000E-03 0.  1.
         11    1    4    4    0    0  0.30719499710E-01  0.25935561548E-01 -0.26678756512E-01  0.48253063999E-01  0.51100000000E-03 0. -1.
</event>
<event>
 8    1  0.1112171E+005  0.1043930E+01  0.7957747E-01            NaN
         13   -1    0    0    0    0  0.00000000000E+00  0.00000000000E+00  0.74505805969E-08  0.10566000000E+00  0.10566000000E+00 0. -1.
     999900   -1    0    0    0    0 -0.00000000000E+00 -0.00000000000E+00 -0.74505805969E-08  0.93827000000E+00  0.93827000000E+00 0.  1.
     999902    2    1    2    0    0 -0.19969101902E-01 -0.53216648296E-02  0.13482252180E-01  0.10192549869E+01  0.10189562660E+01 0.  0.
     999903    2    3    3    0    0  0.13305630634E-01  0.21233211771E-01  0.12709821425E+00  0.13093018362E+00  0.18996521513E-01 0.  0.
         14    1    1    2    0    0  0.19969101902E-01  0.53216648296E-02 -0.13482252180E-01  0.24675013094E-01  0.00000000000E+00 0.  1.
     999901    1    3    3    0    0 -0.33274732536E-01 -0.26554876600E-01 -0.11361596207E+00  0.88832480329E+00  0.88000000000E+00 0.  1.
        -11    1    4    4    0    0  0.62271321568E-02  0.60629850241E-02  0.87549792931E-01  0.87981613565E-01  0.51100000000E-03 0. -1.
         11    1    4    4    0    0  0.70784984770E-02  0.15170226747E-01  0.39548421315E-01  0.42948570055E-01  0.51100000000E-03 0.  1.
</event>
<event>
 8    1  0.1112171E+005  0.1043930E+01  0.7957747E-01            NaN
         13   -1    0    0    0    0  0.00000000000E+00  0.00000000000E+00  0.74505805969E-08  0.10566000000E+00  0.10566000000E+00 0.  1.
     999900   -1    0    0    0    0 -0.00000000000E+00 -0.00000000000E+00 -0.74505805969E-08  0.93827000000E+00  0.93827000000E+00 0. -1.
     999902    2    1    2    0    0  0.14827410275E-01 -0.22120390015E-02 -0.17944863609E-01  0.10205470288E+01  0.10202791161E+01 0.  0.
     999903    2    3    3    0    0 -0.63093361847E-01  0.10055459839E+00 -0.50025288357E-01  0.13056849977E+00  0.21297983272E-01 0.  0.
         14    1    1    2    0    0 -0.14827410275E-01  0.22120390015E-02  0.17944863609E-01  0.23382971196E-01  0.00000000000E+00 0.  1.
     999901    1    3    3    0    0  0.77920772122E-01 -0.10276663739E+00  0.32080424748E-01  0.88997852903E+00  0.88000000000E+00 0. -1.
        -11    1    4    4    0    0 -0.36783910120E-01  0.39619240684E-01 -0.25868690659E-01  0.59934885947E-01  0.51100000000E-03 0. -1.
         11    1    4    4    0    0 -0.26309451727E-01  0.60935357702E-01 -0.24156597699E-01  0.70633613824E-01  0.51100000000E-03 0.  1.
</event>
<event>
 8    1  0.1177101E+005  0.1043930E+01  0.7957747E-01            NaN
         13   -1    0    0    0    0  0.00000000000E+00  0.00000000000E+00  0.74505805969E-08  0.10566000000E+00  0.10566000000E+00 0. -1.
     999900   -1    0    0    0    0 -0.00000000000E+00 -0.00000000000E+00 -0.74505805969E-08  0.93827000000E+00  0.93827000000E+00 0.  1.
     999902    2    1    2    0    0 -0.61858149766E-02  0.48614673717E-02  0.23115726090E-01  0.10195120770E+01  0.10192196231E+01 0.  0.
     999903    2    3    3    0    0 -0.75447063088E-01  0.69888805888E-01 -0.75239606244E-01  0.12895076711E+00  0.19763538973E-01 0.  0.
         14    1    1    2    0    0  0.61858149766E-02 -0.48614673717E-02 -0.23115726090E-01  0.24417923020E-01  0.00000000000E+00 0.  1.
     999901    1    3    3    0    0  0.69261248111E-01 -0.65027338516E-01  0.98355332334E-01  0.89056130987E+00  0.88000000000E+00 0. -1.
        -11    1    4    4    0    0 -0.51273840584E-01  0.39165274912E-01 -0.37592816221E-01  0.74675340237E-01  0.51100000000E-03 0.  1.
         11    1    4    4    0    0 -0.24173222504E-01  0.30723530976E-01 -0.37646790023E-01  0.54275426870E-01  0.51100000000E-03 0. -1.
</event>
<event>
 8    1  0.1112171E+005  0.1043930E+01  0.7957747E-01            NaN
         13   -1    0    0    0    0  0.00000000000E+00  0.00000000000E+00  0.74505805969E-08  0.10566000000E+00  0.10566000000E+00 0.  1.
     999900   -1    0    0    0    0 -0.00000000000E+00 -0.00000000000E+00 -0.74505805969E-08  0.93827000000E+00  0.93827000000E+00 0.  1.
     999902    2    1    2    0    0  0.19653217829E-01 -0.68080587040E-02 -0.72960994854E-03  0.10231182013E+01  0.10229065074E+01 0.  0.
     999903    2    3    3    0    0 -0.56380018783E-01 -0.45056178219E-01  0.10923156352E+00  0.13219989338E+00  0.18344253243E-01 0.  0.
         14    1    1    2    0    0 -0.19653217829E-01  0.68080587040E-02  0.72960994854E-03  0.20811798698E-01  0.00000000000E+00 0. -1.
     999901    1    3    3    0    0  0.76033236612E-01  0.38248119515E-01 -0.10996117347E+00  0.89091830792E+00  0.88000000000E+00 0. -1.
        -11    1    4    4    0    0 -0.11065843061E-01 -0.19175356276E-01  0.28985549389E-01  0.36476984049E-01  0.51100000000E-03 0.  1.
         11    1    4    4    0    0 -0.45314175722E-01 -0.25880821943E-01  0.80246014134E-01  0.95722909333E-01  0.51100000000E-03 0. -1.
</event>
<event>
 8    1  0.1112171E+005  0.1043930E+01  0.7957747E-01            NaN
         13   -1    0    0    0    0  0.00000000000E+00  0.00000000000E+00  0.74505805969E-08  0.10566000000E+00  0.10566000000E+00 0. -1.
     999900   -1    0    0    0    0 -0.00000000000E+00 -0.00000000000E+00 -0.74505805969E-08  0.93827000000E+00  0.93827000000E+00 0.  1.
     999902    2    1    2    0    0  0.14575940993E-01  0.14539895162E-01  0.72983619576E-02  0.10220866327E+01  0.10218531950E+01 0.  0.
     999903    2    3    3    0    0 -0.37939684528E-01 -0.12259146324E+00  0.29420109182E-02  0.12990846767E+00  0.19986696127E-01 0.  0.
         14    1    1    2    0    0 -0.14575940993E-01 -0.14539895162E-01 -0.72983619576E-02  0.21843367287E-01  0.00000000000E+00 0.  1.
     999901    1    3    3    0    0  0.52515625522E-01  0.13713135841E+00  0.43563510394E-02  0.89217816504E+00  0.88000000000E+00 0.  1.
        -11    1    4    4    0    0 -0.34682923972E-01 -0.11126965186E+00 -0.32366942152E-02  0.11659578874E+00  0.51100000000E-03 0.  1.
         11    1    4    4    0    0 -0.32567605562E-02 -0.11321811384E-01  0.61787051334E-02  0.13312678936E-01  0.51100000000E-03 0. -1.
</event>
<event>
 8    1  0.1112171E+005  0.1043930E+01  0.7957747E-01            NaN
         13   -1    0    0    0    0  0.00000000000E+00  0.00000000000E+00  0.74505805969E-08  0.10566000000E+00  0.10566000000E+00 0. -1.
     999900   -1    0    0    0    0 -0.00000000000E+00 -0.00000000000E+00 -0.74505805969E-08  0.93827000000E+00  0.93827000000E+00 0.  1.
     999902    2    1    2    0    0 -0.13544892321E-01 -0.19494490959E-01  0.60957122817E-02  0.10194216954E+01  0.10191270461E+01 0.  0.
     999903    2    3    3    0    0  0.10558770781E+00  0.65731117941E-01  0.17841603976E-01  0.12723676682E+00  0.20038165913E-01 0.  0.
         14    1    1    2    0    0  0.13544892321E-01  0.19494490959E-01 -0.60957122817E-02  0.24508304592E-01  0.00000000000E+00 0.  1.
     999901    1    3    3    0    0 -0.11913260013E+00 -0.85225608900E-01 -0.11745891694E-01  0.89218492859E+00  0.88000000000E+00 0.  1.
        -11    1    4    4    0    0  0.57661546614E-01  0.31024605508E-01  0.17413710128E-03  0.65480314214E-01  0.51100000000E-03 0.  1.
         11    1    4    4    0    0  0.47926161193E-01  0.34706512433E-01  0.17667466874E-01  0.61756452608E-01  0.51100000000E-03 0. -1.
</event>
<event>
 8    1  0.1112171E+005  0.1043930E+01  0.7957747E-01            NaN
         13   -1    0    0    0    0  0.00000000000E+00  0.00000000000E+00  0.74505805969E-08  0.10566000000E+00  0.10566000000E+00 0. -1.
     999900   -1    0    0    0    0 -0.00000000000E+00 -0.00000000000E+00 -0.74505805969E-08  0.93827000000E+00  0.93827000000E+00 0.  1.
     999902    2    1    2    0    0  0.17975873410E-01  0.15353702733E-01  0.21563568440E-03  0.10202886229E+01  0.10200146858E+01 0.  0.
     999903    2    3    3    0    0  0.91695569600E-02  0.13680399799E-01  0.12815935567E+00  0.13099117736E+00  0.21508928118E-01 0.  0.
         14    1    1    2    0    0 -0.17975873410E-01 -0.15353702733E-01 -0.21563568440E-03  0.23641377101E-01  0.00000000000E+00 0. -1.
     999901    1    3    3    0    0  0.88063164503E-02  0.16733029339E-02 -0.12794371998E+00  0.88929744553E+00  0.88000000000E+00 0.  1.
        -11    1    4    4    0    0 -0.59843911984E-02  0.23058882309E-02  0.56582142062E-01  0.56946729317E-01  0.51100000000E-03 0. -1.
         11    1    4    4    0    0  0.15153948158E-01  0.11374511568E-01  0.71577213605E-01  0.74044448047E-01  0.51100000000E-03 0.  1.
</event>
<event>
 8    1  0.1112171E+005  0.1043930E+01  0.7957747E-01            NaN
         13   -1    0    0    0    0  0.00000000000E+00  0.00000000000E+00  0.74505805969E-08  0.10566000000E+00  0.10566000000E+00 0.  1.
     999900   -1    0    0    0    0 -0.00000000000E+00 -0.00000000000E+00 -0.74505805969E-08  0.93827000000E+00  0.93827000000E+00 0. -1.
     999902    2    1    2    0    0  0.12315958836E-01 -0.20228956230E-01 -0.10111310099E-02  0.10202252347E+01  0.10199498094E+01 0.  0.
     999903    2    3    3    0    0 -0.81744583331E-01 -0.44358110481E-01  0.88100747733E-01  0.13041035023E+00  0.24398746432E-01 0.  0.
         14    1    1    2    0    0 -0.12315958836E-01  0.20228956230E-01  0.10111310099E-02  0.23704765304E-01  0.00000000000E+00 0.  1.
     999901    1    3    3    0    0  0.94060542167E-01  0.24129154251E-01 -0.89111878743E-01  0.88981488446E+00  0.88000000000E+00 0.  1.
        -11    1    4    4    0    0 -0.47171592038E-01 -0.36756289179E-01  0.46295690888E-01  0.75628936297E-01  0.51100000000E-03 0.  1.
         11    1    4    4    0    0 -0.34572991293E-01 -0.76018213017E-02  0.41805056845E-01  0.54781413937E-01  0.51100000000E-03 0. -1.
</event>
<event>
 8    1  0.1112171E+005  0.1043930E+01  0.7957747E-01            NaN
         13   -1    0    0    0    0  0.00000000000E+00  0.00000000000E+00  0.74505805969E-08  0.10566000000E+00  0.10566000000E+00 0.  1.
     999900   -1    0    0    0    0 -0.00000000000E+00 -0.00000000000E+00 -0.74505805969E-08  0.93827000000E+00  0.93827000000E+00 0.  1.
     999902    2    1    2    0    0  0.11431656306E-01 -0.19705837088E-01 -0.51262348502E-02  0.10205787460E+01  0.10203115679E+01 0.  0.
     999903    2    3    3    0    0  0.29280376444E-02  0.10170369954E+00  0.75603450431E-01  0.12854182453E+00  0.21328455903E-01 0.  0.
         14    1    1    2    0    0 -0.11431656306E-01  0.19705837088E-01  0.51262348502E-02  0.23351254034E-01  0.00000000000E+00 0.  1.
     999901    1    3    3    0    0  0.85036186617E-02 -0.12140953663E+00 -0.80729685281E-01  0.89203692143E+00  0.88000000000E+00 0.  1.
        -11    1    4    4    0    0  0.12024026809E-01  0.50585670105E-01  0.39524659855E-01  0.65314218194E-01  0.51100000000E-03 0.  1.
         11    1    4    4    0    0 -0.90959891644E-02  0.51118029440E-01  0.36078790576E-01  0.63227606337E-01  0.51100000000E-03 0. -1.
</event>
<event>
 8    1  0.1112171E+005  0.1043930E+01  0.7957747E-01            NaN
         13   -1    0    0    0    0  0.00000000000E+00  0.00000000000E+00  0.74505805969E-08  0.10566000000E+00  0.10566000000E+00 0.  1.
     999900   -1    0    0    0    0 -0.00000000000E+00 -0.00000000000E+00 -0.74505805969E-08  0.93827000000E+00  0.93827000000E+00 0.  1.
     999902    2    1    2    0    0 -0.17134682372E-01 -0.73282878299E-02 -0.14840236298E-01  0.10201070330E+01  0.10198288214E+01 0.  0.
     999903    2    3    3    0    0 -0.13942019443E-01 -0.14926413707E-01 -0.12946632164E+00  0.13263474384E+00  0.20329021157E-01 0.  0.
         14    1    1    2    0    0  0.17134682372E-01  0.73282878299E-02  0.14840236298E-01  0.23822966983E-01  0.00000000000E+00 0.  1.
     999901    1    3    3    0    0 -0.31926629298E-02  0.75981258776E-02  0.11462608535E+00  0.88747228918E+00  0.88000000000E+00 0. -1.
        -11    1    4    4    0    0 -0.11628873272E-01 -0.56978586488E-02 -0.29572974932E-01  0.32288051259E-01  0.51100000000E-03 0.  1.
         11    1    4    4    0    0 -0.23131461702E-02 -0.92285550587E-02 -0.99893346712E-01  0.10034669258E+00  0.51100000000E-03 0. -1.
</event>
<event>
 8    1  0.1112171E+005  0.1043930E+01  0.7957747E-01            NaN
         13   -1    0    0    0    0  0.00000000000E+00  0.00000000000E+00  0.74505805969E-08  0.10566000000E+00  0.10566000000E+00 0.  1.
     999900   -1    0    0    0    0 -0.00000000000E+00 -0.00000000000E+00 -0.74505805969E-08  0.93827000000E+00  0.93827000000E+00 0. -1.
     999902    2    1    2    0    0 -0.38483198236E-02  0.20162469789E-01  0.87550702975E-02  0.10216143999E+01  0.10213706458E+01 0.  0.
     999903    2    3    3    0    0  0.90468256991E-01 -0.69780849332E-01 -0.57672816497E-01  0.12953924526E+00  0.20009743723E-01 0.  0.
         14    1    1    2    0    0  0.38483198236E-02 -0.20162469789E-01 -0.87550702975E-02  0.22315600134E-01  0.00000000000E+00 0. -1.
     999901    1    3    3    0    0 -0.94316576815E-01  0.89943319121E-01  0.66427886795E-01  0.89207515460E+00  0.88000000000E+00 0. -1.
        -11    1    4    4    0    0  0.50741744431E-01 -0.49367360526E-01 -0.41321867110E-01  0.81973280620E-01  0.51100000000E-03 0. -1.
         11    1    4    4    0    0  0.39726512561E-01 -0.20413488806E-01 -0.16350949387E-01  0.47565964642E-01  0.51100000000E-03 0.  1.
</event>
<event>
 8    1  0.1112171E+005  0.1043930E+01  0.7957747E-01            NaN
         13   -1    0    0    0    0  0.00000000000E+00  0.00000000000E+00  0.74505805969E-08  0.10566000000E+00  0.10566000000E+00 0. -1.
     999900   -1    0    0    0    0 -0.00000000000E+00 -0.00000000000E+00 -0.74505805969E-08  0.93827000000E+00  0.93827000000E+00 0. -1.
     999902    2    1    2    0    0  0.22953325641E-01 -0.57047659475E-02  0.24638198718E-02  0.10201503885E+01  0.10198732006E+01 0.  0.
     999903    2    3    3    0    0 -0.77333850301E-01  0.96274343456E-01 -0.26953859352E-01  0.12811751008E+00  0.20935908033E-01 0.  0.
         14    1    1    2    0    0 -0.22953325641E-01  0.57047659475E-02 -0.24638198718E-02  0.23779611453E-01  0.00000000000E+00 0. -1.
     999901    1    3    3    0    0  0.10028717594E+00 -0.10197910940E+00  0.29417679223E-01  0.89203287847E+00  0.88000000000E+00 0.  1.
        -11    1    4    4    0    0 -0.52358613144E-01  0.59122979280E-01 -0.75883531727E-02  0.79339745867E-01  0.51100000000E-03 0.  1.
         11    1    4    4    0    0 -0.24975237157E-01  0.37151364176E-01 -0.19365506179E-01  0.48777764214E-01  0.51100000000E-03 0. -1.
</event>
<event>
 8    1  0.1112171E+005  0.1043930E+01  0.7957747E-01            NaN
         13   -1    0    0    0    0  0.00000000000E+00  0.00000000000E+00  0.74505805969E-08  0.10566000000E+00  0.10566000000E+00 0. -1.
     999900   -1    0    0    0    0 -0.00000000000E+00 -0.00000000000E+00 -0.74505805969E-08  0.93827000000E+00  0.93827000000E+00 0.  1.
     999902    2    1    2    0    0  0.28526860894E-01 -0.66380840206E-04 -0.77466570486E-02  0.10143699443E+01  0.10139391436E+01 0.  0.
     999903    2    3    3    0    0 -0.11955236922E-01 -0.26724305281E-01 -0.12085374992E+00  0.12580781385E+00  0.19101334286E-01 0.  0.
         14    1    1    2    0    0 -0.28526860894E-01  0.66380840206E-04  0.77466570486E-02  0.29560055722E-01  0.00000000000E+00 0.  1.
     999901    1    3    3    0    0  0.40482097816E-01  0.26657924441E-01  0.11310709287E+00  0.88856213043E+00  0.88000000000E+00 0. -1.
        -11    1    4    4    0    0 -0.67799768990E-02 -0.28371499089E-01 -0.10735014616E+00  0.11124398882E+00  0.51100000000E-03 0.  1.
         11    1    4    4    0    0 -0.51752600233E-02  0.16471938083E-02 -0.13503603768E-01  0.14563825029E-01  0.51100000000E-03 0. -1.
</event>
<event>
 8    1  0.1112171E+005  0.1043930E+01  0.7957747E-01            NaN
         13   -1    0    0    0    0  0.00000000000E+00  0.00000000000E+00  0.74505805969E-08  0.10566000000E+00  0.10566000000E+00 0. -1.
     999900   -1    0    0    0    0 -0.00000000000E+00 -0.00000000000E+00 -0.74505805969E-08  0.93827000000E+00  0.93827000000E+00 0. -1.
     999902    2    1    2    0    0 -0.49141212652E-02  0.22564140548E-01 -0.10446983738E-01  0.10185838268E+01  0.10182684242E+01 0.  0.
     999903    2    3    3    0    0  0.10024458732E+00  0.45562243038E-01  0.63807452673E-01  0.12892041403E+00  0.20595797098E-01 0.  0.
         14    1    1    2    0    0  0.49141212652E-02 -0.22564140548E-01  0.10446983738E-01  0.25346173196E-01  0.00000000000E+00 0. -1.
     999901    1    3    3    0    0 -0.10515870859E+00 -0.22998102490E-01 -0.74254436411E-01  0.88966341278E+00  0.88000000000E+00 0. -1.
        -11    1    4    4    0    0  0.69141349148E-01  0.36831927722E-01  0.54022148157E-01  0.95161813109E-01  0.51100000000E-03 0.  1.
         11    1    4    4    0    0  0.31103238173E-01  0.87303153161E-02  0.97853045158E-02  0.33758600917E-01  0.51100000000E-03 0. -1.
</event>
<event>
 8    1  0.1112171E+005  0.1043930E+01  0.7957747E-01            NaN
         13   -1    0    0    0    0  0.00000000000E+00  0.00000000000E+00  0.74505805969E-08  0.10566000000E+00  0.10566000000E+00 0.  1.
     999900   -1    0    0    0    0 -0.00000000000E+00 -0.00000000000E+00 -0.74505805969E-08  0.93827000000E+00  0.93827000000E+00 0.  1.
     999902    2    1    2    0    0  0.17464734135E-01 -0.37436805809E-02 -0.15078378913E-01  0.10205550221E+01  0.10202872946E+01 0.  0.
     999903    2    3    3    0    0  0.83111548277E-01 -0.12777463227E-01  0.98119769995E-01  0.13083319231E+00  0.20470513475E-01 0.  0.
         14    1    1    2    0    0 -0.17464734135E-01  0.37436805809E-02  0.15078378913E-01  0.23374977932E-01  0.00000000000E+00 0.  1.
     999901    1    3    3    0    0 -0.65646814142E-01  0.90337826458E-02 -0.11319814891E+00  0.88972182976E+00  0.88000000000E+00 0.  1.
        -11    1    4    4    0    0  0.39295506842E-01  0.89333414737E-04  0.57907615271E-01  0.69983554253E-01  0.51100000000E-03 0. -1.
         11    1    4    4    0    0  0.43816041435E-01 -0.12866796641E-01  0.40212154724E-01  0.60849638055E-01  0.51100000000E-03 0.  1.
</event>
<event>
 8    1  0.1112171E+005  0.1043930E+01  0.7957747E-01            NaN
         13   -1    0    0    0    0  0.00000000000E+00  0.00000000000E+00  0.74505805969E-08  0.10566000000E+00  0.10566000000E+00 0. -1.
     999900   -1    0    0    0    0 -0.00000000000E+00 -0.00000000000E+00 -0.74505805969E-08  0.93827000000E+00  0.93827000000E+00 0. -1.
     999902    2    1    2    0    0 -0.13155136712E-01 -0.12159191117E-01  0.12527264804E-01  0.10220705418E+01  0.10218367563E+01 0.  0.
     999903    2    3    3    0    0  0.12098050049E+00  0.25791908195E-01 -0.34121815438E-01  0.12987729376E+00  0.20057644883E-01 0.  0.
         14    1    1    2    0    0  0.13155136712E-01  0.12159191117E-01 -0.12527264804E-01  0.21859458227E-01  0.00000000000E+00 0. -1.
     999901    1    3    3    0    0 -0.13413563721E+00 -0.37951099311E-01  0.46649080242E-01  0.89219324801E+00  0.88000000000E+00 0.  1.
        -11    1    4    4    0    0  0.13141924285E-01 -0.34187433915E-02 -0.36973582417E-02  0.14082952789E-01  0.51100000000E-03 0. -1.
         11    1    4    4    0    0  0.10783857621E+00  0.29210651586E-01 -0.30424457196E-01  0.11579434097E+00  0.51100000000E-03 0.  1.
</event>
<event>
 8    1  0.1112171E+005  0.1043930E+01  0.7957747E-01            NaN
         13   -1    0    0    0    0  0.00000000000E+00  0.00000000000E+00  0.74505805969E-08  0.10566000000E+00  0.10566000000E+00 0. -1.
     999900   -1    0    0    0    0 -0.00000000000E+00 -0.00000000000E+00 -0.74505805969E-08  0.93827000000E+00  0.93827000000E+00 0. -1.
     999902    2    1    2    0    0  0.16342324040E-01  0.10594723352E-01  0.93546415417E-02  0.10223237732E+01  0.10220954301E+01 0.  0.
     999903    2    3    3    0    0  0.10841590946E+00 -0.58028088569E-01  0.49579170608E-01  0.13395186449E+00  0.19071952105E-01 0.  0.
         14    1    1    2    0    0 -0.16342324040E-01 -0.10594723352E-01 -0.93546415417E-02  0.21606226795E-01  0.00000000000E+00 0.  1.
     999901    1    3    3    0    0 -0.92073585416E-01  0.68622811922E-01 -0.40224529066E-01  0.88837190871E+00  0.88000000000E+00 0. -1.
        -11    1    4    4    0    0  0.32841970605E-01 -0.22102353866E-01  0.24652690370E-01  0.46638239065E-01  0.51100000000E-03 0. -1.
         11    1    4    4    0    0  0.75573938852E-01 -0.35925734703E-01  0.24926480238E-01  0.87313625429E-01  0.51100000000E-03 0.  1.
</event>
<event>
 8    1  0.1112171E+005  0.1043930E+01  0.7957747E-01            NaN
         13   -1    0    0    0    0  0.00000000000E+00  0.00000000000E+00  0.74505805969E-08  0.10566000000E+00  0.10566000000E+00 0. -1.
     999900   -1    0    0    0    0 -0.00000000000E+00 -0.00000000000E+00 -0.74505805969E-08  0.93827000000E+00  0.93827000000E+00 0. -1.
     999902    2    1    2    0    0  0.14766446463E-02  0.85713779942E-04 -0.22735584792E-01  0.10211463514E+01  0.10208921473E+01 0.  0.
     999903    2    3    3    0    0 -0.11009322970E+00 -0.63854103428E-01 -0.28018606046E-01  0.13178475602E+00  0.19603925181E-01 0.  0.
         14    1    1    2    0    0 -0.14766446463E-02 -0.85713779942E-04  0.22735584792E-01  0.22783648568E-01  0.00000000000E+00 0. -1.
     999901    1    3    3    0    0  0.11156987435E+00  0.63939817208E-01  0.52830212543E-02  0.88936159542E+00  0.88000000000E+00 0.  1.
        -11    1    4    4    0    0 -0.66563781366E-01 -0.47709533515E-01 -0.12595487060E-01  0.82860388566E-01  0.51100000000E-03 0.  1.
         11    1    4    4    0    0 -0.43529448337E-01 -0.16144569912E-01 -0.15423118986E-01  0.48924367450E-01  0.51100000000E-03 0. -1.
</event>
<event>
 8    1  0.1112171E+005  0.1043930E+01  0.7957747E-01            NaN
         13   -1    0    0    0    0  0.00000000000E+00  0.00000000000E+00  0.74505805969E-08  0.10566000000E+00  0.10566000000E+00 0. -1.
     999900   -1    0    0    0    0 -0.00000000000E+00 -0.00000000000E+00 -0.74505805969E-08  0.93827000000E+00  0.93827000000E+00 0. -1.
     999902    2    1    2    0    0  0.49550963423E-02 -0.21705694333E-01  0.64286118604E-02  0.10207563685E+01  0.10204932859E+01 0.  0.
     999903    2    3    3    0    0  0.48707417136E-01 -0.10189071675E+00 -0.67381796193E-01  0.13295465656E+00  0.19557699223E-01 0.  0.
         14    1    1    2    0    0 -0.49550963423E-02  0.21705694333E-01 -0.64286118604E-02  0.23173631495E-01  0.00000000000E+00 0.  1.
     999901    1    3    3    0    0 -0.43752320794E-01  0.80185022418E-01  0.73810408053E-01  0.88780171194E+00  0.88000000000E+00 0.  1.
        -11    1    4    4    0    0  0.30368485070E-01 -0.44226993862E-01 -0.25799094841E-01  0.59532564930E-01  0.51100000000E-03 0.  1.
         11    1    4    4    0    0  0.18338932066E-01 -0.57663722888E-01 -0.41582701352E-01  0.73422091630E-01  0.51100000000E-03 0. -1.
</event>
<event>
 8    1  0.1112171E+005  0.1043930E+01  0.7957747E-01            NaN
         13   -1    0    0    0    0  0.00000000000E+00  0.00000000000E+00  0.74505805969E-08  0.10566000000E+00  0.10566000000E+00 0.  1.
     999900   -1    0    0    0    0 -0.00000000000E+00 -0.00000000000E+00 -0.74505805969E-08  0.93827000000E+00  0.93827000000E+00 0. -1.
     999902    2    1    2    0    0  0.27110147331E-02 -0.21483081323E-01 -0.10524744072E-01  0.10198542316E+01  0.10195700129E+01 0.  0.
     999903    2    3    3    0    0 -0.16646480118E-02  0.10637978431E+00 -0.69611035569E-01  0.12864199616E+00  0.19586662359E-01 0.  0.
         14    1    1    2    0    0 -0.27110147331E-02  0.21483081323E-01  0.10524744072E-01  0.24075768353E-01  0.00000000000E+00 0.  1.
     999901    1    3    3    0    0  0.43756627448E-02 -0.12786286563E+00  0.59086291497E-01  0.89121223548E+00  0.88000000000E+00 0. -1.
        -11    1    4    4    0    0 -0.18580007198E-02  0.22045103575E-01 -0.57753240671E-02  0.22870379258E-01  0.51100000000E-03 0.  1.
         11    1    4    4    0    0  0.19335270800E-03  0.84334680730E-01 -0.63835711502E-01  0.10577161691E+00  0.51100000000E-03 0. -1.
</event>
<event>
 8    1  0.1112171E+005  0.1043930E+01  0.7957747E-01            NaN
         13   -1    0    0    0    0  0.00000000000E+00  0.00000000000E+00  0.74505805969E-08  0.10566000000E+00  0.10566000000E+00 0. -1.
     999900   -1    0    0    0    0 -0.00000000000E+00 -0.00000000000E+00 -0.74505805969E-08  0.93827000000E+00  0.93827000000E+00 0.  1.
     999902    2    1    2    0    0 -0.17046758695E-01  0.16004192614E-01  0.22188498649E-02  0.10204427810E+01  0.10201724461E+01 0.  0.
     999903    2    3    3    0    0  0.43729467853E-01 -0.42751218577E-01 -0.11177951858E+00  0.12907216441E+00  0.20616250923E-01 0.  0.
         14    1    1    2    0    0  0.17046758695E-01 -0.16004192614E-01 -0.22188498649E-02  0.23487219034E-01  0.00000000000E+00 0.  1.
     999901    1    3    3    0    0 -0.60776226548E-01  0.58755411191E-01  0.11399836844E+00  0.89137061656E+00  0.88000000000E+00 0. -1.
        -11    1    4    4    0    0  0.15164771083E-01 -0.30472816500E-02 -0.30707026958E-01  0.34386608339E-01  0.51100000000E-03 0.  1.
         11    1    4    4    0    0  0.28564696770E-01 -0.39703936927E-01 -0.81072491621E-01  0.94685556067E-01  0.51100000000E-03 0. -1.
</event>
<event>
 8    1  0.1112171E+005  0.1043930E+01  0.7957747E-01            NaN
         13   -1    0    0    0    0  0.00000000000E+00  0.00000000000E+00  0.74505805969E-08  0.10566000000E+00  0.10566000000E+00 0.  1.
     999900   -1    0    0    0    0 -0.00000000000E+00 -0.00000000000E+00 -0.74505805969E-08  0.93827000000E+00  0.93827000000E+00 0.  1.
     999902    2    1    2    0    0  0.13882842572E-01 -0.16281034498E-01  0.78506568309E-02  0.10211388128E+01  0.10208844385E+01 0.  0.
     999903    2    3    3    0    0  0.24383172148E-01  0.11561825644E+00  0.50946776399E-01  0.13020393559E+00  0.19883925989E-01 0.  0.
         14    1    1    2    0    0 -0.13882842572E-01  0.16281034498E-01 -0.78506568309E-02  0.22791187220E-01  0.00000000000E+00 0. -1.
     999901    1    3    3    0    0 -0.10500329576E-01 -0.13189929093E+00 -0.43096119568E-01  0.89093487719E+00  0.88000000000E+00 0.  1.
        -11    1    4    4    0    0  0.21534921043E-01  0.57596959521E-01  0.22111971508E-01  0.65348014318E-01  0.51100000000E-03 0. -1.
         11    1    4    4    0    0  0.28482511042E-02  0.58021296915E-01  0.28834804890E-01  0.64855921273E-01  0.51100000000E-03 0.  1.
</event>
<event>
 8    1  0.1112171E+005  0.1043930E+01  0.7957747E-01            NaN
         13   -1    0    0    0    0  0.00000000000E+00  0.00000000000E+00  0.74505805969E-08  0.10566000000E+00  0.10566000000E+00 0.  1.
     999900   -1    0    0    0    0 -0.00000000000E+00 -0.00000000000E+00 -0.74505805969E-08  0.93827000000E+00  0.93827000000E+00 0. -1.
     999902    2    1    2    0    0  0.25496851251E-02  0.13748762810E-01  0.15500635770E-01  0.10230541986E+01  0.10228411872E+01 0.  0.
     999903    2    3    3    0    0  0.12002254011E+00  0.39924433531E-01  0.41044408882E-01  0.13449495935E+00  0.20121631705E-01 0.  0.
         14    1    1    2    0    0 -0.25496851251E-02 -0.13748762810E-01 -0.15500635770E-01  0.20875801358E-01  0.00000000000E+00 0. -1.
     999901    1    3    3    0    0 -0.11747285498E+00 -0.26175670721E-01 -0.25543773111E-01  0.88855923930E+00  0.88000000000E+00 0. -1.
        -11    1    4    4    0    0  0.39414455247E-01  0.16464120895E-01  0.23398094561E-01  0.48706247129E-01  0.51100000000E-03 0. -1.
         11    1    4    4    0    0  0.80608084860E-01  0.23460312636E-01  0.17646314320E-01  0.85788712217E-01  0.51100000000E-03 0.  1.
</event>
<event>
 8    1  0.1112171E+005  0.1043930E+01  0.7957747E-01            NaN
         13   -1    0    0    0    0  0.00000000000E+00  0.00000000000E+00  0.74505805969E-08  0.10566000000E+00  0.10566000000E+00 0.  1.
     999900   -1    0    0    0    0 -0.00000000000E+00 -0.00000000000E+00 -0.74505805969E-08  0.93827000000E+00  0.93827000000E+00 0.  1.
     999902    2    1    2    0    0  0.80224447994E-03 -0.51497966636E-02  0.23209486225E-01  0.10201425190E+01  0.10198651454E+01 0.  0.
     999903    2    3    3    0    0 -0.53866983908E-01  0.11517307975E+00  0.18507105046E-01  0.13026138563E+00  0.21424877951E-01 0.  0.
         14    1    1    2    0    0 -0.80224447994E-03  0.51497966636E-02 -0.23209486225E-01  0.23787481008E-01  0.00000000000E+00 0. -1.
     999901    1    3    3    0    0  0.54669228388E-01 -0.12032287641E+00  0.47023811791E-02  0.88988113336E+00  0.88000000000E+00 0. -1.
        -11    1    4    4    0    0 -0.44071974240E-01  0.71494259834E-01  0.15388210471E-01  0.85386335237E-01  0.51100000000E-03 0. -1.
         11    1    4    4    0    0 -0.97950096679E-02  0.43678819915E-01  0.31188945750E-02  0.44875050395E-01  0.51100000000E-03 0.  1.
</event>
<event>
 8    1  0.1112171E+005  0.1043930E+01  0.7957747E-01            NaN
         13   -1    0    0    0    0  0.00000000000E+00  0.00000000000E+00  0.74505805969E-08  0.10566000000E+00  0.10566000000E+00 0.  1.
     999900   -1    0    0    0    0 -0.00000000000E+00 -0.00000000000E+00 -0.74505805969E-08  0.93827000000E+00  0.93827000000E+00 0.  1.
     999902    2    1    2    0    0 -0.17048002672E-01 -0.13804752179E-01 -0.11909476202E-01  0.10189692067E+01  0.10186634395E+01 0.  0.
     999903    2    3    3    0    0 -0.27970067400E-01 -0.12707893693E+00 -0.47750074568E-02  0.13161288986E+00  0.19177361639E-01 0.  0.
         14    1    1    2    0    0  0.17048002672E-01  0.13804752179E-01  0.11909476202E-01  0.24960793282E-01  0.00000000000E+00 0. -1.
     999901    1    3    3    0    0  0.10922064727E-01  0.11327418475E+00 -0.71344687457E-02  0.88735631686E+00  0.88000000000E+00 0.  1.
        -11    1    4    4    0    0 -0.28239817910E-01 -0.89046828599E-01 -0.14331361173E-02  0.93429866741E-01  0.51100000000E-03 0.  1.
         11    1    4    4    0    0  0.26975051050E-03 -0.38032108328E-01 -0.33418713396E-02  0.38183023116E-01  0.51100000000E-03 0. -1.
</event>
<event>
 8    1  0.1112171E+005  0.1043930E+01  0.7957747E-01            NaN
         13   -1    0    0    0    0  0.00000000000E+00  0.00000000000E+00  0.74505805969E-08  0.10566000000E+00  0.10566000000E+00 0. -1.
     999900   -1    0    0    0    0 -0.00000000000E+00 -0.00000000000E+00 -0.74505805969E-08  0.93827000000E+00  0.93827000000E+00 0. -1.
     999902    2    1    2    0    0 -0.84211778532E-02  0.73937759213E-02  0.21792971872E-01  0.10194245357E+01  0.10191299555E+01 0.  0.
     999903    2    3    3    0    0 -0.17347769637E-01 -0.79137355061E-01 -0.96140455847E-01  0.12730592582E+00  0.20003635210E-01 0.  0.
         14    1    1    2    0    0  0.84211778532E-02 -0.73937759213E-02 -0.21792971872E-01  0.24505464326E-01  0.00000000000E+00 0.  1.
     999901    1    3    3    0    0  0.89265917838E-02  0.86531130983E-01  0.11793342772E+00  0.89211860985E+00  0.88000000000E+00 0. -1.
        -11    1    4    4    0    0 -0.72679729137E-02 -0.27548492200E-01 -0.49073552464E-01  0.56746960493E-01  0.51100000000E-03 0. -1.
         11    1    4    4    0    0 -0.10079796723E-01 -0.51588862862E-01 -0.47066903383E-01  0.70558965330E-01  0.51100000000E-03 0.  1.
</event>
<event>
 8    1  0.1112171E+005  0.1043930E+01  0.7957747E-01            NaN
         13   -1    0    0    0    0  0.00000000000E+00  0.00000000000E+00  0.74505805969E-08  0.10566000000E+00  0.10566000000E+00 0.  1.
     999900   -1    0    0    0    0 -0.00000000000E+00 -0.00000000000E+00 -0.74505805969E-08  0.93827000000E+00  0.93827000000E+00 0.  1.
     999902    2    1    2    0    0  0.25632312556E-02  0.15584923174E-01 -0.17793721273E-01  0.10201376377E+01  0.10198601490E+01 0.  0.
     999903    2    3    3    0    0  0.12384749881E+00 -0.33790753188E-01  0.68599924530E-02  0.13010638179E+00  0.20014822620E-01 0.  0.
         14    1    1    2    0    0 -0.25632312556E-02 -0.15584923174E-01  0.17793721273E-01  0.23792362253E-01  0.00000000000E+00 0. -1.
     999901    1    3    3    0    0 -0.12128426756E+00  0.49375676362E-01 -0.24653713726E-01  0.89003125595E+00  0.88000000000E+00 0. -1.
        -11    1    4    4    0    0  0.53609233584E-01 -0.58889625429E-02 -0.22455082148E-02  0.53980859881E-01  0.51100000000E-03 0.  1.
         11    1    4    4    0    0  0.70238265227E-01 -0.27901790645E-01  0.91055006678E-02  0.76125521914E-01  0.51100000000E-03 0. -1.
</event>
<event>
 8    1  0.1112171E+005  0.1043930E+01  0.7957747E-01            NaN
         13   -1    0    0    0    0  0.00000000000E+00  0.00000000000E+00  0.74505805969E-08  0.10566000000E+00  0.10566000000E+00 0.  1.
     999900   -1    0    0    0    0 -0.00000000000E+00 -0.00000000000E+00 -0.74505805969E-08  0.93827000000E+00  0.93827000000E+00 0.  1.
     999902    2    1    2    0    0  0.17904498483E-01  0.51644769902E-02 -0.15249197608E-01  0.10198513598E+01  0.10195670724E+01 0.  0.
     999903    2    3    3    0    0  0.66987443646E-01  0.11165056748E+00  0.38009407017E-02  0.13186975479E+00  0.20543082871E-01 0.  0.
         14    1    1    2    0    0 -0.17904498483E-01 -0.51644769902E-02  0.15249197608E-01  0.24078640248E-01  0.00000000000E+00 0.  1.
     999901    1    3    3    0    0 -0.49082945163E-01 -0.10648609049E+00 -0.19050138310E-01  0.88798160496E+00  0.88000000000E+00 0. -1.
        -11    1    4    4    0    0  0.43689588414E-01  0.61133192915E-01 -0.59949151374E-02  0.75380684133E-01  0.51100000000E-03 0. -1.
         11    1    4    4    0    0  0.23297855232E-01  0.50517374567E-01  0.97958558391E-02  0.56489070661E-01  0.51100000000E-03 0.  1.
</event>
<event>
 8    1  0.1112171E+005  0.1043930E+01  0.7957747E-01            NaN
         13   -1    0    0    0    0  0.00000000000E+00  0.00000000000E+00  0.74505805969E-08  0.10566000000E+00  0.10566000000E+00 0.  1.
     999900   -1    0    0    0    0 -0.00000000000E+00 -0.00000000000E+00 -0.74505805969E-08  0.93827000000E+00  0.93827000000E+00 0.  1.
     999902    2    1    2    0    0  0.61047388939E-03 -0.19013704158E-02 -0.24680199944E-01  0.10191691406E+01  0.10188683119E+01 0.  0.
     999903    2    3    3    0    0  0.12077535772E+00 -0.34279113615E-01 -0.29461525121E-01  0.13039989125E+00  0.19349561082E-01 0.  0.
         14    1    1    2    0    0 -0.61047388939E-03  0.19013704158E-02  0.24680199944E-01  0.24760859377E-01  0.00000000000E+00 0.  1.
     999901    1    3    3    0    0 -0.12016488383E+00  0.32377743199E-01  0.47813251769E-02  0.88876924937E+00  0.88000000000E+00 0.  1.
        -11    1    4    4    0    0  0.76955037380E-01 -0.27419964239E-01 -0.26736232092E-01  0.85959405794E-01  0.51100000000E-03 0. -1.
         11    1    4    4    0    0  0.43820320336E-01 -0.68591493764E-02 -0.27252930289E-02  0.44440485457E-01  0.51100000000E-03 0.  1.
</event>
<event>
 8    1  0.1112171E+005  0.1043930E+01  0.7957747E-01            NaN
         13   -1    0    0    0    0  0.00000000000E+00  0.00000000000E+00  0.74505805969E-08  0.10566000000E+00  0.10566000000E+00 0.  1.
     999900   -1    0    0    0    0 -0.00000000000E+00 -0.00000000000E+00 -0.74505805969E-08  0.93827000000E+00  0.93827000000E+00 0. -1.
     999902    2    1    2    0    0 -0.10795417575E-01 -0.13259862320E-01 -0.15280658559E-01  0.10209982858E+01  0.10207407291E+01 0.  0.
     999903    2    3    3    0    0  0.63522177334E-01  0.10765613992E+00 -0.31444894741E-01  0.12947988049E+00  0.12302299363E-01 0.  0.
         14    1    1    2    0    0  0.10795417575E-01  0.13259862320E-01  0.15280658559E-01  0.22931714183E-01  0.00000000000E+00 0.  1.
     999901    1    3    3    0    0 -0.74317594909E-01 -0.12091600224E+00  0.16164236181E-01  0.89151840533E+00  0.88000000000E+00 0. -1.
        -11    1    4    4    0    0  0.36499034375E-01  0.71891901823E-01 -0.23200074568E-01  0.83899521089E-01  0.51100000000E-03 0. -1.
         11    1    4    4    0    0  0.27023142959E-01  0.35764238098E-01 -0.82448201728E-02  0.45580359397E-01  0.51100000000E-03 0.  1.
</event>
<event>
 8    1  0.1112171E+005  0.1043930E+01  0.7957747E-01            NaN
         13   -1    0    0    0    0  0.00000000000E+00  0.00000000000E+00  0.74505805969E-08  0.10566000000E+00  0.10566000000E+00 0. -1.
     999900   -1    0    0    0    0 -0.00000000000E+00 -0.00000000000E+00 -0.74505805969E-08  0.93827000000E+00  0.93827000000E+00 0.  1.
     999902    2    1    2    0    0  0.91960937582E-02 -0.10228977031E-01 -0.22130666457E-02  0.10299981022E+01  0.10299038755E+01 0.  0.
     999903    2    3    3    0    0 -0.52492098888E-01  0.11788355748E+00 -0.43654800579E-01  0.13762168394E+00  0.19545656961E-01 0.  0.
         14    1    1    2    0    0 -0.91960937582E-02  0.10228977031E-01  0.22130666457E-02  0.13931897771E-01  0.00000000000E+00 0.  1.
     999901    1    3    3    0    0  0.61688192647E-01 -0.12811253451E+00  0.41441733933E-01  0.89237641829E+00  0.88000000000E+00 0. -1.
        -11    1    4    4    0    0 -0.35133535650E-01  0.77905810159E-01 -0.38488158189E-01  0.93729824632E-01  0.51100000000E-03 0. -1.
         11    1    4    4    0    0 -0.17358563239E-01  0.39977747323E-01 -0.51666423894E-02  0.43891859306E-01  0.51100000000E-03 0.  1.
</event>
<event>
 8    1  0.1112171E+005  0.1043930E+01  0.7957747E-01            NaN
         13   -1    0    0    0    0  0.00000000000E+00  0.00000000000E+00  0.74505805969E-08  0.10566000000E+00  0.10566000000E+00 0.  1.
     999900   -1    0    0    0    0 -0.00000000000E+00 -0.00000000000E+00 -0.74505805969E-08  0.93827000000E+00  0.93827000000E+00 0.  1.
     999902    2    1    2    0    0  0.60595054460E-02 -0.20403013559E-01 -0.62406077587E-02  0.10217501498E+01  0.10215093846E+01 0.  0.
     999903    2    3    3    0    0 -0.31811750643E-01 -0.44862784742E-02  0.12538479096E+00  0.13101291580E+00  0.20271263641E-01 0.  0.
         14    1    1    2    0    0 -0.60595054460E-02  0.20403013559E-01  0.62406077587E-02  0.22179850174E-01  0.00000000000E+00 0.  1.
     999901    1    3    3    0    0  0.37871256089E-01 -0.15916735084E-01 -0.13162539872E+00  0.89073723403E+00  0.88000000000E+00 0.  1.
        -11    1    4    4    0    0 -0.21723950599E-01 -0.63950336426E-03  0.11049802534E+00  0.11261622317E+00  0.51100000000E-03 0.  1.
         11    1    4    4    0    0 -0.10087800044E-01 -0.38467751100E-02  0.14886765613E-01  0.18396692634E-01  0.51100000000E-03 0. -1.
</event>
<event>
 8    1  0.1112171E+005  0.1043930E+01  0.7957747E-01            NaN
         13   -1    0    0    0    0  0.00000000000E+00  0.00000000000E+00  0.74505805969E-08  0.10566000000E+00  0.10566000000E+00 0.  1.
     999900   -1    0    0    0    0 -0.00000000000E+00 -0.00000000000E+00 -0.74505805969E-08  0.93827000000E+00  0.93827000000E+00 0.  1.
     999902    2    1    2    0    0  0.57326304262E-02 -0.18961996730E-01 -0.12934046214E-01  0.10202718107E+01  0.10199974793E+01 0.  0.
     999903    2    3    3    0    0  0.10161749099E+00  0.54105731259E-01  0.54055471334E-01  0.12953032469E+00  0.24547227993E-01 0.  0.
         14    1    1    2    0    0 -0.57326304262E-02  0.18961996730E-01  0.12934046214E-01  0.23658189344E-01  0.00000000000E+00 0.  1.
     999901    1    3    3    0    0 -0.95884860568E-01 -0.73067727988E-01 -0.66989517548E-01  0.89074148597E+00  0.88000000000E+00 0.  1.
        -11    1    4    4    0    0  0.64862731857E-01  0.21436213739E-01  0.35309714832E-01  0.76900730335E-01  0.51100000000E-03 0.  1.
         11    1    4    4    0    0  0.36754759137E-01  0.32669517520E-01  0.18745756502E-01  0.52629594355E-01  0.51100000000E-03 0. -1.
</event>
<event>
 8    1  0.1112171E+005  0.1043930E+01  0.7957747E-01            NaN
         13   -1    0    0    0    0  0.00000000000E+00  0.00000000000E+00  0.74505805969E-08  0.10566000000E+00  0.10566000000E+00 0. -1.
     999900   -1    0    0    0    0 -0.00000000000E+00 -0.00000000000E+00 -0.74505805969E-08  0.93827000000E+00  0.93827000000E+00 0. -1.
     999902    2    1    2    0    0 -0.10717173826E-01  0.10100448982E-01 -0.20071022851E-01  0.10190357669E+01  0.10187316483E+01 0.  0.
     999903    2    3    3    0    0  0.48940006640E-01  0.40009408167E-01  0.10871245800E+00  0.12716205947E+00  0.18865679260E-01 0.  0.
         14    1    1    2    0    0  0.10717173826E-01 -0.10100448982E-01  0.20071022851E-01  0.24894233123E-01  0.00000000000E+00 0. -1.
     999901    1    3    3    0    0 -0.59657180466E-01 -0.29908959185E-01 -0.12878348085E+00  0.89187370740E+00  0.88000000000E+00 0. -1.
        -11    1    4    4    0    0  0.32709314850E-01  0.15311215677E-01  0.53806816525E-01  0.64805611092E-01  0.51100000000E-03 0. -1.
         11    1    4    4    0    0  0.16230691789E-01  0.24698192490E-01  0.54905641472E-01  0.62356448381E-01  0.51100000000E-03 0.  1.
</event>
<event>
 8    1  0.1112171E+005  0.1043930E+01  0.7957747E-01            NaN
         13   -1    0    0    0    0  0.00000000000E+00  0.00000000000E+00  0.74505805969E-08  0.10566000000E+00  0.10566000000E+00 0. -1.
     999900   -1    0    0    0    0 -0.00000000000E+00 -0.00000000000E+00 -0.74505805969E-08  0.93827000000E+00  0.93827000000E+00 0. -1.
     999902    2    1    2    0    0 -0.12321131017E-01 -0.14479239831E-01  0.14392657175E-01  0.10200845133E+01  0.10198057693E+01 0.  0.
     999903    2    3    3    0    0 -0.91122731830E-02  0.56208326116E-01  0.11673005293E+00  0.13133259554E+00  0.19491945671E-01 0.  0.
         14    1    1    2    0    0  0.12321131017E-01  0.14479239831E-01 -0.14392657175E-01  0.23845486705E-01  0.00000000000E+00 0.  1.
     999901    1    3    3    0    0 -0.32088578337E-02 -0.70687565947E-01 -0.10233739576E+00  0.88875191776E+00  0.88000000000E+00 0.  1.
        -11    1    4    4    0    0 -0.88869734949E-02  0.37484037829E-01  0.95729740028E-01  0.10319145137E+00  0.51100000000E-03 0.  1.
         11    1    4    4    0    0 -0.22529968805E-03  0.18724288287E-01  0.21000312903E-01  0.28141144164E-01  0.51100000000E-03 0. -1.
</event>
<event>
 8    1  0.1112171E+005  0.1043930E+01  0.7957747E-01            NaN
         13   -1    0    0    0    0  0.00000000000E+00  0.00000000000E+00  0.74505805969E-08  0.10566000000E+00  0.10566000000E+00 0. -1.
     999900   -1    0    0    0    0 -0.00000000000E+00 -0.00000000000E+00 -0.74505805969E-08  0.93827000000E+00  0.93827000000E+00 0.  1.
     999902    2    1    2    0    0 -0.20380837339E-01 -0.42999929739E-02  0.12187558679E-01  0.10197969302E+01  0.10195113407E+01 0.  0.
     999903    2    3    3    0    0  0.12387878646E+00 -0.54418908182E-02 -0.21509537012E-01  0.12741380777E+00  0.19901012926E-01 0.  0.
         14    1    1    2    0    0  0.20380837339E-01  0.42999929739E-02 -0.12187558679E-01  0.24133069775E-01  0.00000000000E+00 0.  1.
     999901    1    3    3    0    0 -0.14425962380E+00  0.11418978443E-02  0.33697095691E-01  0.89238312246E+00  0.88000000000E+00 0.  1.
        -11    1    4    4    0    0  0.29320966136E-01 -0.79109797228E-02  0.15066380702E-03  0.30374108644E-01  0.51100000000E-03 0.  1.
         11    1    4    4    0    0  0.94557820328E-01  0.24690889046E-02 -0.21660200819E-01  0.97039699122E-01  0.51100000000E-03 0. -1.
</event>
<event>
 8    1  0.1112171E+005  0.1043930E+01  0.7957747E-01            NaN
         13   -1    0    0    0    0  0.00000000000E+00  0.00000000000E+00  0.74505805969E-08  0.10566000000E+00  0.10566000000E+00 0.  1.
     999900   -1    0    0    0    0 -0.00000000000E+00 -0.00000000000E+00 -0.74505805969E-08  0.93827000000E+00  0.93827000000E+00 0. -1.
     999902    2    1    2    0    0 -0.19049395560E-01  0.21622120212E-02 -0.13683521649E-01  0.10203759473E+01  0.10201040538E+01 0.  0.
     999903    2    3    3    0    0  0.10522018812E+00 -0.63726902392E-01 -0.33531137201E-01  0.12898476908E+00  0.19501984944E-01 0.  0.
         14    1    1    2    0    0  0.19049395560E-01 -0.21622120212E-02  0.13683521649E-01  0.23554052661E-01  0.00000000000E+00 0.  1.
     999901    1    3    3    0    0 -0.12426958368E+00  0.65889114413E-01  0.19847615551E-01  0.89139117825E+00  0.88000000000E+00 0. -1.
        -11    1    4    4    0    0  0.76516829637E-01 -0.53286957347E-01 -0.31292735675E-01  0.98355586867E-01  0.51100000000E-03 0.  1.
         11    1    4    4    0    0  0.28703358486E-01 -0.10439945046E-01 -0.22384015259E-02  0.30629182218E-01  0.51100000000E-03 0. -1.
</event>
<event>
 8    1  0.1112171E+005  0.1043930E+01  0.7957747E-01            NaN
         13   -1    0    0    0    0  0.00000000000E+00  0.00000000000E+00  0.74505805969E-08  0.10566000000E+00  0.10566000000E+00 0. -1.
     999900   -1    0    0    0    0 -0.00000000000E+00 -0.00000000000E+00 -0.74505805969E-08  0.93827000000E+00  0.93827000000E+00 0.  1.
     999902    2    1    2    0    0  0.21067664474E-01 -0.95992578397E-02  0.48423935806E-02  0.10202774946E+01  0.10200032965E+01 0.  0.
     999903    2    3    3    0    0  0.74715233960E-01  0.10470808470E+00 -0.15133416548E-01  0.13104003289E+00  0.19907805900E-01 0.  0.
         14    1    1    2    0    0 -0.21067664474E-01  0.95992578397E-02 -0.48423935806E-02  0.23652505428E-01  0.00000000000E+00 0. -1.
     999901    1    3    3    0    0 -0.53647569486E-01 -0.11430734254E+00  0.19975810128E-01  0.88923746168E+00  0.88000000000E+00 0. -1.
        -11    1    4    4    0    0  0.73236165918E-02  0.69849450625E-02 -0.64551107594E-02  0.12014757319E-01  0.51100000000E-03 0. -1.
         11    1    4    4    0    0  0.67391617368E-01  0.97723139637E-01 -0.86783057882E-02  0.11902527557E+00  0.51100000000E-03 0.  1.
</event>
<event>
 8    1  0.1112171E+005  0.1043930E+01  0.7957747E-01            NaN
         13   -1    0    0    0    0  0.00000000000E+00  0.00000000000E+00  0.74505805969E-08  0.10566000000E+00  0.10566000000E+00 0.  1.
     999900   -1    0    0    0    0 -0.00000000000E+00 -0.00000000000E+00 -0.74505805969E-08  0.93827000000E+00  0.93827000000E+00 0. -1.
     999902    2    1    2    0    0 -0.97476468468E-02 -0.25296313004E-01 -0.89839364863E-03  0.10168057086E+01  0.10164438607E+01 0.  0.
     999903    2    3    3    0    0  0.33029026033E-01 -0.55188900023E-01  0.10962210277E+00  0.12835864177E+00  0.17950048845E-01 0.  0.
         14    1    1    2    0    0  0.97476468468E-02  0.25296313004E-01  0.89839364863E-03  0.27124291360E-01  0.00000000000E+00 0.  1.
     999901    1    3    3    0    0 -0.42776672879E-01  0.29892587019E-01 -0.11052049642E+00  0.88844706687E+00  0.88000000000E+00 0. -1.
        -11    1    4    4    0    0  0.14705718131E-01 -0.40841052725E-01  0.74425557306E-01  0.86160747645E-01  0.51100000000E-03 0.  1.
         11    1    4    4    0    0  0.18323307901E-01 -0.14347847298E-01  0.35196545469E-01  0.42197894124E-01  0.51100000000E-03 0. -1.
</event>
<event>
 8    1  0.1112171E+005  0.1043930E+01  0.7957747E-01            NaN
         13   -1    0    0    0    0  0.00000000000E+00  0.00000000000E+00  0.74505805969E-08  0.10566000000E+00  0.10566000000E+00 0.  1.
     999900   -1    0    0    0    0 -0.00000000000E+00 -0.00000000000E+00 -0.74505805969E-08  0.93827000000E+00  0.93827000000E+00 0.  1.
     999902    2    1    2    0    0  0.19181080405E-01  0.11329108972E-01 -0.34082803291E-02  0.10213938306E+01  0.10211451798E+01 0.  0.
     999903    2    3    3    0    0 -0.70339759846E-01  0.90399844608E-01  0.60437307291E-01  0.13103299302E+00  0.19928959491E-01 0.  0.
         14    1    1    2    0    0 -0.19181080405E-01 -0.11329108972E-01  0.34082803291E-02  0.22536169382E-01  0.00000000000E+00 0. -1.
     999901    1    3    3    0    0  0.89520840251E-01 -0.79070735635E-01 -0.63845587620E-01  0.89036083760E+00  0.88000000000E+00 0.  1.
        -11    1    4    4    0    0 -0.47160649399E-01  0.48766478930E-01  0.28033543150E-01  0.73405973745E-01  0.51100000000E-03 0.  1.
         11    1    4    4    0    0 -0.23179110448E-01  0.41633365678E-01  0.32403764141E-01  0.57627019273E-01  0.51100000000E-03 0. -1.
</event>
<event>
 8    1  0.1112171E+005  0.1043930E+01  0.7957747E-01            NaN
         13   -1    0    0    0    0  0.00000000000E+00  0.00000000000E+00  0.74505805969E-08  0.10566000000E+00  0.10566000000E+00 0.  1.
     999900   -1    0    0    0    0 -0.00000000000E+00 -0.00000000000E+00 -0.74505805969E-08  0.93827000000E+00  0.93827000000E+00 0. -1.
     999902    2    1    2    0    0 -0.17542904257E-01 -0.57734875460E-02  0.15231352742E-01  0.10199908949E+01  0.10197099317E+01 0.  0.
     999903    2    3    3    0    0 -0.67111172629E-01 -0.28007420952E-01 -0.10621116964E+00  0.12999109303E+00  0.18125854190E-01 0.  0.
         14    1    1    2    0    0  0.17542904257E-01  0.57734875460E-02 -0.15231352742E-01  0.23939105133E-01  0.00000000000E+00 0. -1.
     999901    1    3    3    0    0  0.49568268372E-01  0.22233933406E-01  0.12144252239E+00  0.88999980184E+00  0.88000000000E+00 0.  1.
        -11    1    4    4    0    0 -0.53552988657E-01 -0.29230597173E-01 -0.81973843382E-01  0.10218768284E+00  0.51100000000E-03 0. -1.
         11    1    4    4    0    0 -0.13558183972E-01  0.12231762206E-02 -0.24237326263E-01  0.27803410187E-01  0.51100000000E-03 0.  1.
</event>
<event>
 8    1  0.1112171E+005  0.1043930E+01  0.7957747E-01            NaN
         13   -1    0    0    0    0  0.00000000000E+00  0.00000000000E+00  0.74505805969E-08  0.10566000000E+00  0.10566000000E+00 0.  1.
     999900   -1    0    0    0    0 -0.00000000000E+00 -0.00000000000E+00 -0.74505805969E-08  0.93827000000E+00  0.93827000000E+00 0. -1.
     999902    2    1    2    0    0  0.19251891581E-01  0.16058175605E-03 -0.14070664860E-01  0.10200837272E+01  0.10198049646E+01 0.  0.
     999903    2    3    3    0    0  0.74909676577E-01  0.63178015704E-01 -0.87724364979E-01  0.13301335033E+00  0.19851091705E-01 0.  0.
         14    1    1    2    0    0 -0.19251891581E-01 -0.16058175605E-03  0.14070664860E-01  0.23846272781E-01  0.00000000000E+00 0. -1.
     999901    1    3    3    0    0 -0.55657784996E-01 -0.63017433948E-01  0.73653700119E-01  0.88707037689E+00  0.88000000000E+00 0.  1.
        -11    1    4    4    0    0  0.10143831918E-01  0.12220905663E-02 -0.11100433933E-01  0.15095416054E-01  0.51100000000E-03 0.  1.
         11    1    4    4    0    0  0.64765844659E-01  0.61955925138E-01 -0.76623931046E-01  0.11791793428E+00  0.51100000000E-03 0. -1.
</event>
<event>
 8    1  0.1112171E+005  0.1043930E+01  0.7957747E-01            NaN
         13   -1    0    0    0    0  0.00000000000E+00  0.00000000000E+00  0.74505805969E-08  0.10566000000E+00  0.10566000000E+00 0. -1.
     999900   -1    0    0    0    0 -0.00000000000E+00 -0.00000000000E+00 -0.74505805969E-08  0.93827000000E+00  0.93827000000E+00 0. -1.
     999902    2    1    2    0    0 -0.16802161260E-01  0.37934429169E-02  0.15892904542E-01  0.10204931221E+01  0.10202239582E+01 0.  0.
     999903    2    3    3    0    0  0.36346107123E-01 -0.12247351408E+00 -0.89029420437E-02  0.12954816481E+00  0.19561786063E-01 0.  0.
         14    1    1    2    0    0  0.16802161260E-01 -0.37934429169E-02 -0.15892904542E-01  0.23436877927E-01  0.00000000000E+00 0. -1.
     999901    1    3    3    0    0 -0.53148268383E-01  0.12626695700E+00  0.24795846585E-01  0.89094495726E+00  0.88000000000E+00 0.  1.
        -11    1    4    4    0    0  0.10683536175E-01 -0.64901532357E-01 -0.98258189076E-02  0.66506801800E-01  0.51100000000E-03 0. -1.
         11    1    4    4    0    0  0.25662570948E-01 -0.57571981727E-01  0.92287686390E-03  0.63041363012E-01  0.51100000000E-03 0.  1.
</event>
<event>
 8    1  0.1112171E+005  0.1043930E+01  0.7957747E-01            NaN
         13   -1    0    0    0    0  0.00000000000E+00  0.00000000000E+00  0.74505805969E-08  0.10566000000E+00  0.10566000000E+00 0. -1.
     999900   -1    0    0    0    0 -0.00000000000E+00 -0.00000000000E+00 -0.74505805969E-08  0.93827000000E+00  0.93827000000E+00 0. -1.
     999902    2    1    2    0    0 -0.77338301593E-03  0.17127902700E-01  0.19844508813E-01  0.10177046744E+01  0.10173667169E+01 0.  0.
     999903    2    3    3    0    0  0.67461530151E-01 -0.49920067103E-01 -0.91174019810E-01  0.12558554149E+00  0.20394979596E-01 0.  0.
         14    1    1    2    0    0  0.77338301593E-03 -0.17127902700E-01 -0.19844508813E-01  0.26225325588E-01  0.00000000000E+00 0.  1.
     999901    1    3    3    0    0 -0.68234913167E-01  0.67047969803E-01  0.11101852862E+00  0.89211913292E+00  0.88000000000E+00 0.  1.
        -11    1    4    4    0    0  0.31583158954E-01 -0.11684079104E-01 -0.31046587264E-01  0.45805734747E-01  0.51100000000E-03 0. -1.
         11    1    4    4    0    0  0.35878371197E-01 -0.38235987999E-01 -0.60127432547E-01  0.79779806742E-01  0.51100000000E-03 0.  1.
</event>
<event>
 8    1  0.1112171E+005  0.1043930E+01  0.7957747E-01            NaN
         13   -1    0    0    0    0  0.00000000000E+00  0.00000000000E+00  0.74505805969E-08  0.10566000000E+00  0.10566000000E+00 0.  1.
     999900   -1    0    0    0    0 -0.00000000000E+00 -0.00000000000E+00 -0.74505805969E-08  0.93827000000E+00  0.93827000000E+00 0.  1.
     999902    2    1    2    0    0  0.73813712380E-03  0.17279588846E-01 -0.15311240127E-01  0.10208310149E+01  0.10205696438E+01 0.  0.
     999903    2    3    3    0    0 -0.14881004137E-01  0.82649863224E-01  0.98526223323E-01  0.13095675503E+00  0.19743627592E-01 0.  0.
         14    1    1    2    0    0 -0.73813712380E-03 -0.17279588846E-01  0.15311240127E-01  0.23098985071E-01  0.00000000000E+00 0.  1.
     999901    1    3    3    0    0  0.15619141260E-01 -0.65370274379E-01 -0.11383746345E+00  0.88987425990E+00  0.88000000000E+00 0.  1.
        -11    1    4    4    0    0 -0.96462151800E-02  0.63483858520E-01  0.86488710517E-01  0.10772097255E+00  0.51100000000E-03 0. -1.
         11    1    4    4    0    0 -0.52347889567E-02  0.19166004705E-01  0.12037512806E-01  0.23235782477E-01  0.51100000000E-03 0.  1.
</event>
<event>
 8    1  0.1112171E+005  0.1043930E+01  0.7957747E-01            NaN
         13   -1    0    0    0    0  0.00000000000E+00  0.00000000000E+00  0.74505805969E-08  0.10566000000E+00  0.10566000000E+00 0. -1.
     999900   -1    0    0    0    0 -0.00000000000E+00 -0.00000000000E+00 -0.74505805969E-08  0.93827000000E+00  0.93827000000E+00 0. -1.
     999902    2    1    2    0    0 -0.22221588569E-01 -0.80284599181E-02 -0.64658558984E-02  0.10194338277E+01  0.10191394735E+01 0.  0.
     999903    2    3    3    0    0 -0.26553066886E-01  0.17206111030E-01  0.12310088132E+00  0.12957817381E+00  0.25210325848E-01 0.  0.
         14    1    1    2    0    0  0.22221588569E-01  0.80284599181E-02  0.64658558984E-02  0.24496172347E-01  0.00000000000E+00 0. -1.
     999901    1    3    3    0    0  0.43314783178E-02 -0.25234570948E-01 -0.12956673722E+00  0.88985565384E+00  0.88000000000E+00 0. -1.
        -11    1    4    4    0    0 -0.29692583595E-01  0.81406947893E-02  0.90833464025E-01  0.95910894793E-01  0.51100000000E-03 0. -1.
         11    1    4    4    0    0  0.31395167088E-02  0.90654162409E-02  0.32267417295E-01  0.33667279021E-01  0.51100000000E-03 0.  1.
</event>
<event>
 8    1  0.1112171E+005  0.1043930E+01  0.7957747E-01            NaN
         13   -1    0    0    0    0  0.00000000000E+00  0.00000000000E+00  0.74505805969E-08  0.10566000000E+00  0.10566000000E+00 0.  1.
     999900   -1    0    0    0    0 -0.00000000000E+00 -0.00000000000E+00 -0.74505805969E-08  0.93827000000E+00  0.93827000000E+00 0.  1.
     999902    2    1    2    0    0  0.20526013668E-01  0.13479310800E-01  0.23905168569E-03  0.10193725937E+01  0.10190767482E+01 0.  0.
     999903    2    3    3    0    0  0.10502937935E+00  0.78962123156E-01  0.60430175294E-02  0.13288373112E+00  0.18851538815E-01 0.  0.
         14    1    1    2    0    0 -0.20526013668E-01 -0.13479310800E-01 -0.23905168569E-03  0.24557406265E-01  0.00000000000E+00 0.  1.
     999901    1    3    3    0    0 -0.84503365679E-01 -0.65482812356E-01 -0.58039658437E-02  0.88648886262E+00  0.88000000000E+00 0. -1.
        -11    1    4    4    0    0  0.41389603714E-01  0.39046236927E-01 -0.42337365747E-02  0.57060437785E-01  0.51100000000E-03 0.  1.
         11    1    4    4    0    0  0.63639775633E-01  0.39915886229E-01  0.10276754104E-01  0.75823293333E-01  0.51100000000E-03 0. -1.
</event>
<event>
 8    1  0.1112171E+005  0.1043930E+01  0.7957747E-01            NaN
         13   -1    0    0    0    0  0.00000000000E+00  0.00000000000E+00  0.74505805969E-08  0.10566000000E+00  0.10566000000E+00 0. -1.
     999900   -1    0    0    0    0 -0.00000000000E+00 -0.00000000000E+00 -0.74505805969E-08  0.93827000000E+00  0.93827000000E+00 0.  1.
     999902    2    1    2    0    0  0.12046919291E-01 -0.15177051324E-01  0.13188256576E-01  0.10204906898E+01  0.10202214694E+01 0.  0.
     999903    2    3    3    0    0 -0.87387026371E-01 -0.83365418045E-01  0.47298804509E-01  0.13161483098E+00  0.22338341979E-01 0.  0.
         14    1    1    2    0    0 -0.12046919291E-01  0.15177051324E-01 -0.13188256576E-01  0.23439310203E-01  0.00000000000E+00 0.  1.
     999901    1    3    3    0    0  0.99433945662E-01  0.68188366721E-01 -0.34110547933E-01  0.88887585882E+00  0.88000000000E+00 0.  1.
        -11    1    4    4    0    0 -0.29779369293E-01 -0.24144029502E-01  0.46064983704E-02  0.38616394761E-01  0.51100000000E-03 0. -1.
         11    1    4    4    0    0 -0.57607657078E-01 -0.59221388542E-01  0.42692306139E-01  0.92998436220E-01  0.51100000000E-03 0.  1.
</event>
<event>
 8    1  0.1112171E+005  0.1043930E+01  0.7957747E-01            NaN
         13   -1    0    0    0    0  0.00000000000E+00  0.00000000000E+00  0.74505805969E-08  0.10566000000E+00  0.10566000000E+00 0.  1.
     999900   -1    0    0    0    0 -0.00000000000E+00 -0.00000000000E+00 -0.74505805969E-08  0.93827000000E+00  0.93827000000E+00 0.  1.
     999902    2    1    2    0    0 -0.21555355835E-01 -0.69440246472E-03  0.41607924488E-02  0.10219657619E+01  0.10217297054E+01 0.  0.
     999903    2    3    3    0    0  0.10267364699E+00 -0.76228653964E-01 -0.10158882092E-01  0.12992130039E+00  0.20582904028E-01 0.  0.
         14    1    1    2    0    0  0.21555355835E-01  0.69440246472E-03 -0.41607924488E-02  0.21964238064E-01  0.00000000000E+00 0.  1.
     999901    1    3    3    0    0 -0.12422900283E+00  0.75534251500E-01  0.14319674541E-01  0.89204446154E+00  0.88000000000E+00 0.  1.
        -11    1    4    4    0    0  0.69393047484E-01 -0.41853579050E-01 -0.16274800836E-03  0.81039525704E-01  0.51100000000E-03 0. -1.
         11    1    4    4    0    0  0.33280599508E-01 -0.34375074915E-01 -0.99961340836E-02  0.48881774687E-01  0.51100000000E-03 0.  1.
</event>
<event>
 8    1  0.1112171E+005  0.1043930E+01  0.7957747E-01            NaN
         13   -1    0    0    0    0  0.00000000000E+00  0.00000000000E+00  0.74505805969E-08  0.10566000000E+00  0.10566000000E+00 0. -1.
     999900   -1    0    0    0    0 -0.00000000000E+00 -0.00000000000E+00 -0.74505805969E-08  0.93827000000E+00  0.93827000000E+00 0.  1.
     999902    2    1    2    0    0  0.17047251924E-01 -0.15487240544E-01 -0.48178372730E-02  0.10203997009E+01  0.10201283619E+01 0.  0.
     999903    2    3    3    0    0  0.62618546571E-01  0.30767341420E-01 -0.10982244642E+00  0.13178156181E+00  0.20921248115E-01 0.  0.
         14    1    1    2    0    0 -0.17047251924E-01  0.15487240544E-01  0.48178372730E-02  0.23530299059E-01  0.00000000000E+00 0. -1.
     999901    1    3    3    0    0 -0.45571294647E-01 -0.46254581964E-01  0.10500460915E+00  0.88861813913E+00  0.88000000000E+00 0. -1.
        -11    1    4    4    0    0  0.28919056701E-01  0.60915397666E-02 -0.59049743499E-01  0.66034476037E-01  0.51100000000E-03 0. -1.
         11    1    4    4    0    0  0.33699489870E-01  0.24675801654E-01 -0.50772702922E-01  0.65747085774E-01  0.51100000000E-03 0.  1.
</event>
<event>
 8    1  0.1112171E+005  0.1043930E+01  0.7957747E-01            NaN
         13   -1    0    0    0    0  0.00000000000E+00  0.00000000000E+00  0.74505805969E-08  0.10566000000E+00  0.10566000000E+00 0.  1.
     999900   -1    0    0    0    0 -0.00000000000E+00 -0.00000000000E+00 -0.74505805969E-08  0.93827000000E+00  0.93827000000E+00 0.  1.
     999902    2    1    2    0    0  0.10093483618E-01 -0.16230839371E-01  0.13017376643E-01  0.10208048913E+01  0.10205429219E+01 0.  0.
     999903    2    3    3    0    0 -0.67697815041E-01 -0.68338172209E-01 -0.85373056244E-01  0.13038513771E+00  0.21415542506E-01 0.  0.
         14    1    1    2    0    0 -0.10093483618E-01  0.16230839371E-01 -0.13017376643E-01  0.23125108711E-01  0.00000000000E+00 0. -1.
     999901    1    3    3    0    0  0.77791298659E-01  0.52107332837E-01  0.98390432886E-01  0.89041975358E+00  0.88000000000E+00 0. -1.
        -11    1    4    4    0    0 -0.33043374829E-01 -0.45467158114E-01 -0.40719464825E-01  0.69407946402E-01  0.51100000000E-03 0.  1.
         11    1    4    4    0    0 -0.34654440212E-01 -0.22871014095E-01 -0.44653591419E-01  0.60977191307E-01  0.51100000000E-03 0. -1.
</event>
<event>
 8    1  0.1112171E+005  0.1043930E+01  0.7957747E-01            NaN
         13   -1    0    0    0    0  0.00000000000E+00  0.00000000000E+00  0.74505805969E-08  0.10566000000E+00  0.10566000000E+00 0. -1.
     999900   -1    0    0    0    0 -0.00000000000E+00 -0.00000000000E+00 -0.74505805969E-08  0.93827000000E+00  0.93827000000E+00 0.  1.
     999902    2    1    2    0    0 -0.49643140239E-02  0.15693026360E-02 -0.18606185302E-01  0.10246090980E+01  0.10244269161E+01 0.  0.
     999903    2    3    3    0    0 -0.45729022885E-01 -0.39323806929E-01  0.11624868678E+00  0.13246569893E+00  0.19897208084E-01 0.  0.
         14    1    1    2    0    0  0.49643140239E-02 -0.15693026360E-02  0.18606185302E-01  0.19320902049E-01  0.00000000000E+00 0. -1.
     999901    1    3    3    0    0  0.40764708862E-01  0.40893109565E-01 -0.13485487208E+00  0.89214339902E+00  0.88000000000E+00 0.  1.
        -11    1    4    4    0    0 -0.23247801199E-01 -0.13816518039E-01  0.70137146486E-01  0.75172048459E-01  0.51100000000E-03 0.  1.
         11    1    4    4    0    0 -0.22481221686E-01 -0.25507288890E-01  0.46111540291E-01  0.57293650468E-01  0.51100000000E-03 0. -1.
</event>
<event>
 8    1  0.1112171E+005  0.1043930E+01  0.7957747E-01            NaN
         13   -1    0    0    0    0  0.00000000000E+00  0.00000000000E+00  0.74505805969E-08  0.10566000000E+00  0.10566000000E+00 0. -1.
     999900   -1    0    0    0    0 -0.00000000000E+00 -0.00000000000E+00 -0.74505805969E-08  0.93827000000E+00  0.93827000000E+00 0.  1.
     999902    2    1    2    0    0  0.13991878333E-01 -0.11007315656E-01 -0.14473145059E-01  0.10209864696E+01  0.10207286445E+01 0.  0.
     999903    2    3    3    0    0  0.66174299714E-01 -0.11334510288E+00 -0.13511943151E-01  0.13351987776E+00  0.20465455284E-01 0.  0.
         14    1    1    2    0    0 -0.13991878333E-01  0.11007315656E-01  0.14473145059E-01  0.22943530355E-01  0.00000000000E+00 0. -1.
     999901    1    3    3    0    0 -0.52182421382E-01  0.10233778723E+00 -0.96120190888E-03  0.88746659188E+00  0.88000000000E+00 0.  1.
        -11    1    4    4    0    0  0.45291443894E-01 -0.84952339354E-01 -0.15142428701E-02  0.96284832161E-01  0.51100000000E-03 0.  1.
         11    1    4    4    0    0  0.20882855820E-01 -0.28392763530E-01 -0.11997700280E-01  0.37235045603E-01  0.51100000000E-03 0. -1.
</event>
<event>
 8    1  0.1112171E+005  0.1043930E+01  0.7957747E-01            NaN
         13   -1    0    0    0    0  0.00000000000E+00  0.00000000000E+00  0.74505805969E-08  0.10566000000E+00  0.10566000000E+00 0.  1.
     999900   -1    0    0    0    0 -0.00000000000E+00 -0.00000000000E+00 -0.74505805969E-08  0.93827000000E+00  0.93827000000E+00 0.  1.
     999902    2    1    2    0    0  0.63511042156E-02  0.19228570247E-01  0.13760592706E-01  0.10194467741E+01  0.10191527348E+01 0.  0.
     999903    2    3    3    0    0  0.29986436771E-01  0.12735552076E+00  0.66515399668E-02  0.13248532906E+00  0.19735865173E-01 0.  0.
         14    1    1    2    0    0 -0.63511042156E-02 -0.19228570247E-01 -0.13760592706E-01  0.24483225893E-01  0.00000000000E+00 0. -1.
     999901    1    3    3    0    0 -0.23635332556E-01 -0.10812695051E+00  0.71090527392E-02  0.88696144505E+00  0.88000000000E+00 0. -1.
        -11    1    4    4    0    0  0.32622277585E-01  0.11193881207E+00  0.72827642870E-02  0.11682384354E+00  0.51100000000E-03 0. -1.
         11    1    4    4    0    0 -0.26358408135E-02  0.15416708683E-01 -0.63122432016E-03  0.15661485516E-01  0.51100000000E-03 0.  1.
</event>
<event>
 8    1  0.1112171E+005  0.1043930E+01  0.7957747E-01            NaN
         13   -1    0    0    0    0  0.00000000000E+00  0.00000000000E+00  0.74505805969E-08  0.10566000000E+00  0.10566000000E+00 0. -1.
     999900   -1    0    0    0    0 -0.00000000000E+00 -0.00000000000E+00 -0.74505805969E-08  0.93827000000E+00  0.93827000000E+00 0. -1.
     999902    2    1    2    0    0  0.13507725950E-01 -0.16008181946E-01 -0.25283458201E-02  0.10228322968E+01  0.10226146851E+01 0.  0.
     999903    2    3    3    0    0  0.37516876101E-01 -0.11945047174E+00  0.46797802091E-01  0.13507680369E+00  0.19487878826E-01 0.  0.
         14    1    1    2    0    0 -0.13507725950E-01  0.16008181946E-01  0.25283458201E-02  0.21097703244E-01  0.00000000000E+00 0. -1.
     999901    1    3    3    0    0 -0.24009150151E-01  0.10344228980E+00 -0.49326147911E-01  0.88775549307E+00  0.88000000000E+00 0. -1.
        -11    1    4    4    0    0  0.20169141685E-01 -0.50353126343E-01  0.11014562731E-01  0.55351723749E-01  0.51100000000E-03 0. -1.
         11    1    4    4    0    0  0.17347734415E-01 -0.69097345401E-01  0.35783239359E-01  0.79725079937E-01  0.51100000000E-03 0.  1.
</event>
<event>
 8    1  0.1112171E+005  0.1043930E+01  0.7957747E-01            NaN
         13   -1    0    0    0    0  0.00000000000E+00  0.00000000000E+00  0.74505805969E-08  0.10566000000E+00  0.10566000000E+00 0. -1.
     999900   -1    0    0    0    0 -0.00000000000E+00 -0.00000000000E+00 -0.74505805969E-08  0.93827000000E+00  0.93827000000E+00 0.  1.
     999902    2    1    2    0    0 -0.15166564288E-01 -0.16030418094E-01  0.66971899011E-02  0.10208680979E+01  0.10206075749E+01 0.  0.
     999903    2    3    3    0    0 -0.69207641826E-01  0.57346631048E-01  0.94370896574E-01  0.13182855532E+00  0.19863738270E-01 0.  0.
         14    1    1    2    0    0  0.15166564288E-01  0.16030418094E-01 -0.66971899011E-02  0.23061902114E-01  0.00000000000E+00 0.  1.
     999901    1    3    3    0    0  0.54041077538E-01 -0.73377049141E-01 -0.87673706673E-01  0.88903954256E+00  0.88000000000E+00 0. -1.
        -11    1    4    4    0    0 -0.62578340720E-01  0.42278394953E-01  0.75690528092E-01  0.10692440587E+00  0.51100000000E-03 0. -1.
         11    1    4    4    0    0 -0.66293011058E-02  0.15068236095E-01  0.18680368482E-01  0.24904149450E-01  0.51100000000E-03 0.  1.
</event>
<event>
 8    1  0.1112171E+005  0.1043930E+01  0.7957747E-01            NaN
         13   -1    0    0    0    0  0.00000000000E+00  0.00000000000E+00  0.74505805969E-08  0.10566000000E+00  0.10566000000E+00 0. -1.
     999900   -1    0    0    0    0 -0.00000000000E+00 -0.00000000000E+00 -0.74505805969E-08  0.93827000000E+00  0.93827000000E+00 0. -1.
     999902    2    1    2    0    0  0.17840478829E-01 -0.13674791031E-01  0.83009513042E-02  0.10199677717E+01  0.10196862590E+01 0.  0.
     999903    2    3    3    0    0 -0.27592827373E-01 -0.10517756969E+00 -0.69292720803E-01  0.13066595463E+00  0.21176053813E-01 0.  0.
         14    1    1    2    0    0 -0.17840478829E-01  0.13674791031E-01 -0.83009513042E-02  0.23962228342E-01  0.00000000000E+00 0.  1.
     999901    1    3    3    0    0  0.45433306202E-01  0.91502778659E-01  0.77593672107E-01  0.88930181703E+00  0.88000000000E+00 0.  1.
        -11    1    4    4    0    0 -0.13137436284E-02 -0.30917258925E-01 -0.27947237020E-01  0.41700263785E-01  0.51100000000E-03 0.  1.
         11    1    4    4    0    0 -0.26279083745E-01 -0.74260310765E-01 -0.41345483783E-01  0.88965690846E-01  0.51100000000E-03 0. -1.
</event>
<event>
 8    1  0.1112171E+005  0.1043930E+01  0.7957747E-01            NaN
         13   -1    0    0    0    0  0.00000000000E+00  0.00000000000E+00  0.74505805969E-08  0.10566000000E+00  0.10566000000E+00 0. -1.
     999900   -1    0    0    0    0 -0.00000000000E+00 -0.00000000000E+00 -0.74505805969E-08  0.93827000000E+00  0.93827000000E+00 0.  1.
     999902    2    1    2    0    0  0.13447135360E-01  0.32462490157E-02 -0.20876472840E-01  0.10188862243E+01  0.10185783953E+01 0.  0.
     999903    2    3    3    0    0 -0.10153732342E+00 -0.69450931548E-01 -0.31148170906E-01  0.12837411682E+00  0.19402200345E-01 0.  0.
         14    1    1    2    0    0 -0.13447135360E-01 -0.32462490157E-02  0.20876472840E-01  0.25043775679E-01  0.00000000000E+00 0. -1.
     999901    1    3    3    0    0  0.11498445878E+00  0.72697180564E-01  0.10271698067E-01  0.89051210750E+00  0.88000000000E+00 0.  1.
        -11    1    4    4    0    0 -0.76653113623E-01 -0.43765997827E-01 -0.16887365247E-01  0.89869942805E-01  0.51100000000E-03 0.  1.
         11    1    4    4    0    0 -0.24884209799E-01 -0.25684933721E-01 -0.14260805659E-01  0.38504174015E-01  0.51100000000E-03 0. -1.
</event>
<event>
 8    1  0.1112171E+005  0.1043930E+01  0.7957747E-01            NaN
         13   -1    0    0    0    0  0.00000000000E+00  0.00000000000E+00  0.74505805969E-08  0.10566000000E+00  0.10566000000E+00 0.  1.
     999900   -1    0    0    0    0 -0.00000000000E+00 -0.00000000000E+00 -0.74505805969E-08  0.93827000000E+00  0.93827000000E+00 0. -1.
     999902    2    1    2    0    0  0.10417964617E-01 -0.51115665815E-02  0.21314496036E-01  0.10196612992E+01  0.10193724516E+01 0.  0.
     999903    2    3    3    0    0 -0.61202783964E-01 -0.10507768730E+00 -0.38312049035E-01  0.12911198452E+00  0.20371310964E-01 0.  0.
         14    1    1    2    0    0 -0.10417964617E-01  0.51115665815E-02 -0.21314496036E-01  0.24268700850E-01  0.00000000000E+00 0. -1.
     999901    1    3    3    0    0  0.71620748580E-01  0.99966120722E-01  0.59626545071E-01  0.89054931463E+00  0.88000000000E+00 0.  1.
        -11    1    4    4    0    0 -0.24026086034E-01 -0.24464326676E-01 -0.14237716332E-01  0.37131250681E-01  0.51100000000E-03 0.  1.
         11    1    4    4    0    0 -0.37176697930E-01 -0.80613360627E-01 -0.24074332703E-01  0.91980733834E-01  0.51100000000E-03 0. -1.
</event>
<event>
 8    1  0.1112171E+005  0.1043930E+01  0.7957747E-01            NaN
         13   -1    0    0    0    0  0.00000000000E+00  0.00000000000E+00  0.74505805969E-08  0.10566000000E+00  0.10566000000E+00 0.  1.
     999900   -1    0    0    0    0 -0.00000000000E+00 -0.00000000000E+00 -0.74505805969E-08  0.93827000000E+00  0.93827000000E+00 0. -1.
     999902    2    1    2    0    0  0.18755169938E-01  0.13481994758E-01 -0.13820744567E-01  0.10170128389E+01  0.10166565698E+01 0.  0.
     999903    2    3    3    0    0  0.70582222146E-01 -0.43530488798E-01 -0.97850105305E-01  0.12965868181E+00  0.18973063039E-01 0.  0.
         14    1    1    2    0    0 -0.18755169938E-01 -0.13481994758E-01  0.13820744567E-01  0.26917161114E-01  0.00000000000E+00 0.  1.
     999901    1    3    3    0    0 -0.51827052208E-01  0.57012483557E-01  0.84029360738E-01  0.88735415708E+00  0.88000000000E+00 0.  1.
        -11    1    4    4    0    0  0.28730413467E-01 -0.16773316996E-01 -0.25612732647E-01  0.41988736772E-01  0.51100000000E-03 0.  1.
         11    1    4    4    0    0  0.41851808679E-01 -0.26757171802E-01 -0.72237372659E-01  0.87669945033E-01  0.51100000000E-03 0. -1.
</event>
<event>
 8    1  0.1112171E+005  0.1043930E+01  0.7957747E-01            NaN
         13   -1    0    0    0    0  0.00000000000E+00  0.00000000000E+00  0.74505805969E-08  0.10566000000E+00  0.10566000000E+00 0.  1.
     999900   -1    0    0    0    0 -0.00000000000E+00 -0.00000000000E+00 -0.74505805969E-08  0.93827000000E+00  0.93827000000E+00 0. -1.
     999902    2    1    2    0    0 -0.65556133351E-03  0.66423637707E-02  0.22585850987E-01  0.10203785367E+01  0.10201067036E+01 0.  0.
     999903    2    3    3    0    0 -0.43576964936E-01 -0.10969160296E+00 -0.47845589006E-01  0.12889862869E+00  0.19860927955E-01 0.  0.
         14    1    1    2    0    0  0.65556133351E-03 -0.66423637707E-02 -0.22585850987E-01  0.23551463265E-01  0.00000000000E+00 0. -1.
     999901    1    3    3    0    0  0.42921403603E-01  0.11633396673E+00  0.70431439993E-01  0.89147990804E+00  0.88000000000E+00 0. -1.
        -11    1    4    4    0    0 -0.26851506474E-01 -0.65459084676E-01 -0.18109720641E-01  0.73035048225E-01  0.51100000000E-03 0. -1.
         11    1    4    4    0    0 -0.16725458462E-01 -0.44232518282E-01 -0.29735868365E-01  0.55863580468E-01  0.51100000000E-03 0.  1.
</event>
<event>
 8    1  0.1112171E+005  0.1043930E+01  0.7957747E-01            NaN
         13   -1    0    0    0    0  0.00000000000E+00  0.00000000000E+00  0.74505805969E-08  0.10566000000E+00  0.10566000000E+00 0.  1.
     999900   -1    0    0    0    0 -0.00000000000E+00 -0.00000000000E+00 -0.74505805969E-08  0.93827000000E+00  0.93827000000E+00 0.  1.
     999902    2    1    2    0    0  0.84125712319E-02 -0.19214370298E-01 -0.11526407624E-01  0.10199963113E+01  0.10197154768E+01 0.  0.
     999903    2    3    3    0    0 -0.89926602799E-01  0.50758329894E-01  0.72706075257E-01  0.12777331056E+00  0.19407307095E-01 0.  0.
         14    1    1    2    0    0 -0.84125712319E-02  0.19214370298E-01  0.11526407624E-01  0.23933688671E-01  0.00000000000E+00 0.  1.
     999901    1    3    3    0    0  0.98339174031E-01 -0.69972700192E-01 -0.84232482881E-01  0.89222300076E+00  0.88000000000E+00 0.  1.
        -11    1    4    4    0    0 -0.74106719603E-01  0.33904009938E-01  0.61393133531E-01  0.10203266999E+00  0.51100000000E-03 0. -1.
         11    1    4    4    0    0 -0.15819883196E-01  0.16854319955E-01  0.11312941726E-01  0.25740640570E-01  0.51100000000E-03 0.  1.
</event>
<event>
 8    1  0.1112171E+005  0.1043930E+01  0.7957747E-01            NaN
         13   -1    0    0    0    0  0.00000000000E+00  0.00000000000E+00  0.74505805969E-08  0.10566000000E+00  0.10566000000E+00 0.  1.
     999900   -1    0    0    0    0 -0.00000000000E+00 -0.00000000000E+00 -0.74505805969E-08  0.93827000000E+00  0.93827000000E+00 0.  1.
     999902    2    1    2    0    0 -0.20334165082E-01 -0.98363256661E-02  0.73725041844E-02  0.10201689943E+01  0.10198922451E+01 0.  0.
     999903    2    3    3    0    0 -0.10528677519E+00  0.72807688112E-01  0.26518513495E-01  0.13201723442E+00  0.18413423024E-01 0.  0.
         14    1    1    2    0    0  0.20334165082E-01  0.98363256661E-02 -0.73725041844E-02  0.23761005664E-01  0.00000000000E+00 0.  1.
     999901    1    3    3    0    0  0.84952610104E-01 -0.82644013778E-01 -0.19146009311E-01  0.88815175992E+00  0.88000000000E+00 0. -1.
        -11    1    4    4    0    0 -0.18178276731E-01  0.19984885646E-01  0.10003831114E-01  0.28812899145E-01  0.51100000000E-03 0.  1.
         11    1    4    4    0    0 -0.87108498455E-01  0.52822802466E-01  0.16514682381E-01  0.10320433527E+00  0.51100000000E-03 0. -1.
</event>
<event>
 8    1  0.1112171E+005  0.1043930E+01  0.7957747E-01            NaN
         13   -1    0    0    0    0  0.00000000000E+00  0.00000000000E+00  0.74505805969E-08  0.10566000000E+00  0.10566000000E+00 0. -1.
     999900   -1    0    0    0    0 -0.00000000000E+00 -0.00000000000E+00 -0.74505805969E-08  0.93827000000E+00  0.93827000000E+00 0.  1.
     999902    2    1    2    0    0 -0.32837391430E-02 -0.23739759938E-01 -0.18340733078E-02  0.10198941316E+01  0.10196108653E+01 0.  0.
     999903    2    3    3    0    0 -0.11432829022E+00 -0.57515279608E-01 -0.25950628423E-01  0.13194521062E+00  0.18898099266E-01 0.  0.
         14    1    1    2    0    0  0.32837391430E-02  0.23739759938E-01  0.18340733078E-02  0.24035868396E-01  0.00000000000E+00 0.  1.
     999901    1    3    3    0    0  0.11104455108E+00  0.33775519670E-01  0.24116555115E-01  0.88794892099E+00  0.88000000000E+00 0. -1.
        -11    1    4    4    0    0 -0.73578546015E-01 -0.27766868006E-01 -0.19933679357E-01  0.81132078035E-01  0.51100000000E-03 0.  1.
         11    1    4    4    0    0 -0.40749744205E-01 -0.29748411602E-01 -0.60169490657E-02  0.50813132581E-01  0.51100000000E-03 0. -1.
</event>
<event>
 8    1  0.1112171E+005  0.1043930E+01  0.7957747E-01            NaN
         13   -1    0    0    0    0  0.00000000000E+00  0.00000000000E+00  0.74505805969E-08  0.10566000000E+00  0.10566000000E+00 0.  1.
     999900   -1    0    0    0    0 -0.00000000000E+00 -0.00000000000E+00 -0.74505805969E-08  0.93827000000E+00  0.93827000000E+00 0.  1.
     999902    2    1    2    0    0  0.30669069455E-01  0.22579234527E-02 -0.43382614441E-02  0.10128734298E+01  0.10123971919E+01 0.  0.
     999903    2    3    3    0    0  0.64745452722E-01 -0.36214871573E-01 -0.10014870069E+00  0.12618239223E+00  0.19716573938E-01 0.  0.
         14    1    1    2    0    0 -0.30669069455E-01 -0.22579234527E-02  0.43382614441E-02  0.31056570189E-01  0.00000000000E+00 0.  1.
     999901    1    3    3    0    0 -0.34076383266E-01  0.38472795025E-01  0.95810439248E-01  0.88669103758E+00  0.88000000000E+00 0.  1.
        -11    1    4    4    0    0  0.32035703322E-01 -0.87320837208E-02 -0.34769210055E-01  0.48080085922E-01  0.51100000000E-03 0.  1.
         11    1    4    4    0    0  0.32709749400E-01 -0.27482787852E-01 -0.65379490637E-01  0.78102306310E-01  0.51100000000E-03 0. -1.
</event>
<event>
 8    1  0.1112171E+005  0.1043930E+01  0.7957747E-01            NaN
         13   -1    0    0    0    0  0.00000000000E+00  0.00000000000E+00  0.74505805969E-08  0.10566000000E+00  0.10566000000E+00 0. -1.
     999900   -1    0    0    0    0 -0.00000000000E+00 -0.00000000000E+00 -0.74505805969E-08  0.93827000000E+00  0.93827000000E+00 0.  1.
     999902    2    1    2    0    0  0.22326986732E-01 -0.75168103952E-02 -0.21893705643E-02  0.10202701158E+01  0.10199957447E+01 0.  0.
     999903    2    3    3    0    0  0.64104925859E-01 -0.40973190247E-01  0.10610956387E+00  0.13201711993E+00  0.19520158046E-01 0.  0.
         14    1    1    2    0    0 -0.22326986732E-01  0.75168103952E-02  0.21893705643E-02  0.23659884161E-01  0.00000000000E+00 0.  1.
     999901    1    3    3    0    0 -0.41777939127E-01  0.33456379852E-01 -0.10829893444E+00  0.88825299591E+00  0.88000000000E+00 0. -1.
        -11    1    4    4    0    0  0.19891344394E-01 -0.21981619609E-01  0.31725124609E-01  0.43423517072E-01  0.51100000000E-03 0. -1.
         11    1    4    4    0    0  0.44213581464E-01 -0.18991570638E-01  0.74384439262E-01  0.88593602854E-01  0.51100000000E-03 0.  1.
</event>
<event>
 8    1  0.1112171E+005  0.1043930E+01  0.7957747E-01            NaN
         13   -1    0    0    0    0  0.00000000000E+00  0.00000000000E+00  0.74505805969E-08  0.10566000000E+00  0.10566000000E+00 0. -1.
     999900   -1    0    0    0    0 -0.00000000000E+00 -0.00000000000E+00 -0.74505805969E-08  0.93827000000E+00  0.93827000000E+00 0. -1.
     999902    2    1    2    0    0 -0.12624664902E-01  0.21208360174E-01  0.24424146706E-02  0.10191279417E+01  0.10188260988E+01 0.  0.
     999903    2    3    3    0    0 -0.35352669806E-01  0.11291793727E+00 -0.55295255202E-01  0.13218890929E+00  0.20397810468E-01 0.  0.
         14    1    1    2    0    0  0.12624664902E-01 -0.21208360174E-01 -0.24424146706E-02  0.24802058273E-01  0.00000000000E+00 0.  1.
     999901    1    3    3    0    0  0.22728004904E-01 -0.91709577095E-01  0.57737669872E-01  0.88693903244E+00  0.88000000000E+00 0.  1.
        -11    1    4    4    0    0  0.21215944201E-02  0.16081783229E-01 -0.71378820534E-02  0.17729506364E-01  0.51100000000E-03 0.  1.
         11    1    4    4    0    0 -0.37474264227E-01  0.96836154040E-01 -0.48157373148E-01  0.11445940293E+00  0.51100000000E-03 0. -1.
</event>
<event>
 8    1  0.1112171E+005  0.1043930E+01  0.7957747E-01            NaN
         13   -1    0    0    0    0  0.00000000000E+00  0.00000000000E+00  0.74505805969E-08  0.10566000000E+00  0.10566000000E+00 0.  1.
     999900   -1    0    0    0    0 -0.00000000000E+00 -0.00000000000E+00 -0.74505805969E-08  0.93827000000E+00  0.93827000000E+00 0.  1.
     999902    2    1    2    0    0 -0.13030529094E-01  0.18780234243E-01 -0.49312895172E-02  0.10205460418E+01  0.10202781061E+01 0.  0.
     999903    2    3    3    0    0  0.40808902385E-01  0.56099494790E-01 -0.11034699177E+00  0.13183693194E+00  0.19798944448E-01 0.  0.
         14    1    1    2    0    0  0.13030529094E-01 -0.18780234243E-01  0.49312895172E-02  0.23383958240E-01  0.00000000000E+00 0.  1.
     999901    1    3    3    0    0 -0.53839431479E-01 -0.37319260548E-01  0.10541570226E+00  0.88870910982E+00  0.88000000000E+00 0. -1.
        -11    1    4    4    0    0  0.78090833613E-02  0.19350379353E-02 -0.75387393262E-02  0.11037203739E-01  0.51100000000E-03 0.  1.
         11    1    4    4    0    0  0.32999819024E-01  0.54164456855E-01 -0.10280825245E+00  0.12079972820E+00  0.51100000000E-03 0. -1.
</event>
<event>
 8    1  0.1112171E+005  0.1043930E+01  0.7957747E-01            NaN
         13   -1    0    0    0    0  0.00000000000E+00  0.00000000000E+00  0.74505805969E-08  0.10566000000E+00  0.10566000000E+00 0. -1.
     999900   -1    0    0    0    0 -0.00000000000E+00 -0.00000000000E+00 -0.74505805969E-08  0.93827000000E+00  0.93827000000E+00 0.  1.
     999902    2    1    2    0    0 -0.23671276656E-01 -0.44258919960E-02  0.30350325303E-02  0.10196580145E+01  0.10193690878E+01 0.  0.
     999903    2    3    3    0    0 -0.81340189604E-01  0.45536788309E-01  0.91056991863E-01  0.13198136262E+00  0.20925553200E-01 0.  0.
         14    1    1    2    0    0  0.23671276656E-01  0.44258919960E-02 -0.30350325303E-02  0.24271985517E-01  0.00000000000E+00 0. -1.
     999901    1    3    3    0    0  0.57668912947E-01 -0.49962680305E-01 -0.88021959333E-01  0.88767665187E+00  0.88000000000E+00 0.  1.
        -11    1    4    4    0    0 -0.72432403267E-01  0.32527441012E-01  0.71456686505E-01  0.10682137721E+00  0.51100000000E-03 0.  1.
         11    1    4    4    0    0 -0.89077863366E-02  0.13009347297E-01  0.19600305358E-01  0.25159985406E-01  0.51100000000E-03 0. -1.
</event>
<event>
 8    1  0.1112171E+005  0.1043930E+01  0.7957747E-01            NaN
         13   -1    0    0    0    0  0.00000000000E+00  0.00000000000E+00  0.74505805969E-08  0.10566000000E+00  0.10566000000E+00 0. -1.
     999900   -1    0    0    0    0 -0.00000000000E+00 -0.00000000000E+00 -0.74505805969E-08  0.93827000000E+00  0.93827000000E+00 0. -1.
     999902    2    1    2    0    0  0.16495297419E-01  0.79339648158E-02 -0.14461597874E-01  0.10206023244E+01  0.10203356919E+01 0.  0.
     999903    2    3    3    0    0 -0.22926727604E-01 -0.10283070920E+00 -0.74687728286E-01  0.13074273109E+00  0.20386647185E-01 0.  0.
         14    1    1    2    0    0 -0.16495297419E-01 -0.79339648158E-02  0.14461597874E-01  0.23327675575E-01  0.00000000000E+00 0. -1.
     999901    1    3    3    0    0  0.39422025023E-01  0.11076467401E+00  0.60226130411E-01  0.88985959334E+00  0.88000000000E+00 0. -1.
        -11    1    4    4    0    0 -0.15984173821E-01 -0.65748201364E-01 -0.35770559192E-01  0.76538316033E-01  0.51100000000E-03 0.  1.
         11    1    4    4    0    0 -0.69425537827E-02 -0.37082507835E-01 -0.38917169094E-01  0.54204415056E-01  0.51100000000E-03 0. -1.
</event>
<event>
 8    1  0.1112171E+005  0.1043930E+01  0.7957747E-01            NaN
         13   -1    0    0    0    0  0.00000000000E+00  0.00000000000E+00  0.74505805969E-08  0.10566000000E+00  0.10566000000E+00 0. -1.
     999900   -1    0    0    0    0 -0.00000000000E+00 -0.00000000000E+00 -0.74505805969E-08  0.93827000000E+00  0.93827000000E+00 0. -1.
     999902    2    1    2    0    0 -0.16223776834E-01  0.10297366877E-02  0.18243705502E-01  0.10194942867E+01  0.10192014014E+01 0.  0.
     999903    2    3    3    0    0 -0.90927279000E-01  0.26613647986E-01 -0.86591400558E-01  0.12976087204E+00  0.19072412999E-01 0.  0.
         14    1    1    2    0    0  0.16223776834E-01 -0.10297366877E-02 -0.18243705502E-01  0.24435713266E-01  0.00000000000E+00 0.  1.
     999901    1    3    3    0    0  0.74703502166E-01 -0.25583911299E-01  0.10483510606E+00  0.88973341469E+00  0.88000000000E+00 0.  1.
        -11    1    4    4    0    0 -0.95899653466E-02 -0.29975767742E-02 -0.82050741688E-02  0.12982190300E-01  0.51100000000E-03 0. -1.
         11    1    4    4    0    0 -0.81337313653E-01  0.29611224761E-01 -0.78386326389E-01  0.11677868174E+00  0.51100000000E-03 0.  1.
</event>
<event>
 8    1  0.1112171E+005  0.1043930E+01  0.7957747E-01            NaN
         13   -1    0    0    0    0  0.00000000000E+00  0.00000000000E+00  0.74505805969E-08  0.10566000000E+00  0.10566000000E+00 0. -1.
     999900   -1    0    0    0    0 -0.00000000000E+00 -0.00000000000E+00 -0.74505805969E-08  0.93827000000E+00  0.93827000000E+00 0. -1.
     999902    2    1    2    0    0 -0.84870420868E-02 -0.21392051262E-01 -0.26985619882E-02  0.10207582073E+01  0.10204951670E+01 0.  0.
     999903    2    3    3    0    0  0.78278962616E-01  0.82844460448E-01 -0.56479943607E-01  0.12874586043E+00  0.19867358465E-01 0.  0.
         14    1    1    2    0    0  0.84870420868E-02  0.21392051262E-01  0.26985619882E-02  0.23171792710E-01  0.00000000000E+00 0.  1.
     999901    1    3    3    0    0 -0.86766004703E-01 -0.10423651171E+00  0.53781381618E-01  0.89201234686E+00  0.88000000000E+00 0.  1.
        -11    1    4    4    0    0  0.52436800611E-01  0.63748767007E-01 -0.32781756603E-01  0.88816822957E-01  0.51100000000E-03 0.  1.
         11    1    4    4    0    0  0.25842162005E-01  0.19095693441E-01 -0.23698187004E-01  0.39929037471E-01  0.51100000000E-03 0. -1.
</event>
<event>
 8    1  0.1112171E+005  0.1043930E+01  0.7957747E-01            NaN
         13   -1    0    0    0    0  0.00000000000E+00  0.00000000000E+00  0.74505805969E-08  0.10566000000E+00  0.10566000000E+00 0. -1.
     999900   -1    0    0    0    0 -0.00000000000E+00 -0.00000000000E+00 -0.74505805969E-08  0.93827000000E+00  0.93827000000E+00 0.  1.
     999902    2    1    2    0    0  0.14052603207E-01  0.19642873757E-01  0.29141990634E-02  0.10196028402E+01  0.10193125826E+01 0.  0.
     999903    2    3    3    0    0 -0.77913855656E-01  0.29908300249E-01 -0.96496886988E-01  0.12918396545E+00  0.20292175916E-01 0.  0.
         14    1    1    2    0    0 -0.14052603207E-01 -0.19642873757E-01 -0.29141990634E-02  0.24327159771E-01  0.00000000000E+00 0.  1.
     999901    1    3    3    0    0  0.91966458864E-01 -0.10265426492E-01  0.99411086051E-01  0.89041887478E+00  0.88000000000E+00 0. -1.
        -11    1    4    4    0    0 -0.47278607881E-02 -0.60509540076E-03 -0.72761293000E-03  0.48486441045E-02  0.51100000000E-03 0.  1.
         11    1    4    4    0    0 -0.73185994868E-01  0.30513395650E-01 -0.95769274058E-01  0.12433532134E+00  0.51100000000E-03 0. -1.
</event>
<event>
 8    1  0.1112171E+005  0.1043930E+01  0.7957747E-01            NaN
         13   -1    0    0    0    0  0.00000000000E+00  0.00000000000E+00  0.74505805969E-08  0.10566000000E+00  0.10566000000E+00 0.  1.
     999900   -1    0    0    0    0 -0.00000000000E+00 -0.00000000000E+00 -0.74505805969E-08  0.93827000000E+00  0.93827000000E+00 0.  1.
     999902    2    1    2    0    0  0.99856441401E-02  0.62722082733E-02  0.13902895315E-01  0.10256996905E+01  0.10255376692E+01 0.  0.
     999903    2    3    3    0    0  0.63886879666E-01 -0.11089103633E+00 -0.37275222976E-01  0.13482833681E+00  0.20270244874E-01 0.  0.
         14    1    1    2    0    0 -0.99856441401E-02 -0.62722082733E-02 -0.13902895315E-01  0.18230309478E-01  0.00000000000E+00 0. -1.
     999901    1    3    3    0    0 -0.53901235526E-01  0.11716324460E+00  0.51178118291E-01  0.89087135371E+00  0.88000000000E+00 0.  1.
        -11    1    4    4    0    0  0.40651221127E-01 -0.54603303802E-01 -0.26137653706E-01  0.72921057504E-01  0.51100000000E-03 0. -1.
         11    1    4    4    0    0  0.23235658539E-01 -0.56287732525E-01 -0.11137569270E-01  0.61907279304E-01  0.51100000000E-03 0.  1.
</event>
<event>
 8    1  0.1112171E+005  0.1043930E+01  0.7957747E-01            NaN
         13   -1    0    0    0    0  0.00000000000E+00  0.00000000000E+00  0.74505805969E-08  0.10566000000E+00  0.10566000000E+00 0. -1.
     999900   -1    0    0    0    0 -0.00000000000E+00 -0.00000000000E+00 -0.74505805969E-08  0.93827000000E+00  0.93827000000E+00 0. -1.
     999902    2    1    2    0    0  0.19621620332E-01 -0.12579849073E-01 -0.17808991641E-02  0.10205541109E+01  0.10202863623E+01 0.  0.
     999903    2    3    3    0    0 -0.24049630430E-01 -0.19219857384E-01 -0.12552829270E+00  0.13079870340E+00  0.20078867052E-01 0.  0.
         14    1    1    2    0    0 -0.19621620332E-01  0.12579849073E-01  0.17808991641E-02  0.23375889052E-01  0.00000000000E+00 0. -1.
     999901    1    3    3    0    0  0.43671250761E-01  0.66400083115E-02  0.12374739353E+00  0.88975540755E+00  0.88000000000E+00 0.  1.
        -11    1    4    4    0    0 -0.16664902629E-01 -0.19227880392E-01 -0.64760405044E-01  0.69581617878E-01  0.51100000000E-03 0.  1.
         11    1    4    4    0    0 -0.73847278005E-02  0.80230082126E-05 -0.60767887653E-01  0.61217085523E-01  0.51100000000E-03 0. -1.
</event>
<event>
 8    1  0.1112171E+005  0.1043930E+01  0.7957747E-01            NaN
         13   -1    0    0    0    0  0.00000000000E+00  0.00000000000E+00  0.74505805969E-08  0.10566000000E+00  0.10566000000E+00 0. -1.
     999900   -1    0    0    0    0 -0.00000000000E+00 -0.00000000000E+00 -0.74505805969E-08  0.93827000000E+00  0.93827000000E+00 0. -1.
     999902    2    1    2    0    0 -0.15500524608E-01  0.13575248324E-01 -0.53864691475E-02  0.10226328716E+01  0.10224110828E+01 0.  0.
     999903    2    3    3    0    0  0.87306780949E-01 -0.23954715879E-01 -0.93274544316E-01  0.13150877579E+00  0.19952821369E-01 0.  0.
         14    1    1    2    0    0  0.15500524608E-01 -0.13575248324E-01  0.53864691475E-02  0.21297128446E-01  0.00000000000E+00 0. -1.
     999901    1    3    3    0    0 -0.10280730556E+00  0.37529964203E-01  0.87888075169E-01  0.89112409576E+00  0.88000000000E+00 0.  1.
        -11    1    4    4    0    0  0.34421241369E-01 -0.18286065748E-01 -0.46499341879E-01  0.60676618018E-01  0.51100000000E-03 0.  1.
         11    1    4    4    0    0  0.52885539580E-01 -0.56686501307E-02 -0.46775202438E-01  0.70832157775E-01  0.51100000000E-03 0. -1.
</event>
<event>
 8    1  0.1112171E+005  0.1043930E+01  0.7957747E-01            NaN
         13   -1    0    0    0    0  0.00000000000E+00  0.00000000000E+00  0.74505805969E-08  0.10566000000E+00  0.10566000000E+00 0.  1.
     999900   -1    0    0    0    0 -0.00000000000E+00 -0.00000000000E+00 -0.74505805969E-08  0.93827000000E+00  0.93827000000E+00 0.  1.
     999902    2    1    2    0    0  0.20906810697E-01 -0.63917511269E-02  0.95679172070E-02  0.10200659212E+01  0.10197867372E+01 0.  0.
     999903    2    3    3    0    0  0.33973374538E-01 -0.88834043004E-01  0.90165600526E-01  0.13244919474E+00  0.19164453963E-01 0.  0.
         14    1    1    2    0    0 -0.20906810697E-01  0.63917511269E-02 -0.95679172070E-02  0.23864078772E-01  0.00000000000E+00 0.  1.
     999901    1    3    3    0    0 -0.13066563841E-01  0.82442291877E-01 -0.80597683319E-01  0.88761672649E+00  0.88000000000E+00 0.  1.
        -11    1    4    4    0    0  0.38680475716E-03 -0.96330478155E-02  0.33271221979E-02  0.10211566543E-01  0.51100000000E-03 0.  1.
         11    1    4    4    0    0  0.33586569781E-01 -0.79200995188E-01  0.86838478328E-01  0.12223762820E+00  0.51100000000E-03 0. -1.
</event>
<event>
 8    1  0.1112171E+005  0.1043930E+01  0.7957747E-01            NaN
         13   -1    0    0    0    0  0.00000000000E+00  0.00000000000E+00  0.74505805969E-08  0.10566000000E+00  0.10566000000E+00 0. -1.
     999900   -1    0    0    0    0 -0.00000000000E+00 -0.00000000000E+00 -0.74505805969E-08  0.93827000000E+00  0.93827000000E+00 0.  1.
     999902    2    1    2    0    0  0.43123482032E-03 -0.20331263229E-01 -0.17335865730E-01  0.10172077533E+01  0.10168566934E+01 0.  0.
     999903    2    3    3    0    0  0.10208574664E+00 -0.36629364474E-01 -0.68218743213E-01  0.12974601604E+00  0.20421110265E-01 0.  0.
         14    1    1    2    0    0 -0.43123482032E-03  0.20331263229E-01  0.17335865730E-01  0.26722246698E-01  0.00000000000E+00 0.  1.
     999901    1    3    3    0    0 -0.10165451182E+00  0.16298101244E-01  0.50882877483E-01  0.88746173726E+00  0.88000000000E+00 0. -1.
        -11    1    4    4    0    0  0.88216713038E-01 -0.27402206199E-01 -0.49943741536E-01  0.10501289351E+00  0.51100000000E-03 0. -1.
         11    1    4    4    0    0  0.13869033603E-01 -0.92271582747E-02 -0.18275001678E-01  0.24733122533E-01  0.51100000000E-03 0.  1.
</event>
<event>
 8    1  0.1112171E+005  0.1043930E+01  0.7957747E-01            NaN
         13   -1    0    0    0    0  0.00000000000E+00  0.00000000000E+00  0.74505805969E-08  0.10566000000E+00  0.10566000000E+00 0. -1.
     999900   -1    0    0    0    0 -0.00000000000E+00 -0.00000000000E+00 -0.74505805969E-08  0.93827000000E+00  0.93827000000E+00 0.  1.
     999902    2    1    2    0    0 -0.14607901061E-01  0.39989153980E-02 -0.17432775330E-01  0.10208370627E+01  0.10205758300E+01 0.  0.
     999903    2    3    3    0    0 -0.86948213099E-01  0.98203953294E-01 -0.52536725306E-02  0.13277397909E+00  0.19932893543E-01 0.  0.
         14    1    1    2    0    0  0.14607901061E-01 -0.39989153980E-02  0.17432775330E-01  0.23092937307E-01  0.00000000000E+00 0. -1.
     999901    1    3    3    0    0  0.72340312038E-01 -0.94205037896E-01 -0.12179102799E-01  0.88806308360E+00  0.88000000000E+00 0.  1.
        -11    1    4    4    0    0 -0.42342044437E-02  0.77588648277E-02  0.42891909785E-02  0.98380257641E-02  0.51100000000E-03 0. -1.
         11    1    4    4    0    0 -0.82714008655E-01  0.90445088467E-01 -0.95428635091E-02  0.12293595333E+00  0.51100000000E-03 0.  1.
</event>
<event>
 8    1  0.1112171E+005  0.1043930E+01  0.7957747E-01            NaN
         13   -1    0    0    0    0  0.00000000000E+00  0.00000000000E+00  0.74505805969E-08  0.10566000000E+00  0.10566000000E+00 0. -1.
     999900   -1    0    0    0    0 -0.00000000000E+00 -0.00000000000E+00 -0.74505805969E-08  0.93827000000E+00  0.93827000000E+00 0.  1.
     999902    2    1    2    0    0  0.16434782525E-02  0.19914119390E-01  0.13428997946E-01  0.10198548851E+01  0.10195706820E+01 0.  0.
     999903    2    3    3    0    0  0.45458782461E-01  0.77140992008E-01 -0.92761516958E-01  0.13054553437E+00  0.20498877154E-01 0.  0.
         14    1    1    2    0    0 -0.16434782525E-02 -0.19914119390E-01 -0.13428997946E-01  0.24075114905E-01  0.00000000000E+00 0.  1.
     999901    1    3    3    0    0 -0.43815304209E-01 -0.57226872618E-01  0.10619051490E+00  0.88930935073E+00  0.88000000000E+00 0. -1.
        -11    1    4    4    0    0  0.22953037366E-01  0.23768314381E-01 -0.42633321853E-01  0.53941041388E-01  0.51100000000E-03 0.  1.
         11    1    4    4    0    0  0.22505745095E-01  0.53372677627E-01 -0.50128195105E-01  0.76604492981E-01  0.51100000000E-03 0. -1.
</event>
<event>
 8    1  0.1112171E+005  0.1043930E+01  0.7957747E-01            NaN
         13   -1    0    0    0    0  0.00000000000E+00  0.00000000000E+00  0.74505805969E-08  0.10566000000E+00  0.10566000000E+00 0. -1.
     999900   -1    0    0    0    0 -0.00000000000E+00 -0.00000000000E+00 -0.74505805969E-08  0.93827000000E+00  0.93827000000E+00 0. -1.
     999902    2    1    2    0    0 -0.51465248437E-02  0.70497178201E-02 -0.22691697423E-01  0.10196174853E+01  0.10193275813E+01 0.  0.
     999903    2    3    3    0    0  0.95379355196E-01 -0.15802877207E-01  0.80677145184E-01  0.12759012513E+00  0.20578774271E-01 0.  0.
         14    1    1    2    0    0  0.51465248437E-02 -0.70497178201E-02  0.22691697423E-01  0.24312514705E-01  0.00000000000E+00 0. -1.
     999901    1    3    3    0    0 -0.10052588004E+00  0.22852595027E-01 -0.10336884261E+00  0.89202736016E+00  0.88000000000E+00 0.  1.
        -11    1    4    4    0    0  0.78257088655E-01 -0.20540055755E-01  0.63241420519E-01  0.10269276608E+00  0.51100000000E-03 0. -1.
         11    1    4    4    0    0  0.17122266542E-01  0.47371785481E-02  0.17435724665E-01  0.24897359051E-01  0.51100000000E-03 0.  1.
</event>
<event>
 8    1  0.1112171E+005  0.1043930E+01  0.7957747E-01            NaN
         13   -1    0    0    0    0  0.00000000000E+00  0.00000000000E+00  0.74505805969E-08  0.10566000000E+00  0.10566000000E+00 0.  1.
     999900   -1    0    0    0    0 -0.00000000000E+00 -0.00000000000E+00 -0.74505805969E-08  0.93827000000E+00  0.93827000000E+00 0.  1.
     999902    2    1    2    0    0 -0.12799540610E-02 -0.26013469116E-02  0.23403220122E-01  0.10203478881E+01  0.10200753388E+01 0.  0.
     999903    2    3    3    0    0 -0.11786561215E+00 -0.56700806468E-02 -0.49713146857E-01  0.12964724486E+00  0.20311543235E-01 0.  0.
         14    1    1    2    0    0  0.12799540610E-02  0.26013469116E-02 -0.23403220122E-01  0.23582111869E-01  0.00000000000E+00 0. -1.
     999901    1    3    3    0    0  0.11658565809E+00  0.30687337352E-02  0.73116366979E-01  0.89070064327E+00  0.88000000000E+00 0. -1.
        -11    1    4    4    0    0 -0.51827361417E-01  0.41356392551E-02 -0.30022366813E-01  0.60039841218E-01  0.51100000000E-03 0.  1.
         11    1    4    4    0    0 -0.66038250731E-01 -0.98057199019E-02 -0.19690780045E-01  0.69607403644E-01  0.51100000000E-03 0. -1.
</event>
<event>
 8    1  0.1112171E+005  0.1043930E+01  0.7957747E-01            NaN
         13   -1    0    0    0    0  0.00000000000E+00  0.00000000000E+00  0.74505805969E-08  0.10566000000E+00  0.10566000000E+00 0. -1.
     999900   -1    0    0    0    0 -0.00000000000E+00 -0.00000000000E+00 -0.74505805969E-08  0.93827000000E+00  0.93827000000E+00 0. -1.
     999902    2    1    2    0    0 -0.42361521450E-02 -0.12519066229E-01 -0.19805838810E-01  0.10201194298E+01  0.10198415111E+01 0.  0.
     999903    2    3    3    0    0  0.10521620661E+00 -0.29718805925E-01  0.64122720978E-01  0.12920997699E+00  0.25096558525E-01 0.  0.
         14    1    1    2    0    0  0.42361521450E-02  0.12519066229E-01  0.19805838810E-01  0.23810570241E-01  0.00000000000E+00 0. -1.
     999901    1    3    3    0    0 -0.10945235875E+00  0.17199739695E-01 -0.83928559788E-01  0.89090945277E+00  0.88000000000E+00 0. -1.
        -11    1    4    4    0    0  0.19741529426E-01 -0.14051872241E-01  0.21592924071E-01  0.32460723782E-01  0.51100000000E-03 0. -1.
         11    1    4    4    0    0  0.85474677182E-01 -0.15666933684E-01  0.42529796907E-01  0.96749253209E-01  0.51100000000E-03 0.  1.
</event>
<event>
 8    1  0.1112171E+005  0.1043930E+01  0.7957747E-01            NaN
         13   -1    0    0    0    0  0.00000000000E+00  0.00000000000E+00  0.74505805969E-08  0.10566000000E+00  0.10566000000E+00 0. -1.
     999900   -1    0    0    0    0 -0.00000000000E+00 -0.00000000000E+00 -0.74505805969E-08  0.93827000000E+00  0.93827000000E+00 0.  1.
     999902    2    1    2    0    0 -0.23689855918E-01 -0.78595090269E-03  0.23609458639E-02  0.10201098183E+01  0.10198316725E+01 0.  0.
     999903    2    3    3    0    0 -0.11620398140E+00  0.56642434635E-01  0.24568893740E-01  0.13312048585E+00  0.20142058439E-01 0.  0.
         14    1    1    2    0    0  0.23689855918E-01  0.78595090269E-03 -0.23609458639E-02  0.23820181730E-01  0.00000000000E+00 0.  1.
     999901    1    3    3    0    0  0.92514125484E-01 -0.57428385538E-01 -0.22207947876E-01  0.88698933242E+00  0.88000000000E+00 0.  1.
        -11    1    4    4    0    0 -0.10029140333E+00  0.46606490311E-01  0.27779855345E-01  0.11402855785E+00  0.51100000000E-03 0. -1.
         11    1    4    4    0    0 -0.15912578071E-01  0.10035944324E-01 -0.32109616050E-02  0.19091928001E-01  0.51100000000E-03 0.  1.
</event>
<event>
 8    1  0.1112171E+005  0.1043930E+01  0.7957747E-01            NaN
         13   -1    0    0    0    0  0.00000000000E+00  0.00000000000E+00  0.74505805969E-08  0.10566000000E+00  0.10566000000E+00 0.  1.
     999900   -1    0    0    0    0 -0.00000000000E+00 -0.00000000000E+00 -0.74505805969E-08  0.93827000000E+00  0.93827000000E+00 0. -1.
     999902    2    1    2    0    0  0.49892854812E-03  0.32029988587E-03 -0.23290251948E-01  0.10206322027E+01  0.10203662607E+01 0.  0.
     999903    2    3    3    0    0  0.75048248907E-01  0.65374283857E-01 -0.85947787874E-01  0.13287345802E+00  0.19034099749E-01 0.  0.
         14    1    1    2    0    0 -0.49892854812E-03 -0.32029988587E-03  0.23290251948E-01  0.23297797267E-01  0.00000000000E+00 0.  1.
     999901    1    3    3    0    0 -0.74549320359E-01 -0.65053983971E-01  0.62657535926E-01  0.88775874471E+00  0.88000000000E+00 0.  1.
        -11    1    4    4    0    0  0.40454257179E-01  0.46697269213E-01 -0.56845021432E-01  0.83957128693E-01  0.51100000000E-03 0.  1.
         11    1    4    4    0    0  0.34593991728E-01  0.18677014644E-01 -0.29102766442E-01  0.48916329332E-01  0.51100000000E-03 0. -1.
</event>
<event>
 8    1  0.1112171E+005  0.1043930E+01  0.7957747E-01            NaN
         13   -1    0    0    0    0  0.00000000000E+00  0.00000000000E+00  0.74505805969E-08  0.10566000000E+00  0.10566000000E+00 0.  1.
     999900   -1    0    0    0    0 -0.00000000000E+00 -0.00000000000E+00 -0.74505805969E-08  0.93827000000E+00  0.93827000000E+00 0.  1.
     999902    2    1    2    0    0 -0.81042618070E-02  0.25229640035E-02 -0.21958906095E-01  0.10203877409E+01  0.10201161227E+01 0.  0.
     999903    2    3    3    0    0  0.68658844470E-01  0.47584108528E-01 -0.10199474180E+00  0.13228368380E+00  0.10851789557E-01 0.  0.
         14    1    1    2    0    0  0.81042618070E-02 -0.25229640035E-02  0.21958906095E-01  0.23542259103E-01  0.00000000000E+00 0.  1.
     999901    1    3    3    0    0 -0.76763106277E-01 -0.45061144524E-01  0.80035835708E-01  0.88810405709E+00  0.88000000000E+00 0. -1.
        -11    1    4    4    0    0  0.20588158673E-01  0.14587936138E-01 -0.38925736180E-01  0.46391316175E-01  0.51100000000E-03 0.  1.
         11    1    4    4    0    0  0.48070685797E-01  0.32996172390E-01 -0.63069005622E-01  0.85892367627E-01  0.51100000000E-03 0. -1.
</event>
<event>
 8    1  0.1112171E+005  0.1043930E+01  0.7957747E-01            NaN
         13   -1    0    0    0    0  0.00000000000E+00  0.00000000000E+00  0.74505805969E-08  0.10566000000E+00  0.10566000000E+00 0. -1.
     999900   -1    0    0    0    0 -0.00000000000E+00 -0.00000000000E+00 -0.74505805969E-08  0.93827000000E+00  0.93827000000E+00 0.  1.
     999902    2    1    2    0    0  0.65509423476E-02 -0.12691527621E-01 -0.18633969419E-01  0.10204520415E+01  0.10201819222E+01 0.  0.
     999903    2    3    3    0    0  0.45648953597E-01  0.96520255074E-01  0.68757594609E-01  0.12854781266E+00  0.19923521748E-01 0.  0.
         14    1    1    2    0    0 -0.65509423476E-02  0.12691527621E-01  0.18633969419E-01  0.23477958499E-01  0.00000000000E+00 0. -1.
     999901    1    3    3    0    0 -0.39098011250E-01 -0.10921178269E+00 -0.87391564028E-01  0.89190422884E+00  0.88000000000E+00 0.  1.
        -11    1    4    4    0    0  0.46970712723E-01  0.85980934520E-01  0.62345721219E-01  0.11613018139E+00  0.51100000000E-03 0. -1.
         11    1    4    4    0    0 -0.13217591256E-02  0.10539320554E-01  0.64118733897E-02  0.12417631267E-01  0.51100000000E-03 0.  1.
</event>
<event>
 8    1  0.1112171E+005  0.1043930E+01  0.7957747E-01            NaN
         13   -1    0    0    0    0  0.00000000000E+00  0.00000000000E+00  0.74505805969E-08  0.10566000000E+00  0.10566000000E+00 0. -1.
     999900   -1    0    0    0    0 -0.00000000000E+00 -0.00000000000E+00 -0.74505805969E-08  0.93827000000E+00  0.93827000000E+00 0. -1.
     999902    2    1    2    0    0  0.18237668909E-01  0.75176525783E-03 -0.15774465373E-01  0.10198050860E+01  0.10195196918E+01 0.  0.
     999903    2    3    3    0    0  0.13949680728E-01 -0.67503866584E-01 -0.11079158683E+00  0.13205203953E+00  0.20287923420E-01 0.  0.
         14    1    1    2    0    0 -0.18237668909E-01 -0.75176525783E-03  0.15774465373E-01  0.24124914011E-01  0.00000000000E+00 0. -1.
     999901    1    3    3    0    0  0.42879881807E-02  0.68255631842E-01  0.95017121455E-01  0.88775304646E+00  0.88000000000E+00 0.  1.
        -11    1    4    4    0    0  0.12912024160E-01 -0.47290448517E-01 -0.92860314943E-01  0.10500669551E+00  0.51100000000E-03 0. -1.
         11    1    4    4    0    0  0.10376565684E-02 -0.20213418067E-01 -0.17931271885E-01  0.27045344027E-01  0.51100000000E-03 0.  1.
</event>
<event>
 8    1  0.1112171E+005  0.1043930E+01  0.7957747E-01            NaN
         13   -1    0    0    0    0  0.00000000000E+00  0.00000000000E+00  0.74505805969E-08  0.10566000000E+00  0.10566000000E+00 0.  1.
     999900   -1    0    0    0    0 -0.00000000000E+00 -0.00000000000E+00 -0.74505805969E-08  0.93827000000E+00  0.93827000000E+00 0.  1.
     999902    2    1    2    0    0 -0.11911677401E-01 -0.13468832101E-01 -0.15866645039E-01  0.10199498432E+01  0.10196679041E+01 0.  0.
     999903    2    3    3    0    0  0.42549934423E-01  0.64024668550E-01 -0.10348274470E+00  0.13054111220E+00  0.20558414867E-01 0.  0.
         14    1    1    2    0    0  0.11911677401E-01  0.13468832101E-01  0.15866645039E-01  0.23980156827E-01  0.00000000000E+00 0.  1.
     999901    1    3    3    0    0 -0.54461611824E-01 -0.77493500651E-01  0.87616099662E-01  0.88940873097E+00  0.88000000000E+00 0. -1.
        -11    1    4    4    0    0  0.41939258143E-01  0.49027852599E-01 -0.82348042362E-01  0.10461401869E+00  0.51100000000E-03 0.  1.
         11    1    4    4    0    0  0.61067628022E-03  0.14996815951E-01 -0.21134702339E-01  0.25927093515E-01  0.51100000000E-03 0. -1.
</event>
<event>
 8    1  0.1112171E+005  0.1043930E+01  0.7957747E-01            NaN
         13   -1    0    0    0    0  0.00000000000E+00  0.00000000000E+00  0.74505805969E-08  0.10566000000E+00  0.10566000000E+00 0.  1.
     999900   -1    0    0    0    0 -0.00000000000E+00 -0.00000000000E+00 -0.74505805969E-08  0.93827000000E+00  0.93827000000E+00 0. -1.
     999902    2    1    2    0    0 -0.10448321100E-01 -0.17183171215E-01  0.13874711713E-01  0.10194977178E+01  0.10192049157E+01 0.  0.
     999903    2    3    3    0    0  0.86335621569E-01 -0.65125168015E-01 -0.69439859449E-01  0.12898837797E+00  0.10999114057E-01 0.  0.
         14    1    1    2    0    0  0.10448321100E-01  0.17183171215E-01 -0.13874711713E-01  0.24432282168E-01  0.00000000000E+00 0. -1.
     999901    1    3    3    0    0 -0.96783942670E-01  0.47941996801E-01  0.83314571161E-01  0.89050933986E+00  0.88000000000E+00 0. -1.
        -11    1    4    4    0    0  0.56938529461E-01 -0.49141343000E-01 -0.49267010979E-01  0.89913109282E-01  0.51100000000E-03 0. -1.
         11    1    4    4    0    0  0.29397092109E-01 -0.15983825016E-01 -0.20172848469E-01  0.39075268687E-01  0.51100000000E-03 0.  1.
</event>
<event>
 8    1  0.1112171E+005  0.1043930E+01  0.7957747E-01            NaN
         13   -1    0    0    0    0  0.00000000000E+00  0.00000000000E+00  0.74505805969E-08  0.10566000000E+00  0.10566000000E+00 0. -1.
     999900   -1    0    0    0    0 -0.00000000000E+00 -0.00000000000E+00 -0.74505805969E-08  0.93827000000E+00  0.93827000000E+00 0.  1.
     999902    2    1    2    0    0 -0.17034115404E-01 -0.16830578453E-01  0.53055909894E-03  0.10199777360E+01  0.10196964602E+01 0.  0.
     999903    2    3    3    0    0 -0.28005419173E-01 -0.71466680079E-02 -0.12599286981E+00  0.13080827761E+00  0.20030573700E-01 0.  0.
         14    1    1    2    0    0  0.17034115404E-01  0.16830578453E-01 -0.53055909894E-03  0.23952264019E-01  0.00000000000E+00 0.  1.
     999901    1    3    3    0    0  0.10971303769E-01 -0.96839104455E-02  0.12652342891E+00  0.88916945837E+00  0.88000000000E+00 0. -1.
        -11    1    4    4    0    0 -0.16046889918E-01  0.53487263551E-02 -0.47315818168E-01  0.50250963370E-01  0.51100000000E-03 0.  1.
         11    1    4    4    0    0 -0.11958529256E-01 -0.12495394363E-01 -0.78677051642E-01  0.80557314245E-01  0.51100000000E-03 0. -1.
</event>
<event>
 8    1  0.1112171E+005  0.1043930E+01  0.7957747E-01            NaN
         13   -1    0    0    0    0  0.00000000000E+00  0.00000000000E+00  0.74505805969E-08  0.10566000000E+00  0.10566000000E+00 0.  1.
     999900   -1    0    0    0    0 -0.00000000000E+00 -0.00000000000E+00 -0.74505805969E-08  0.93827000000E+00  0.93827000000E+00 0. -1.
     999902    2    1    2    0    0 -0.82832108347E-02  0.22315664260E-01  0.26401407257E-02  0.10199806619E+01  0.10196994556E+01 0.  0.
     999903    2    3    3    0    0 -0.67055019415E-01 -0.10699261545E+00 -0.12486948675E-01  0.12846308745E+00  0.20075994676E-01 0.  0.
         14    1    1    2    0    0  0.82832108347E-02 -0.22315664260E-01 -0.26401407257E-02  0.23949338115E-01  0.00000000000E+00 0.  1.
     999901    1    3    3    0    0  0.58771808580E-01  0.12930827971E+00  0.15127089401E-01  0.89151757443E+00  0.88000000000E+00 0. -1.
        -11    1    4    4    0    0 -0.64385699985E-01 -0.90871328623E-01 -0.89003811625E-02  0.11172553260E+00  0.51100000000E-03 0.  1.
         11    1    4    4    0    0 -0.26693194297E-02 -0.16121286824E-01 -0.35865675127E-02  0.16737554858E-01  0.51100000000E-03 0. -1.
</event>
<event>
 8    1  0.1112171E+005  0.1043930E+01  0.7957747E-01            NaN
         13   -1    0    0    0    0  0.00000000000E+00  0.00000000000E+00  0.74505805969E-08  0.10566000000E+00  0.10566000000E+00 0. -1.
     999900   -1    0    0    0    0 -0.00000000000E+00 -0.00000000000E+00 -0.74505805969E-08  0.93827000000E+00  0.93827000000E+00 0. -1.
     999902    2    1    2    0    0  0.51917421807E-02 -0.82857015044E-02  0.21438737761E-01  0.10203667550E+01  0.10200946467E+01 0.  0.
     999903    2    3    3    0    0 -0.12469550753E+00  0.22895236397E-01  0.23897742008E-01  0.13028305379E+00  0.18149671723E-01 0.  0.
         14    1    1    2    0    0 -0.51917421807E-02  0.82857015044E-02 -0.21438737761E-01  0.23563244961E-01  0.00000000000E+00 0.  1.
     999901    1    3    3    0    0  0.12988724971E+00 -0.31180937902E-01 -0.24590042468E-02  0.89008370125E+00  0.88000000000E+00 0. -1.
        -11    1    4    4    0    0 -0.23417012208E-01  0.11675257136E-01  0.45901999133E-02  0.26570644444E-01  0.51100000000E-03 0.  1.
         11    1    4    4    0    0 -0.10127849532E+00  0.11219979261E-01  0.19307542095E-01  0.10371240935E+00  0.51100000000E-03 0. -1.
</event>
<event>
 8    1  0.1112171E+005  0.1043930E+01  0.7957747E-01            NaN
         13   -1    0    0    0    0  0.00000000000E+00  0.00000000000E+00  0.74505805969E-08  0.10566000000E+00  0.10566000000E+00 0. -1.
     999900   -1    0    0    0    0 -0.00000000000E+00 -0.00000000000E+00 -0.74505805969E-08  0.93827000000E+00  0.93827000000E+00 0. -1.
     999902    2    1    2    0    0  0.14994547346E-01  0.12305860180E-01  0.37743662191E-02  0.10241685100E+01  0.10239778418E+01 0.  0.
     999903    2    3    3    0    0  0.67190616763E-02 -0.73428975402E-01  0.10977944465E+00  0.13363158080E+00  0.19207100272E-01 0.  0.
         14    1    1    2    0    0 -0.14994547346E-01 -0.12305860180E-01 -0.37743662191E-02  0.19761489955E-01  0.00000000000E+00 0.  1.
     999901    1    3    3    0    0  0.82754856701E-02  0.85734835583E-01 -0.10600507843E+00  0.89053692924E+00  0.88000000000E+00 0. -1.
        -11    1    4    4    0    0 -0.43691451503E-04 -0.70032174490E-02  0.23537207272E-01  0.24562333170E-01  0.51100000000E-03 0.  1.
         11    1    4    4    0    0  0.67627531278E-02 -0.66425757953E-01  0.86242237379E-01  0.10906924763E+00  0.51100000000E-03 0. -1.
</event>
<event>
 8    1  0.1112171E+005  0.1043930E+01  0.7957747E-01            NaN
         13   -1    0    0    0    0  0.00000000000E+00  0.00000000000E+00  0.74505805969E-08  0.10566000000E+00  0.10566000000E+00 0.  1.
     999900   -1    0    0    0    0 -0.00000000000E+00 -0.00000000000E+00 -0.74505805969E-08  0.93827000000E+00  0.93827000000E+00 0.  1.
     999902    2    1    2    0    0 -0.14538362354E-02 -0.24140994305E-02 -0.23955686447E-01  0.10198091288E+01  0.10195238313E+01 0.  0.
     999903    2    3    3    0    0 -0.69715542437E-01  0.91009903685E-01  0.54799483018E-01  0.12874791785E+00  0.20736045537E-01 0.  0.
         14    1    1    2    0    0  0.14538362354E-02  0.24140994305E-02  0.23955686447E-01  0.24120871232E-01  0.00000000000E+00 0.  1.
     999901    1    3    3    0    0  0.68261706202E-01 -0.93424003116E-01 -0.78755169465E-01  0.89106121092E+00  0.88000000000E+00 0.  1.
        -11    1    4    4    0    0 -0.61547847576E-02  0.80646512711E-02  0.12260966848E-01  0.15922072873E-01  0.51100000000E-03 0. -1.
         11    1    4    4    0    0 -0.63560757680E-01  0.82945252414E-01  0.42538516171E-01  0.11282584497E+00  0.51100000000E-03 0.  1.
</event>
<event>
 8    1  0.1112171E+005  0.1043930E+01  0.7957747E-01            NaN
         13   -1    0    0    0    0  0.00000000000E+00  0.00000000000E+00  0.74505805969E-08  0.10566000000E+00  0.10566000000E+00 0. -1.
     999900   -1    0    0    0    0 -0.00000000000E+00 -0.00000000000E+00 -0.74505805969E-08  0.93827000000E+00  0.93827000000E+00 0.  1.
     999902    2    1    2    0    0 -0.21621257766E-01  0.71722500376E-03  0.82883221291E-02  0.10207634404E+01  0.10205005202E+01 0.  0.
     999903    2    3    3    0    0 -0.13098430325E+00 -0.16131129443E-01  0.96084664244E-02  0.13383284249E+00  0.20045100805E-01 0.  0.
         14    1    1    2    0    0  0.21621257766E-01 -0.71722500376E-03 -0.82883221291E-02  0.23166559581E-01  0.00000000000E+00 0. -1.
     999901    1    3    3    0    0  0.10936304548E+00  0.16848354446E-01 -0.13201442954E-02  0.88693059793E+00  0.88000000000E+00 0.  1.
        -11    1    4    4    0    0 -0.30888510456E-01  0.43750580910E-02  0.45573813695E-02  0.31532079814E-01  0.51100000000E-03 0.  1.
         11    1    4    4    0    0 -0.10009579280E+00 -0.20506187534E-01  0.50510850550E-02  0.10230076267E+00  0.51100000000E-03 0. -1.
</event>
<event>
 8    1  0.1112171E+005  0.1043930E+01  0.7957747E-01            NaN
         13   -1    0    0    0    0  0.00000000000E+00  0.00000000000E+00  0.74505805969E-08  0.10566000000E+00  0.10566000000E+00 0. -1.
     999900   -1    0    0    0    0 -0.00000000000E+00 -0.00000000000E+00 -0.74505805969E-08  0.93827000000E+00  0.93827000000E+00 0.  1.
     999902    2    1    2    0    0  0.41337174763E-02 -0.45633105605E-02 -0.22899515198E-01  0.10202171507E+01  0.10199415353E+01 0.  0.
     999903    2    3    3    0    0  0.11115802037E+00 -0.62437349598E-01 -0.27059100530E-01  0.13183609064E+00  0.19850233191E-01 0.  0.
         14    1    1    2    0    0 -0.41337174763E-02  0.45633105605E-02  0.22899515198E-01  0.23712849254E-01  0.00000000000E+00 0. -1.
     999901    1    3    3    0    0 -0.10702430289E+00  0.57874039038E-01  0.41595853321E-02  0.88838106011E+00  0.88000000000E+00 0.  1.
        -11    1    4    4    0    0  0.87490003687E-01 -0.56834609989E-01 -0.25812919474E-01  0.10747670245E+00  0.51100000000E-03 0. -1.
         11    1    4    4    0    0  0.23668016678E-01 -0.56027396095E-02 -0.12461810554E-02  0.24359388186E-01  0.51100000000E-03 0.  1.
</event>
<event>
 7    1  0.1112171E+005  0.1043930E+01  0.7957747E-01            NaN
         13   -1    0    0    0    0  0.00000000000E+00  0.00000000000E+00  0.74505805969E-08  0.10566000000E+00  0.10566000000E+00 0.  1.
     999900   -1    0    0    0    0 -0.00000000000E+00 -0.00000000000E+00 -0.74505805969E-08  0.93827000000E+00  0.93827000000E+00 0. -1.
     999902    2    1    2    0    0 -0.11754099836E-01 -0.14879466589E-01 -0.15065265251E-01  0.10197118331E+01  0.10194242017E+01 0.  0.
         14    1    1    2    0    0  0.11754099836E-01  0.14879466589E-01  0.15065265251E-01  0.24218166859E-01  0.00000000000E+00 0.  1.
     999901    1    3    3    0    0  0.68801595324E-01  0.24595819707E-01  0.70302930808E-01  0.88582228237E+00  0.88000000000E+00 0.  1.
        -11    1    3    3    0    0 -0.85405211091E-01 -0.36037187702E-01 -0.66456576625E-01  0.11405904908E+00  0.51100000000E-03 0. -1.
         11    1    3    3    0    0  0.48495159309E-02 -0.34380985941E-02 -0.18911619434E-01  0.19830501691E-01  0.51100000000E-03 0.  1.
</event>
<event>
 8    1  0.1112171E+005  0.1043930E+01  0.7957747E-01            NaN
         13   -1    0    0    0    0  0.00000000000E+00  0.00000000000E+00  0.74505805969E-08  0.10566000000E+00  0.10566000000E+00 0.  1.
     999900   -1    0    0    0    0 -0.00000000000E+00 -0.00000000000E+00 -0.74505805969E-08  0.93827000000E+00  0.93827000000E+00 0.  1.
     999902    2    1    2    0    0 -0.13967684098E-01 -0.12393062328E-01  0.16323260134E-01  0.10191281248E+01  0.10188262863E+01 0.  0.
     999903    2    3    3    0    0 -0.65515150492E-01  0.77001828038E-01  0.80538174797E-01  0.13077451108E+00  0.19850911386E-01 0.  0.
         14    1    1    2    0    0  0.13967684098E-01  0.12393062328E-01 -0.16323260134E-01  0.24801875218E-01  0.00000000000E+00 0. -1.
     999901    1    3    3    0    0  0.51547466394E-01 -0.89394890367E-01 -0.64214914662E-01  0.88835361370E+00  0.88000000000E+00 0.  1.
        -11    1    4    4    0    0 -0.46164873403E-02  0.16111340441E-01  0.15766069117E-01  0.23015588251E-01  0.51100000000E-03 0. -1.
         11    1    4    4    0    0 -0.60898663152E-01  0.60890487597E-01  0.64772105680E-01  0.10775892283E+00  0.51100000000E-03 0.  1.
</event>
<event>
 8    1  0.1112171E+005  0.1043930E+01  0.7957747E-01            NaN
         13   -1    0    0    0    0  0.00000000000E+00  0.00000000000E+00  0.74505805969E-08  0.10566000000E+00  0.10566000000E+00 0.  1.
     999900   -1    0    0    0    0 -0.00000000000E+00 -0.00000000000E+00 -0.74505805969E-08  0.93827000000E+00  0.93827000000E+00 0. -1.
     999902    2    1    2    0    0 -0.23686146831E-01  0.10063231136E-01 -0.26028321315E-02  0.10180634790E+01  0.10177348232E+01 0.  0.
     999903    2    3    3    0    0  0.11218555829E+00  0.23337988541E-01 -0.49278845872E-01  0.12631464123E+00  0.19917900035E-01 0.  0.
         14    1    1    2    0    0  0.23686146831E-01 -0.10063231136E-01  0.26028321315E-02  0.25866520982E-01  0.00000000000E+00 0. -1.
     999901    1    3    3    0    0 -0.13587170512E+00 -0.13274757405E-01  0.46676013740E-01  0.89174883779E+00  0.88000000000E+00 0.  1.
        -11    1    4    4    0    0  0.85665536196E-01  0.91276646794E-02 -0.38315835866E-01  0.94288189894E-01  0.51100000000E-03 0.  1.
         11    1    4    4    0    0  0.26520022090E-01  0.14210323862E-01 -0.10963010006E-01  0.32026451338E-01  0.51100000000E-03 0. -1.
</event>
<event>
 8    1  0.1112171E+005  0.1043930E+01  0.7957747E-01            NaN
         13   -1    0    0    0    0  0.00000000000E+00  0.00000000000E+00  0.74505805969E-08  0.10566000000E+00  0.10566000000E+00 0. -1.
     999900   -1    0    0    0    0 -0.00000000000E+00 -0.00000000000E+00 -0.74505805969E-08  0.93827000000E+00  0.93827000000E+00 0. -1.
     999902    2    1    2    0    0 -0.66974380981E-02 -0.22131839239E-01  0.52374087913E-02  0.10202212582E+01  0.10199457394E+01 0.  0.
     999903    2    3    3    0    0  0.34276901740E-01 -0.49666129385E-01  0.11560768224E+00  0.13195405130E+00  0.20127221846E-01 0.  0.
         14    1    1    2    0    0  0.66974380981E-02  0.22131839239E-01 -0.52374087913E-02  0.23708741764E-01  0.00000000000E+00 0. -1.
     999901    1    3    3    0    0 -0.40974339838E-01  0.27534290145E-01 -0.11037027345E+00  0.88826720694E+00  0.88000000000E+00 0. -1.
        -11    1    4    4    0    0  0.13661367816E-01 -0.12387425436E-01  0.19588949805E-01  0.26908536843E-01  0.51100000000E-03 0.  1.
         11    1    4    4    0    0  0.20615533924E-01 -0.37278703948E-01  0.96018732438E-01  0.10504551445E+00  0.51100000000E-03 0. -1.
</event>
<event>
 8    1  0.1112171E+005  0.1043930E+01  0.7957747E-01            NaN
         13   -1    0    0    0    0  0.00000000000E+00  0.00000000000E+00  0.74505805969E-08  0.10566000000E+00  0.10566000000E+00 0.  1.
     999900   -1    0    0    0    0 -0.00000000000E+00 -0.00000000000E+00 -0.74505805969E-08  0.93827000000E+00  0.93827000000E+00 0. -1.
     999902    2    1    2    0    0  0.29490946664E-02  0.14389134576E-01 -0.18035508551E-01  0.10206700791E+01  0.10204050110E+01 0.  0.
     999903    2    3    3    0    0 -0.29035616822E-01  0.10824865213E+00 -0.68735303878E-01  0.13365085715E+00  0.24024401881E-01 0.  0.
         14    1    1    2    0    0 -0.29490946664E-02 -0.14389134576E-01  0.18035508551E-01  0.23259920935E-01  0.00000000000E+00 0.  1.
     999901    1    3    3    0    0  0.31984711488E-01 -0.93859517551E-01  0.50699795326E-01  0.88701922192E+00  0.88000000000E+00 0.  1.
        -11    1    4    4    0    0 -0.12731416023E-01  0.14185349738E-01 -0.95447215383E-02  0.21323131369E-01  0.51100000000E-03 0. -1.
         11    1    4    4    0    0 -0.16304200799E-01  0.94063302389E-01 -0.59190582339E-01  0.11232772578E+00  0.51100000000E-03 0.  1.
</event>
<event>
 8    1  0.1112171E+005  0.1043930E+01  0.7957747E-01            NaN
         13   -1    0    0    0    0  0.00000000000E+00  0.00000000000E+00  0.74505805969E-08  0.10566000000E+00  0.10566000000E+00 0. -1.
     999900   -1    0    0    0    0 -0.00000000000E+00 -0.00000000000E+00 -0.74505805969E-08  0.93827000000E+00  0.93827000000E+00 0. -1.
     999902    2    1    2    0    0 -0.16097564630E-01 -0.99363976016E-02 -0.60710680054E-02  0.10240624020E+01  0.10238696605E+01 0.  0.
     999903    2    3    3    0    0  0.50744911569E-01 -0.12239213085E+00  0.58470930224E-02  0.13431173402E+00  0.21226720305E-01 0.  0.
         14    1    1    2    0    0  0.16097564630E-01  0.99363976016E-02  0.60710680054E-02  0.19867598019E-01  0.00000000000E+00 0. -1.
     999901    1    3    3    0    0 -0.66842476199E-01  0.11245573325E+00 -0.11918161028E-01  0.88975066796E+00  0.88000000000E+00 0. -1.
        -11    1    4    4    0    0  0.17772143982E-01 -0.70287292938E-01  0.20085981938E-02  0.72528947586E-01  0.51100000000E-03 0. -1.
         11    1    4    4    0    0  0.32972767587E-01 -0.52104837916E-01  0.38384948286E-02  0.61782786439E-01  0.51100000000E-03 0.  1.
</event>
<event>
 8    1  0.1112171E+005  0.1043930E+01  0.7957747E-01            NaN
         13   -1    0    0    0    0  0.00000000000E+00  0.00000000000E+00  0.74505805969E-08  0.10566000000E+00  0.10566000000E+00 0. -1.
     999900   -1    0    0    0    0 -0.00000000000E+00 -0.00000000000E+00 -0.74505805969E-08  0.93827000000E+00  0.93827000000E+00 0.  1.
     999902    2    1    2    0    0 -0.12827735090E-01  0.14224463796E-01  0.10176258802E-01  0.10222403158E+01  0.10220101863E+01 0.  0.
     999903    2    3    3    0    0 -0.31088198709E-01  0.12557435985E+00  0.32100680409E-01  0.13476472506E+00  0.19891744200E-01 0.  0.
         14    1    1    2    0    0  0.12827735090E-01 -0.14224463796E-01 -0.10176258802E-01  0.21689684208E-01  0.00000000000E+00 0.  1.
     999901    1    3    3    0    0  0.18260463618E-01 -0.11134989605E+00 -0.21924421607E-01  0.88747559073E+00  0.88000000000E+00 0. -1.
        -11    1    4    4    0    0 -0.24818598525E-01  0.11046575653E+00  0.34179927636E-01  0.11826738677E+00  0.51100000000E-03 0. -1.
         11    1    4    4    0    0 -0.62696001837E-02  0.15108603317E-01 -0.20792472275E-02  0.16497338291E-01  0.51100000000E-03 0.  1.
</event>
<event>
 8    1  0.1112171E+005  0.1043930E+01  0.7957747E-01            NaN
         13   -1    0    0    0    0  0.00000000000E+00  0.00000000000E+00  0.74505805969E-08  0.10566000000E+00  0.10566000000E+00 0.  1.
     999900   -1    0    0    0    0 -0.00000000000E+00 -0.00000000000E+00 -0.74505805969E-08  0.93827000000E+00  0.93827000000E+00 0.  1.
     999902    2    1    2    0    0 -0.49919434612E-02 -0.15397935279E-01  0.10772649461E-01  0.10244860836E+01  0.10243015520E+01 0.  0.
     999903    2    3    3    0    0  0.48747083192E-02  0.87171511847E-01  0.10017848432E+00  0.13397429497E+00  0.17051326433E-01 0.  0.
         14    1    1    2    0    0  0.49919434612E-02  0.15397935279E-01 -0.10772649461E-01  0.19443916446E-01  0.00000000000E+00 0. -1.
     999901    1    3    3    0    0 -0.98666517804E-02 -0.10256944713E+00 -0.89405834858E-01  0.89051178858E+00  0.88000000000E+00 0.  1.
        -11    1    4    4    0    0  0.35902543418E-02  0.55875531872E-01  0.51430092690E-01  0.76028156254E-01  0.51100000000E-03 0.  1.
         11    1    4    4    0    0  0.12844539774E-02  0.31295979975E-01  0.48748391629E-01  0.57946138715E-01  0.51100000000E-03 0. -1.
</event>
<event>
 8    1  0.1112171E+005  0.1043930E+01  0.7957747E-01            NaN
         13   -1    0    0    0    0  0.00000000000E+00  0.00000000000E+00  0.74505805969E-08  0.10566000000E+00  0.10566000000E+00 0.  1.
     999900   -1    0    0    0    0 -0.00000000000E+00 -0.00000000000E+00 -0.74505805969E-08  0.93827000000E+00  0.93827000000E+00 0.  1.
     999902    2    1    2    0    0  0.21065229119E-01  0.10232509188E-01  0.37722913882E-02  0.10202091589E+01  0.10199333554E+01 0.  0.
     999903    2    3    3    0    0 -0.30962433934E-01  0.19497322021E-01 -0.12272022161E+00  0.12959528611E+00  0.19896419544E-01 0.  0.
         14    1    1    2    0    0 -0.21065229119E-01 -0.10232509188E-01 -0.37722913882E-02  0.23720841141E-01  0.00000000000E+00 0.  1.
     999901    1    3    3    0    0  0.52027663053E-01 -0.92648128335E-02  0.12649251300E+00  0.89061387274E+00  0.88000000000E+00 0. -1.
        -11    1    4    4    0    0 -0.24639471648E-01  0.10879572825E-01 -0.57436385305E-01  0.63440272271E-01  0.51100000000E-03 0.  1.
         11    1    4    4    0    0 -0.63229622860E-02  0.86177491967E-02 -0.65283836302E-01  0.66155013844E-01  0.51100000000E-03 0. -1.
</event>
<event>
 8    1  0.1112171E+005  0.1043930E+01  0.7957747E-01            NaN
         13   -1    0    0    0    0  0.00000000000E+00  0.00000000000E+00  0.74505805969E-08  0.10566000000E+00  0.10566000000E+00 0. -1.
     999900   -1    0    0    0    0 -0.00000000000E+00 -0.00000000000E+00 -0.74505805969E-08  0.93827000000E+00  0.93827000000E+00 0.  1.
     999902    2    1    2    0    0 -0.18278939997E-02  0.17792240560E-01 -0.12553455708E-01  0.10220783577E+01  0.10218447412E+01 0.  0.
     999903    2    3    3    0    0  0.80450267758E-01  0.10267745215E+00  0.20511991103E-01  0.13355794780E+00  0.20051904624E-01 0.  0.
         14    1    1    2    0    0  0.18278939997E-02 -0.17792240560E-01  0.12553455708E-01  0.21851642291E-01  0.00000000000E+00 0. -1.
     999901    1    3    3    0    0 -0.82278161757E-01 -0.84885211593E-01 -0.33065446811E-01  0.88852040991E+00  0.88000000000E+00 0.  1.
        -11    1    4    4    0    0  0.17032603185E-01  0.33681462293E-01  0.11243855044E-01  0.39385731816E-01  0.51100000000E-03 0. -1.
         11    1    4    4    0    0  0.63417664572E-01  0.68995989860E-01  0.92681360595E-02  0.94172215985E-01  0.51100000000E-03 0.  1.
</event>
<event>
 8    1  0.1112171E+005  0.1043930E+01  0.7957747E-01            NaN
         13   -1    0    0    0    0  0.00000000000E+00  0.00000000000E+00  0.74505805969E-08  0.10566000000E+00  0.10566000000E+00 0. -1.
     999900   -1    0    0    0    0 -0.00000000000E+00 -0.00000000000E+00 -0.74505805969E-08  0.93827000000E+00  0.93827000000E+00 0. -1.
     999902    2    1    2    0    0 -0.76833470623E-02  0.90263136363E-02  0.20374535264E-01  0.10203581981E+01  0.10200858898E+01 0.  0.
     999903    2    3    3    0    0  0.14130913441E-01 -0.72168918862E-01  0.10807153563E+00  0.13201181763E+00  0.18428988452E-01 0.  0.
         14    1    1    2    0    0  0.76833470623E-02 -0.90263136363E-02 -0.20374535264E-01  0.23571801950E-01  0.00000000000E+00 0.  1.
     999901    1    3    3    0    0 -0.21814260503E-01  0.81195232498E-01 -0.87697000364E-01  0.88834638043E+00  0.88000000000E+00 0. -1.
        -11    1    4    4    0    0 -0.43185294181E-02 -0.13581310436E-01  0.17487007140E-01  0.22564534766E-01  0.51100000000E-03 0. -1.
         11    1    4    4    0    0  0.18449442859E-01 -0.58587608426E-01  0.90584528488E-01  0.10944728286E+00  0.51100000000E-03 0.  1.
</event>
<event>
 8    1  0.1112171E+005  0.1043930E+01  0.7957747E-01            NaN
         13   -1    0    0    0    0  0.00000000000E+00  0.00000000000E+00  0.74505805969E-08  0.10566000000E+00  0.10566000000E+00 0.  1.
     999900   -1    0    0    0    0 -0.00000000000E+00 -0.00000000000E+00 -0.74505805969E-08  0.93827000000E+00  0.93827000000E+00 0. -1.
     999902    2    1    2    0    0 -0.23455663316E-01  0.36240259466E-02 -0.32084798213E-02  0.10199801347E+01  0.10196989159E+01 0.  0.
     999903    2    3    3    0    0  0.80222547742E-01 -0.59146342394E-01 -0.78614760928E-01  0.12847836923E+00  0.19810697590E-01 0.  0.
         14    1    1    2    0    0  0.23455663316E-01 -0.36240259466E-02  0.32084798213E-02  0.23949865311E-01  0.00000000000E+00 0. -1.
     999901    1    3    3    0    0 -0.10367821106E+00  0.62770368341E-01  0.75406281107E-01  0.89150176546E+00  0.88000000000E+00 0.  1.
        -11    1    4    4    0    0  0.42746689901E-01 -0.37500901461E-01 -0.55280081043E-01  0.79307916307E-01  0.51100000000E-03 0. -1.
         11    1    4    4    0    0  0.37475857841E-01 -0.21645440933E-01 -0.23334679884E-01  0.49170452921E-01  0.51100000000E-03 0.  1.
</event>
<event>
 8    1  0.1112171E+005  0.1043930E+01  0.7957747E-01            NaN
         13   -1    0    0    0    0  0.00000000000E+00  0.00000000000E+00  0.74505805969E-08  0.10566000000E+00  0.10566000000E+00 0. -1.
     999900   -1    0    0    0    0 -0.00000000000E+00 -0.00000000000E+00 -0.74505805969E-08  0.93827000000E+00  0.93827000000E+00 0. -1.
     999902    2    1    2    0    0  0.69898181611E-02  0.20809764527E-01 -0.16615543205E-01  0.10163985610E+01  0.10160256171E+01 0.  0.
     999903    2    3    3    0    0  0.52880432413E-01  0.11634398728E+00  0.67515124117E-02  0.12973134299E+00  0.21269107308E-01 0.  0.
         14    1    1    2    0    0 -0.69898181611E-02 -0.20809764527E-01  0.16615543205E-01  0.27531439003E-01  0.00000000000E+00 0. -1.
     999901    1    3    3    0    0 -0.45890614252E-01 -0.95534222756E-01 -0.23367055617E-01  0.88666721800E+00  0.88000000000E+00 0. -1.
        -11    1    4    4    0    0  0.46397817852E-01  0.84997488922E-01  0.10901298971E-01  0.97449628346E-01  0.51100000000E-03 0. -1.
         11    1    4    4    0    0  0.64826145612E-02  0.31346498361E-01 -0.41497865589E-02  0.32281714647E-01  0.51100000000E-03 0.  1.
</event>
<event>
 8    1  0.1112171E+005  0.1043930E+01  0.7957747E-01            NaN
         13   -1    0    0    0    0  0.00000000000E+00  0.00000000000E+00  0.74505805969E-08  0.10566000000E+00  0.10566000000E+00 0. -1.
     999900   -1    0    0    0    0 -0.00000000000E+00 -0.00000000000E+00 -0.74505805969E-08  0.93827000000E+00  0.93827000000E+00 0.  1.
     999902    2    1    2    0    0  0.12423553357E-03 -0.23111230532E-01  0.74283396572E-02  0.10196539904E+01  0.10193649668E+01 0.  0.
     999903    2    3    3    0    0 -0.50148083317E-01 -0.56023616648E-01 -0.10467972102E+00  0.13050903684E+00  0.20525321477E-01 0.  0.
         14    1    1    2    0    0 -0.12423553357E-03  0.23111230532E-01 -0.74283396572E-02  0.24276009582E-01  0.00000000000E+00 0.  1.
     999901    1    3    3    0    0  0.50272318851E-01  0.32912386116E-01  0.11210806068E+00  0.88914495358E+00  0.88000000000E+00 0. -1.
        -11    1    4    4    0    0 -0.74997258592E-02 -0.16222495005E-01 -0.14106755013E-01  0.22774478921E-01  0.51100000000E-03 0.  1.
         11    1    4    4    0    0 -0.42648357458E-01 -0.39801121643E-01 -0.90572966006E-01  0.10773455792E+00  0.51100000000E-03 0. -1.
</event>
<event>
 8    1  0.1112171E+005  0.1043930E+01  0.7957747E-01            NaN
         13   -1    0    0    0    0  0.00000000000E+00  0.00000000000E+00  0.74505805969E-08  0.10566000000E+00  0.10566000000E+00 0. -1.
     999900   -1    0    0    0    0 -0.00000000000E+00 -0.00000000000E+00 -0.74505805969E-08  0.93827000000E+00  0.93827000000E+00 0. -1.
     999902    2    1    2    0    0  0.21318951407E-02 -0.23136901638E-01  0.45968097003E-02  0.10202447334E+01  0.10199697663E+01 0.  0.
     999903    2    3    3    0    0  0.84645787470E-01  0.66987719673E-01 -0.67282943529E-01  0.12889873509E+00  0.20871643287E-01 0.  0.
         14    1    1    2    0    0 -0.21318951407E-02  0.23136901638E-01 -0.45968097003E-02  0.23685266595E-01  0.00000000000E+00 0.  1.
     999901    1    3    3    0    0 -0.82513892330E-01 -0.90124621310E-01  0.71879753229E-01  0.89134599832E+00  0.88000000000E+00 0.  1.
        -11    1    4    4    0    0  0.24946896467E-01  0.10875630259E-01 -0.10314561171E-01  0.29108044765E-01  0.51100000000E-03 0.  1.
         11    1    4    4    0    0  0.59698891003E-01  0.56112089414E-01 -0.56968382358E-01  0.99790690322E-01  0.51100000000E-03 0. -1.
</event>
<event>
 8    1  0.1112171E+005  0.1043930E+01  0.7957747E-01            NaN
         13   -1    0    0    0    0  0.00000000000E+00  0.00000000000E+00  0.74505805969E-08  0.10566000000E+00  0.10566000000E+00 0. -1.
     999900   -1    0    0    0    0 -0.00000000000E+00 -0.00000000000E+00 -0.74505805969E-08  0.93827000000E+00  0.93827000000E+00 0. -1.
     999902    2    1    2    0    0 -0.21669555058E-01  0.78938735292E-02  0.39665440949E-02  0.10205287964E+01  0.10202604609E+01 0.  0.
     999903    2    3    3    0    0  0.72515980182E-01  0.10166831616E+00  0.30570383715E-01  0.13015116565E+00  0.20242620084E-01 0.  0.
         14    1    1    2    0    0  0.21669555058E-01 -0.78938735292E-02 -0.39665440949E-02  0.23401203554E-01  0.00000000000E+00 0.  1.
     999901    1    3    3    0    0 -0.94185535240E-01 -0.93774442628E-01 -0.26603839620E-01  0.89037763080E+00  0.88000000000E+00 0.  1.
        -11    1    4    4    0    0  0.31459453494E-01  0.49960106351E-01  0.46739779418E-02  0.59226823581E-01  0.51100000000E-03 0. -1.
         11    1    4    4    0    0  0.41056526689E-01  0.51708209806E-01  0.25896405773E-01  0.70924342070E-01  0.51100000000E-03 0.  1.
</event>
<event>
 8    1  0.1112171E+005  0.1043930E+01  0.7957747E-01            NaN
         13   -1    0    0    0    0  0.00000000000E+00  0.00000000000E+00  0.74505805969E-08  0.10566000000E+00  0.10566000000E+00 0.  1.
     999900   -1    0    0    0    0 -0.00000000000E+00 -0.00000000000E+00 -0.74505805969E-08  0.93827000000E+00  0.93827000000E+00 0.  1.
     999902    2    1    2    0    0  0.13567888698E-01 -0.13762634298E-01  0.11097125331E-01  0.10216444913E+01  0.10214014014E+01 0.  0.
     999903    2    3    3    0    0  0.51927010050E-02 -0.64931259519E-01  0.11539428655E+00  0.13396984945E+00  0.19724263901E-01 0.  0.
         14    1    1    2    0    0 -0.13567888698E-01  0.13762634298E-01 -0.11097125331E-01  0.22285508681E-01  0.00000000000E+00 0.  1.
     999901    1    3    3    0    0  0.83751876935E-02  0.51168625221E-01 -0.10429716122E+00  0.88767464187E+00  0.88000000000E+00 0.  1.
        -11    1    4    4    0    0  0.11202899429E-01 -0.42836392811E-01  0.85755925541E-01  0.96513218737E-01  0.51100000000E-03 0. -1.
         11    1    4    4    0    0 -0.60101984242E-02 -0.22094866708E-01  0.29638361012E-01  0.37456630714E-01  0.51100000000E-03 0.  1.
</event>
<event>
 8    1  0.1112171E+005  0.1043930E+01  0.7957747E-01            NaN
         13   -1    0    0    0    0  0.00000000000E+00  0.00000000000E+00  0.74505805969E-08  0.10566000000E+00  0.10566000000E+00 0.  1.
     999900   -1    0    0    0    0 -0.00000000000E+00 -0.00000000000E+00 -0.74505805969E-08  0.93827000000E+00  0.93827000000E+00 0. -1.
     999902    2    1    2    0    0  0.18413301106E-02  0.19033145479E-01 -0.13889297839E-01  0.10202960473E+01  0.10200222843E+01 0.  0.
     999903    2    3    3    0    0  0.21156302594E-01 -0.52144946196E-01  0.11332681473E+00  0.12809465294E+00  0.19964684358E-01 0.  0.
         14    1    1    2    0    0 -0.18413301106E-02 -0.19033145479E-01  0.13889297839E-01  0.23633952650E-01  0.00000000000E+00 0.  1.
     999901    1    3    3    0    0 -0.19314972483E-01  0.71178091675E-01 -0.12721611257E+00  0.89220139441E+00  0.88000000000E+00 0. -1.
        -11    1    4    4    0    0  0.18859720355E-01 -0.33635858713E-01  0.57526617710E-01  0.69257728157E-01  0.51100000000E-03 0.  1.
         11    1    4    4    0    0  0.22965822386E-02 -0.18509087483E-01  0.55800197017E-01  0.58836924780E-01  0.51100000000E-03 0. -1.
</event>
<event>
 8    1  0.1112171E+005  0.1043930E+01  0.7957747E-01            NaN
         13   -1    0    0    0    0  0.00000000000E+00  0.00000000000E+00  0.74505805969E-08  0.10566000000E+00  0.10566000000E+00 0.  1.
     999900   -1    0    0    0    0 -0.00000000000E+00 -0.00000000000E+00 -0.74505805969E-08  0.93827000000E+00  0.93827000000E+00 0.  1.
     999902    2    1    2    0    0  0.20926902066E-01  0.56819064781E-02  0.91314641355E-02  0.10204012319E+01  0.10201299285E+01 0.  0.
     999903    2    3    3    0    0 -0.11077205283E+00  0.14945749651E-01  0.61202117899E-01  0.12903049730E+00  0.20232322553E-01 0.  0.
         14    1    1    2    0    0 -0.20926902066E-01 -0.56819064781E-02 -0.91314641355E-02  0.23528768106E-01  0.00000000000E+00 0. -1.
     999901    1    3    3    0    0  0.13169895490E+00 -0.92638431734E-02 -0.52070653764E-01  0.89137073460E+00  0.88000000000E+00 0. -1.
        -11    1    4    4    0    0 -0.64923354430E-01  0.10473984488E-01  0.24688889086E-01  0.70246342729E-01  0.51100000000E-03 0.  1.
         11    1    4    4    0    0 -0.45848698404E-01  0.44717651635E-02  0.36513228813E-01  0.58784154569E-01  0.51100000000E-03 0. -1.
</event>
<event>
 8    1  0.1112171E+005  0.1043930E+01  0.7957747E-01            NaN
         13   -1    0    0    0    0  0.00000000000E+00  0.00000000000E+00  0.74505805969E-08  0.10566000000E+00  0.10566000000E+00 0. -1.
     999900   -1    0    0    0    0 -0.00000000000E+00 -0.00000000000E+00 -0.74505805969E-08  0.93827000000E+00  0.93827000000E+00 0. -1.
     999902    2    1    2    0    0 -0.21101406331E-01  0.58650398903E-02  0.11326351364E-01  0.10192732712E+01  0.10189749982E+01 0.  0.
     999903    2    3    3    0    0 -0.27041378675E-01 -0.83785201102E-01 -0.91714788536E-01  0.12871730689E+00  0.20133220605E-01 0.  0.
         14    1    1    2    0    0  0.21101406331E-01 -0.58650398903E-02 -0.11326351364E-01  0.24656728844E-01  0.00000000000E+00 0. -1.
     999901    1    3    3    0    0  0.59399723434E-02  0.89650240992E-01  0.10304113990E+00  0.89055596427E+00  0.88000000000E+00 0.  1.
        -11    1    4    4    0    0 -0.24605717988E-01 -0.54975006291E-01 -0.51894036916E-01  0.79504370086E-01  0.51100000000E-03 0. -1.
         11    1    4    4    0    0 -0.24356606863E-02 -0.28810194811E-01 -0.39820751621E-01  0.49212936802E-01  0.51100000000E-03 0.  1.
</event>
<event>
 8    1  0.1112171E+005  0.1043930E+01  0.7957747E-01            NaN
         13   -1    0    0    0    0  0.00000000000E+00  0.00000000000E+00  0.74505805969E-08  0.10566000000E+00  0.10566000000E+00 0.  1.
     999900   -1    0    0    0    0 -0.00000000000E+00 -0.00000000000E+00 -0.74505805969E-08  0.93827000000E+00  0.93827000000E+00 0.  1.
     999902    2    1    2    0    0  0.16949018000E-02  0.19497677322E-01  0.10978637764E-01  0.10214897995E+01  0.10212432853E+01 0.  0.
     999903    2    3    3    0    0 -0.12414484162E+00 -0.30625614943E-01 -0.18011567576E-01  0.13065400233E+00  0.19904315272E-01 0.  0.
         14    1    1    2    0    0 -0.16949018000E-02 -0.19497677322E-01 -0.10978637764E-01  0.22440200539E-01  0.00000000000E+00 0.  1.
     999901    1    3    3    0    0  0.12583974342E+00  0.50123292265E-01  0.28990205340E-01  0.89083579713E+00  0.88000000000E+00 0.  1.
        -11    1    4    4    0    0 -0.79176231512E-01 -0.14499624269E-01 -0.29041956361E-02  0.80546944161E-01  0.51100000000E-03 0. -1.
         11    1    4    4    0    0 -0.44968610106E-01 -0.16125990673E-01 -0.15107371940E-01  0.50107058165E-01  0.51100000000E-03 0.  1.
</event>
<event>
 8    1  0.1112171E+005  0.1043930E+01  0.7957747E-01            NaN
         13   -1    0    0    0    0  0.00000000000E+00  0.00000000000E+00  0.74505805969E-08  0.10566000000E+00  0.10566000000E+00 0. -1.
     999900   -1    0    0    0    0 -0.00000000000E+00 -0.00000000000E+00 -0.74505805969E-08  0.93827000000E+00  0.93827000000E+00 0. -1.
     999902    2    1    2    0    0  0.50265005218E-02  0.15096404751E-01 -0.13988138629E-01  0.10227442698E+01  0.10225248193E+01 0.  0.
     999903    2    3    3    0    0  0.97515821059E-01 -0.83678309920E-01 -0.24298047722E-01  0.13234154463E+00  0.20309958269E-01 0.  0.
         14    1    1    2    0    0 -0.50265005218E-02 -0.15096404751E-01  0.13988138629E-01  0.21185730250E-01  0.00000000000E+00 0. -1.
     999901    1    3    3    0    0 -0.92489320537E-01  0.98774714671E-01  0.10309909093E-01  0.89040272512E+00  0.88000000000E+00 0. -1.
        -11    1    4    4    0    0  0.41979095707E-01 -0.37266103239E-01 -0.20841947321E-01  0.59880337475E-01  0.51100000000E-03 0. -1.
         11    1    4    4    0    0  0.55536725352E-01 -0.46412206680E-01 -0.34561004013E-02  0.72461207158E-01  0.51100000000E-03 0.  1.
</event>
<event>
 8    1  0.1112171E+005  0.1043930E+01  0.7957747E-01            NaN
         13   -1    0    0    0    0  0.00000000000E+00  0.00000000000E+00  0.74505805969E-08  0.10566000000E+00  0.10566000000E+00 0.  1.
     999900   -1    0    0    0    0 -0.00000000000E+00 -0.00000000000E+00 -0.74505805969E-08  0.93827000000E+00  0.93827000000E+00 0. -1.
     999902    2    1    2    0    0 -0.33156677102E-02  0.23122454663E-01 -0.36284471787E-02  0.10202908970E+01  0.10200170132E+01 0.  0.
     999903    2    3    3    0    0 -0.95375402865E-01  0.39668194637E-01  0.78429392330E-01  0.13153769988E+00  0.21930886257E-01 0.  0.
         14    1    1    2    0    0  0.33156677102E-02 -0.23122454663E-01  0.36284471787E-02  0.23639103006E-01  0.00000000000E+00 0. -1.
     999901    1    3    3    0    0  0.92059735155E-01 -0.16545739974E-01 -0.82057839509E-01  0.88875319711E+00  0.88000000000E+00 0. -1.
        -11    1    4    4    0    0 -0.15305813797E-01  0.82811327746E-02  0.24389096397E-01  0.29965550889E-01  0.51100000000E-03 0. -1.
         11    1    4    4    0    0 -0.80069589069E-01  0.31387061862E-01  0.54040295933E-01  0.10157214900E+00  0.51100000000E-03 0.  1.
</event>
<event>
 8    1  0.1870868E+005  0.1043930E+01  0.7957747E-01            NaN
         13   -1    0    0    0    0  0.00000000000E+00  0.00000000000E+00  0.74505805969E-08  0.10566000000E+00  0.10566000000E+00 0.  1.
     999900   -1    0    0    0    0 -0.00000000000E+00 -0.00000000000E+00 -0.74505805969E-08  0.93827000000E+00  0.93827000000E+00 0.  1.
     999902    2    1    2    0    0 -0.94377798053E-02  0.14972463507E-01 -0.17719958263E-01  0.10188851747E+01  0.10185773196E+01 0.  0.
     999903    2    3    3    0    0  0.12080404301E+00 -0.35238153998E-01  0.33697954052E-02  0.12763391038E+00  0.21064549676E-01 0.  0.
         14    1    1    2    0    0  0.94377798053E-02 -0.14972463507E-01  0.17719958263E-01  0.25044825253E-01  0.00000000000E+00 0.  1.
     999901    1    3    3    0    0 -0.13024182282E+00  0.50210617504E-01 -0.21089753668E-01  0.89125126436E+00  0.88000000000E+00 0.  1.
        -11    1    4    4    0    0  0.53733626896E-01 -0.26249302999E-01 -0.10967981047E-02  0.59814652506E-01  0.51100000000E-03 0. -1.
         11    1    4    4    0    0  0.67070416117E-01 -0.89888509990E-02  0.44665935098E-02  0.67819257877E-01  0.51100000000E-03 0.  1.
</event>
<event>
 8    1  0.1112171E+005  0.1043930E+01  0.7957747E-01            NaN
         13   -1    0    0    0    0  0.00000000000E+00  0.00000000000E+00  0.74505805969E-08  0.10566000000E+00  0.10566000000E+00 0.  1.
     999900   -1    0    0    0    0 -0.00000000000E+00 -0.00000000000E+00 -0.74505805969E-08  0.93827000000E+00  0.93827000000E+00 0.  1.
     999902    2    1    2    0    0  0.89783773535E-03 -0.22058157609E-01  0.42658560718E-02  0.10214452061E+01  0.10211977003E+01 0.  0.
     999903    2    3    3    0    0 -0.17628167471E-03 -0.12577788486E+00  0.43019819850E-01  0.13450619732E+00  0.20520838705E-01 0.  0.
         14    1    1    2    0    0 -0.89783773535E-03  0.22058157609E-01 -0.42658560718E-02  0.22484793923E-01  0.00000000000E+00 0. -1.
     999901    1    3    3    0    0  0.10741194101E-02  0.10371972725E+00 -0.38753963778E-01  0.88693900876E+00  0.88000000000E+00 0.  1.
        -11    1    4    4    0    0  0.77062355276E-02 -0.21279405114E-01  0.81758061009E-02  0.24068736452E-01  0.51100000000E-03 0.  1.
         11    1    4    4    0    0 -0.78825172023E-02 -0.10449847975E+00  0.34844013749E-01  0.11043746086E+00  0.51100000000E-03 0. -1.
</event>
<event>
 8    1  0.1112171E+005  0.1043930E+01  0.7957747E-01            NaN
         13   -1    0    0    0    0  0.00000000000E+00  0.00000000000E+00  0.74505805969E-08  0.10566000000E+00  0.10566000000E+00 0. -1.
     999900   -1    0    0    0    0 -0.00000000000E+00 -0.00000000000E+00 -0.74505805969E-08  0.93827000000E+00  0.93827000000E+00 0. -1.
     999902    2    1    2    0    0 -0.22732196109E-01  0.81354757076E-02  0.71857238660E-03  0.10197751858E+01  0.10194890752E+01 0.  0.
     999903    2    3    3    0    0 -0.54020969432E-01 -0.47847658862E-01  0.10761625670E+00  0.13098937714E+00  0.19217039809E-01 0.  0.
         14    1    1    2    0    0  0.22732196109E-01 -0.81354757076E-02 -0.71857238660E-03  0.24154814245E-01  0.00000000000E+00 0. -1.
     999901    1    3    3    0    0  0.31288773323E-01  0.55983134570E-01 -0.10689768431E+00  0.88878580862E+00  0.88000000000E+00 0. -1.
        -11    1    4    4    0    0 -0.39911361330E-01 -0.28529221502E-01  0.58465922811E-01  0.76324036148E-01  0.51100000000E-03 0.  1.
         11    1    4    4    0    0 -0.14109608102E-01 -0.19318437360E-01  0.49150333890E-01  0.54665340988E-01  0.51100000000E-03 0. -1.
</event>
<event>
 8    1  0.1112171E+005  0.1043930E+01  0.7957747E-01            NaN
         13   -1    0    0    0    0  0.00000000000E+00  0.00000000000E+00  0.74505805969E-08  0.10566000000E+00  0.10566000000E+00 0.  1.
     999900   -1    0    0    0    0 -0.00000000000E+00 -0.00000000000E+00 -0.74505805969E-08  0.93827000000E+00  0.93827000000E+00 0. -1.
     999902    2    1    2    0    0  0.15445154185E-01 -0.12768956302E-01  0.12045825548E-01  0.10205483631E+01  0.10202804812E+01 0.  0.
     999903    2    3    3    0    0  0.64965648593E-01 -0.84894269566E-01  0.77778877880E-01  0.13377038952E+00  0.20430143585E-01 0.  0.
         14    1    1    2    0    0 -0.15445154185E-01  0.12768956302E-01 -0.12045825548E-01  0.23381636940E-01  0.00000000000E+00 0. -1.
     999901    1    3    3    0    0 -0.49520494407E-01  0.72125313265E-01 -0.65733052332E-01  0.88677797354E+00  0.88000000000E+00 0. -1.
        -11    1    4    4    0    0  0.43131459979E-01 -0.40313631227E-01  0.45753360291E-01  0.74693659714E-01  0.51100000000E-03 0. -1.
         11    1    4    4    0    0  0.21834188614E-01 -0.44580638340E-01  0.32025517589E-01  0.59076729810E-01  0.51100000000E-03 0.  1.
</event>
<event>
 8    1  0.1112171E+005  0.1043930E+01  0.7957747E-01            NaN
         13   -1    0    0    0    0  0.00000000000E+00  0.00000000000E+00  0.74505805969E-08  0.10566000000E+00  0.10566000000E+00 0. -1.
     999900   -1    0    0    0    0 -0.00000000000E+00 -0.00000000000E+00 -0.74505805969E-08  0.93827000000E+00  0.93827000000E+00 0.  1.
     999902    2    1    2    0    0  0.11978753259E-01 -0.11208054038E-01 -0.55079073900E-02  0.10266254327E+01  0.10264795814E+01 0.  0.
     999903    2    3    3    0    0 -0.13055972946E+00 -0.24640233355E-01  0.11383428074E-01  0.13489511490E+00  0.20350074507E-01 0.  0.
         14    1    1    2    0    0 -0.11978753259E-01  0.11208054038E-01  0.55079073900E-02  0.17304567280E-01  0.00000000000E+00 0. -1.
     999901    1    3    3    0    0  0.14253848272E+00  0.13432179317E-01 -0.16891335464E-01  0.89173031782E+00  0.88000000000E+00 0. -1.
        -11    1    4    4    0    0 -0.37476108833E-01  0.18659265482E-02  0.55494478565E-02  0.37934125898E-01  0.51100000000E-03 0.  1.
         11    1    4    4    0    0 -0.93083620632E-01 -0.26506159903E-01  0.58339802180E-02  0.96960989005E-01  0.51100000000E-03 0. -1.
</event>
<event>
 8    1  0.1112171E+005  0.1043930E+01  0.7957747E-01            NaN
         13   -1    0    0    0    0  0.00000000000E+00  0.00000000000E+00  0.74505805969E-08  0.10566000000E+00  0.10566000000E+00 0. -1.
     999900   -1    0    0    0    0 -0.00000000000E+00 -0.00000000000E+00 -0.74505805969E-08  0.93827000000E+00  0.93827000000E+00 0. -1.
     999902    2    1    2    0    0 -0.19236802139E-01 -0.10673930742E-01 -0.10473095050E-01  0.10195645927E+01  0.10192734106E+01 0.  0.
     999903    2    3    3    0    0 -0.51868480747E-01 -0.10780095017E+00 -0.53722291418E-01  0.13256460545E+00  0.19388292145E-01 0.  0.
         14    1    1    2    0    0  0.19236802139E-01  0.10673930742E-01  0.10473095050E-01  0.24365407322E-01  0.00000000000E+00 0. -1.
     999901    1    3    3    0    0  0.32631678608E-01  0.97127019423E-01  0.43249196368E-01  0.88699998723E+00  0.88000000000E+00 0.  1.
        -11    1    4    4    0    0 -0.75938004552E-02 -0.24942864330E-01 -0.43633357402E-02  0.26440728169E-01  0.51100000000E-03 0. -1.
         11    1    4    4    0    0 -0.44274680292E-01 -0.82858085835E-01 -0.49358955678E-01  0.10612387728E+00  0.51100000000E-03 0.  1.
</event>
<event>
 8    1  0.1112171E+005  0.1043930E+01  0.7957747E-01            NaN
         13   -1    0    0    0    0  0.00000000000E+00  0.00000000000E+00  0.74505805969E-08  0.10566000000E+00  0.10566000000E+00 0.  1.
     999900   -1    0    0    0    0 -0.00000000000E+00 -0.00000000000E+00 -0.74505805969E-08  0.93827000000E+00  0.93827000000E+00 0.  1.
     999902    2    1    2    0    0  0.10227800465E-01  0.28020946330E-02  0.22278377458E-01  0.10192564162E+01  0.10189577303E+01 0.  0.
     999903    2    3    3    0    0  0.96177080171E-01  0.37421842860E-01 -0.73182125568E-01  0.12925725141E+00  0.26483739638E-01 0.  0.
         14    1    1    2    0    0 -0.10227800465E-01 -0.28020946330E-02 -0.22278377458E-01  0.24673583827E-01  0.00000000000E+00 0. -1.
     999901    1    3    3    0    0 -0.85949279705E-01 -0.34619748227E-01  0.95460503026E-01  0.88999916477E+00  0.88000000000E+00 0. -1.
        -11    1    4    4    0    0  0.26285865524E-02  0.46482294112E-02 -0.11013027689E-01  0.12250036890E-01  0.51100000000E-03 0.  1.
         11    1    4    4    0    0  0.93548493618E-01  0.32773613449E-01 -0.62169097878E-01  0.11700721452E+00  0.51100000000E-03 0. -1.
</event>
<event>
 8    1  0.1112171E+005  0.1043930E+01  0.7957747E-01            NaN
         13   -1    0    0    0    0  0.00000000000E+00  0.00000000000E+00  0.74505805969E-08  0.10566000000E+00  0.10566000000E+00 0.  1.
     999900   -1    0    0    0    0 -0.00000000000E+00 -0.00000000000E+00 -0.74505805969E-08  0.93827000000E+00  0.93827000000E+00 0.  1.
     999902    2    1    2    0    0 -0.81903854897E-02 -0.23006481690E-02 -0.21946048235E-01  0.10203927013E+01  0.10201211989E+01 0.  0.
     999903    2    3    3    0    0 -0.12248456416E-02 -0.11647508362E+00  0.53965431979E-01  0.12974862353E+00  0.18827960811E-01 0.  0.
         14    1    1    2    0    0  0.81903854897E-02  0.23006481690E-02  0.21946048235E-01  0.23537298690E-01  0.00000000000E+00 0.  1.
     999901    1    3    3    0    0 -0.69655398481E-02  0.11417443545E+00 -0.75911480215E-01  0.89064407778E+00  0.88000000000E+00 0.  1.
        -11    1    4    4    0    0 -0.40875187029E-02 -0.85827007574E-01  0.31023907818E-01  0.91354950690E-01  0.51100000000E-03 0. -1.
         11    1    4    4    0    0  0.28626730613E-02 -0.30648076045E-01  0.22941524161E-01  0.38393672840E-01  0.51100000000E-03 0.  1.
</event>
<event>
 8    1  0.1112171E+005  0.1043930E+01  0.7957747E-01            NaN
         13   -1    0    0    0    0  0.00000000000E+00  0.00000000000E+00  0.74505805969E-08  0.10566000000E+00  0.10566000000E+00 0.  1.
     999900   -1    0    0    0    0 -0.00000000000E+00 -0.00000000000E+00 -0.74505805969E-08  0.93827000000E+00  0.93827000000E+00 0.  1.
     999902    2    1    2    0    0  0.77668198786E-02  0.69357704641E-02 -0.20794307747E-01  0.10206742128E+01  0.10204092400E+01 0.  0.
     999903    2    3    3    0    0  0.11482575862E-01 -0.87433827012E-01 -0.96663234215E-01  0.13237498295E+00  0.20070665364E-01 0.  0.
         14    1    1    2    0    0 -0.77668198786E-02 -0.69357704641E-02  0.20794307747E-01  0.23255787186E-01  0.00000000000E+00 0.  1.
     999901    1    3    3    0    0 -0.37157559838E-02  0.94369597476E-01  0.75868926468E-01  0.88829922986E+00  0.88000000000E+00 0. -1.
        -11    1    4    4    0    0  0.12171026732E-01 -0.49884555358E-01 -0.43594546264E-01  0.67359842191E-01  0.51100000000E-03 0. -1.
         11    1    4    4    0    0 -0.68845086960E-03 -0.37549271654E-01 -0.53068687951E-01  0.65015140761E-01  0.51100000000E-03 0.  1.
</event>
<event>
 8    1  0.1112171E+005  0.1043930E+01  0.7957747E-01            NaN
         13   -1    0    0    0    0  0.00000000000E+00  0.00000000000E+00  0.74505805969E-08  0.10566000000E+00  0.10566000000E+00 0.  1.
     999900   -1    0    0    0    0 -0.00000000000E+00 -0.00000000000E+00 -0.74505805969E-08  0.93827000000E+00  0.93827000000E+00 0. -1.
     999902    2    1    2    0    0  0.23194333307E-01 -0.30959327481E-02  0.64732927760E-02  0.10196510911E+01  0.10193619976E+01 0.  0.
     999903    2    3    3    0    0  0.96384786963E-01  0.81304879979E-01  0.33914942718E-01  0.13216397355E+00  0.20410338042E-01 0.  0.
         14    1    1    2    0    0 -0.23194333307E-01  0.30959327481E-02 -0.64732927760E-02  0.24278908882E-01  0.00000000000E+00 0. -1.
     999901    1    3    3    0    0 -0.73190453656E-01 -0.84400812727E-01 -0.27441649942E-01  0.88748711757E+00  0.88000000000E+00 0. -1.
        -11    1    4    4    0    0  0.48427086937E-01  0.31173475172E-01  0.82139632851E-02  0.58178162719E-01  0.51100000000E-03 0. -1.
         11    1    4    4    0    0  0.47957700026E-01  0.50131404807E-01  0.25700979433E-01  0.73985810832E-01  0.51100000000E-03 0.  1.
</event>
<event>
 8    1  0.1112171E+005  0.1043930E+01  0.7957747E-01            NaN
         13   -1    0    0    0    0  0.00000000000E+00  0.00000000000E+00  0.74505805969E-08  0.10566000000E+00  0.10566000000E+00 0.  1.
     999900   -1    0    0    0    0 -0.00000000000E+00 -0.00000000000E+00 -0.74505805969E-08  0.93827000000E+00  0.93827000000E+00 0.  1.
     999902    2    1    2    0    0 -0.53878408393E-02 -0.23175093044E-01  0.17335476457E-02  0.10200737858E+01  0.10197947880E+01 0.  0.
     999903    2    3    3    0    0  0.11552747436E-01  0.95668929445E-01  0.82154879412E-01  0.12828991303E+00  0.20563743296E-01 0.  0.
         14    1    1    2    0    0  0.53878408393E-02  0.23175093044E-01 -0.17335476457E-02  0.23856214158E-01  0.00000000000E+00 0. -1.
     999901    1    3    3    0    0 -0.16940588275E-01 -0.11884402249E+00 -0.80421331766E-01  0.89178387282E+00  0.88000000000E+00 0.  1.
        -11    1    4    4    0    0 -0.18527727441E-02  0.46781234799E-01  0.30289324278E-01  0.55763975669E-01  0.51100000000E-03 0.  1.
         11    1    4    4    0    0  0.13405520180E-01  0.48887694647E-01  0.51865555134E-01  0.72525937357E-01  0.51100000000E-03 0. -1.
</event>
<event>
 8    1  0.1112171E+005  0.1043930E+01  0.7957747E-01            NaN
         13   -1    0    0    0    0  0.00000000000E+00  0.00000000000E+00  0.74505805969E-08  0.10566000000E+00  0.10566000000E+00 0. -1.
     999900   -1    0    0    0    0 -0.00000000000E+00 -0.00000000000E+00 -0.74505805969E-08  0.93827000000E+00  0.93827000000E+00 0.  1.
     999902    2    1    2    0    0 -0.52968848208E-02 -0.69558995059E-02  0.22377118979E-01  0.10199054921E+01  0.10196224967E+01 0.  0.
     999903    2    3    3    0    0 -0.11491541597E+00 -0.57214070704E-01  0.21710828125E-01  0.13168111160E+00  0.19737081362E-01 0.  0.
         14    1    1    2    0    0  0.52968848208E-02  0.69558995059E-02 -0.22377118979E-01  0.24024507915E-01  0.00000000000E+00 0.  1.
     999901    1    3    3    0    0  0.10961853115E+00  0.50258171198E-01  0.66629085451E-03  0.88822438048E+00  0.88000000000E+00 0.  1.
        -11    1    4    4    0    0 -0.21969898971E-01 -0.53251106054E-02  0.95244137004E-02  0.24535868461E-01  0.51100000000E-03 0. -1.
         11    1    4    4    0    0 -0.92945516997E-01 -0.51888960099E-01  0.12186414424E-01  0.10714524314E+00  0.51100000000E-03 0.  1.
</event>
<event>
 8    1  0.1112171E+005  0.1043930E+01  0.7957747E-01            NaN
         13   -1    0    0    0    0  0.00000000000E+00  0.00000000000E+00  0.74505805969E-08  0.10566000000E+00  0.10566000000E+00 0. -1.
     999900   -1    0    0    0    0 -0.00000000000E+00 -0.00000000000E+00 -0.74505805969E-08  0.93827000000E+00  0.93827000000E+00 0. -1.
     999902    2    1    2    0    0  0.11512546239E-02 -0.32890091992E-02  0.23497147237E-01  0.10201758657E+01  0.10198992784E+01 0.  0.
     999903    2    3    3    0    0  0.20876458318E-01  0.11886445974E+00  0.47471860942E-01  0.13119592186E+00  0.19854622395E-01 0.  0.
         14    1    1    2    0    0 -0.11512546239E-02  0.32890091992E-02 -0.23497147237E-01  0.23754134314E-01  0.00000000000E+00 0.  1.
     999901    1    3    3    0    0 -0.19725203694E-01 -0.12215346893E+00 -0.23974713705E-01  0.88897994383E+00  0.88000000000E+00 0.  1.
        -11    1    4    4    0    0  0.22834955066E-01  0.94994000162E-01  0.32589143495E-01  0.10299324558E+00  0.51100000000E-03 0.  1.
         11    1    4    4    0    0 -0.19584967481E-02  0.23870459573E-01  0.14882717447E-01  0.28202676280E-01  0.51100000000E-03 0. -1.
</event>
<event>
 8    1  0.1112171E+005  0.1043930E+01  0.7957747E-01            NaN
         13   -1    0    0    0    0  0.00000000000E+00  0.00000000000E+00  0.74505805969E-08  0.10566000000E+00  0.10566000000E+00 0.  1.
     999900   -1    0    0    0    0 -0.00000000000E+00 -0.00000000000E+00 -0.74505805969E-08  0.93827000000E+00  0.93827000000E+00 0. -1.
     999902    2    1    2    0    0  0.20363777919E-01 -0.95024928992E-02 -0.61703673410E-02  0.10206264755E+01  0.10203604011E+01 0.  0.
     999903    2    3    3    0    0 -0.63239951639E-01 -0.66053441707E-01 -0.91394809479E-01  0.13076648707E+00  0.19609036122E-01 0.  0.
         14    1    1    2    0    0 -0.20363777919E-01  0.95024928992E-02  0.61703673410E-02  0.23303524531E-01  0.00000000000E+00 0.  1.
     999901    1    3    3    0    0  0.83603729558E-01  0.56550948808E-01  0.85224442138E-01  0.88985998839E+00  0.88000000000E+00 0.  1.
        -11    1    4    4    0    0 -0.48822300291E-01 -0.60989215350E-01 -0.78707794510E-01  0.11089850960E+00  0.51100000000E-03 0.  1.
         11    1    4    4    0    0 -0.14417651348E-01 -0.50642263574E-02 -0.12687014969E-01  0.19867977472E-01  0.51100000000E-03 0. -1.
</event>
<event>
 8    1  0.1112171E+005  0.1043930E+01  0.7957747E-01            NaN
         13   -1    0    0    0    0  0.00000000000E+00  0.00000000000E+00  0.74505805969E-08  0.10566000000E+00  0.10566000000E+00 0. -1.
     999900   -1    0    0    0    0 -0.00000000000E+00 -0.00000000000E+00 -0.74505805969E-08  0.93827000000E+00  0.93827000000E+00 0. -1.
     999902    2    1    2    0    0 -0.20133014675E-01 -0.98772571321E-02 -0.61787462759E-02  0.10206689726E+01  0.10204038790E+01 0.  0.
     999903    2    3    3    0    0  0.96235816022E-01 -0.39218765294E-01  0.73717834957E-01  0.12893689822E+00  0.19772726027E-01 0.  0.
         14    1    1    2    0    0  0.20133014675E-01  0.98772571321E-02  0.61787462759E-02  0.23261027361E-01  0.00000000000E+00 0.  1.
     999901    1    3    3    0    0 -0.11636883070E+00  0.29341508162E-01 -0.79896581233E-01  0.89173207442E+00  0.88000000000E+00 0. -1.
        -11    1    4    4    0    0  0.53554941746E-01 -0.21608293811E-01  0.52781222676E-01  0.78237898329E-01  0.51100000000E-03 0. -1.
         11    1    4    4    0    0  0.42680874277E-01 -0.17610471483E-01  0.20936612282E-01  0.50698999889E-01  0.51100000000E-03 0.  1.
</event>
<event>
 8    1  0.1112171E+005  0.1043930E+01  0.7957747E-01            NaN
         13   -1    0    0    0    0  0.00000000000E+00  0.00000000000E+00  0.74505805969E-08  0.10566000000E+00  0.10566000000E+00 0.  1.
     999900   -1    0    0    0    0 -0.00000000000E+00 -0.00000000000E+00 -0.74505805969E-08  0.93827000000E+00  0.93827000000E+00 0.  1.
     999902    2    1    2    0    0 -0.21605775661E-01  0.10699721823E-02 -0.72453729784E-02  0.10211166308E+01  0.10208617556E+01 0.  0.
     999903    2    3    3    0    0  0.12599615495E+00 -0.98449400030E-02 -0.13823935087E-01  0.12873288901E+00  0.20226260739E-01 0.  0.
         14    1    1    2    0    0  0.21605775661E-01 -0.10699721823E-02  0.72453729784E-02  0.22813369150E-01  0.00000000000E+00 0. -1.
     999901    1    3    3    0    0 -0.14760193061E+00  0.10914912185E-01  0.65785621081E-02  0.89238374184E+00  0.88000000000E+00 0.  1.
        -11    1    4    4    0    0  0.11865940663E+00 -0.11375937958E-01 -0.84642027029E-02  0.11950468859E+00  0.51100000000E-03 0. -1.
         11    1    4    4    0    0  0.73367483239E-02  0.15309979551E-02 -0.53597323837E-02  0.92282004167E-02  0.51100000000E-03 0.  1.
</event>
<event>
 8    1  0.1112171E+005  0.1043930E+01  0.7957747E-01            NaN
         13   -1    0    0    0    0  0.00000000000E+00  0.00000000000E+00  0.74505805969E-08  0.10566000000E+00  0.10566000000E+00 0.  1.
     999900   -1    0    0    0    0 -0.00000000000E+00 -0.00000000000E+00 -0.74505805969E-08  0.93827000000E+00  0.93827000000E+00 0. -1.
     999902    2    1    2    0    0  0.15671707022E-01  0.56024720867E-02  0.17115817948E-01  0.10200565562E+01  0.10197771504E+01 0.  0.
     999903    2    3    3    0    0  0.71311323117E-01 -0.10776024854E+00  0.72264231078E-02  0.13098700132E+00  0.20193993006E-01 0.  0.
         14    1    1    2    0    0 -0.15671707022E-01 -0.56024720867E-02 -0.17115817948E-01  0.23873443792E-01  0.00000000000E+00 0. -1.
     999901    1    3    3    0    0 -0.55639616095E-01  0.11336272062E+00  0.98893948406E-02  0.88906955489E+00  0.88000000000E+00 0.  1.
        -11    1    4    4    0    0  0.38684015007E-01 -0.45930236353E-01  0.10655487996E-01  0.60990492488E-01  0.51100000000E-03 0.  1.
         11    1    4    4    0    0  0.32627308111E-01 -0.61830012182E-01 -0.34290648886E-02  0.69996508827E-01  0.51100000000E-03 0. -1.
</event>
<event>
 8    1  0.1112171E+005  0.1043930E+01  0.7957747E-01            NaN
         13   -1    0    0    0    0  0.00000000000E+00  0.00000000000E+00  0.74505805969E-08  0.10566000000E+00  0.10566000000E+00 0. -1.
     999900   -1    0    0    0    0 -0.00000000000E+00 -0.00000000000E+00 -0.74505805969E-08  0.93827000000E+00  0.93827000000E+00 0.  1.
     999902    2    1    2    0    0 -0.14218560185E-01  0.18190036719E-01 -0.36477052969E-02  0.10205558552E+01  0.10202881470E+01 0.  0.
     999903    2    3    3    0    0 -0.88986125059E-01 -0.54715858272E-01  0.76145776982E-01  0.13079607974E+00  0.19926854306E-01 0.  0.
         14    1    1    2    0    0  0.14218560185E-01 -0.18190036719E-01  0.36477052969E-02  0.23374144765E-01  0.00000000000E+00 0.  1.
     999901    1    3    3    0    0  0.74767564875E-01  0.72905894992E-01 -0.79793482279E-01  0.88975977550E+00  0.88000000000E+00 0.  1.
        -11    1    4    4    0    0 -0.16532860231E-01 -0.17677805797E-01  0.11159017081E-01  0.26657551808E-01  0.51100000000E-03 0. -1.
         11    1    4    4    0    0 -0.72453264829E-01 -0.37038052476E-01  0.64986759901E-01  0.10413852793E+00  0.51100000000E-03 0.  1.
</event>
<event>
 8    1  0.1112171E+005  0.1043930E+01  0.7957747E-01            NaN
         13   -1    0    0    0    0  0.00000000000E+00  0.00000000000E+00  0.74505805969E-08  0.10566000000E+00  0.10566000000E+00 0. -1.
     999900   -1    0    0    0    0 -0.00000000000E+00 -0.00000000000E+00 -0.74505805969E-08  0.93827000000E+00  0.93827000000E+00 0.  1.
     999902    2    1    2    0    0 -0.13521095524E-01 -0.17848031704E-01 -0.92069426739E-02  0.10197196705E+01  0.10194322275E+01 0.  0.
     999903    2    3    3    0    0 -0.61593835625E-01  0.93483946249E-01 -0.62586558832E-01  0.12980103319E+00  0.19954500179E-01 0.  0.
         14    1    1    2    0    0  0.13521095524E-01  0.17848031704E-01  0.92069426739E-02  0.24210329474E-01  0.00000000000E+00 0. -1.
     999901    1    3    3    0    0  0.48072740102E-01 -0.11133197795E+00  0.53379616158E-01  0.88991863734E+00  0.88000000000E+00 0. -1.
        -11    1    4    4    0    0 -0.18621826279E-01  0.44191752327E-01 -0.31625250172E-01  0.57446505178E-01  0.51100000000E-03 0. -1.
         11    1    4    4    0    0 -0.42972009346E-01  0.49292193923E-01 -0.30961308660E-01  0.72354528012E-01  0.51100000000E-03 0.  1.
</event>
<event>
 8    1  0.1112171E+005  0.1043930E+01  0.7957747E-01            NaN
         13   -1    0    0    0    0  0.00000000000E+00  0.00000000000E+00  0.74505805969E-08  0.10566000000E+00  0.10566000000E+00 0. -1.
     999900   -1    0    0    0    0 -0.00000000000E+00 -0.00000000000E+00 -0.74505805969E-08  0.93827000000E+00  0.93827000000E+00 0. -1.
     999902    2    1    2    0    0  0.11932207535E-02  0.13434468593E-02 -0.22022259836E-01  0.10218345581E+01  0.10215956419E+01 0.  0.
     999903    2    3    3    0    0  0.54047502626E-01  0.11250868912E+00 -0.41430838614E-01  0.13305563218E+00  0.20197752325E-01 0.  0.
         14    1    1    2    0    0 -0.11932207535E-02 -0.13434468593E-02  0.22022259836E-01  0.22095441917E-01  0.00000000000E+00 0. -1.
     999901    1    3    3    0    0 -0.52854281873E-01 -0.11116524226E+00  0.19408578778E-01  0.88877892590E+00  0.88000000000E+00 0. -1.
        -11    1    4    4    0    0  0.68371192958E-02  0.35002766737E-01 -0.12733477330E-01  0.37872713732E-01  0.51100000000E-03 0.  1.
         11    1    4    4    0    0  0.47210383330E-01  0.77505922383E-01 -0.28697361284E-01  0.95182918448E-01  0.51100000000E-03 0. -1.
</event>
<event>
 8    1  0.1112171E+005  0.1043930E+01  0.7957747E-01            NaN
         13   -1    0    0    0    0  0.00000000000E+00  0.00000000000E+00  0.74505805969E-08  0.10566000000E+00  0.10566000000E+00 0. -1.
     999900   -1    0    0    0    0 -0.00000000000E+00 -0.00000000000E+00 -0.74505805969E-08  0.93827000000E+00  0.93827000000E+00 0. -1.
     999902    2    1    2    0    0  0.25616140300E-01 -0.66259809221E-02 -0.38208046690E-02  0.10171963355E+01  0.10168449716E+01 0.  0.
     999903    2    3    3    0    0 -0.13004999457E-03 -0.56508354281E-02  0.12566907404E+00  0.12734722142E+00  0.19815392456E-01 0.  0.
         14    1    1    2    0    0 -0.25616140300E-01  0.66259809221E-02  0.38208046690E-02  0.26733664458E-01  0.00000000000E+00 0. -1.
     999901    1    3    3    0    0  0.25746190295E-01 -0.97514549398E-03 -0.12948987871E+00  0.88984911413E+00  0.88000000000E+00 0. -1.
        -11    1    4    4    0    0 -0.56600698556E-02 -0.69927615200E-02  0.11398936547E+00  0.11434496782E+00  0.51100000000E-03 0. -1.
         11    1    4    4    0    0  0.55300198610E-02  0.13419260919E-02  0.11679708572E-01  0.13002253598E-01  0.51100000000E-03 0.  1.
</event>
<event>
 8    1  0.1112171E+005  0.1043930E+01  0.7957747E-01            NaN
         13   -1    0    0    0    0  0.00000000000E+00  0.00000000000E+00  0.74505805969E-08  0.10566000000E+00  0.10566000000E+00 0.  1.
     999900   -1    0    0    0    0 -0.00000000000E+00 -0.00000000000E+00 -0.74505805969E-08  0.93827000000E+00  0.93827000000E+00 0.  1.
     999902    2    1    2    0    0  0.11929100175E-01 -0.26915759436E-02  0.20230603852E-01  0.10202905130E+01  0.10200166203E+01 0.  0.
     999903    2    3    3    0    0  0.76809952800E-01  0.61237241653E-01  0.86609466701E-01  0.13310249903E+00  0.23776183681E-01 0.  0.
         14    1    1    2    0    0 -0.11929100175E-01  0.26915759436E-02 -0.20230603852E-01  0.23639486971E-01  0.00000000000E+00 0. -1.
     999901    1    3    3    0    0 -0.64880852625E-01 -0.63928817596E-01 -0.66378862849E-01  0.88718801400E+00  0.88000000000E+00 0. -1.
        -11    1    4    4    0    0  0.57571729554E-01  0.57312786430E-01  0.66403088301E-01  0.10492326143E+00  0.51100000000E-03 0. -1.
         11    1    4    4    0    0  0.19238223246E-01  0.39244552228E-02  0.20206378400E-01  0.28179237597E-01  0.51100000000E-03 0.  1.
</event>
<event>
 8    1  0.1112171E+005  0.1043930E+01  0.7957747E-01            NaN
         13   -1    0    0    0    0  0.00000000000E+00  0.00000000000E+00  0.74505805969E-08  0.10566000000E+00  0.10566000000E+00 0.  1.
     999900   -1    0    0    0    0 -0.00000000000E+00 -0.00000000000E+00 -0.74505805969E-08  0.93827000000E+00  0.93827000000E+00 0.  1.
     999902    2    1    2    0    0  0.16960675969E-01  0.16017893509E-01  0.70178608982E-02  0.10195683947E+01  0.10192773046E+01 0.  0.
     999903    2    3    3    0    0 -0.38869416489E-01 -0.10772778466E+00 -0.51229265577E-01  0.12725526589E+00  0.21292203255E-01 0.  0.
         14    1    1    2    0    0 -0.16960675969E-01 -0.16017893509E-01 -0.70178608982E-02  0.24361605312E-01  0.00000000000E+00 0.  1.
     999901    1    3    3    0    0  0.55830092458E-01  0.12374567816E+00  0.58247126475E-01  0.89231312880E+00  0.88000000000E+00 0. -1.
        -11    1    4    4    0    0 -0.35306382854E-01 -0.75198560775E-01 -0.30410780320E-01  0.88467174102E-01  0.51100000000E-03 0. -1.
         11    1    4    4    0    0 -0.35630336349E-02 -0.32529223880E-01 -0.20818485257E-01  0.38788091785E-01  0.51100000000E-03 0.  1.
</event>
<event>
 8    1  0.1112171E+005  0.1043930E+01  0.7957747E-01            NaN
         13   -1    0    0    0    0  0.00000000000E+00  0.00000000000E+00  0.74505805969E-08  0.10566000000E+00  0.10566000000E+00 0.  1.
     999900   -1    0    0    0    0 -0.00000000000E+00 -0.00000000000E+00 -0.74505805969E-08  0.93827000000E+00  0.93827000000E+00 0.  1.
     999902    2    1    2    0    0 -0.17712679270E-01 -0.12905586266E-01 -0.10674920187E-01  0.10195528163E+01  0.10192613493E+01 0.  0.
     999903    2    3    3    0    0 -0.39813747953E-01  0.18274615172E-01  0.11990539653E+00  0.12909682003E+00  0.19224690834E-01 0.  0.
         14    1    1    2    0    0  0.17712679270E-01  0.12905586266E-01  0.10674920187E-01  0.24377183693E-01  0.00000000000E+00 0. -1.
     999901    1    3    3    0    0  0.22101068683E-01 -0.31180201439E-01 -0.13058031672E+00  0.89045599628E+00  0.88000000000E+00 0.  1.
        -11    1    4    4    0    0 -0.32034985048E-02  0.45505662688E-02  0.37159705665E-01  0.37577585102E-01  0.51100000000E-03 0.  1.
         11    1    4    4    0    0 -0.36610249448E-01  0.13724048903E-01  0.82745690867E-01  0.91519234923E-01  0.51100000000E-03 0. -1.
</event>
<event>
 8    1  0.1112171E+005  0.1043930E+01  0.7957747E-01            NaN
         13   -1    0    0    0    0  0.00000000000E+00  0.00000000000E+00  0.74505805969E-08  0.10566000000E+00  0.10566000000E+00 0.  1.
     999900   -1    0    0    0    0 -0.00000000000E+00 -0.00000000000E+00 -0.74505805969E-08  0.93827000000E+00  0.93827000000E+00 0.  1.
     999902    2    1    2    0    0 -0.17425537565E-01 -0.30644401347E-02  0.15426807160E-01  0.10204560457E+01  0.10201860196E+01 0.  0.
     999903    2    3    3    0    0  0.93926400292E-02  0.75395260371E-01 -0.10176035109E+00  0.12882385171E+00  0.21627499640E-01 0.  0.
         14    1    1    2    0    0  0.17425537565E-01  0.30644401347E-02 -0.15426807160E-01  0.23473954331E-01  0.00000000000E+00 0. -1.
     999901    1    3    3    0    0 -0.26818177594E-01 -0.78459700505E-01  0.11718715825E+00  0.89163219396E+00  0.88000000000E+00 0. -1.
        -11    1    4    4    0    0  0.12590216328E-01  0.58669822038E-01 -0.89816001267E-01  0.10801776136E+00  0.51100000000E-03 0. -1.
         11    1    4    4    0    0 -0.31975762992E-02  0.16725438333E-01 -0.11944349826E-01  0.20806090343E-01  0.51100000000E-03 0.  1.
</event>
<event>
 8    1  0.1112171E+005  0.1043930E+01  0.7957747E-01            NaN
         13   -1    0    0    0    0  0.00000000000E+00  0.00000000000E+00  0.74505805969E-08  0.10566000000E+00  0.10566000000E+00 0.  1.
     999900   -1    0    0    0    0 -0.00000000000E+00 -0.00000000000E+00 -0.74505805969E-08  0.93827000000E+00  0.93827000000E+00 0.  1.
     999902    2    1    2    0    0 -0.16011840862E-01 -0.12991832691E-01 -0.56542667775E-02  0.10225492260E+01  0.10223256732E+01 0.  0.
     999903    2    3    3    0    0 -0.22664989304E-01 -0.73453036229E-01 -0.10852026154E+00  0.13447195773E+00  0.19925109278E-01 0.  0.
         14    1    1    2    0    0  0.16011840862E-01  0.12991832691E-01  0.56542667775E-02  0.21380774009E-01  0.00000000000E+00 0.  1.
     999901    1    3    3    0    0  0.66531484419E-02  0.60461203538E-01  0.10286599477E+00  0.88807726826E+00  0.88000000000E+00 0. -1.
        -11    1    4    4    0    0 -0.25242495259E-01 -0.52342158625E-01 -0.80879693559E-01  0.99592525259E-01  0.51100000000E-03 0.  1.
         11    1    4    4    0    0  0.25775059555E-02 -0.21110877604E-01 -0.27640567984E-01  0.34879432473E-01  0.51100000000E-03 0. -1.
</event>
<event>
 8    1  0.1112171E+005  0.1043930E+01  0.7957747E-01            NaN
         13   -1    0    0    0    0  0.00000000000E+00  0.00000000000E+00  0.74505805969E-08  0.10566000000E+00  0.10566000000E+00 0. -1.
     999900   -1    0    0    0    0 -0.00000000000E+00 -0.00000000000E+00 -0.74505805969E-08  0.93827000000E+00  0.93827000000E+00 0.  1.
     999902    2    1    2    0    0  0.15021458641E-01 -0.14290220492E-01  0.11041160007E-01  0.10204403888E+01  0.10201699982E+01 0.  0.
     999903    2    3    3    0    0 -0.30141917792E-01  0.17214190006E-01  0.12596047725E+00  0.13126171835E+00  0.12598941647E-01 0.  0.
         14    1    1    2    0    0 -0.15021458641E-01  0.14290220492E-01 -0.11041160007E-01  0.23489611230E-01  0.00000000000E+00 0.  1.
     999901    1    3    3    0    0  0.45163376434E-01 -0.31504410498E-01 -0.11491931724E+00  0.88917867042E+00  0.88000000000E+00 0.  1.
        -11    1    4    4    0    0 -0.16727791624E-01  0.16003705178E-01  0.71397206239E-01  0.75058375760E-01  0.51100000000E-03 0. -1.
         11    1    4    4    0    0 -0.13414126168E-01  0.12104848282E-02  0.54563271008E-01  0.56203342592E-01  0.51100000000E-03 0.  1.
</event>
<event>
 8    1  0.1112171E+005  0.1043930E+01  0.7957747E-01            NaN
         13   -1    0    0    0    0  0.00000000000E+00  0.00000000000E+00  0.74505805969E-08  0.10566000000E+00  0.10566000000E+00 0.  1.
     999900   -1    0    0    0    0 -0.00000000000E+00 -0.00000000000E+00 -0.74505805969E-08  0.93827000000E+00  0.93827000000E+00 0.  1.
     999902    2    1    2    0    0 -0.13332632687E-02  0.16981912611E-01 -0.18060114247E-01  0.10191039920E+01  0.10188015586E+01 0.  0.
     999903    2    3    3    0    0  0.10198060699E+00 -0.12957458136E-01 -0.78023014306E-01  0.13052891295E+00  0.19551635042E-01 0.  0.
         14    1    1    2    0    0  0.13332632687E-02 -0.16981912611E-01  0.18060114247E-01  0.24826008005E-01  0.00000000000E+00 0.  1.
     999901    1    3    3    0    0 -0.10331387026E+00  0.29939370746E-01  0.59962900059E-01  0.88857507904E+00  0.88000000000E+00 0. -1.
        -11    1    4    4    0    0  0.97089119449E-02 -0.47577169675E-02 -0.27559205427E-02  0.11169380508E-01  0.51100000000E-03 0.  1.
         11    1    4    4    0    0  0.92271695042E-01 -0.81997411683E-02 -0.75267093764E-01  0.11935953245E+00  0.51100000000E-03 0. -1.
</event>
<event>
 8    1  0.1112171E+005  0.1043930E+01  0.7957747E-01            NaN
         13   -1    0    0    0    0  0.00000000000E+00  0.00000000000E+00  0.74505805969E-08  0.10566000000E+00  0.10566000000E+00 0.  1.
     999900   -1    0    0    0    0 -0.00000000000E+00 -0.00000000000E+00 -0.74505805969E-08  0.93827000000E+00  0.93827000000E+00 0.  1.
     999902    2    1    2    0    0 -0.19918827194E-01  0.10534464289E-01 -0.60522071818E-02  0.10205983943E+01  0.10203316709E+01 0.  0.
     999903    2    3    3    0    0 -0.65241982109E-01  0.63572070455E-01 -0.94608496014E-01  0.13340653658E+00  0.23422470266E-01 0.  0.
         14    1    1    2    0    0  0.19918827194E-01 -0.10534464289E-01  0.60522071818E-02  0.23331605740E-01  0.00000000000E+00 0.  1.
     999901    1    3    3    0    0  0.45323154916E-01 -0.53037606166E-01  0.88556288832E-01  0.88719185768E+00  0.88000000000E+00 0. -1.
        -11    1    4    4    0    0 -0.26293170415E-01  0.18159334469E-01 -0.19719675968E-01  0.37552882448E-01  0.51100000000E-03 0. -1.
         11    1    4    4    0    0 -0.38948811694E-01  0.45412735985E-01 -0.74888820045E-01  0.95853654134E-01  0.51100000000E-03 0.  1.
</event>
<event>
 8    1  0.1112171E+005  0.1043930E+01  0.7957747E-01            NaN
         13   -1    0    0    0    0  0.00000000000E+00  0.00000000000E+00  0.74505805969E-08  0.10566000000E+00  0.10566000000E+00 0. -1.
     999900   -1    0    0    0    0 -0.00000000000E+00 -0.00000000000E+00 -0.74505805969E-08  0.93827000000E+00  0.93827000000E+00 0.  1.
     999902    2    1    2    0    0  0.80246073241E-02  0.22024898444E-01 -0.17057800913E-01  0.10149393283E+01  0.10145251998E+01 0.  0.
     999903    2    3    3    0    0 -0.10000706897E+00  0.60056787822E-01  0.41631139545E-01  0.12557907540E+00  0.20705573895E-01 0.  0.
         14    1    1    2    0    0 -0.80246073241E-02 -0.22024898444E-01  0.17057800913E-01  0.28990671710E-01  0.00000000000E+00 0.  1.
     999901    1    3    3    0    0  0.10803167630E+00 -0.38031889378E-01 -0.58688940458E-01  0.88936025289E+00  0.88000000000E+00 0.  1.
        -11    1    4    4    0    0 -0.51973844839E-01  0.42348909640E-01  0.19659036332E-01  0.69867370965E-01  0.51100000000E-03 0.  1.
         11    1    4    4    0    0 -0.48033224132E-01  0.17707878182E-01  0.21972103213E-01  0.55711704433E-01  0.51100000000E-03 0. -1.
</event>
<event>
 8    1  0.1112171E+005  0.1043930E+01  0.7957747E-01            NaN
         13   -1    0    0    0    0  0.00000000000E+00  0.00000000000E+00  0.74505805969E-08  0.10566000000E+00  0.10566000000E+00 0.  1.
     999900   -1    0    0    0    0 -0.00000000000E+00 -0.00000000000E+00 -0.74505805969E-08  0.93827000000E+00  0.93827000000E+00 0. -1.
     999902    2    1    2    0    0  0.96101339127E-02 -0.66496852705E-02  0.21626275039E-01  0.10193481213E+01  0.10190516786E+01 0.  0.
     999903    2    3    3    0    0  0.12936883357E-01 -0.40978315411E-01  0.12394872750E+00  0.13274820794E+00  0.20303063246E-01 0.  0.
         14    1    1    2    0    0 -0.96101339127E-02  0.66496852705E-02 -0.21626275039E-01  0.24581878693E-01  0.00000000000E+00 0. -1.
     999901    1    3    3    0    0 -0.33267494444E-02  0.34328630141E-01 -0.10232245246E+00  0.88659991337E+00  0.88000000000E+00 0. -1.
        -11    1    4    4    0    0  0.15636296789E-01 -0.16049118069E-01  0.55992203921E-01  0.60311325545E-01  0.51100000000E-03 0.  1.
         11    1    4    4    0    0 -0.26994134316E-02 -0.24929197342E-01  0.67956523578E-01  0.72436882393E-01  0.51100000000E-03 0. -1.
</event>
<event>
 8    1  0.1112171E+005  0.1043930E+01  0.7957747E-01            NaN
         13   -1    0    0    0    0  0.00000000000E+00  0.00000000000E+00  0.74505805969E-08  0.10566000000E+00  0.10566000000E+00 0. -1.
     999900   -1    0    0    0    0 -0.00000000000E+00 -0.00000000000E+00 -0.74505805969E-08  0.93827000000E+00  0.93827000000E+00 0. -1.
     999902    2    1    2    0    0  0.31551958936E-02 -0.15855633112E-01  0.17388562656E-01  0.10201872438E+01  0.10199109245E+01 0.  0.
     999903    2    3    3    0    0 -0.12411205758E+00 -0.31462014042E-01 -0.14688504753E-01  0.13031677499E+00  0.19314463720E-01 0.  0.
         14    1    1    2    0    0 -0.31551958936E-02  0.15855633112E-01 -0.17388562656E-01  0.23742756238E-01  0.00000000000E+00 0.  1.
     999901    1    3    3    0    0  0.12726725347E+00  0.15606380931E-01  0.32077067409E-01  0.88987046877E+00  0.88000000000E+00 0.  1.
        -11    1    4    4    0    0 -0.11394589797E-01 -0.72050906360E-02  0.25681767889E-02  0.13733414023E-01  0.51100000000E-03 0.  1.
         11    1    4    4    0    0 -0.11271746778E+00 -0.24256923406E-01 -0.17256681542E-01  0.11658336097E+00  0.51100000000E-03 0. -1.
</event>
<event>
 8    1  0.1112171E+005  0.1043930E+01  0.7957747E-01            NaN
         13   -1    0    0    0    0  0.00000000000E+00  0.00000000000E+00  0.74505805969E-08  0.10566000000E+00  0.10566000000E+00 0. -1.
     999900   -1    0    0    0    0 -0.00000000000E+00 -0.00000000000E+00 -0.74505805969E-08  0.93827000000E+00  0.93827000000E+00 0.  1.
     999902    2    1    2    0    0 -0.54571766621E-02 -0.22977543942E-01 -0.98299578420E-03  0.10202928559E+01  0.10200190180E+01 0.  0.
     999903    2    3    3    0    0  0.11231801027E+00 -0.56693392139E-01  0.31291280896E-01  0.13122065293E+00  0.20254366231E-01 0.  0.
         14    1    1    2    0    0  0.54571766621E-02  0.22977543942E-01  0.98299578420E-03  0.23637144147E-01  0.00000000000E+00 0.  1.
     999901    1    3    3    0    0 -0.11777518693E+00  0.33715848198E-01 -0.32274276680E-01  0.88907220292E+00  0.88000000000E+00 0. -1.
        -11    1    4    4    0    0  0.53224624264E-01 -0.38008123097E-01  0.17929594360E-01  0.67817472117E-01  0.51100000000E-03 0. -1.
         11    1    4    4    0    0  0.59093386007E-01 -0.18685269042E-01  0.13361686536E-01  0.63403180812E-01  0.51100000000E-03 0.  1.
</event>
<event>
 8    1  0.1112171E+005  0.1043930E+01  0.7957747E-01            NaN
         13   -1    0    0    0    0  0.00000000000E+00  0.00000000000E+00  0.74505805969E-08  0.10566000000E+00  0.10566000000E+00 0.  1.
     999900   -1    0    0    0    0 -0.00000000000E+00 -0.00000000000E+00 -0.74505805969E-08  0.93827000000E+00  0.93827000000E+00 0.  1.
     999902    2    1    2    0    0 -0.22844053245E-03 -0.12333763639E-01 -0.18044462623E-01  0.10220718999E+01  0.10218381437E+01 0.  0.
     999903    2    3    3    0    0  0.70418759478E-01 -0.10595731666E+00 -0.37107369504E-01  0.13408553117E+00  0.20401425395E-01 0.  0.
         14    1    1    2    0    0  0.22844053245E-03  0.12333763639E-01  0.18044462623E-01  0.21858100144E-01  0.00000000000E+00 0. -1.
     999901    1    3    3    0    0 -0.70647200010E-01  0.93623553020E-01  0.19062906881E-01  0.88798636868E+00  0.88000000000E+00 0. -1.
        -11    1    4    4    0    0  0.42736610981E-01 -0.78525919129E-01 -0.20523127545E-01  0.91728936429E-01  0.51100000000E-03 0.  1.
         11    1    4    4    0    0  0.27682148497E-01 -0.27431397530E-01 -0.16584241958E-01  0.42356594742E-01  0.51100000000E-03 0. -1.
</event>
<event>
 8    1  0.1112171E+005  0.1043930E+01  0.7957747E-01            NaN
         13   -1    0    0    0    0  0.00000000000E+00  0.00000000000E+00  0.74505805969E-08  0.10566000000E+00  0.10566000000E+00 0. -1.
     999900   -1    0    0    0    0 -0.00000000000E+00 -0.00000000000E+00 -0.74505805969E-08  0.93827000000E+00  0.93827000000E+00 0.  1.
     999902    2    1    2    0    0  0.20860328959E-01 -0.41882885436E-02  0.10661551874E-01  0.10201316014E+01  0.10198539702E+01 0.  0.
     999903    2    3    3    0    0 -0.13650300427E-01  0.69280600144E-01  0.10852996017E+00  0.13099331834E+00  0.19858623755E-01 0.  0.
         14    1    1    2    0    0 -0.20860328959E-01  0.41882885436E-02 -0.10661551874E-01  0.23798398550E-01  0.00000000000E+00 0. -1.
     999901    1    3    3    0    0  0.34510629386E-01 -0.73468888687E-01 -0.97868408297E-01  0.88913828311E+00  0.88000000000E+00 0. -1.
        -11    1    4    4    0    0 -0.13146258804E-01  0.50779296973E-01  0.93231892948E-01  0.10697573606E+00  0.51100000000E-03 0.  1.
         11    1    4    4    0    0 -0.50404162316E-03  0.18501303171E-01  0.15298067223E-01  0.24017582283E-01  0.51100000000E-03 0. -1.
</event>
<event>
 8    1  0.1127177E+005  0.1043930E+01  0.7957747E-01            NaN
         13   -1    0    0    0    0  0.00000000000E+00  0.00000000000E+00  0.74505805969E-08  0.10566000000E+00  0.10566000000E+00 0. -1.
     999900   -1    0    0    0    0 -0.00000000000E+00 -0.00000000000E+00 -0.74505805969E-08  0.93827000000E+00  0.93827000000E+00 0.  1.
     999902    2    1    2    0    0  0.41219652879E-03 -0.14363719488E-02 -0.23151391875E-01  0.10207304307E+01  0.10204667521E+01 0.  0.
     999903    2    3    3    0    0 -0.49448124993E-01  0.24724923529E-01  0.11404906946E+00  0.12832108984E+00  0.20066712349E-01 0.  0.
         14    1    1    2    0    0 -0.41219652879E-03  0.14363719488E-02  0.23151391875E-01  0.23199569309E-01  0.00000000000E+00 0. -1.
     999901    1    3    3    0    0  0.49860321522E-01 -0.26161295477E-01 -0.13720046134E+00  0.89240934085E+00  0.88000000000E+00 0.  1.
        -11    1    4    4    0    0 -0.24506297037E-01  0.23265627024E-01  0.67563395809E-01  0.75544169659E-01  0.51100000000E-03 0.  1.
         11    1    4    4    0    0 -0.24941827956E-01  0.14592965047E-02  0.46485673652E-01  0.52776920183E-01  0.51100000000E-03 0. -1.
</event>
<event>
 8    1  0.1112171E+005  0.1043930E+01  0.7957747E-01            NaN
         13   -1    0    0    0    0  0.00000000000E+00  0.00000000000E+00  0.74505805969E-08  0.10566000000E+00  0.10566000000E+00 0. -1.
     999900   -1    0    0    0    0 -0.00000000000E+00 -0.00000000000E+00 -0.74505805969E-08  0.93827000000E+00  0.93827000000E+00 0. -1.
     999902    2    1    2    0    0  0.10185182715E-01 -0.14724395057E-01 -0.14959413298E-01  0.10205991234E+01  0.10203324169E+01 0.  0.
     999903    2    3    3    0    0 -0.68475860494E-01 -0.10325320099E+00  0.37468475859E-01  0.13111972917E+00  0.20936325087E-01 0.  0.
         14    1    1    2    0    0 -0.10185182715E-01  0.14724395057E-01  0.14959413298E-01  0.23330876601E-01  0.00000000000E+00 0. -1.
     999901    1    3    3    0    0  0.78661043209E-01  0.88528805937E-01 -0.52427889157E-01  0.88947939423E+00  0.88000000000E+00 0. -1.
        -11    1    4    4    0    0 -0.63709342773E-01 -0.10253001330E+00  0.35028354687E-01  0.12569220635E+00  0.51100000000E-03 0. -1.
         11    1    4    4    0    0 -0.47665177207E-02 -0.72318769449E-03  0.24401211717E-02  0.54275228195E-02  0.51100000000E-03 0.  1.
</event>
<event>
 8    1  0.1112171E+005  0.1043930E+01  0.7957747E-01            NaN
         13   -1    0    0    0    0  0.00000000000E+00  0.00000000000E+00  0.74505805969E-08  0.10566000000E+00  0.10566000000E+00 0.  1.
     999900   -1    0    0    0    0 -0.00000000000E+00 -0.00000000000E+00 -0.74505805969E-08  0.93827000000E+00  0.93827000000E+00 0.  1.
     999902    2    1    2    0    0  0.90635840208E-04 -0.20564167633E-03  0.26060001394E-01  0.10178690296E+01  0.10175353494E+01 0.  0.
     999903    2    3    3    0    0  0.12309136543E-01  0.11257368093E+00 -0.54011174308E-01  0.12698190966E+00  0.19566551841E-01 0.  0.
         14    1    1    2    0    0 -0.90635840208E-04  0.20564167633E-03 -0.26060001394E-01  0.26060970359E-01  0.00000000000E+00 0. -1.
     999901    1    3    3    0    0 -0.12218500702E-01 -0.11277932261E+00  0.80071175702E-01  0.89088711998E+00  0.88000000000E+00 0. -1.
        -11    1    4    4    0    0  0.14268129197E-01  0.44370201982E-01 -0.24230491900E-01  0.52532582208E-01  0.51100000000E-03 0.  1.
         11    1    4    4    0    0 -0.19589926543E-02  0.68203478947E-01 -0.29780682408E-01  0.74449327454E-01  0.51100000000E-03 0. -1.
</event>
<event>
 8    1  0.1112171E+005  0.1043930E+01  0.7957747E-01            NaN
         13   -1    0    0    0    0  0.00000000000E+00  0.00000000000E+00  0.74505805969E-08  0.10566000000E+00  0.10566000000E+00 0.  1.
     999900   -1    0    0    0    0 -0.00000000000E+00 -0.00000000000E+00 -0.74505805969E-08  0.93827000000E+00  0.93827000000E+00 0.  1.
     999902    2    1    2    0    0 -0.37288079066E-02 -0.19944822593E-01 -0.12651934065E-01  0.10200182583E+01  0.10197379447E+01 0.  0.
     999903    2    3    3    0    0  0.23599147913E-01  0.97178564417E-01 -0.79575590155E-01  0.12931994757E+00  0.19768184696E-01 0.  0.
         14    1    1    2    0    0  0.37288079066E-02  0.19944822593E-01  0.12651934065E-01  0.23911741723E-01  0.00000000000E+00 0. -1.
     999901    1    3    3    0    0 -0.27327955820E-01 -0.11712338701E+00  0.66923656091E-01  0.89069831071E+00  0.88000000000E+00 0.  1.
        -11    1    4    4    0    0  0.41552256198E-02  0.17476152431E-02 -0.38914115782E-02  0.59769778367E-02  0.51100000000E-03 0. -1.
         11    1    4    4    0    0  0.19443922293E-01  0.95430949174E-01 -0.75684178577E-01  0.12334296973E+00  0.51100000000E-03 0.  1.
</event>
<event>
 8    1  0.1112171E+005  0.1043930E+01  0.7957747E-01            NaN
         13   -1    0    0    0    0  0.00000000000E+00  0.00000000000E+00  0.74505805969E-08  0.10566000000E+00  0.10566000000E+00 0. -1.
     999900   -1    0    0    0    0 -0.00000000000E+00 -0.00000000000E+00 -0.74505805969E-08  0.93827000000E+00  0.93827000000E+00 0. -1.
     999902    2    1    2    0    0 -0.15434592793E-01  0.11951298255E-02 -0.18716849061E-01  0.10196405902E+01  0.10193512436E+01 0.  0.
     999903    2    3    3    0    0  0.39721736652E-02 -0.23329875939E-01  0.12372325070E+00  0.12763875134E+00  0.20594824741E-01 0.  0.
         14    1    1    2    0    0  0.15434592793E-01 -0.11951298255E-02  0.18716849061E-01  0.24289409807E-01  0.00000000000E+00 0. -1.
     999901    1    3    3    0    0 -0.19406766458E-01  0.24525005764E-01 -0.14244009976E+00  0.89200183885E+00  0.88000000000E+00 0. -1.
        -11    1    4    4    0    0 -0.78236271881E-02 -0.14875662125E-01  0.69393441361E-01  0.71401717703E-01  0.51100000000E-03 0.  1.
         11    1    4    4    0    0  0.11795800853E-01 -0.84542138138E-02  0.54329809338E-01  0.56237033640E-01  0.51100000000E-03 0. -1.
</event>
<event>
 8    1  0.1112171E+005  0.1043930E+01  0.7957747E-01            NaN
         13   -1    0    0    0    0  0.00000000000E+00  0.00000000000E+00  0.74505805969E-08  0.10566000000E+00  0.10566000000E+00 0.  1.
     999900   -1    0    0    0    0 -0.00000000000E+00 -0.00000000000E+00 -0.74505805969E-08  0.93827000000E+00  0.93827000000E+00 0.  1.
     999902    2    1    2    0    0  0.19365223351E-01 -0.12177688966E-01  0.10156802140E-01  0.10189006450E+01  0.10185931748E+01 0.  0.
     999903    2    3    3    0    0  0.12998295135E-01 -0.22541000651E-01 -0.12420773633E+00  0.12861879902E+00  0.20932780759E-01 0.  0.
         14    1    1    2    0    0 -0.19365223351E-01  0.12177688966E-01 -0.10156802140E-01  0.25029355040E-01  0.00000000000E+00 0. -1.
     999901    1    3    3    0    0  0.63669282163E-02  0.10363311686E-01  0.13436453847E+00  0.89028184594E+00  0.88000000000E+00 0. -1.
        -11    1    4    4    0    0  0.15609619851E-02  0.25917609509E-02 -0.37355775390E-01  0.37481580852E-01  0.51100000000E-03 0. -1.
         11    1    4    4    0    0  0.11437333150E-01 -0.25132761602E-01 -0.86851960944E-01  0.91137218172E-01  0.51100000000E-03 0.  1.
</event>
<event>
 8    1  0.1112171E+005  0.1043930E+01  0.7957747E-01            NaN
         13   -1    0    0    0    0  0.00000000000E+00  0.00000000000E+00  0.74505805969E-08  0.10566000000E+00  0.10566000000E+00 0.  1.
     999900   -1    0    0    0    0 -0.00000000000E+00 -0.00000000000E+00 -0.74505805969E-08  0.93827000000E+00  0.93827000000E+00 0.  1.
     999902    2    1    2    0    0 -0.29969266697E-02 -0.13827777219E-01  0.20508260242E-01  0.10190145885E+01  0.10187099459E+01 0.  0.
     999903    2    3    3    0    0 -0.10379104149E+00 -0.62393576718E-01 -0.41909899787E-01  0.12973728801E+00  0.20243159119E-01 0.  0.
         14    1    1    2    0    0  0.29969266697E-02  0.13827777219E-01 -0.20508260242E-01  0.24915411504E-01  0.00000000000E+00 0. -1.
     999901    1    3    3    0    0  0.10079411482E+00  0.48565799500E-01  0.62418160029E-01  0.88927730049E+00  0.88000000000E+00 0. -1.
        -11    1    4    4    0    0 -0.57393123491E-01 -0.24539567052E-01 -0.27100388371E-01  0.68050372123E-01  0.51100000000E-03 0. -1.
         11    1    4    4    0    0 -0.46397917994E-01 -0.37854009667E-01 -0.14809511416E-01  0.61686915885E-01  0.51100000000E-03 0.  1.
</event>
<event>
 8    1  0.1112171E+005  0.1043930E+01  0.7957747E-01            NaN
         13   -1    0    0    0    0  0.00000000000E+00  0.00000000000E+00  0.74505805969E-08  0.10566000000E+00  0.10566000000E+00 0. -1.
     999900   -1    0    0    0    0 -0.00000000000E+00 -0.00000000000E+00 -0.74505805969E-08  0.93827000000E+00  0.93827000000E+00 0.  1.
     999902    2    1    2    0    0  0.22583841639E-01  0.76971717061E-02  0.35546437664E-02  0.10198071509E+01  0.10195218062E+01 0.  0.
     999903    2    3    3    0    0 -0.77928296354E-01  0.96026469344E-01  0.31942861631E-01  0.12923955347E+00  0.19713284505E-01 0.  0.
         14    1    1    2    0    0 -0.22583841639E-01 -0.76971717061E-02 -0.35546437664E-02  0.24122849080E-01  0.00000000000E+00 0.  1.
     999901    1    3    3    0    0  0.10051213799E+00 -0.88329297638E-01 -0.28388217864E-01  0.89056759744E+00  0.88000000000E+00 0. -1.
        -11    1    4    4    0    0 -0.47262604622E-01  0.71473295562E-01  0.18054003995E-01  0.87569366535E-01  0.51100000000E-03 0. -1.
         11    1    4    4    0    0 -0.30665691732E-01  0.24553173782E-01  0.13888857636E-01  0.41670186940E-01  0.51100000000E-03 0.  1.
</event>
<event>
 8    1  0.1112171E+005  0.1043930E+01  0.7957747E-01            NaN
         13   -1    0    0    0    0  0.00000000000E+00  0.00000000000E+00  0.74505805969E-08  0.10566000000E+00  0.10566000000E+00 0. -1.
     999900   -1    0    0    0    0 -0.00000000000E+00 -0.00000000000E+00 -0.74505805969E-08  0.93827000000E+00  0.93827000000E+00 0. -1.
     999902    2    1    2    0    0  0.11720636691E-01 -0.11268449839E-01  0.16723499096E-01  0.10206056199E+01  0.10203390636E+01 0.  0.
     999903    2    3    3    0    0  0.56504020143E-01  0.23971048364E-01  0.11671376421E+00  0.13311171748E+00  0.18146931535E-01 0.  0.
         14    1    1    2    0    0 -0.11720636691E-01  0.11268449839E-01 -0.16723499096E-01  0.23324380125E-01  0.00000000000E+00 0.  1.
     999901    1    3    3    0    0 -0.44783383452E-01 -0.35239498203E-01 -0.99990265110E-01  0.88749390239E+00  0.88000000000E+00 0. -1.
        -11    1    4    4    0    0  0.93802719928E-02  0.10424355026E-01  0.36411693132E-01  0.39022162909E-01  0.51100000000E-03 0. -1.
         11    1    4    4    0    0  0.47123748150E-01  0.13546693338E-01  0.80302071074E-01  0.94089554573E-01  0.51100000000E-03 0.  1.
</event>
<event>
 8    1  0.1112171E+005  0.1043930E+01  0.7957747E-01            NaN
         13   -1    0    0    0    0  0.00000000000E+00  0.00000000000E+00  0.74505805969E-08  0.10566000000E+00  0.10566000000E+00 0.  1.
     999900   -1    0    0    0    0 -0.00000000000E+00 -0.00000000000E+00 -0.74505805969E-08  0.93827000000E+00  0.93827000000E+00 0. -1.
     999902    2    1    2    0    0 -0.52460805162E-02  0.92800929375E-02 -0.26434971316E-01  0.10154265056E+01  0.10150263736E+01 0.  0.
     999903    2    3    3    0    0 -0.33868508213E-01  0.63497110391E-02 -0.12342306333E+00  0.12963052427E+00  0.19581255906E-01 0.  0.
         14    1    1    2    0    0  0.52460805162E-02 -0.92800929375E-02  0.26434971316E-01  0.28503494420E-01  0.00000000000E+00 0.  1.
     999901    1    3    3    0    0  0.28622427696E-01  0.29303818984E-02  0.96988092014E-01  0.88579598131E+00  0.88000000000E+00 0.  1.
        -11    1    4    4    0    0 -0.14282299551E-01  0.72857720154E-03 -0.84401211620E-01  0.85605727315E-01  0.51100000000E-03 0. -1.
         11    1    4    4    0    0 -0.19586208662E-01  0.56211338376E-02 -0.39021851710E-01  0.44024796958E-01  0.51100000000E-03 0.  1.
</event>
<event>
 8    1  0.1112171E+005  0.1043930E+01  0.7957747E-01            NaN
         13   -1    0    0    0    0  0.00000000000E+00  0.00000000000E+00  0.74505805969E-08  0.10566000000E+00  0.10566000000E+00 0. -1.
     999900   -1    0    0    0    0 -0.00000000000E+00 -0.00000000000E+00 -0.74505805969E-08  0.93827000000E+00  0.93827000000E+00 0. -1.
     999902    2    1    2    0    0  0.22118012398E-01 -0.23962195907E-03 -0.81121999607E-02  0.10203700408E+01  0.10200980092E+01 0.  0.
     999903    2    3    3    0    0 -0.12252062442E+00 -0.31162332837E-01  0.59437988294E-03  0.12798427561E+00  0.19930557448E-01 0.  0.
         14    1    1    2    0    0 -0.22118012398E-01  0.23962195907E-03  0.81121999607E-02  0.23559959239E-01  0.00000000000E+00 0. -1.
     999901    1    3    3    0    0  0.14463863682E+00  0.30922710878E-01 -0.87065798436E-02  0.89238576515E+00  0.88000000000E+00 0. -1.
        -11    1    4    4    0    0 -0.92914897207E-01 -0.23781629133E-01 -0.81024115530E-02  0.96253073724E-01  0.51100000000E-03 0. -1.
         11    1    4    4    0    0 -0.29605727213E-01 -0.73807037035E-02  0.86967914360E-02  0.31731201888E-01  0.51100000000E-03 0.  1.
</event>
<event>
 8    1  0.1112171E+005  0.1043930E+01  0.7957747E-01            NaN
         13   -1    0    0    0    0  0.00000000000E+00  0.00000000000E+00  0.74505805969E-08  0.10566000000E+00  0.10566000000E+00 0.  1.
     999900   -1    0    0    0    0 -0.00000000000E+00 -0.00000000000E+00 -0.74505805969E-08  0.93827000000E+00  0.93827000000E+00 0. -1.
     999902    2    1    2    0    0 -0.36375971804E-02 -0.14908523728E-01 -0.10272716418E-01  0.10254631406E+01  0.10252968487E+01 0.  0.
     999903    2    3    3    0    0  0.83834988038E-01  0.13608064756E-01 -0.10411700349E+00  0.13570396016E+00  0.19019194060E-01 0.  0.
         14    1    1    2    0    0  0.36375971804E-02  0.14908523728E-01  0.10272716418E-01  0.18466859386E-01  0.00000000000E+00 0. -1.
     999901    1    3    3    0    0 -0.87472585218E-01 -0.28516588484E-01  0.93844287070E-01  0.88975918045E+00  0.88000000000E+00 0. -1.
        -11    1    4    4    0    0  0.39493361388E-01 -0.15719404961E-05 -0.58965708909E-01  0.70971413571E-01  0.51100000000E-03 0. -1.
         11    1    4    4    0    0  0.44341626650E-01  0.13609636696E-01 -0.45151294578E-01  0.64732546591E-01  0.51100000000E-03 0.  1.
</event>
<event>
 8    1  0.1112171E+005  0.1043930E+01  0.7957747E-01            NaN
         13   -1    0    0    0    0  0.00000000000E+00  0.00000000000E+00  0.74505805969E-08  0.10566000000E+00  0.10566000000E+00 0. -1.
     999900   -1    0    0    0    0 -0.00000000000E+00 -0.00000000000E+00 -0.74505805969E-08  0.93827000000E+00  0.93827000000E+00 0. -1.
     999902    2    1    2    0    0 -0.77097434743E-02  0.25318017723E-02  0.22620075783E-01  0.10198983960E+01  0.10196152314E+01 0.  0.
     999903    2    3    3    0    0  0.70830282316E-01  0.52547422026E-01  0.96026991952E-01  0.13194644159E+00  0.20261288447E-01 0.  0.
         14    1    1    2    0    0  0.77097434743E-02 -0.25318017723E-02 -0.22620075783E-01  0.24031604047E-01  0.00000000000E+00 0.  1.
     999901    1    3    3    0    0 -0.78540025790E-01 -0.50015620254E-01 -0.73406916169E-01  0.88795195437E+00  0.88000000000E+00 0. -1.
        -11    1    4    4    0    0  0.39548358630E-01  0.41456937848E-01  0.60898504808E-01  0.83616023435E-01  0.51100000000E-03 0. -1.
         11    1    4    4    0    0  0.31281923685E-01  0.11090484178E-01  0.35128487144E-01  0.48330418152E-01  0.51100000000E-03 0.  1.
</event>
<event>
 8    1  0.1112171E+005  0.1043930E+01  0.7957747E-01            NaN
         13   -1    0    0    0    0  0.00000000000E+00  0.00000000000E+00  0.74505805969E-08  0.10566000000E+00  0.10566000000E+00 0. -1.
     999900   -1    0    0    0    0 -0.00000000000E+00 -0.00000000000E+00 -0.74505805969E-08  0.93827000000E+00  0.93827000000E+00 0. -1.
     999902    2    1    2    0    0  0.17584218869E-01 -0.10180416856E-01  0.13197581853E-01  0.10197014671E+01  0.10194135864E+01 0.  0.
     999903    2    3    3    0    0 -0.35999299338E-01  0.11051004300E+00 -0.48953823646E-01  0.12768118832E+00  0.19939655068E-01 0.  0.
         14    1    1    2    0    0 -0.17584218869E-01  0.10180416856E-01 -0.13197581853E-01  0.24228532918E-01  0.00000000000E+00 0.  1.
     999901    1    3    3    0    0  0.53583518207E-01 -0.12069045985E+00  0.62151405499E-01  0.89202027877E+00  0.88000000000E+00 0.  1.
        -11    1    4    4    0    0 -0.24442087961E-02  0.26289376986E-01 -0.48003763719E-02  0.26840458887E-01  0.51100000000E-03 0. -1.
         11    1    4    4    0    0 -0.33555090542E-01  0.84220666011E-01 -0.44153447274E-01  0.10084072943E+00  0.51100000000E-03 0.  1.
</event>
<event>
 8    1  0.1112171E+005  0.1043930E+01  0.7957747E-01            NaN
         13   -1    0    0    0    0  0.00000000000E+00  0.00000000000E+00  0.74505805969E-08  0.10566000000E+00  0.10566000000E+00 0.  1.
     999900   -1    0    0    0    0 -0.00000000000E+00 -0.00000000000E+00 -0.74505805969E-08  0.93827000000E+00  0.93827000000E+00 0.  1.
     999902    2    1    2    0    0 -0.23337833524E-02  0.26876055940E-01 -0.19176273552E-01  0.10108316859E+01  0.10102896609E+01 0.  0.
     999903    2    3    3    0    0 -0.64878642099E-01  0.96792669758E-01 -0.43302348272E-01  0.12551690590E+00  0.17359181454E-01 0.  0.
         14    1    1    2    0    0  0.23337833524E-02 -0.26876055940E-01  0.19176273552E-01  0.33098314081E-01  0.00000000000E+00 0.  1.
     999901    1    3    3    0    0  0.62544858746E-01 -0.69916613817E-01  0.24126074720E-01  0.88531478002E+00  0.88000000000E+00 0. -1.
        -11    1    4    4    0    0 -0.45410668989E-01  0.53226676411E-01 -0.22924523712E-01  0.73627459879E-01  0.51100000000E-03 0.  1.
         11    1    4    4    0    0 -0.19467973110E-01  0.43565993347E-01 -0.20377824560E-01  0.51889446018E-01  0.51100000000E-03 0. -1.
</event>
<event>
 8    1  0.1112171E+005  0.1043930E+01  0.7957747E-01            NaN
         13   -1    0    0    0    0  0.00000000000E+00  0.00000000000E+00  0.74505805969E-08  0.10566000000E+00  0.10566000000E+00 0. -1.
     999900   -1    0    0    0    0 -0.00000000000E+00 -0.00000000000E+00 -0.74505805969E-08  0.93827000000E+00  0.93827000000E+00 0.  1.
     999902    2    1    2    0    0 -0.19574085147E-01  0.12274705186E-02 -0.11528261422E-01  0.10211802241E+01  0.10209267837E+01 0.  0.
     999903    2    3    3    0    0  0.38063922770E-01 -0.97545286176E-01 -0.77323964389E-01  0.13134469323E+00  0.17563823605E-01 0.  0.
         14    1    1    2    0    0  0.19574085147E-01 -0.12274705186E-02  0.11528261422E-01  0.22749775925E-01  0.00000000000E+00 0. -1.
     999901    1    3    3    0    0 -0.57638007917E-01  0.98772756695E-01  0.65795702967E-01  0.88983553084E+00  0.88000000000E+00 0. -1.
        -11    1    4    4    0    0  0.13019278780E-01 -0.28293168488E-01 -0.13719826074E-01  0.34036741200E-01  0.51100000000E-03 0.  1.
         11    1    4    4    0    0  0.25044643990E-01 -0.69252117689E-01 -0.63604138314E-01  0.97307952032E-01  0.51100000000E-03 0. -1.
</event>
<event>
 8    1  0.1112171E+005  0.1043930E+01  0.7957747E-01            NaN
         13   -1    0    0    0    0  0.00000000000E+00  0.00000000000E+00  0.74505805969E-08  0.10566000000E+00  0.10566000000E+00 0. -1.
     999900   -1    0    0    0    0 -0.00000000000E+00 -0.00000000000E+00 -0.74505805969E-08  0.93827000000E+00  0.93827000000E+00 0. -1.
     999902    2    1    2    0    0 -0.10669879010E-01 -0.13828516079E-01 -0.15949090189E-01  0.10202773542E+01  0.10200031529E+01 0.  0.
     999903    2    3    3    0    0 -0.12837705818E+00  0.44503089773E-02  0.20131601259E-01  0.13151928152E+00  0.19788019717E-01 0.  0.
         14    1    1    2    0    0  0.10669879010E-01  0.13828516079E-01  0.15949090189E-01  0.23652645791E-01  0.00000000000E+00 0. -1.
     999901    1    3    3    0    0  0.11770717917E+00 -0.18278825056E-01 -0.36080691448E-01  0.88875807269E+00  0.88000000000E+00 0. -1.
        -11    1    4    4    0    0 -0.21333173626E-01  0.71116467640E-02  0.74396018167E-02  0.23691530403E-01  0.51100000000E-03 0. -1.
         11    1    4    4    0    0 -0.10704388456E+00 -0.26613377868E-02  0.12691999442E-01  0.10782775112E+00  0.51100000000E-03 0.  1.
</event>
<event>
 8    1  0.1112171E+005  0.1043930E+01  0.7957747E-01            NaN
         13   -1    0    0    0    0  0.00000000000E+00  0.00000000000E+00  0.74505805969E-08  0.10566000000E+00  0.10566000000E+00 0. -1.
     999900   -1    0    0    0    0 -0.00000000000E+00 -0.00000000000E+00 -0.74505805969E-08  0.93827000000E+00  0.93827000000E+00 0. -1.
     999902    2    1    2    0    0 -0.36618733191E-02 -0.16251191814E-01 -0.16115359087E-01  0.10207520935E+01  0.10204889127E+01 0.  0.
     999903    2    3    3    0    0 -0.79706691525E-01  0.96628006885E-01  0.26451237111E-01  0.12927217617E+00  0.17930398739E-01 0.  0.
         14    1    1    2    0    0  0.36618733191E-02  0.16251191814E-01  0.16115359087E-01  0.23177906508E-01  0.00000000000E+00 0. -1.
     999901    1    3    3    0    0  0.76044818206E-01 -0.11287919870E+00 -0.42566596198E-01  0.89147991732E+00  0.88000000000E+00 0.  1.
        -11    1    4    4    0    0 -0.35358759832E-01  0.34016987856E-01  0.17169568953E-01  0.51985118819E-01  0.51100000000E-03 0.  1.
         11    1    4    4    0    0 -0.44347931693E-01  0.62611019030E-01  0.92816681587E-02  0.77287057352E-01  0.51100000000E-03 0. -1.
</event>
<event>
 8    1  0.1112171E+005  0.1043930E+01  0.7957747E-01            NaN
         13   -1    0    0    0    0  0.00000000000E+00  0.00000000000E+00  0.74505805969E-08  0.10566000000E+00  0.10566000000E+00 0.  1.
     999900   -1    0    0    0    0 -0.00000000000E+00 -0.00000000000E+00 -0.74505805969E-08  0.93827000000E+00  0.93827000000E+00 0. -1.
     999902    2    1    2    0    0  0.54530801463E-02  0.12844751226E-01 -0.49745939321E-02  0.10291154699E+01  0.10290088338E+01 0.  0.
     999903    2    3    3    0    0 -0.72427122925E-01 -0.11370046480E+00  0.83925987223E-02  0.13655863722E+00  0.20108253432E-01 0.  0.
         14    1    1    2    0    0 -0.54530801463E-02 -0.12844751226E-01  0.49745939321E-02  0.14814530095E-01  0.00000000000E+00 0.  1.
     999901    1    3    3    0    0  0.77880203071E-01  0.12654521603E+00 -0.13367192654E-01  0.89255683268E+00  0.88000000000E+00 0.  1.
        -11    1    4    4    0    0 -0.20050135021E-01 -0.26610265982E-01 -0.61810196642E-02  0.33890711044E-01  0.51100000000E-03 0.  1.
         11    1    4    4    0    0 -0.52376987903E-01 -0.87090198818E-01  0.14573618387E-01  0.10266792618E+00  0.51100000000E-03 0. -1.
</event>
<event>
 8    1  0.1112171E+005  0.1043930E+01  0.7957747E-01            NaN
         13   -1    0    0    0    0  0.00000000000E+00  0.00000000000E+00  0.74505805969E-08  0.10566000000E+00  0.10566000000E+00 0.  1.
     999900   -1    0    0    0    0 -0.00000000000E+00 -0.00000000000E+00 -0.74505805969E-08  0.93827000000E+00  0.93827000000E+00 0. -1.
     999902    2    1    2    0    0  0.18673927276E-01 -0.12092024030E-01  0.11528527326E-01  0.10188732734E+01  0.10185651220E+01 0.  0.
     999903    2    3    3    0    0  0.22443765749E-01 -0.79532041173E-01  0.10084423400E+00  0.13177707623E+00  0.19146020328E-01 0.  0.
         14    1    1    2    0    0 -0.18673927276E-01  0.12092024030E-01 -0.11528527326E-01  0.25056726589E-01  0.00000000000E+00 0. -1.
     999901    1    3    3    0    0 -0.37698384730E-02  0.67440017143E-01 -0.89315706675E-01  0.88709619718E+00  0.88000000000E+00 0. -1.
        -11    1    4    4    0    0  0.20997062815E-02 -0.16383562705E-01  0.10107490200E-01  0.19371431865E-01  0.51100000000E-03 0.  1.
         11    1    4    4    0    0  0.20344059468E-01 -0.63148478468E-01  0.90736743801E-01  0.11240564437E+00  0.51100000000E-03 0. -1.
</event>
<event>
 8    1  0.1112171E+005  0.1043930E+01  0.7957747E-01            NaN
         13   -1    0    0    0    0  0.00000000000E+00  0.00000000000E+00  0.74505805969E-08  0.10566000000E+00  0.10566000000E+00 0. -1.
     999900   -1    0    0    0    0 -0.00000000000E+00 -0.00000000000E+00 -0.74505805969E-08  0.93827000000E+00  0.93827000000E+00 0.  1.
     999902    2    1    2    0    0  0.97825705478E-02 -0.18457587480E-01 -0.41212660434E-02  0.10226376057E+01  0.10224159166E+01 0.  0.
     999903    2    3    3    0    0  0.11310497200E+00  0.43117309792E-01  0.49974989443E-01  0.13280987433E+00  0.22116194399E-01 0.  0.
         14    1    1    2    0    0 -0.97825705478E-02  0.18457587480E-01  0.41212660434E-02  0.21292394320E-01  0.00000000000E+00 0.  1.
     999901    1    3    3    0    0 -0.10332240146E+00 -0.61574897272E-01 -0.54096255487E-01  0.88982773135E+00  0.88000000000E+00 0.  1.
        -11    1    4    4    0    0  0.96529719088E-01  0.37406049097E-01  0.50663463044E-01  0.11525730686E+00  0.51100000000E-03 0.  1.
         11    1    4    4    0    0  0.16575252915E-01  0.57112606948E-02 -0.68847360049E-03  0.17552567471E-01  0.51100000000E-03 0. -1.
</event>
<event>
 8    1  0.1112171E+005  0.1043930E+01  0.7957747E-01            NaN
         13   -1    0    0    0    0  0.00000000000E+00  0.00000000000E+00  0.74505805969E-08  0.10566000000E+00  0.10566000000E+00 0.  1.
     999900   -1    0    0    0    0 -0.00000000000E+00 -0.00000000000E+00 -0.74505805969E-08  0.93827000000E+00  0.93827000000E+00 0. -1.
     999902    2    1    2    0    0  0.21602234116E-01  0.10381114076E-01  0.23508347816E-02  0.10198478391E+01  0.10195634676E+01 0.  0.
     999903    2    3    3    0    0  0.91642788181E-01 -0.90442673373E-01  0.15646762985E-01  0.13122649286E+00  0.19932221258E-01 0.  0.
         14    1    1    2    0    0 -0.21602234116E-01 -0.10381114076E-01 -0.23508347816E-02  0.24082160875E-01  0.00000000000E+00 0.  1.
     999901    1    3    3    0    0 -0.70040554065E-01  0.10082378745E+00 -0.13295928203E-01  0.88862134626E+00  0.88000000000E+00 0.  1.
        -11    1    4    4    0    0  0.85366636963E-01 -0.76306114511E-01  0.16715255510E-01  0.11571407307E+00  0.51100000000E-03 0. -1.
         11    1    4    4    0    0  0.62761512174E-02 -0.14136558862E-01 -0.10684925251E-02  0.15512419793E-01  0.51100000000E-03 0.  1.
</event>
<event>
 8    1  0.1112171E+005  0.1043930E+01  0.7957747E-01            NaN
         13   -1    0    0    0    0  0.00000000000E+00  0.00000000000E+00  0.74505805969E-08  0.10566000000E+00  0.10566000000E+00 0. -1.
     999900   -1    0    0    0    0 -0.00000000000E+00 -0.00000000000E+00 -0.74505805969E-08  0.93827000000E+00  0.93827000000E+00 0. -1.
     999902    2    1    2    0    0  0.23510850375E-01 -0.11650630087E-02 -0.53599985755E-03  0.10203841988E+01  0.10201124979E+01 0.  0.
     999903    2    3    3    0    0  0.11450883486E+00 -0.29524029354E-01  0.58046093870E-01  0.13330092998E+00  0.20392335559E-01 0.  0.
         14    1    1    2    0    0 -0.23510850375E-01  0.11650630087E-02  0.53599985755E-03  0.23545801176E-01  0.00000000000E+00 0. -1.
     999901    1    3    3    0    0 -0.90997984489E-01  0.28358966345E-01 -0.58582093727E-01  0.88708326884E+00  0.88000000000E+00 0.  1.
        -11    1    4    4    0    0  0.32178010148E-01 -0.46455573398E-02  0.69203448901E-02  0.33243914247E-01  0.51100000000E-03 0.  1.
         11    1    4    4    0    0  0.82330824716E-01 -0.24878472014E-01  0.51125748980E-01  0.10005701574E+00  0.51100000000E-03 0. -1.
</event>
<event>
 8    1  0.1112171E+005  0.1043930E+01  0.7957747E-01            NaN
         13   -1    0    0    0    0  0.00000000000E+00  0.00000000000E+00  0.74505805969E-08  0.10566000000E+00  0.10566000000E+00 0. -1.
     999900   -1    0    0    0    0 -0.00000000000E+00 -0.00000000000E+00 -0.74505805969E-08  0.93827000000E+00  0.93827000000E+00 0. -1.
     999902    2    1    2    0    0 -0.74536026111E-02 -0.12627904239E-01  0.20371909396E-01  0.10188295050E+01  0.10185202626E+01 0.  0.
     999903    2    3    3    0    0 -0.99641629905E-03  0.12612015586E+00 -0.31696460199E-03  0.12769497589E+00  0.19965466218E-01 0.  0.
         14    1    1    2    0    0  0.74536026111E-02  0.12627904239E-01 -0.20371909396E-01  0.25100495011E-01  0.00000000000E+00 0.  1.
     999901    1    3    3    0    0 -0.64571863121E-02 -0.13874806010E+00  0.20688873998E-01  0.89113452909E+00  0.88000000000E+00 0. -1.
        -11    1    4    4    0    0  0.79085361976E-02  0.81404613086E-01 -0.44577723213E-02  0.81910859058E-01  0.51100000000E-03 0. -1.
         11    1    4    4    0    0 -0.89049524966E-02  0.44715542779E-01  0.41408077193E-02  0.45784116837E-01  0.51100000000E-03 0.  1.
</event>
<event>
 8    1  0.1112171E+005  0.1043930E+01  0.7957747E-01            NaN
         13   -1    0    0    0    0  0.00000000000E+00  0.00000000000E+00  0.74505805969E-08  0.10566000000E+00  0.10566000000E+00 0. -1.
     999900   -1    0    0    0    0 -0.00000000000E+00 -0.00000000000E+00 -0.74505805969E-08  0.93827000000E+00  0.93827000000E+00 0. -1.
     999902    2    1    2    0    0 -0.11779603536E-01  0.12382992554E-01 -0.13641148880E-01  0.10220627069E+01  0.10218287520E+01 0.  0.
     999903    2    3    3    0    0 -0.24244569749E-01  0.28921602690E-01  0.12356775527E+00  0.13118943625E+00  0.22746863026E-01 0.  0.
         14    1    1    2    0    0  0.11779603536E-01 -0.12382992554E-01  0.13641148880E-01  0.21867293084E-01  0.00000000000E+00 0. -1.
     999901    1    3    3    0    0  0.12464966212E-01 -0.16538610136E-01 -0.13720890415E+00  0.89087327066E+00  0.88000000000E+00 0. -1.
        -11    1    4    4    0    0 -0.89117470047E-02  0.16498602103E-01  0.28679228955E-01  0.34269263203E-01  0.51100000000E-03 0. -1.
         11    1    4    4    0    0 -0.15332822744E-01  0.12423000587E-01  0.94888526312E-01  0.96920173048E-01  0.51100000000E-03 0.  1.
</event>
<event>
 8    1  0.1112171E+005  0.1043930E+01  0.7957747E-01            NaN
         13   -1    0    0    0    0  0.00000000000E+00  0.00000000000E+00  0.74505805969E-08  0.10566000000E+00  0.10566000000E+00 0. -1.
     999900   -1    0    0    0    0 -0.00000000000E+00 -0.00000000000E+00 -0.74505805969E-08  0.93827000000E+00  0.93827000000E+00 0.  1.
     999902    2    1    2    0    0  0.18802129642E-01  0.14282792397E-01  0.22494139322E-02  0.10202112711E+01  0.10199355174E+01 0.  0.
     999903    2    3    3    0    0  0.52166645333E-01  0.10280289072E+00 -0.62403662504E-01  0.13278295342E+00  0.21149524842E-01 0.  0.
         14    1    1    2    0    0 -0.18802129642E-01 -0.14282792397E-01 -0.22494139322E-02  0.23718728903E-01  0.00000000000E+00 0.  1.
     999901    1    3    3    0    0 -0.33364515692E-01 -0.88520098321E-01  0.64653076436E-01  0.88742831767E+00  0.88000000000E+00 0.  1.
        -11    1    4    4    0    0  0.46206677773E-01  0.76027456479E-01 -0.54065166777E-01  0.10410828300E+00  0.51100000000E-03 0. -1.
         11    1    4    4    0    0  0.59599675600E-02  0.26775434239E-01 -0.83384957264E-02  0.28674670425E-01  0.51100000000E-03 0.  1.
</event>
<event>
 8    1  0.1112171E+005  0.1043930E+01  0.7957747E-01            NaN
         13   -1    0    0    0    0  0.00000000000E+00  0.00000000000E+00  0.74505805969E-08  0.10566000000E+00  0.10566000000E+00 0. -1.
     999900   -1    0    0    0    0 -0.00000000000E+00 -0.00000000000E+00 -0.74505805969E-08  0.93827000000E+00  0.93827000000E+00 0.  1.
     999902    2    1    2    0    0 -0.67758203207E-02 -0.18480928262E-02  0.24902667745E-01  0.10180558807E+01  0.10177270293E+01 0.  0.
     999903    2    3    3    0    0  0.45129039129E-01  0.95662486723E-02  0.12125977649E+00  0.13120240125E+00  0.19544651793E-01 0.  0.
         14    1    1    2    0    0  0.67758203207E-02  0.18480928262E-02 -0.24902667745E-01  0.25874119288E-01  0.00000000000E+00 0.  1.
     999901    1    3    3    0    0 -0.51904859449E-01 -0.11414341498E-01 -0.96357108743E-01  0.88685347946E+00  0.88000000000E+00 0.  1.
        -11    1    4    4    0    0  0.36133897996E-01 -0.50146353877E-03  0.95595396086E-01  0.10219907497E+00  0.51100000000E-03 0. -1.
         11    1    4    4    0    0  0.89951411324E-02  0.10067712211E-01  0.25664380403E-01  0.29003326285E-01  0.51100000000E-03 0.  1.
</event>
<event>
 8    1  0.1112171E+005  0.1043930E+01  0.7957747E-01            NaN
         13   -1    0    0    0    0  0.00000000000E+00  0.00000000000E+00  0.74505805969E-08  0.10566000000E+00  0.10566000000E+00 0. -1.
     999900   -1    0    0    0    0 -0.00000000000E+00 -0.00000000000E+00 -0.74505805969E-08  0.93827000000E+00  0.93827000000E+00 0.  1.
     999902    2    1    2    0    0 -0.36094752509E-02 -0.18972722462E-01  0.14280373307E-01  0.10199108083E+01  0.10196279396E+01 0.  0.
     999903    2    3    3    0    0 -0.10402953244E+00  0.15198590931E-03  0.78276112838E-01  0.13168482519E+00  0.19788295158E-01 0.  0.
         14    1    1    2    0    0  0.36094752509E-02  0.18972722462E-01 -0.14280373307E-01  0.24019191723E-01  0.00000000000E+00 0.  1.
     999901    1    3    3    0    0  0.10042005719E+00 -0.19124708371E-01 -0.63995739530E-01  0.88822598309E+00  0.88000000000E+00 0.  1.
        -11    1    4    4    0    0 -0.79874585525E-01  0.80838442964E-02  0.62674913500E-01  0.10185138121E+00  0.51100000000E-03 0.  1.
         11    1    4    4    0    0 -0.24154946912E-01 -0.79318583871E-02  0.15601199338E-01  0.29833443978E-01  0.51100000000E-03 0. -1.
</event>
<event>
 8    1  0.1112171E+005  0.1043930E+01  0.7957747E-01            NaN
         13   -1    0    0    0    0  0.00000000000E+00  0.00000000000E+00  0.74505805969E-08  0.10566000000E+00  0.10566000000E+00 0.  1.
     999900   -1    0    0    0    0 -0.00000000000E+00 -0.00000000000E+00 -0.74505805969E-08  0.93827000000E+00  0.93827000000E+00 0.  1.
     999902    2    1    2    0    0  0.23443750815E-01 -0.24681403710E-02 -0.36810709495E-02  0.10200710090E+01  0.10197919454E+01 0.  0.
     999903    2    3    3    0    0 -0.32806270688E-01  0.11002641078E+00  0.55711409972E-01  0.12914645788E+00  0.19823821985E-01 0.  0.
         14    1    1    2    0    0 -0.23443750815E-01  0.24681403710E-02  0.36810709495E-02  0.23858991020E-01  0.00000000000E+00 0.  1.
     999901    1    3    3    0    0  0.56250021503E-01 -0.11249455115E+00 -0.59392480921E-01  0.89092455110E+00  0.88000000000E+00 0. -1.
        -11    1    4    4    0    0 -0.25186655284E-01  0.60732511525E-01  0.39468505898E-01  0.76686567529E-01  0.51100000000E-03 0.  1.
         11    1    4    4    0    0 -0.76196154037E-02  0.49293899251E-01  0.16242904074E-01  0.52459890355E-01  0.51100000000E-03 0. -1.
</event>
<event>
 7    1  0.1132532E+005  0.1043930E+01  0.7957747E-01            NaN
         13   -1    0    0    0    0  0.00000000000E+00  0.00000000000E+00  0.74505805969E-08  0.10566000000E+00  0.10566000000E+00 0.  1.
     999900   -1    0    0    0    0 -0.00000000000E+00 -0.00000000000E+00 -0.74505805969E-08  0.93827000000E+00  0.93827000000E+00 0. -1.
     999903    2    1    2    0    0 -0.69215103803E-01 -0.73690881862E-01  0.42503464005E-01  0.11153705657E+00  0.20319790138E-01 0.  0.
         14    1    1    2    0    0  0.19782911918E-01 -0.35251922936E-01 -0.17220004211E-01  0.43938482218E-01  0.00000000000E+00 0.  1.
     999901    1    1    2    0    0  0.49432191886E-01  0.10894280480E+00 -0.25283459794E-01  0.88845446121E+00  0.88000000000E+00 0.  1.
        -11    1    3    3    0    0 -0.32587507159E-01 -0.29035862547E-01  0.28423642242E-01  0.52088304791E-01  0.51100000000E-03 0. -1.
         11    1    3    3    0    0 -0.36627596644E-01 -0.44655019314E-01  0.14079821763E-01  0.59448751777E-01  0.51100000000E-03 0.  1.
</event>
<event>
 8    1  0.1112171E+005  0.1043930E+01  0.7957747E-01            NaN
         13   -1    0    0    0    0  0.00000000000E+00  0.00000000000E+00  0.74505805969E-08  0.10566000000E+00  0.10566000000E+00 0. -1.
     999900   -1    0    0    0    0 -0.00000000000E+00 -0.00000000000E+00 -0.74505805969E-08  0.93827000000E+00  0.93827000000E+00 0.  1.
     999902    2    1    2    0    0 -0.20451774742E-01  0.66861574707E-02 -0.95013284149E-02  0.10204086260E+01  0.10201374952E+01 0.  0.
     999903    2    3    3    0    0  0.29890947281E-01  0.12481465311E+00 -0.15165982270E-01  0.13107133375E+00  0.21852257327E-01 0.  0.
         14    1    1    2    0    0  0.20451774742E-01 -0.66861574707E-02  0.95013284149E-02  0.23521373971E-01  0.00000000000E+00 0. -1.
     999901    1    3    3    0    0 -0.50342722024E-01 -0.11812849564E+00  0.56646538547E-02  0.88933729228E+00  0.88000000000E+00 0. -1.
        -11    1    4    4    0    0  0.28192046276E-01  0.74655188946E-01 -0.12819608173E-01  0.80825690127E-01  0.51100000000E-03 0. -1.
         11    1    4    4    0    0  0.16989010054E-02  0.50159464168E-01 -0.23463740964E-02  0.50245643619E-01  0.51100000000E-03 0.  1.
</event>
<event>
 8    1  0.1112171E+005  0.1043930E+01  0.7957747E-01            NaN
         13   -1    0    0    0    0  0.00000000000E+00  0.00000000000E+00  0.74505805969E-08  0.10566000000E+00  0.10566000000E+00 0. -1.
     999900   -1    0    0    0    0 -0.00000000000E+00 -0.00000000000E+00 -0.74505805969E-08  0.93827000000E+00  0.93827000000E+00 0.  1.
     999902    2    1    2    0    0  0.11307432221E-01  0.18515195884E-01 -0.11012572824E-01  0.10196000337E+01  0.10193097083E+01 0.  0.
     999903    2    3    3    0    0 -0.33864323501E-01 -0.11611259145E+00 -0.35847537769E-01  0.12787030772E+00  0.20900797446E-01 0.  0.
         14    1    1    2    0    0 -0.11307432221E-01 -0.18515195884E-01  0.11012572824E-01  0.24329966343E-01  0.00000000000E+00 0. -1.
     999901    1    3    3    0    0  0.45171755721E-01  0.13462778733E+00  0.24834964946E-01  0.89172972594E+00  0.88000000000E+00 0.  1.
        -11    1    4    4    0    0 -0.24803779161E-02 -0.11412470986E-01  0.26470938270E-02  0.11986033345E-01  0.51100000000E-03 0.  1.
         11    1    4    4    0    0 -0.31383945584E-01 -0.10470012046E+00 -0.38494631596E-01  0.11588427437E+00  0.51100000000E-03 0. -1.
</event>
<event>
 7    1  0.1112171E+005  0.1043930E+01  0.7957747E-01            NaN
         13   -1    0    0    0    0  0.00000000000E+00  0.00000000000E+00  0.74505805969E-08  0.10566000000E+00  0.10566000000E+00 0. -1.
     999900   -1    0    0    0    0 -0.00000000000E+00 -0.00000000000E+00 -0.74505805969E-08  0.93827000000E+00  0.93827000000E+00 0. -1.
     999902    2    1    2    0    0  0.21235409481E-01  0.11741291828E-02  0.10255546890E-01  0.10203186164E+01  0.10200453821E+01 0.  0.
         14    1    1    2    0    0 -0.21235409481E-01 -0.11741291828E-02 -0.10255546890E-01  0.23611383636E-01  0.00000000000E+00 0.  1.
     999901    1    3    3    0    0 -0.17095100970E-01 -0.11638620798E+00  0.52993344472E-01  0.88940782909E+00  0.88000000000E+00 0.  1.
        -11    1    3    3    0    0  0.31159907307E-01  0.89823998525E-01 -0.32183139837E-01  0.10037582451E+00  0.51100000000E-03 0. -1.
         11    1    3    3    0    0  0.71706031450E-02  0.27736338635E-01 -0.10554657745E-01  0.30534962771E-01  0.51100000000E-03 0.  1.
</event>
<event>
 8    1  0.1112171E+005  0.1043930E+01  0.7957747E-01            NaN
         13   -1    0    0    0    0  0.00000000000E+00  0.00000000000E+00  0.74505805969E-08  0.10566000000E+00  0.10566000000E+00 0. -1.
     999900   -1    0    0    0    0 -0.00000000000E+00 -0.00000000000E+00 -0.74505805969E-08  0.93827000000E+00  0.93827000000E+00 0. -1.
     999902    2    1    2    0    0  0.73236921709E-02 -0.12231317874E-01 -0.19827853863E-01  0.10195089969E+01  0.10192164683E+01 0.  0.
     999903    2    3    3    0    0  0.10370301046E+00 -0.74343797749E-01  0.21972767430E-01  0.13108667328E+00  0.20484109955E-01 0.  0.
         14    1    1    2    0    0 -0.73236921709E-02  0.12231317874E-01  0.19827853863E-01  0.24421003107E-01  0.00000000000E+00 0. -1.
     999901    1    3    3    0    0 -0.96379318292E-01  0.62112479875E-01 -0.41800621293E-01  0.88842232361E+00  0.88000000000E+00 0. -1.
        -11    1    4    4    0    0  0.70277593872E-01 -0.53937495369E-01  0.24263977488E-01  0.91854206935E-01  0.51100000000E-03 0. -1.
         11    1    4    4    0    0  0.33425416591E-01 -0.20406302379E-01 -0.22912100579E-02  0.39232466347E-01  0.51100000000E-03 0.  1.
</event>
<event>
 8    1  0.1112171E+005  0.1043930E+01  0.7957747E-01            NaN
         13   -1    0    0    0    0  0.00000000000E+00  0.00000000000E+00  0.74505805969E-08  0.10566000000E+00  0.10566000000E+00 0.  1.
     999900   -1    0    0    0    0 -0.00000000000E+00 -0.00000000000E+00 -0.74505805969E-08  0.93827000000E+00  0.93827000000E+00 0. -1.
     999902    2    1    2    0    0 -0.22440797072E-01  0.24309323305E-02  0.10432031079E-01  0.10190638367E+01  0.10187604121E+01 0.  0.
     999903    2    3    3    0    0  0.52331206922E-01 -0.10229805313E+00 -0.51749619711E-01  0.12753393216E+00  0.19581466259E-01 0.  0.
         14    1    1    2    0    0  0.22440797072E-01 -0.24309323305E-02 -0.10432031079E-01  0.24866163308E-01  0.00000000000E+00 0. -1.
     999901    1    3    3    0    0 -0.74772003994E-01  0.10472898546E+00  0.62181650790E-01  0.89152990453E+00  0.88000000000E+00 0. -1.
        -11    1    4    4    0    0  0.87124215465E-02 -0.37124406170E-01 -0.17228157356E-01  0.41847321892E-01  0.51100000000E-03 0.  1.
         11    1    4    4    0    0  0.43618785375E-01 -0.65173646958E-01 -0.34521462355E-01  0.85686610270E-01  0.51100000000E-03 0. -1.
</event>
<event>
 8    1  0.1112171E+005  0.1043930E+01  0.7957747E-01            NaN
         13   -1    0    0    0    0  0.00000000000E+00  0.00000000000E+00  0.74505805969E-08  0.10566000000E+00  0.10566000000E+00 0. -1.
     999900   -1    0    0    0    0 -0.00000000000E+00 -0.00000000000E+00 -0.74505805969E-08  0.93827000000E+00  0.93827000000E+00 0.  1.
     999902    2    1    2    0    0 -0.10852444998E-01  0.63978373535E-02 -0.20204325089E-01  0.10201198627E+01  0.10198419543E+01 0.  0.
     999903    2    3    3    0    0  0.33329839636E-01 -0.49066594432E-01  0.11126563725E+00  0.12753220401E+00  0.19131443466E-01 0.  0.
         14    1    1    2    0    0  0.10852444998E-01 -0.63978373535E-02  0.20204325089E-01  0.23810137285E-01  0.00000000000E+00 0. -1.
     999901    1    3    3    0    0 -0.44182284634E-01  0.55464431786E-01 -0.13146996234E+00  0.89258765870E+00  0.88000000000E+00 0.  1.
        -11    1    4    4    0    0  0.16550266907E-01 -0.34795649169E-01  0.55448770491E-01  0.67523890629E-01  0.51100000000E-03 0.  1.
         11    1    4    4    0    0  0.16779572729E-01 -0.14270945264E-01  0.55816866757E-01  0.60008313385E-01  0.51100000000E-03 0. -1.
</event>
<event>
 8    1  0.1112171E+005  0.1043930E+01  0.7957747E-01            NaN
         13   -1    0    0    0    0  0.00000000000E+00  0.00000000000E+00  0.74505805969E-08  0.10566000000E+00  0.10566000000E+00 0.  1.
     999900   -1    0    0    0    0 -0.00000000000E+00 -0.00000000000E+00 -0.74505805969E-08  0.93827000000E+00  0.93827000000E+00 0. -1.
     999902    2    1    2    0    0 -0.19079039793E-01 -0.12014818206E-01  0.76256755451E-02  0.10201283920E+01  0.10198506850E+01 0.  0.
     999903    2    3    3    0    0  0.11244597477E+00  0.51506788694E-01 -0.24220105563E-01  0.12752098794E+00  0.19440738910E-01 0.  0.
         14    1    1    2    0    0  0.19079039793E-01  0.12014818206E-01 -0.76256755451E-02  0.23801608002E-01  0.00000000000E+00 0. -1.
     999901    1    3    3    0    0 -0.13152501456E+00 -0.63521606900E-01  0.31845781108E-01  0.89260740405E+00  0.88000000000E+00 0. -1.
        -11    1    4    4    0    0  0.56396580898E-01  0.25646190022E-01 -0.22463161144E-02  0.61996842313E-01  0.51100000000E-03 0. -1.
         11    1    4    4    0    0  0.56049393870E-01  0.25860598672E-01 -0.21973789449E-01  0.65524145630E-01  0.51100000000E-03 0.  1.
</event>
<event>
 8    1  0.1112171E+005  0.1043930E+01  0.7957747E-01            NaN
         13   -1    0    0    0    0  0.00000000000E+00  0.00000000000E+00  0.74505805969E-08  0.10566000000E+00  0.10566000000E+00 0. -1.
     999900   -1    0    0    0    0 -0.00000000000E+00 -0.00000000000E+00 -0.74505805969E-08  0.93827000000E+00  0.93827000000E+00 0.  1.
     999902    2    1    2    0    0  0.14497875576E-01 -0.54542878422E-02  0.16918307274E-01  0.10209916746E+01  0.10207339677E+01 0.  0.
     999903    2    3    3    0    0 -0.93918855485E-01 -0.12755762445E-01  0.88674451743E-01  0.13140950110E+00  0.20538687791E-01 0.  0.
         14    1    1    2    0    0 -0.14497875576E-01  0.54542878422E-02 -0.16918307274E-01  0.22938325420E-01  0.00000000000E+00 0.  1.
     999901    1    3    3    0    0  0.10841673106E+00  0.73014746032E-02 -0.71756144469E-01  0.88958217348E+00  0.88000000000E+00 0. -1.
        -11    1    4    4    0    0 -0.61479134133E-01 -0.18054383762E-01  0.60145643612E-01  0.87882900915E-01  0.51100000000E-03 0. -1.
         11    1    4    4    0    0 -0.32439721352E-01  0.52986213164E-02  0.28528808130E-01  0.43526600184E-01  0.51100000000E-03 0.  1.
</event>
<event>
 8    1  0.1112171E+005  0.1043930E+01  0.7957747E-01            NaN
         13   -1    0    0    0    0  0.00000000000E+00  0.00000000000E+00  0.74505805969E-08  0.10566000000E+00  0.10566000000E+00 0.  1.
     999900   -1    0    0    0    0 -0.00000000000E+00 -0.00000000000E+00 -0.74505805969E-08  0.93827000000E+00  0.93827000000E+00 0.  1.
     999902    2    1    2    0    0  0.16857184060E-01 -0.67569799388E-03  0.16232046486E-01  0.10205184525E+01  0.10202498769E+01 0.  0.
     999903    2    3    3    0    0  0.12764253591E+00 -0.13539783593E-01  0.30358574440E-01  0.13336658408E+00  0.19724603760E-01 0.  0.
         14    1    1    2    0    0 -0.16857184060E-01  0.67569799388E-03 -0.16232046486E-01  0.23411547478E-01  0.00000000000E+00 0. -1.
     999901    1    3    3    0    0 -0.11078535185E+00  0.12864085599E-01 -0.14126527954E-01  0.88715186844E+00  0.88000000000E+00 0. -1.
        -11    1    4    4    0    0  0.10446422086E+00 -0.18218186253E-01  0.27448027220E-01  0.10953689365E+00  0.51100000000E-03 0.  1.
         11    1    4    4    0    0  0.23178315052E-01  0.46784026604E-02  0.29105472195E-02  0.23829690435E-01  0.51100000000E-03 0. -1.
</event>
<event>
 8    1  0.1112171E+005  0.1043930E+01  0.7957747E-01            NaN
         13   -1    0    0    0    0  0.00000000000E+00  0.00000000000E+00  0.74505805969E-08  0.10566000000E+00  0.10566000000E+00 0.  1.
     999900   -1    0    0    0    0 -0.00000000000E+00 -0.00000000000E+00 -0.74505805969E-08  0.93827000000E+00  0.93827000000E+00 0.  1.
     999902    2    1    2    0    0  0.12443916089E-01  0.12213747540E-01 -0.14792868269E-01  0.10210639634E+01  0.10208078966E+01 0.  0.
     999903    2    3    3    0    0  0.10269372904E+00  0.71740169835E-01 -0.42431665938E-01  0.13401699352E+00  0.21620692101E-01 0.  0.
         14    1    1    2    0    0 -0.12443916089E-01 -0.12213747540E-01  0.14792868269E-01  0.22866036566E-01  0.00000000000E+00 0.  1.
     999901    1    3    3    0    0 -0.90249812952E-01 -0.59526422295E-01  0.27638797670E-01  0.88704696991E+00  0.88000000000E+00 0. -1.
        -11    1    4    4    0    0  0.42484290295E-01  0.38976297452E-01 -0.11407402177E-01  0.58774625735E-01  0.51100000000E-03 0.  1.
         11    1    4    4    0    0  0.60209438746E-01  0.32763872383E-01 -0.31024263762E-01  0.75242367790E-01  0.51100000000E-03 0. -1.
</event>
<event>
 8    1  0.1112171E+005  0.1043930E+01  0.7957747E-01            NaN
         13   -1    0    0    0    0  0.00000000000E+00  0.00000000000E+00  0.74505805969E-08  0.10566000000E+00  0.10566000000E+00 0. -1.
     999900   -1    0    0    0    0 -0.00000000000E+00 -0.00000000000E+00 -0.74505805969E-08  0.93827000000E+00  0.93827000000E+00 0.  1.
     999902    2    1    2    0    0  0.70542972440E-03 -0.12042450988E-01 -0.19791860021E-01  0.10207516485E+01  0.10204884575E+01 0.  0.
     999903    2    3    3    0    0  0.88658409897E-01  0.75624823976E-01  0.51414076437E-01  0.12918473386E+00  0.21583803200E-01 0.  0.
         14    1    1    2    0    0 -0.70542972440E-03  0.12042450988E-01  0.19791860021E-01  0.23178351537E-01  0.00000000000E+00 0. -1.
     999901    1    3    3    0    0 -0.87952980172E-01 -0.87667274965E-01 -0.71205936458E-01  0.89156691460E+00  0.88000000000E+00 0. -1.
        -11    1    4    4    0    0  0.60823660405E-01  0.61435432695E-01  0.44283256329E-01  0.97134432451E-01  0.51100000000E-03 0.  1.
         11    1    4    4    0    0  0.27834749492E-01  0.14189391282E-01  0.71308201077E-02  0.32050301412E-01  0.51100000000E-03 0. -1.
</event>
<event>
 8    1  0.1112171E+005  0.1043930E+01  0.7957747E-01            NaN
         13   -1    0    0    0    0  0.00000000000E+00  0.00000000000E+00  0.74505805969E-08  0.10566000000E+00  0.10566000000E+00 0. -1.
     999900   -1    0    0    0    0 -0.00000000000E+00 -0.00000000000E+00 -0.74505805969E-08  0.93827000000E+00  0.93827000000E+00 0.  1.
     999902    2    1    2    0    0 -0.25138401459E-01 -0.21037752410E-02  0.50002952943E-02  0.10182129230E+01  0.10178881021E+01 0.  0.
     999903    2    3    3    0    0 -0.26610175662E-01 -0.25183714387E-02  0.12562899321E+00  0.12998231058E+00  0.19957792597E-01 0.  0.
         14    1    1    2    0    0  0.25138401459E-01  0.21037752410E-02 -0.50002952943E-02  0.25717077034E-01  0.00000000000E+00 0. -1.
     999901    1    3    3    0    0  0.14717742036E-02  0.41459619770E-03 -0.12062869792E+00  0.88823061238E+00  0.88000000000E+00 0.  1.
        -11    1    4    4    0    0 -0.26488639852E-01 -0.71896261295E-02  0.91445125885E-01  0.95476755989E-01  0.51100000000E-03 0. -1.
         11    1    4    4    0    0 -0.12153581067E-03  0.46712546908E-02  0.34183867330E-01  0.34505554596E-01  0.51100000000E-03 0.  1.
</event>
<event>
 8    1  0.1112171E+005  0.1043930E+01  0.7957747E-01            NaN
         13   -1    0    0    0    0  0.00000000000E+00  0.00000000000E+00  0.74505805969E-08  0.10566000000E+00  0.10566000000E+00 0.  1.
     999900   -1    0    0    0    0 -0.00000000000E+00 -0.00000000000E+00 -0.74505805969E-08  0.93827000000E+00  0.93827000000E+00 0. -1.
     999902    2    1    2    0    0  0.20519076017E-01 -0.11173662469E-01  0.93597412223E-02  0.10187608131E+01  0.10184498546E+01 0.  0.
     999903    2    3    3    0    0  0.59544290225E-01  0.11013332344E+00  0.26054387794E-01  0.12942563253E+00  0.19932180078E-01 0.  0.
         14    1    1    2    0    0 -0.20519076017E-01  0.11173662469E-01 -0.93597412223E-02  0.25169186902E-01  0.00000000000E+00 0. -1.
     999901    1    3    3    0    0 -0.39025214208E-01 -0.12130698591E+00 -0.16694646572E-01  0.88933518057E+00  0.88000000000E+00 0.  1.
        -11    1    4    4    0    0  0.41998308224E-01  0.62558921513E-01  0.22281233397E-01  0.78576020752E-01  0.51100000000E-03 0.  1.
         11    1    4    4    0    0  0.17545982002E-01  0.47574401924E-01  0.37731543967E-02  0.50849611777E-01  0.51100000000E-03 0. -1.
</event>
<event>
 8    1  0.1112171E+005  0.1043930E+01  0.7957747E-01            NaN
         13   -1    0    0    0    0  0.00000000000E+00  0.00000000000E+00  0.74505805969E-08  0.10566000000E+00  0.10566000000E+00 0.  1.
     999900   -1    0    0    0    0 -0.00000000000E+00 -0.00000000000E+00 -0.74505805969E-08  0.93827000000E+00  0.93827000000E+00 0.  1.
     999902    2    1    2    0    0  0.69176070806E-03  0.11176789627E-01 -0.35430508305E-02  0.10321846874E+01  0.10321178598E+01 0.  0.
     999903    2    3    3    0    0  0.98771039137E-02 -0.86295853177E-01 -0.10853996439E+00  0.14055155740E+00  0.20719193069E-01 0.  0.
         14    1    1    2    0    0 -0.69176070806E-03 -0.11176789627E-01  0.35430508305E-02  0.11745312615E-01  0.00000000000E+00 0. -1.
     999901    1    3    3    0    0 -0.91853432056E-02  0.97472642803E-01  0.10499691356E+00  0.89163312998E+00  0.88000000000E+00 0.  1.
        -11    1    4    4    0    0 -0.42777070725E-02 -0.49080992868E-01 -0.55240624820E-01  0.74020472778E-01  0.51100000000E-03 0. -1.
         11    1    4    4    0    0  0.14154810986E-01 -0.37214860309E-01 -0.53299339569E-01  0.66531084625E-01  0.51100000000E-03 0.  1.
</event>
<event>
 8    1  0.1131452E+005  0.1043930E+01  0.7957747E-01            NaN
         13   -1    0    0    0    0  0.00000000000E+00  0.00000000000E+00  0.74505805969E-08  0.10566000000E+00  0.10566000000E+00 0.  1.
     999900   -1    0    0    0    0 -0.00000000000E+00 -0.00000000000E+00 -0.74505805969E-08  0.93827000000E+00  0.93827000000E+00 0.  1.
     999902    2    1    2    0    0 -0.16916041303E-01  0.64146108296E-02  0.15149939383E-01  0.10203329589E+01  0.10200600603E+01 0.  0.
     999903    2    3    3    0    0 -0.36888150371E-02  0.52726965078E-01 -0.11633343928E+00  0.12926187726E+00  0.19530069504E-01 0.  0.
         14    1    1    2    0    0  0.16916041303E-01 -0.64146108296E-02 -0.15149939383E-01  0.23597041102E-01  0.00000000000E+00 0.  1.
     999901    1    3    3    0    0 -0.13227226266E-01 -0.46312354248E-01  0.13148337866E+00  0.89107108164E+00  0.88000000000E+00 0. -1.
        -11    1    4    4    0    0  0.56999017292E-02  0.38104380529E-01 -0.72423653647E-01  0.82035842312E-01  0.51100000000E-03 0.  1.
         11    1    4    4    0    0 -0.93887167663E-02  0.14622584549E-01 -0.43909785633E-01  0.47226034946E-01  0.51100000000E-03 0. -1.
</event>
<event>
 8    1  0.1112171E+005  0.1043930E+01  0.7957747E-01            NaN
         13   -1    0    0    0    0  0.00000000000E+00  0.00000000000E+00  0.74505805969E-08  0.10566000000E+00  0.10566000000E+00 0.  1.
     999900   -1    0    0    0    0 -0.00000000000E+00 -0.00000000000E+00 -0.74505805969E-08  0.93827000000E+00  0.93827000000E+00 0. -1.
     999902    2    1    2    0    0 -0.20422123316E-01  0.74912881900E-02  0.94459930691E-02  0.10202148297E+01  0.10199391596E+01 0.  0.
     999903    2    3    3    0    0  0.11297020288E+00 -0.56178191570E-01 -0.24450565124E-02  0.12780869319E+00  0.20268887624E-01 0.  0.
         14    1    1    2    0    0  0.20422123316E-01 -0.74912881900E-02 -0.94459930691E-02  0.23715170346E-01  0.00000000000E+00 0. -1.
     999901    1    3    3    0    0 -0.13339232620E+00  0.63669479760E-01  0.11891049582E-01  0.89240613647E+00  0.88000000000E+00 0. -1.
        -11    1    4    4    0    0  0.54493314763E-01 -0.37332756734E-01 -0.55495252849E-02  0.66289625365E-01  0.51100000000E-03 0.  1.
         11    1    4    4    0    0  0.58476888120E-01 -0.18845434836E-01  0.31044687725E-02  0.61519067822E-01  0.51100000000E-03 0. -1.
</event>
<event>
 8    1  0.1112171E+005  0.1043930E+01  0.7957747E-01            NaN
         13   -1    0    0    0    0  0.00000000000E+00  0.00000000000E+00  0.74505805969E-08  0.10566000000E+00  0.10566000000E+00 0. -1.
     999900   -1    0    0    0    0 -0.00000000000E+00 -0.00000000000E+00 -0.74505805969E-08  0.93827000000E+00  0.93827000000E+00 0.  1.
     999902    2    1    2    0    0  0.66889611602E-02  0.15330358364E-01  0.16851770658E-01  0.10201867007E+01  0.10199103686E+01 0.  0.
     999903    2    3    3    0    0 -0.60678106543E-01 -0.98705992127E-01 -0.50839879176E-01  0.12770433641E+00  0.17291579712E-01 0.  0.
         14    1    1    2    0    0 -0.66889611602E-02 -0.15330358364E-01 -0.16851770658E-01  0.23743299334E-01  0.00000000000E+00 0.  1.
     999901    1    3    3    0    0  0.67367067703E-01  0.11403635049E+00  0.67691649833E-01  0.89248236425E+00  0.88000000000E+00 0. -1.
        -11    1    4    4    0    0 -0.27496772472E-01 -0.58248453681E-01 -0.33324544217E-01  0.72524073389E-01  0.51100000000E-03 0.  1.
         11    1    4    4    0    0 -0.33181334071E-01 -0.40457538446E-01 -0.17515334959E-01  0.55180263025E-01  0.51100000000E-03 0. -1.
</event>
<event>
 8    1  0.1112171E+005  0.1043930E+01  0.7957747E-01            NaN
         13   -1    0    0    0    0  0.00000000000E+00  0.00000000000E+00  0.74505805969E-08  0.10566000000E+00  0.10566000000E+00 0.  1.
     999900   -1    0    0    0    0 -0.00000000000E+00 -0.00000000000E+00 -0.74505805969E-08  0.93827000000E+00  0.93827000000E+00 0.  1.
     999902    2    1    2    0    0 -0.30840932078E-02 -0.20905937431E-02  0.23559354085E-01  0.10200778433E+01  0.10197989415E+01 0.  0.
     999903    2    3    3    0    0 -0.37371896330E-01 -0.54981838515E-01 -0.10751721012E+00  0.12813939091E+00  0.20978365741E-01 0.  0.
         14    1    1    2    0    0  0.30840932078E-02  0.20905937431E-02 -0.23559354085E-01  0.23852156674E-01  0.00000000000E+00 0. -1.
     999901    1    3    3    0    0  0.34287803122E-01  0.52891244772E-01  0.13107656420E+00  0.89193845242E+00  0.88000000000E+00 0. -1.
        -11    1    4    4    0    0 -0.27564440722E-01 -0.22390061259E-01 -0.59189034249E-01  0.69026923239E-01  0.51100000000E-03 0.  1.
         11    1    4    4    0    0 -0.98074556076E-02 -0.32591777257E-01 -0.48328175869E-01  0.59112467671E-01  0.51100000000E-03 0. -1.
</event>
<event>
 8    1  0.1112171E+005  0.1043930E+01  0.7957747E-01            NaN
         13   -1    0    0    0    0  0.00000000000E+00  0.00000000000E+00  0.74505805969E-08  0.10566000000E+00  0.10566000000E+00 0.  1.
     999900   -1    0    0    0    0 -0.00000000000E+00 -0.00000000000E+00 -0.74505805969E-08  0.93827000000E+00  0.93827000000E+00 0.  1.
     999902    2    1    2    0    0  0.18153285018E-01  0.15747296123E-01  0.36798501211E-02  0.10196182664E+01  0.10193283813E+01 0.  0.
     999903    2    3    3    0    0  0.51133484274E-01  0.58578842425E-01  0.10493316707E+00  0.13216434138E+00  0.20256593670E-01 0.  0.
         14    1    1    2    0    0 -0.18153285018E-01 -0.15747296123E-01 -0.36798501211E-02  0.24311733567E-01  0.00000000000E+00 0. -1.
     999901    1    3    3    0    0 -0.32980199257E-01 -0.42831546302E-01 -0.10125331695E+00  0.88745392505E+00  0.88000000000E+00 0.  1.
        -11    1    4    4    0    0 -0.14039833336E-03  0.60277508393E-02  0.14266655693E-01  0.15496840889E-01  0.51100000000E-03 0.  1.
         11    1    4    4    0    0  0.51273882608E-01  0.52551091586E-01  0.90666511376E-01  0.11666750049E+00  0.51100000000E-03 0. -1.
</event>
<event>
 8    1  0.1112171E+005  0.1043930E+01  0.7957747E-01            NaN
         13   -1    0    0    0    0  0.00000000000E+00  0.00000000000E+00  0.74505805969E-08  0.10566000000E+00  0.10566000000E+00 0.  1.
     999900   -1    0    0    0    0 -0.00000000000E+00 -0.00000000000E+00 -0.74505805969E-08  0.93827000000E+00  0.93827000000E+00 0. -1.
     999902    2    1    2    0    0 -0.47925982059E-02  0.22498894042E-01 -0.18713119244E-01  0.10142761628E+01  0.10138425836E+01 0.  0.
     999903    2    3    3    0    0 -0.11775227480E+00  0.18026883385E-01  0.34132443675E-01  0.12547216810E+00  0.19689451759E-01 0.  0.
         14    1    1    2    0    0  0.47925982059E-02 -0.22498894042E-01  0.18713119244E-01  0.29653837231E-01  0.00000000000E+00 0.  1.
     999901    1    3    3    0    0  0.11295967660E+00  0.44720106571E-02 -0.52845562920E-01  0.88880399467E+00  0.88000000000E+00 0.  1.
        -11    1    4    4    0    0 -0.30378150525E-01  0.87245363511E-02  0.17197848145E-01  0.35985784217E-01  0.51100000000E-03 0. -1.
         11    1    4    4    0    0 -0.87374124280E-01  0.93023470335E-02  0.16934595530E-01  0.89486383885E-01  0.51100000000E-03 0.  1.
</event>
<event>
 8    1  0.1112171E+005  0.1043930E+01  0.7957747E-01            NaN
         13   -1    0    0    0    0  0.00000000000E+00  0.00000000000E+00  0.74505805969E-08  0.10566000000E+00  0.10566000000E+00 0.  1.
     999900   -1    0    0    0    0 -0.00000000000E+00 -0.00000000000E+00 -0.74505805969E-08  0.93827000000E+00  0.93827000000E+00 0.  1.
     999902    2    1    2    0    0  0.22199701174E-02  0.12576837697E-01  0.17608004285E-01  0.10221780592E+01  0.10219465924E+01 0.  0.
     999903    2    3    3    0    0  0.16562169936E-01  0.18110688153E-01 -0.12657915782E+00  0.13031133153E+00  0.18880080307E-01 0.  0.
         14    1    1    2    0    0 -0.22199701174E-02 -0.12576837697E-01 -0.17608004285E-01  0.21751940802E-01  0.00000000000E+00 0. -1.
     999901    1    3    3    0    0 -0.14342199818E-01 -0.55338504562E-02  0.14418716211E+00  0.89186672766E+00  0.88000000000E+00 0. -1.
        -11    1    4    4    0    0  0.92491766557E-03  0.13864135069E-01 -0.43601996858E-01  0.45765324918E-01  0.51100000000E-03 0. -1.
         11    1    4    4    0    0  0.15637252270E-01  0.42465530845E-02 -0.82977160966E-01  0.84546006616E-01  0.51100000000E-03 0.  1.
</event>
<event>
 8    1  0.1112171E+005  0.1043930E+01  0.7957747E-01            NaN
         13   -1    0    0    0    0  0.00000000000E+00  0.00000000000E+00  0.74505805969E-08  0.10566000000E+00  0.10566000000E+00 0. -1.
     999900   -1    0    0    0    0 -0.00000000000E+00 -0.00000000000E+00 -0.74505805969E-08  0.93827000000E+00  0.93827000000E+00 0.  1.
     999902    2    1    2    0    0 -0.35061180601E-04 -0.10978261473E-01 -0.20457824725E-01  0.10207126348E+01  0.10204485469E+01 0.  0.
     999903    2    3    3    0    0  0.49780838778E-01  0.92379952775E-01 -0.76613199309E-01  0.13148939487E+00  0.20191361286E-01 0.  0.
         14    1    1    2    0    0  0.35061180601E-04  0.10978261473E-01  0.20457824725E-01  0.23217365198E-01  0.00000000000E+00 0. -1.
     999901    1    3    3    0    0 -0.49815899959E-01 -0.10335821425E+00  0.56155374584E-01  0.88922323993E+00  0.88000000000E+00 0. -1.
        -11    1    4    4    0    0  0.34843790173E-01  0.73494570534E-01 -0.67642709547E-01  0.10578912462E+00  0.51100000000E-03 0.  1.
         11    1    4    4    0    0  0.14937048605E-01  0.18885382241E-01 -0.89704897625E-02  0.25700270251E-01  0.51100000000E-03 0. -1.
</event>
<event>
 8    1  0.1112171E+005  0.1043930E+01  0.7957747E-01            NaN
         13   -1    0    0    0    0  0.00000000000E+00  0.00000000000E+00  0.74505805969E-08  0.10566000000E+00  0.10566000000E+00 0. -1.
     999900   -1    0    0    0    0 -0.00000000000E+00 -0.00000000000E+00 -0.74505805969E-08  0.93827000000E+00  0.93827000000E+00 0. -1.
     999902    2    1    2    0    0 -0.18102471076E-01 -0.36163200650E-03  0.16465391331E-01  0.10194567626E+01  0.10191629661E+01 0.  0.
     999903    2    3    3    0    0  0.18628768406E-02  0.68864164592E-01  0.11014383685E+00  0.13155672477E+00  0.20730739514E-01 0.  0.
         14    1    1    2    0    0  0.18102471076E-01  0.36163200650E-03 -0.16465391331E-01  0.24473237392E-01  0.00000000000E+00 0.  1.
     999901    1    3    3    0    0 -0.19965347917E-01 -0.69225796599E-01 -0.93678445523E-01  0.88790003784E+00  0.88000000000E+00 0. -1.
        -11    1    4    4    0    0  0.54346717306E-02  0.35705213320E-01  0.74179189558E-01  0.82505825246E-01  0.51100000000E-03 0.  1.
         11    1    4    4    0    0 -0.35717948900E-02  0.33158951273E-01  0.35964647296E-01  0.49050899527E-01  0.51100000000E-03 0. -1.
</event>
<event>
 8    1  0.1112171E+005  0.1043930E+01  0.7957747E-01            NaN
         13   -1    0    0    0    0  0.00000000000E+00  0.00000000000E+00  0.74505805969E-08  0.10566000000E+00  0.10566000000E+00 0. -1.
     999900   -1    0    0    0    0 -0.00000000000E+00 -0.00000000000E+00 -0.74505805969E-08  0.93827000000E+00  0.93827000000E+00 0. -1.
     999902    2    1    2    0    0 -0.11582613426E-01 -0.21010628324E-01 -0.15498294431E-02  0.10198882570E+01  0.10196048506E+01 0.  0.
     999903    2    3    3    0    0 -0.51473768765E-01 -0.11520697224E+00 -0.37754566374E-01  0.13322313504E+00  0.20020017610E-01 0.  0.
         14    1    1    2    0    0  0.11582613426E-01  0.21010628324E-01  0.15498294431E-02  0.24041743025E-01  0.00000000000E+00 0. -1.
     999901    1    3    3    0    0  0.39891155339E-01  0.94196343912E-01  0.36204736931E-01  0.88666512194E+00  0.88000000000E+00 0.  1.
        -11    1    4    4    0    0 -0.41952738609E-01 -0.83124812578E-01 -0.19622674708E-01  0.95158169521E-01  0.51100000000E-03 0.  1.
         11    1    4    4    0    0 -0.95210301567E-02 -0.32082159658E-01 -0.18131891666E-01  0.38064965519E-01  0.51100000000E-03 0. -1.
</event>
<event>
 8    1  0.1112171E+005  0.1043930E+01  0.7957747E-01            NaN
         13   -1    0    0    0    0  0.00000000000E+00  0.00000000000E+00  0.74505805969E-08  0.10566000000E+00  0.10566000000E+00 0.  1.
     999900   -1    0    0    0    0 -0.00000000000E+00 -0.00000000000E+00 -0.74505805969E-08  0.93827000000E+00  0.93827000000E+00 0. -1.
     999902    2    1    2    0    0  0.19490224643E-01 -0.86361856770E-02  0.98632279030E-02  0.10204409425E+01  0.10201705648E+01 0.  0.
     999903    2    3    3    0    0  0.62030134718E-01 -0.11264468733E+00  0.28806602500E-01  0.13309306039E+00  0.18638110920E-01 0.  0.
         14    1    1    2    0    0 -0.19490224643E-01  0.86361856770E-02 -0.98632279030E-02  0.23489057545E-01  0.00000000000E+00 0.  1.
     999901    1    3    3    0    0 -0.42539910075E-01  0.10400850166E+00 -0.18943374597E-01  0.88734788207E+00  0.88000000000E+00 0. -1.
        -11    1    4    4    0    0  0.36409502725E-01 -0.46994190460E-01  0.12239609120E-01  0.60697405036E-01  0.51100000000E-03 0. -1.
         11    1    4    4    0    0  0.25620631993E-01 -0.65650496873E-01  0.16566993379E-01  0.72395655353E-01  0.51100000000E-03 0.  1.
</event>
<event>
 8    1  0.1112171E+005  0.1043930E+01  0.7957747E-01            NaN
         13   -1    0    0    0    0  0.00000000000E+00  0.00000000000E+00  0.74505805969E-08  0.10566000000E+00  0.10566000000E+00 0. -1.
     999900   -1    0    0    0    0 -0.00000000000E+00 -0.00000000000E+00 -0.74505805969E-08  0.93827000000E+00  0.93827000000E+00 0. -1.
     999902    2    1    2    0    0  0.21655790881E-01  0.59681124916E-02 -0.70046512704E-02  0.10204000874E+01  0.10201287574E+01 0.  0.
     999903    2    3    3    0    0 -0.70312752381E-01 -0.10381907596E+00 -0.20560739306E-01  0.12871897448E+00  0.20580250507E-01 0.  0.
         14    1    1    2    0    0 -0.21655790881E-01 -0.59681124916E-02  0.70046512704E-02  0.23529912554E-01  0.00000000000E+00 0.  1.
     999901    1    3    3    0    0  0.91968543262E-01  0.10978718845E+00  0.13556088035E-01  0.89168111297E+00  0.88000000000E+00 0.  1.
        -11    1    4    4    0    0 -0.16869462089E-01 -0.18542074830E-01 -0.11760315894E-01  0.27693924263E-01  0.51100000000E-03 0.  1.
         11    1    4    4    0    0 -0.53443290292E-01 -0.85277001126E-01 -0.88004234116E-02  0.10102505022E+00  0.51100000000E-03 0. -1.
</event>
<event>
 8    1  0.1112171E+005  0.1043930E+01  0.7957747E-01            NaN
         13   -1    0    0    0    0  0.00000000000E+00  0.00000000000E+00  0.74505805969E-08  0.10566000000E+00  0.10566000000E+00 0.  1.
     999900   -1    0    0    0    0 -0.00000000000E+00 -0.00000000000E+00 -0.74505805969E-08  0.93827000000E+00  0.93827000000E+00 0.  1.
     999902    2    1    2    0    0 -0.80216819481E-02 -0.17964853198E-01  0.11399381368E-01  0.10211917233E+01  0.10209385420E+01 0.  0.
     999903    2    3    3    0    0 -0.65151312103E-02  0.12419415844E+00  0.30046024193E-01  0.12958690525E+00  0.20575872208E-01 0.  0.
         14    1    1    2    0    0  0.80216819481E-02  0.17964853198E-01 -0.11399381368E-01  0.22738276700E-01  0.00000000000E+00 0.  1.
     999901    1    3    3    0    0 -0.15065507378E-02 -0.14215901164E+00 -0.18646642826E-01  0.89160481805E+00  0.88000000000E+00 0.  1.
        -11    1    4    4    0    0 -0.12037893449E-01  0.11103846017E+00  0.25085908786E-01  0.11447276732E+00  0.51100000000E-03 0. -1.
         11    1    4    4    0    0  0.55227622385E-02  0.13155698263E-01  0.49601154069E-02  0.15114137931E-01  0.51100000000E-03 0.  1.
</event>
<event>
 8    1  0.1112171E+005  0.1043930E+01  0.7957747E-01            NaN
         13   -1    0    0    0    0  0.00000000000E+00  0.00000000000E+00  0.74505805969E-08  0.10566000000E+00  0.10566000000E+00 0. -1.
     999900   -1    0    0    0    0 -0.00000000000E+00 -0.00000000000E+00 -0.74505805969E-08  0.93827000000E+00  0.93827000000E+00 0.  1.
     999902    2    1    2    0    0  0.69150842101E-03  0.16395646640E-01 -0.34158736531E-02  0.10271680310E+01  0.10270312557E+01 0.  0.
     999903    2    3    3    0    0  0.10530073109E+00 -0.51135735450E-01  0.66177087720E-01  0.13568232873E+00  0.18088117176E-01 0.  0.
         14    1    1    2    0    0 -0.69150842101E-03 -0.16395646640E-01  0.34158736531E-02  0.16761969020E-01  0.00000000000E+00 0. -1.
     999901    1    3    3    0    0 -0.10460922267E+00  0.67531382089E-01 -0.69592961373E-01  0.89148570225E+00  0.88000000000E+00 0.  1.
        -11    1    4    4    0    0  0.29340936017E-01 -0.23341320684E-01  0.23088006561E-01  0.44034360964E-01  0.51100000000E-03 0. -1.
         11    1    4    4    0    0  0.75959795076E-01 -0.27794414766E-01  0.43089081160E-01  0.91647967770E-01  0.51100000000E-03 0.  1.
</event>
<event>
 8    1  0.1112171E+005  0.1043930E+01  0.7957747E-01            NaN
         13   -1    0    0    0    0  0.00000000000E+00  0.00000000000E+00  0.74505805969E-08  0.10566000000E+00  0.10566000000E+00 0. -1.
     999900   -1    0    0    0    0 -0.00000000000E+00 -0.00000000000E+00 -0.74505805969E-08  0.93827000000E+00  0.93827000000E+00 0.  1.
     999902    2    1    2    0    0 -0.94215412840E-02  0.72504401963E-02  0.21266768137E-01  0.10195658922E+01  0.10192747415E+01 0.  0.
     999903    2    3    3    0    0  0.66287088707E-01 -0.96272839513E-01  0.52572224795E-01  0.12971820986E+00  0.20013430309E-01 0.  0.
         14    1    1    2    0    0  0.94215412840E-02 -0.72504401963E-02 -0.21266768137E-01  0.24364107827E-01  0.00000000000E+00 0.  1.
     999901    1    3    3    0    0 -0.75708629991E-01  0.10352327971E+00 -0.31305456658E-01  0.88984768231E+00  0.88000000000E+00 0. -1.
        -11    1    4    4    0    0  0.51351710527E-01 -0.82782243612E-01  0.36774739681E-01  0.10412752101E+00  0.51100000000E-03 0. -1.
         11    1    4    4    0    0  0.14935378180E-01 -0.13490595902E-01  0.15797485114E-01  0.25590688855E-01  0.51100000000E-03 0.  1.
</event>
<event>
 8    1  0.1112171E+005  0.1043930E+01  0.7957747E-01            NaN
         13   -1    0    0    0    0  0.00000000000E+00  0.00000000000E+00  0.74505805969E-08  0.10566000000E+00  0.10566000000E+00 0. -1.
     999900   -1    0    0    0    0 -0.00000000000E+00 -0.00000000000E+00 -0.74505805969E-08  0.93827000000E+00  0.93827000000E+00 0.  1.
     999902    2    1    2    0    0  0.24260558418E-01 -0.29900964040E-02  0.43942615810E-02  0.10190940401E+01  0.10187913612E+01 0.  0.
     999903    2    3    3    0    0  0.42149635739E-02 -0.93511562314E-01 -0.88469150245E-01  0.12936398273E+00  0.12085995127E-01 0.  0.
         14    1    1    2    0    0 -0.24260558418E-01  0.29900964040E-02 -0.43942615810E-02  0.24835959939E-01  0.00000000000E+00 0. -1.
     999901    1    3    3    0    0  0.20045594844E-01  0.90521465910E-01  0.92863411826E-01  0.88973005733E+00  0.88000000000E+00 0.  1.
        -11    1    4    4    0    0 -0.34897937680E-02 -0.30436603721E-01 -0.32763826413E-01  0.44858610643E-01  0.51100000000E-03 0. -1.
         11    1    4    4    0    0  0.77047573420E-02 -0.63074958593E-01 -0.55705323833E-01  0.84505372087E-01  0.51100000000E-03 0.  1.
</event>
<event>
 8    1  0.1112171E+005  0.1043930E+01  0.7957747E-01            NaN
         13   -1    0    0    0    0  0.00000000000E+00  0.00000000000E+00  0.74505805969E-08  0.10566000000E+00  0.10566000000E+00 0.  1.
     999900   -1    0    0    0    0 -0.00000000000E+00 -0.00000000000E+00 -0.74505805969E-08  0.93827000000E+00  0.93827000000E+00 0.  1.
     999902    2    1    2    0    0  0.13838451238E-01 -0.74862030671E-02 -0.18279923529E-01  0.10198115097E+01  0.10195262693E+01 0.  0.
     999903    2    3    3    0    0 -0.90192640260E-01 -0.53586401715E-01  0.70628515250E-01  0.12804225324E+00  0.20005415362E-01 0.  0.
         14    1    1    2    0    0 -0.13838451238E-01  0.74862030671E-02  0.18279923529E-01  0.24118490277E-01  0.00000000000E+00 0.  1.
     999901    1    3    3    0    0  0.10403109150E+00  0.46100198648E-01 -0.88908438779E-01  0.89176925648E+00  0.88000000000E+00 0.  1.
        -11    1    4    4    0    0 -0.15892695708E-01 -0.21882804524E-02  0.14834917653E-01  0.21856400686E-01  0.51100000000E-03 0.  1.
         11    1    4    4    0    0 -0.74299944552E-01 -0.51398121263E-01  0.55793597598E-01  0.10618585256E+00  0.51100000000E-03 0. -1.
</event>
<event>
 8    1  0.1112171E+005  0.1043930E+01  0.7957747E-01            NaN
         13   -1    0    0    0    0  0.00000000000E+00  0.00000000000E+00  0.74505805969E-08  0.10566000000E+00  0.10566000000E+00 0.  1.
     999900   -1    0    0    0    0 -0.00000000000E+00 -0.00000000000E+00 -0.74505805969E-08  0.93827000000E+00  0.93827000000E+00 0. -1.
     999902    2    1    2    0    0 -0.16397940973E-01  0.99889195714E-02  0.14851982972E-01  0.10196554788E+01  0.10193664910E+01 0.  0.
     999903    2    3    3    0    0 -0.41243138782E-01 -0.42266679834E-01  0.11617188140E+00  0.13195414762E+00  0.20700780811E-01 0.  0.
         14    1    1    2    0    0  0.16397940973E-01 -0.99889195714E-02 -0.14851982972E-01  0.24274521222E-01  0.00000000000E+00 0.  1.
     999901    1    3    3    0    0  0.24845197809E-01  0.52255599405E-01 -0.10131989842E+00  0.88770133116E+00  0.88000000000E+00 0. -1.
        -11    1    4    4    0    0 -0.12094115613E-01 -0.23677124582E-01  0.37029718409E-01  0.45588759880E-01  0.51100000000E-03 0. -1.
         11    1    4    4    0    0 -0.29149023170E-01 -0.18589555251E-01  0.79142162987E-01  0.86365387740E-01  0.51100000000E-03 0.  1.
</event>
<event>
 8    1  0.1112171E+005  0.1043930E+01  0.7957747E-01            NaN
         13   -1    0    0    0    0  0.00000000000E+00  0.00000000000E+00  0.74505805969E-08  0.10566000000E+00  0.10566000000E+00 0.  1.
     999900   -1    0    0    0    0 -0.00000000000E+00 -0.00000000000E+00 -0.74505805969E-08  0.93827000000E+00  0.93827000000E+00 0.  1.
     999902    2    1    2    0    0  0.16933239299E-01  0.20531842947E-03 -0.24093977467E-01  0.10144801019E+01  0.10140525532E+01 0.  0.
     999903    2    3    3    0    0  0.69268678073E-01  0.18052914542E-01  0.99599294835E-01  0.12411076254E+00  0.18957962979E-01 0.  0.
         14    1    1    2    0    0 -0.16933239299E-01 -0.20531842947E-03  0.24093977467E-01  0.29449898115E-01  0.00000000000E+00 0.  1.
     999901    1    3    3    0    0 -0.52335438774E-01 -0.17847596113E-01 -0.12369327230E+00  0.89036933935E+00  0.88000000000E+00 0.  1.
        -11    1    4    4    0    0  0.34451870898E-01  0.15881816426E-01  0.63037694408E-01  0.73574285852E-01  0.51100000000E-03 0. -1.
         11    1    4    4    0    0  0.34816807175E-01  0.21710981156E-02  0.36561600428E-01  0.50536476685E-01  0.51100000000E-03 0.  1.
</event>
<event>
 8    1  0.1112171E+005  0.1043930E+01  0.7957747E-01            NaN
         13   -1    0    0    0    0  0.00000000000E+00  0.00000000000E+00  0.74505805969E-08  0.10566000000E+00  0.10566000000E+00 0.  1.
     999900   -1    0    0    0    0 -0.00000000000E+00 -0.00000000000E+00 -0.74505805969E-08  0.93827000000E+00  0.93827000000E+00 0.  1.
     999902    2    1    2    0    0 -0.12502818560E-02 -0.10440551870E-01 -0.20467918603E-01  0.10209190457E+01  0.10206596856E+01 0.  0.
     999903    2    3    3    0    0  0.57026902167E-01 -0.76712867254E-01  0.87175907519E-01  0.12997828260E+00  0.12561191148E-01 0.  0.
         14    1    1    2    0    0  0.12502818560E-02  0.10440551870E-01  0.20467918603E-01  0.23010954348E-01  0.00000000000E+00 0.  1.
     999901    1    3    3    0    0 -0.58277184023E-01  0.66272315384E-01 -0.10764382612E+00  0.89094076305E+00  0.88000000000E+00 0. -1.
        -11    1    4    4    0    0  0.41043860816E-01 -0.57108392974E-01  0.71078699901E-01  0.99992048480E-01  0.51100000000E-03 0. -1.
         11    1    4    4    0    0  0.15983041351E-01 -0.19604474280E-01  0.16097207618E-01  0.29986234121E-01  0.51100000000E-03 0.  1.
</event>
<event>
 8    1  0.1112171E+005  0.1043930E+01  0.7957747E-01            NaN
         13   -1    0    0    0    0  0.00000000000E+00  0.00000000000E+00  0.74505805969E-08  0.10566000000E+00  0.10566000000E+00 0.  1.
     999900   -1    0    0    0    0 -0.00000000000E+00 -0.00000000000E+00 -0.74505805969E-08  0.93827000000E+00  0.93827000000E+00 0.  1.
     999902    2    1    2    0    0  0.16252879161E-01 -0.95604957674E-02 -0.12880255807E-01  0.10210944980E+01  0.10208391224E+01 0.  0.
     999903    2    3    3    0    0  0.11082231984E+00 -0.70619502048E-01  0.12507214073E-01  0.13356077756E+00  0.20331017037E-01 0.  0.
         14    1    1    2    0    0 -0.16252879161E-01  0.95604957674E-02  0.12880255807E-01  0.22835501965E-01  0.00000000000E+00 0.  1.
     999901    1    3    3    0    0 -0.94569440678E-01  0.61059006281E-01 -0.25387469880E-01  0.88753372048E+00  0.88000000000E+00 0. -1.
        -11    1    4    4    0    0  0.68706548724E-01 -0.32447480916E-01  0.10251784627E-01  0.76673261731E-01  0.51100000000E-03 0. -1.
         11    1    4    4    0    0  0.42115771115E-01 -0.38172021132E-01  0.22554294457E-02  0.56887515826E-01  0.51100000000E-03 0.  1.
</event>
<event>
 8    1  0.1112171E+005  0.1043930E+01  0.7957747E-01            NaN
         13   -1    0    0    0    0  0.00000000000E+00  0.00000000000E+00  0.74505805969E-08  0.10566000000E+00  0.10566000000E+00 0. -1.
     999900   -1    0    0    0    0 -0.00000000000E+00 -0.00000000000E+00 -0.74505805969E-08  0.93827000000E+00  0.93827000000E+00 0. -1.
     999902    2    1    2    0    0  0.83067624418E-02  0.14951275488E-01  0.15542396967E-01  0.10208192007E+01  0.10205575591E+01 0.  0.
     999903    2    3    3    0    0  0.12348258152E+00 -0.37308206385E-01  0.18502067957E-01  0.13177179904E+00  0.19535360234E-01 0.  0.
         14    1    1    2    0    0 -0.83067624418E-02 -0.14951275488E-01 -0.15542396967E-01  0.23110799304E-01  0.00000000000E+00 0. -1.
     999901    1    3    3    0    0 -0.11517581908E+00  0.52259481873E-01 -0.29596709907E-02  0.88904740166E+00  0.88000000000E+00 0. -1.
        -11    1    4    4    0    0  0.85723993338E-01 -0.18859228855E-01  0.18691499271E-01  0.89743561400E-01  0.51100000000E-03 0.  1.
         11    1    4    4    0    0  0.37758588184E-01 -0.18448977529E-01 -0.18943131378E-03  0.42028237636E-01  0.51100000000E-03 0. -1.
</event>
<event>
 8    1  0.1112171E+005  0.1043930E+01  0.7957747E-01            NaN
         13   -1    0    0    0    0  0.00000000000E+00  0.00000000000E+00  0.74505805969E-08  0.10566000000E+00  0.10566000000E+00 0. -1.
     999900   -1    0    0    0    0 -0.00000000000E+00 -0.00000000000E+00 -0.74505805969E-08  0.93827000000E+00  0.93827000000E+00 0.  1.
     999902    2    1    2    0    0 -0.13195953920E-01 -0.72910072103E-03 -0.19368673640E-01  0.10204819658E+01  0.10202125427E+01 0.  0.
     999903    2    3    3    0    0 -0.12854527531E+00  0.22915262578E-01 -0.20573241318E-02  0.13247058940E+00  0.22253705505E-01 0.  0.
         14    1    1    2    0    0  0.13195953920E-01  0.72910072103E-03  0.19368673640E-01  0.23448034167E-01  0.00000000000E+00 0. -1.
     999901    1    3    3    0    0  0.11534932139E+00 -0.23644363299E-01 -0.17311349509E-01  0.88801137644E+00  0.88000000000E+00 0. -1.
        -11    1    4    4    0    0 -0.62176235285E-01  0.19919014386E-01  0.59006814595E-02  0.65557078420E-01  0.51100000000E-03 0.  1.
         11    1    4    4    0    0 -0.66369040024E-01  0.29962481922E-02 -0.79580055914E-02  0.66913510975E-01  0.51100000000E-03 0. -1.
</event>
<event>
 8    1  0.1112171E+005  0.1043930E+01  0.7957747E-01            NaN
         13   -1    0    0    0    0  0.00000000000E+00  0.00000000000E+00  0.74505805969E-08  0.10566000000E+00  0.10566000000E+00 0.  1.
     999900   -1    0    0    0    0 -0.00000000000E+00 -0.00000000000E+00 -0.74505805969E-08  0.93827000000E+00  0.93827000000E+00 0.  1.
     999902    2    1    2    0    0 -0.54168269620E-02  0.21270813365E-01  0.91658140326E-02  0.10201434142E+01  0.10198660618E+01 0.  0.
     999903    2    3    3    0    0 -0.18777188120E-01 -0.91124996348E-01  0.87602480042E-01  0.12943379384E+00  0.20556379169E-01 0.  0.
         14    1    1    2    0    0  0.54168269620E-02 -0.21270813365E-01 -0.91658140326E-02  0.23786585766E-01  0.00000000000E+00 0.  1.
     999901    1    3    3    0    0  0.13360361158E-01  0.11239580971E+00 -0.78436666010E-01  0.89070962040E+00  0.88000000000E+00 0.  1.
        -11    1    4    4    0    0 -0.41165909973E-02 -0.10059262050E-01  0.20390632091E-01  0.23112206137E-01  0.51100000000E-03 0. -1.
         11    1    4    4    0    0 -0.14660597123E-01 -0.81065734297E-01  0.67211847951E-01  0.10632158770E+00  0.51100000000E-03 0.  1.
</event>
<event>
 8    1  0.1112171E+005  0.1043930E+01  0.7957747E-01            NaN
         13   -1    0    0    0    0  0.00000000000E+00  0.00000000000E+00  0.74505805969E-08  0.10566000000E+00  0.10566000000E+00 0. -1.
     999900   -1    0    0    0    0 -0.00000000000E+00 -0.00000000000E+00 -0.74505805969E-08  0.93827000000E+00  0.93827000000E+00 0.  1.
     999902    2    1    2    0    0 -0.54485536949E-02  0.26930630538E-01 -0.10988417581E-01  0.10143379247E+01  0.10139061764E+01 0.  0.
     999903    2    3    3    0    0  0.53486677391E-01  0.11314886772E+00 -0.17944444200E-01  0.12813516451E+00  0.20811688607E-01 0.  0.
         14    1    1    2    0    0  0.54485536949E-02 -0.26930630538E-01  0.10988417581E-01  0.29592075282E-01  0.00000000000E+00 0. -1.
     999901    1    3    3    0    0 -0.58935231086E-01 -0.86218237183E-01  0.69560266185E-02  0.88620276020E+00  0.88000000000E+00 0.  1.
        -11    1    4    4    0    0  0.67200962913E-02  0.18839678551E-01  0.44795470944E-02  0.20504161657E-01  0.51100000000E-03 0. -1.
         11    1    4    4    0    0  0.46766581100E-01  0.94309189170E-01 -0.22423991294E-01  0.10763100286E+00  0.51100000000E-03 0.  1.
</event>
<event>
 8    1  0.1112171E+005  0.1043930E+01  0.7957747E-01            NaN
         13   -1    0    0    0    0  0.00000000000E+00  0.00000000000E+00  0.74505805969E-08  0.10566000000E+00  0.10566000000E+00 0. -1.
     999900   -1    0    0    0    0 -0.00000000000E+00 -0.00000000000E+00 -0.74505805969E-08  0.93827000000E+00  0.93827000000E+00 0.  1.
     999902    2    1    2    0    0  0.12933433190E-01 -0.81831429730E-02  0.18319613021E-01  0.10200585580E+01  0.10197791996E+01 0.  0.
     999903    2    3    3    0    0  0.52009471062E-01 -0.77523568009E-01  0.92964615229E-01  0.13331907671E+00  0.20412443596E-01 0.  0.
         14    1    1    2    0    0 -0.12933433190E-01  0.81831429730E-02 -0.18319613021E-01  0.23871442023E-01  0.00000000000E+00 0.  1.
     999901    1    3    3    0    0 -0.39076037872E-01  0.69340425036E-01 -0.74645002208E-01  0.88673948127E+00  0.88000000000E+00 0.  1.
        -11    1    4    4    0    0  0.25357708400E-01 -0.47818964719E-01  0.64993323369E-01  0.84581676300E-01  0.51100000000E-03 0.  1.
         11    1    4    4    0    0  0.26651762661E-01 -0.29704603291E-01  0.27971291860E-01  0.48737400412E-01  0.51100000000E-03 0. -1.
</event>
<event>
 8    1  0.1112171E+005  0.1043930E+01  0.7957747E-01            NaN
         13   -1    0    0    0    0  0.00000000000E+00  0.00000000000E+00  0.74505805969E-08  0.10566000000E+00  0.10566000000E+00 0. -1.
     999900   -1    0    0    0    0 -0.00000000000E+00 -0.00000000000E+00 -0.74505805969E-08  0.93827000000E+00  0.93827000000E+00 0. -1.
     999902    2    1    2    0    0 -0.10977755702E-01 -0.21369338843E-01 -0.29247228819E-02  0.10197284759E+01  0.10194412444E+01 0.  0.
     999903    2    3    3    0    0 -0.36021304715E-01 -0.11328446673E+00  0.55359670298E-01  0.13267005590E+00  0.20143133841E-01 0.  0.
         14    1    1    2    0    0  0.10977755702E-01  0.21369338843E-01  0.29247228819E-02  0.24201524059E-01  0.00000000000E+00 0.  1.
     999901    1    3    3    0    0  0.25043549013E-01  0.91915127885E-01 -0.58284393180E-01  0.88705842004E+00  0.88000000000E+00 0. -1.
        -11    1    4    4    0    0 -0.34394106771E-01 -0.79180843727E-01  0.41987351433E-01  0.95998746843E-01  0.51100000000E-03 0.  1.
         11    1    4    4    0    0 -0.16271979436E-02 -0.34103623001E-01  0.13372318865E-01  0.36671309055E-01  0.51100000000E-03 0. -1.
</event>
<event>
 8    1  0.1112171E+005  0.1043930E+01  0.7957747E-01            NaN
         13   -1    0    0    0    0  0.00000000000E+00  0.00000000000E+00  0.74505805969E-08  0.10566000000E+00  0.10566000000E+00 0.  1.
     999900   -1    0    0    0    0 -0.00000000000E+00 -0.00000000000E+00 -0.74505805969E-08  0.93827000000E+00  0.93827000000E+00 0.  1.
     999902    2    1    2    0    0 -0.70352761755E-02 -0.21831107916E-01  0.25764327576E-02  0.10208490470E+01  0.10205880885E+01 0.  0.
     999903    2    3    3    0    0  0.98231307589E-01  0.27413018794E-01  0.78106771466E-01  0.13000064819E+00  0.19965905711E-01 0.  0.
         14    1    1    2    0    0  0.70352761755E-02  0.21831107916E-01 -0.25764327576E-02  0.23080952958E-01  0.00000000000E+00 0. -1.
     999901    1    3    3    0    0 -0.10526658376E+00 -0.49244126710E-01 -0.75530338708E-01  0.89084839885E+00  0.88000000000E+00 0.  1.
        -11    1    4    4    0    0  0.51790442978E-01  0.68266497943E-02  0.31158868011E-01  0.60827537415E-01  0.51100000000E-03 0. -1.
         11    1    4    4    0    0  0.46440864611E-01  0.20586369000E-01  0.46947903455E-01  0.69173110775E-01  0.51100000000E-03 0.  1.
</event>
<event>
 8    1  0.1112171E+005  0.1043930E+01  0.7957747E-01            NaN
         13   -1    0    0    0    0  0.00000000000E+00  0.00000000000E+00  0.74505805969E-08  0.10566000000E+00  0.10566000000E+00 0.  1.
     999900   -1    0    0    0    0 -0.00000000000E+00 -0.00000000000E+00 -0.74505805969E-08  0.93827000000E+00  0.93827000000E+00 0.  1.
     999902    2    1    2    0    0  0.49057074913E-02  0.69975889666E-02  0.22443461089E-01  0.10199145641E+01  0.10196317849E+01 0.  0.
     999903    2    3    3    0    0  0.76697145252E-01 -0.99384550053E-01 -0.23986117767E-01  0.12939399955E+00  0.20192384575E-01 0.  0.
         14    1    1    2    0    0 -0.49057074913E-02 -0.69975889666E-02 -0.22443461089E-01  0.24015435932E-01  0.00000000000E+00 0. -1.
     999901    1    3    3    0    0 -0.71791437761E-01  0.10638213902E+00  0.46429578855E-01  0.89052056452E+00  0.88000000000E+00 0. -1.
        -11    1    4    4    0    0  0.22517690000E-01 -0.31917532536E-01 -0.16933903134E-01  0.42576912083E-01  0.51100000000E-03 0.  1.
         11    1    4    4    0    0  0.54179455252E-01 -0.67467017517E-01 -0.70522146328E-02  0.86817087467E-01  0.51100000000E-03 0. -1.
</event>
<event>
 8    1  0.1112171E+005  0.1043930E+01  0.7957747E-01            NaN
         13   -1    0    0    0    0  0.00000000000E+00  0.00000000000E+00  0.74505805969E-08  0.10566000000E+00  0.10566000000E+00 0.  1.
     999900   -1    0    0    0    0 -0.00000000000E+00 -0.00000000000E+00 -0.74505805969E-08  0.93827000000E+00  0.93827000000E+00 0. -1.
     999902    2    1    2    0    0 -0.24202281404E-01  0.30376350414E-02 -0.19783065475E-01  0.10125238329E+01  0.10120366421E+01 0.  0.
     999903    2    3    3    0    0 -0.67679583891E-01  0.74913177821E-01  0.69134195007E-01  0.12406300164E+00  0.20483680590E-01 0.  0.
         14    1    1    2    0    0  0.24202281404E-01 -0.30376350414E-02  0.19783065475E-01  0.31406167092E-01  0.00000000000E+00 0.  1.
     999901    1    3    3    0    0  0.43477302487E-01 -0.71875542780E-01 -0.88917260481E-01  0.88846083127E+00  0.88000000000E+00 0. -1.
        -11    1    4    4    0    0 -0.44377369087E-01  0.56184583143E-01  0.38655771900E-01  0.81366996333E-01  0.51100000000E-03 0.  1.
         11    1    4    4    0    0 -0.23302214804E-01  0.18728594678E-01  0.30478423106E-01  0.42696005310E-01  0.51100000000E-03 0. -1.
</event>
<event>
 8    1  0.1112171E+005  0.1043930E+01  0.7957747E-01            NaN
         13   -1    0    0    0    0  0.00000000000E+00  0.00000000000E+00  0.74505805969E-08  0.10566000000E+00  0.10566000000E+00 0.  1.
     999900   -1    0    0    0    0 -0.00000000000E+00 -0.00000000000E+00 -0.74505805969E-08  0.93827000000E+00  0.93827000000E+00 0. -1.
     999902    2    1    2    0    0 -0.20831794482E-01 -0.47242149475E-02  0.58142531967E-02  0.10217920821E+01  0.10215522364E+01 0.  0.
     999903    2    3    3    0    0 -0.21946305475E-01  0.93190761954E-01  0.89294995684E-01  0.13243410064E+00  0.19975893503E-01 0.  0.
         14    1    1    2    0    0  0.20831794482E-01  0.47242149475E-02 -0.58142531967E-02  0.22137917889E-01  0.00000000000E+00 0. -1.
     999901    1    3    3    0    0  0.11145109928E-02 -0.97914976901E-01 -0.83480742487E-01  0.88935798147E+00  0.88000000000E+00 0. -1.
        -11    1    4    4    0    0 -0.24496247363E-02  0.36404533367E-01  0.23714990780E-01  0.43519565941E-01  0.51100000000E-03 0.  1.
         11    1    4    4    0    0 -0.19496680738E-01  0.56786228587E-01  0.65580004904E-01  0.88914534701E-01  0.51100000000E-03 0. -1.
</event>
<event>
 8    1  0.1112171E+005  0.1043930E+01  0.7957747E-01            NaN
         13   -1    0    0    0    0  0.00000000000E+00  0.00000000000E+00  0.74505805969E-08  0.10566000000E+00  0.10566000000E+00 0. -1.
     999900   -1    0    0    0    0 -0.00000000000E+00 -0.00000000000E+00 -0.74505805969E-08  0.93827000000E+00  0.93827000000E+00 0. -1.
     999902    2    1    2    0    0 -0.23309275206E-01  0.70821889580E-02  0.30848290166E-03  0.10195666079E+01  0.10192754746E+01 0.  0.
     999903    2    3    3    0    0 -0.63176531648E-01  0.86216914866E-01  0.74723159467E-01  0.13199168317E+00  0.20337731106E-01 0.  0.
         14    1    1    2    0    0  0.23309275206E-01 -0.70821889580E-02 -0.30848290166E-03  0.24363392062E-01  0.00000000000E+00 0.  1.
     999901    1    3    3    0    0  0.39867256442E-01 -0.79134725908E-01 -0.74414676565E-01  0.88757492476E+00  0.88000000000E+00 0.  1.
        -11    1    4    4    0    0 -0.50769778335E-01  0.78492747069E-01  0.69408131703E-01  0.11643209009E+00  0.51100000000E-03 0. -1.
         11    1    4    4    0    0 -0.12406753312E-01  0.77241677968E-02  0.53150277641E-02  0.15559593087E-01  0.51100000000E-03 0.  1.
</event>
<event>
 8    1  0.1112171E+005  0.1043930E+01  0.7957747E-01            NaN
         13   -1    0    0    0    0  0.00000000000E+00  0.00000000000E+00  0.74505805969E-08  0.10566000000E+00  0.10566000000E+00 0. -1.
     999900   -1    0    0    0    0 -0.00000000000E+00 -0.00000000000E+00 -0.74505805969E-08  0.93827000000E+00  0.93827000000E+00 0. -1.
     999902    2    1    2    0    0  0.58287607317E-02  0.62606313627E-02  0.21575015441E-01  0.10207211386E+01  0.10204572463E+01 0.  0.
     999903    2    3    3    0    0  0.57519503210E-01 -0.21551842915E-01 -0.11144009260E+00  0.12879149700E+00  0.19884171545E-01 0.  0.
         14    1    1    2    0    0 -0.58287607317E-02 -0.62606313627E-02 -0.21575015441E-01  0.23208861412E-01  0.00000000000E+00 0.  1.
     999901    1    3    3    0    0 -0.51690742478E-01  0.27812474278E-01  0.13301510804E+00  0.89192964159E+00  0.88000000000E+00 0.  1.
        -11    1    4    4    0    0  0.23421299287E-02  0.62658802965E-03 -0.17049779017E-01  0.17228878974E-01  0.51100000000E-03 0.  1.
         11    1    4    4    0    0  0.55177373281E-01 -0.22178430945E-01 -0.94390313580E-01  0.11156261802E+00  0.51100000000E-03 0. -1.
</event>
<event>
 8    1  0.1112171E+005  0.1043930E+01  0.7957747E-01            NaN
         13   -1    0    0    0    0  0.00000000000E+00  0.00000000000E+00  0.74505805969E-08  0.10566000000E+00  0.10566000000E+00 0.  1.
     999900   -1    0    0    0    0 -0.00000000000E+00 -0.00000000000E+00 -0.74505805969E-08  0.93827000000E+00  0.93827000000E+00 0. -1.
     999902    2    1    2    0    0  0.13064217129E-03 -0.55404842511E-04 -0.28540682418E-01  0.10153889648E+01  0.10149877631E+01 0.  0.
     999903    2    3    3    0    0  0.15267925588E-01 -0.51148465056E-01  0.10910939923E+00  0.12309574891E+00  0.19960645566E-01 0.  0.
         14    1    1    2    0    0 -0.13064217129E-03  0.55404842511E-04  0.28540682418E-01  0.28541035194E-01  0.00000000000E+00 0.  1.
     999901    1    3    3    0    0 -0.15137283417E-01  0.51093060214E-01 -0.13765008165E+00  0.89229321589E+00  0.88000000000E+00 0. -1.
        -11    1    4    4    0    0  0.68383123810E-02 -0.35811264695E-01  0.53098603252E-01  0.64412203685E-01  0.51100000000E-03 0. -1.
         11    1    4    4    0    0  0.84296132073E-02 -0.15337200361E-01  0.56010795976E-01  0.58683545228E-01  0.51100000000E-03 0.  1.
</event>
<event>
 8    1  0.1112171E+005  0.1043930E+01  0.7957747E-01            NaN
         13   -1    0    0    0    0  0.00000000000E+00  0.00000000000E+00  0.74505805969E-08  0.10566000000E+00  0.10566000000E+00 0.  1.
     999900   -1    0    0    0    0 -0.00000000000E+00 -0.00000000000E+00 -0.74505805969E-08  0.93827000000E+00  0.93827000000E+00 0. -1.
     999902    2    1    2    0    0 -0.72606082274E-02  0.88726285866E-02  0.20635280250E-01  0.10203237559E+01  0.10200506419E+01 0.  0.
     999903    2    3    3    0    0 -0.35774524350E-01  0.65072798005E-01  0.10929366224E+00  0.13362661980E+00  0.19916909409E-01 0.  0.
         14    1    1    2    0    0  0.72606082274E-02 -0.88726285866E-02 -0.20635280250E-01  0.23606244107E-01  0.00000000000E+00 0.  1.
     999901    1    3    3    0    0  0.28513916123E-01 -0.56200169418E-01 -0.88658381993E-01  0.88669713609E+00  0.88000000000E+00 0. -1.
        -11    1    4    4    0    0 -0.17222998217E-01  0.32476356503E-01  0.36877226812E-01  0.52072414748E-01  0.51100000000E-03 0. -1.
         11    1    4    4    0    0 -0.18551526133E-01  0.32596441502E-01  0.72416435431E-01  0.81554205054E-01  0.51100000000E-03 0.  1.
</event>
<event>
 8    1  0.1112171E+005  0.1043930E+01  0.7957747E-01            NaN
         13   -1    0    0    0    0  0.00000000000E+00  0.00000000000E+00  0.74505805969E-08  0.10566000000E+00  0.10566000000E+00 0.  1.
     999900   -1    0    0    0    0 -0.00000000000E+00 -0.00000000000E+00 -0.74505805969E-08  0.93827000000E+00  0.93827000000E+00 0. -1.
     999902    2    1    2    0    0 -0.10266416091E-01 -0.35430445919E-02  0.19309495335E-01  0.10217757888E+01  0.10215355860E+01 0.  0.
     999903    2    3    3    0    0 -0.12991937931E+00 -0.16242181829E-02  0.24226007686E-01  0.13366279733E+00  0.19928891997E-01 0.  0.
         14    1    1    2    0    0  0.10266416091E-01  0.35430445919E-02 -0.19309495335E-01  0.22154211212E-01  0.00000000000E+00 0.  1.
     999901    1    3    3    0    0  0.11965296322E+00 -0.19188264091E-02 -0.49165123514E-02  0.88811299146E+00  0.88000000000E+00 0.  1.
        -11    1    4    4    0    0 -0.27260926674E-01  0.73828340729E-02  0.26260532699E-02  0.28369378542E-01  0.51100000000E-03 0.  1.
         11    1    4    4    0    0 -0.10265845264E+00 -0.90070522558E-02  0.21599954416E-01  0.10529341879E+00  0.51100000000E-03 0. -1.
</event>
<event>
 8    1  0.1112171E+005  0.1043930E+01  0.7957747E-01            NaN
         13   -1    0    0    0    0  0.00000000000E+00  0.00000000000E+00  0.74505805969E-08  0.10566000000E+00  0.10566000000E+00 0.  1.
     999900   -1    0    0    0    0 -0.00000000000E+00 -0.00000000000E+00 -0.74505805969E-08  0.93827000000E+00  0.93827000000E+00 0. -1.
     999902    2    1    2    0    0  0.36277454259E-03  0.16175341365E-01 -0.16248739851E-01  0.10209997837E+01  0.10207422610E+01 0.  0.
     999903    2    3    3    0    0 -0.44860005146E-01 -0.10958821599E+00 -0.50274555000E-01  0.13025889641E+00  0.20441430182E-01 0.  0.
         14    1    1    2    0    0 -0.36277454259E-03 -0.16175341365E-01  0.16248739851E-01  0.22930216318E-01  0.00000000000E+00 0.  1.
     999901    1    3    3    0    0  0.45222779689E-01  0.12576355736E+00  0.34025815149E-01  0.89074088727E+00  0.88000000000E+00 0.  1.
        -11    1    4    4    0    0 -0.30873566536E-01 -0.64404971515E-01 -0.20273992749E-01  0.74246032686E-01  0.51100000000E-03 0. -1.
         11    1    4    4    0    0 -0.13986438611E-01 -0.45183244475E-01 -0.30000562251E-01  0.56012863725E-01  0.51100000000E-03 0.  1.
</event>
<event>
 8    1  0.1112171E+005  0.1043930E+01  0.7957747E-01            NaN
         13   -1    0    0    0    0  0.00000000000E+00  0.00000000000E+00  0.74505805969E-08  0.10566000000E+00  0.10566000000E+00 0. -1.
     999900   -1    0    0    0    0 -0.00000000000E+00 -0.00000000000E+00 -0.74505805969E-08  0.93827000000E+00  0.93827000000E+00 0.  1.
     999902    2    1    2    0    0  0.17744588714E-01 -0.70735505361E-02 -0.12102949292E-01  0.10213161342E+01  0.10210657467E+01 0.  0.
     999903    2    3    3    0    0  0.96789083419E-01 -0.47381428083E-01  0.74560965485E-01  0.13261855274E+00  0.20376863349E-01 0.  0.
         14    1    1    2    0    0 -0.17744588714E-01  0.70735505361E-02  0.12102949292E-01  0.22613865821E-01  0.00000000000E+00 0. -1.
     999901    1    3    3    0    0 -0.79044494705E-01  0.40307877546E-01 -0.86663914777E-01  0.88869758144E+00  0.88000000000E+00 0.  1.
        -11    1    4    4    0    0  0.32992001199E-01 -0.24121201327E-01  0.36355288794E-01  0.54701669452E-01  0.51100000000E-03 0. -1.
         11    1    4    4    0    0  0.63797082220E-01 -0.23260226756E-01  0.38205676691E-01  0.77916883285E-01  0.51100000000E-03 0.  1.
</event>
<event>
 8    1  0.1112171E+005  0.1043930E+01  0.7957747E-01            NaN
         13   -1    0    0    0    0  0.00000000000E+00  0.00000000000E+00  0.74505805969E-08  0.10566000000E+00  0.10566000000E+00 0.  1.
     999900   -1    0    0    0    0 -0.00000000000E+00 -0.00000000000E+00 -0.74505805969E-08  0.93827000000E+00  0.93827000000E+00 0. -1.
     999902    2    1    2    0    0 -0.13540206926E-01 -0.19860398125E-03  0.18876497105E-01  0.10206985818E+01  0.10204341704E+01 0.  0.
     999903    2    3    3    0    0 -0.44341978254E-01 -0.12054636754E+00  0.19975132649E-01  0.13197278592E+00  0.22807291326E-01 0.  0.
         14    1    1    2    0    0  0.13540206926E-01  0.19860398125E-03 -0.18876497105E-01  0.23231418168E-01  0.00000000000E+00 0. -1.
     999901    1    3    3    0    0  0.30801771328E-01  0.12034776356E+00 -0.10986355433E-02  0.88872579591E+00  0.88000000000E+00 0. -1.
        -11    1    4    4    0    0 -0.26836759243E-01 -0.96219829479E-01  0.10050499310E-01  0.10039791277E+00  0.51100000000E-03 0.  1.
         11    1    4    4    0    0 -0.17505219011E-01 -0.24326538062E-01  0.99246333383E-02  0.31574873152E-01  0.51100000000E-03 0. -1.
</event>
<event>
 8    1  0.1112171E+005  0.1043930E+01  0.7957747E-01            NaN
         13   -1    0    0    0    0  0.00000000000E+00  0.00000000000E+00  0.74505805969E-08  0.10566000000E+00  0.10566000000E+00 0.  1.
     999900   -1    0    0    0    0 -0.00000000000E+00 -0.00000000000E+00 -0.74505805969E-08  0.93827000000E+00  0.93827000000E+00 0.  1.
     999902    2    1    2    0    0  0.40981280894E-02  0.21327631380E-01  0.89002969236E-02  0.10204592139E+01  0.10201892616E+01 0.  0.
     999903    2    3    3    0    0 -0.10168398167E+00 -0.31738869471E-02 -0.77601856981E-01  0.12957605560E+00  0.20449945980E-01 0.  0.
         14    1    1    2    0    0 -0.40981280894E-02 -0.21327631380E-01 -0.89002969236E-02  0.23470786085E-01  0.00000000000E+00 0. -1.
     999901    1    3    3    0    0  0.10578210976E+00  0.24501518327E-01  0.86502153905E-01  0.89088315832E+00  0.88000000000E+00 0. -1.
        -11    1    4    4    0    0 -0.57964860775E-01 -0.76380197644E-03 -0.31437459379E-01  0.65947581088E-01  0.51100000000E-03 0. -1.
         11    1    4    4    0    0 -0.43719120894E-01 -0.24100849706E-02 -0.46164397602E-01  0.63628474508E-01  0.51100000000E-03 0.  1.
</event>
<event>
 8    1  0.1112171E+005  0.1043930E+01  0.7957747E-01            NaN
         13   -1    0    0    0    0  0.00000000000E+00  0.00000000000E+00  0.74505805969E-08  0.10566000000E+00  0.10566000000E+00 0.  1.
     999900   -1    0    0    0    0 -0.00000000000E+00 -0.00000000000E+00 -0.74505805969E-08  0.93827000000E+00  0.93827000000E+00 0.  1.
     999902    2    1    2    0    0 -0.20830505170E-01 -0.10031768502E-01 -0.19838701225E-02  0.10207247837E+01  0.10204609752E+01 0.  0.
     999903    2    3    3    0    0 -0.31460996080E-01  0.29506423829E-01 -0.12302363720E+00  0.13149652207E+00  0.17207460125E-01 0.  0.
         14    1    1    2    0    0  0.20830505170E-01  0.10031768502E-01  0.19838701225E-02  0.23205216344E-01  0.00000000000E+00 0.  1.
     999901    1    3    3    0    0  0.10630490911E-01 -0.39538192331E-01  0.12103976708E+00  0.88922826159E+00  0.88000000000E+00 0. -1.
        -11    1    4    4    0    0 -0.23343213755E-01  0.22241958961E-01 -0.66206009569E-01  0.73641748967E-01  0.51100000000E-03 0.  1.
         11    1    4    4    0    0 -0.81177823251E-02  0.72644648674E-02 -0.56817627634E-01  0.57854773102E-01  0.51100000000E-03 0. -1.
</event>
<event>
 8    1  0.1112171E+005  0.1043930E+01  0.7957747E-01            NaN
         13   -1    0    0    0    0  0.00000000000E+00  0.00000000000E+00  0.74505805969E-08  0.10566000000E+00  0.10566000000E+00 0. -1.
     999900   -1    0    0    0    0 -0.00000000000E+00 -0.00000000000E+00 -0.74505805969E-08  0.93827000000E+00  0.93827000000E+00 0. -1.
     999902    2    1    2    0    0  0.11580505429E-01 -0.19980623091E-01 -0.40461985491E-02  0.10204842087E+01  0.10202148377E+01 0.  0.
     999903    2    3    3    0    0  0.93248604872E-01 -0.39133965588E-01  0.82785111433E-01  0.13224088319E+00  0.20186801092E-01 0.  0.
         14    1    1    2    0    0 -0.11580505429E-01  0.19980623091E-01  0.40461985491E-02  0.23445791259E-01  0.00000000000E+00 0. -1.
     999901    1    3    3    0    0 -0.81668099443E-01  0.19153342497E-01 -0.86831309982E-01  0.88824332555E+00  0.88000000000E+00 0.  1.
        -11    1    4    4    0    0  0.13647569191E-01  0.11036929614E-02  0.14140632130E-01  0.19689918258E-01  0.51100000000E-03 0. -1.
         11    1    4    4    0    0  0.79601035680E-01 -0.40237658549E-01  0.68644479303E-01  0.11255096493E+00  0.51100000000E-03 0.  1.
</event>
<event>
 8    1  0.1112171E+005  0.1043930E+01  0.7957747E-01            NaN
         13   -1    0    0    0    0  0.00000000000E+00  0.00000000000E+00  0.74505805969E-08  0.10566000000E+00  0.10566000000E+00 0. -1.
     999900   -1    0    0    0    0 -0.00000000000E+00 -0.00000000000E+00 -0.74505805969E-08  0.93827000000E+00  0.93827000000E+00 0.  1.
     999902    2    1    2    0    0 -0.94720971879E-02 -0.22182215028E-01  0.60297187433E-02  0.10190678039E+01  0.10187644772E+01 0.  0.
     999903    2    3    3    0    0  0.89071529936E-01 -0.85321773841E-01 -0.36758689475E-01  0.13028869845E+00  0.20258360154E-01 0.  0.
         14    1    1    2    0    0  0.94720971879E-02  0.22182215028E-01 -0.60297187433E-02  0.24862196138E-01  0.00000000000E+00 0.  1.
     999901    1    3    3    0    0 -0.98543627124E-01  0.63139558813E-01  0.42788408218E-01  0.88877910541E+00  0.88000000000E+00 0.  1.
        -11    1    4    4    0    0  0.57012242483E-01 -0.65521101625E-01 -0.20466527638E-01  0.89233124038E-01  0.51100000000E-03 0.  1.
         11    1    4    4    0    0  0.32059287453E-01 -0.19800672216E-01 -0.16292161836E-01  0.41055574415E-01  0.51100000000E-03 0. -1.
</event>
<event>
 8    1  0.1112171E+005  0.1043930E+01  0.7957747E-01            NaN
         13   -1    0    0    0    0  0.00000000000E+00  0.00000000000E+00  0.74505805969E-08  0.10566000000E+00  0.10566000000E+00 0. -1.
     999900   -1    0    0    0    0 -0.00000000000E+00 -0.00000000000E+00 -0.74505805969E-08  0.93827000000E+00  0.93827000000E+00 0.  1.
     999902    2    1    2    0    0  0.17395379280E-01  0.64423092602E-02 -0.11596158251E-01  0.10220536782E+01  0.10218195279E+01 0.  0.
     999903    2    3    3    0    0 -0.59931747930E-01 -0.11292372496E+00  0.16684566512E-01  0.13018623620E+00  0.18069290694E-01 0.  0.
         14    1    1    2    0    0 -0.17395379280E-01 -0.64423092602E-02  0.11596158251E-01  0.21876321791E-01  0.00000000000E+00 0. -1.
     999901    1    3    3    0    0  0.77327127210E-01  0.11936603422E+00 -0.28280724763E-01  0.89186744201E+00  0.88000000000E+00 0. -1.
        -11    1    4    4    0    0 -0.19429022367E-01 -0.50447925715E-01  0.87968951944E-03  0.54069539426E-01  0.51100000000E-03 0.  1.
         11    1    4    4    0    0 -0.40502725563E-01 -0.62475799247E-01  0.15804876992E-01  0.76116696771E-01  0.51100000000E-03 0. -1.
</event>
<event>
 8    1  0.1112171E+005  0.1043930E+01  0.7957747E-01            NaN
         13   -1    0    0    0    0  0.00000000000E+00  0.00000000000E+00  0.74505805969E-08  0.10566000000E+00  0.10566000000E+00 0.  1.
     999900   -1    0    0    0    0 -0.00000000000E+00 -0.00000000000E+00 -0.74505805969E-08  0.93827000000E+00  0.93827000000E+00 0. -1.
     999902    2    1    2    0    0 -0.10643320851E-01  0.15471409365E-01 -0.15928482311E-01  0.10193055947E+01  0.10190081129E+01 0.  0.
     999903    2    3    3    0    0  0.12262239020E+00  0.53157959314E-02 -0.34807829276E-01  0.12901389198E+00  0.19196121521E-01 0.  0.
         14    1    1    2    0    0  0.10643320851E-01 -0.15471409365E-01  0.15928482311E-01  0.24624405276E-01  0.00000000000E+00 0.  1.
     999901    1    3    3    0    0 -0.13326571105E+00  0.10155613434E-01  0.18879346965E-01  0.89029170274E+00  0.88000000000E+00 0. -1.
        -11    1    4    4    0    0  0.10380732915E+00 -0.26856608340E-04 -0.23570505798E-01  0.10645089089E+00  0.51100000000E-03 0.  1.
         11    1    4    4    0    0  0.18815061048E-01  0.53426525397E-02 -0.11237323479E-01  0.22563001094E-01  0.51100000000E-03 0. -1.
</event>
<event>
 8    1  0.1445018E+005  0.1043930E+01  0.7957747E-01            NaN
         13   -1    0    0    0    0  0.00000000000E+00  0.00000000000E+00  0.74505805969E-08  0.10566000000E+00  0.10566000000E+00 0. -1.
     999900   -1    0    0    0    0 -0.00000000000E+00 -0.00000000000E+00 -0.74505805969E-08  0.93827000000E+00  0.93827000000E+00 0. -1.
     999902    2    1    2    0    0 -0.82189872478E-02 -0.21703360702E-01 -0.47693453684E-02  0.10202375060E+01  0.10199623691E+01 0.  0.
     999903    2    3    3    0    0 -0.25538775294E-01  0.13462384842E-01 -0.12625692545E+00  0.13102671162E+00  0.19842456582E-01 0.  0.
         14    1    1    2    0    0  0.82189872478E-02  0.21703360702E-01  0.47693453684E-02  0.23692494010E-01  0.00000000000E+00 0. -1.
     999901    1    3    3    0    0  0.17319788047E-01 -0.35165745544E-01  0.12148758008E+00  0.88921079437E+00  0.88000000000E+00 0.  1.
        -11    1    4    4    0    0 -0.16782035908E-01  0.15281103775E-01 -0.59723677235E-01  0.63893095130E-01  0.51100000000E-03 0. -1.
         11    1    4    4    0    0 -0.87567393867E-02 -0.18187189332E-02 -0.66533248216E-01  0.67133616486E-01  0.51100000000E-03 0.  1.
</event>
<event>
 8    1  0.1112171E+005  0.1043930E+01  0.7957747E-01            NaN
         13   -1    0    0    0    0  0.00000000000E+00  0.00000000000E+00  0.74505805969E-08  0.10566000000E+00  0.10566000000E+00 0.  1.
     999900   -1    0    0    0    0 -0.00000000000E+00 -0.00000000000E+00 -0.74505805969E-08  0.93827000000E+00  0.93827000000E+00 0.  1.
     999902    2    1    2    0    0  0.21269356087E-01  0.10440701751E-01  0.49658906233E-02  0.10197214513E+01  0.10194340510E+01 0.  0.
     999903    2    3    3    0    0 -0.29205987267E-02 -0.10736454825E+00  0.69367506684E-01  0.12920991346E+00  0.18646035341E-01 0.  0.
         14    1    1    2    0    0 -0.21269356087E-01 -0.10440701751E-01 -0.49658906233E-02  0.24208548719E-01  0.00000000000E+00 0. -1.
     999901    1    3    3    0    0  0.24189954814E-01  0.11780525000E+00 -0.64401616061E-01  0.89051153782E+00  0.88000000000E+00 0. -1.
        -11    1    4    4    0    0  0.10091190977E-02 -0.76746699425E-01  0.39792946180E-01  0.86457005967E-01  0.51100000000E-03 0.  1.
         11    1    4    4    0    0 -0.39297178244E-02 -0.30617848828E-01  0.29574560504E-01  0.42752907492E-01  0.51100000000E-03 0. -1.
</event>
<event>
 8    1  0.1112171E+005  0.1043930E+01  0.7957747E-01            NaN
         13   -1    0    0    0    0  0.00000000000E+00  0.00000000000E+00  0.74505805969E-08  0.10566000000E+00  0.10566000000E+00 0.  1.
     999900   -1    0    0    0    0 -0.00000000000E+00 -0.00000000000E+00 -0.74505805969E-08  0.93827000000E+00  0.93827000000E+00 0. -1.
     999902    2    1    2    0    0 -0.56276463657E-02  0.12095416855E-01  0.19949497563E-01  0.10199310007E+01  0.10196486132E+01 0.  0.
     999903    2    3    3    0    0 -0.52707086698E-01 -0.10072274491E+00  0.61461079724E-01  0.13051117705E+00  0.18237178592E-01 0.  0.
         14    1    1    2    0    0  0.56276463657E-02 -0.12095416855E-01 -0.19949497563E-01  0.23998999261E-01  0.00000000000E+00 0.  1.
     999901    1    3    3    0    0  0.47079440333E-01  0.11281816176E+00 -0.41511582161E-01  0.88941982369E+00  0.88000000000E+00 0.  1.
        -11    1    4    4    0    0 -0.43960479859E-02 -0.24097460118E-01  0.11558296199E-01  0.27090000998E-01  0.51100000000E-03 0.  1.
         11    1    4    4    0    0 -0.48311038712E-01 -0.76625284790E-01  0.49902783524E-01  0.10342117605E+00  0.51100000000E-03 0. -1.
</event>
<event>
 8    1  0.1112171E+005  0.1043930E+01  0.7957747E-01            NaN
         13   -1    0    0    0    0  0.00000000000E+00  0.00000000000E+00  0.74505805969E-08  0.10566000000E+00  0.10566000000E+00 0.  1.
     999900   -1    0    0    0    0 -0.00000000000E+00 -0.00000000000E+00 -0.74505805969E-08  0.93827000000E+00  0.93827000000E+00 0.  1.
     999902    2    1    2    0    0 -0.87935913965E-02 -0.21630080483E-01 -0.30277242918E-02  0.10203852608E+01  0.10201135847E+01 0.  0.
     999903    2    3    3    0    0  0.41363211279E-01  0.71569458967E-01  0.96416761669E-01  0.12848220280E+00  0.19452038516E-01 0.  0.
         14    1    1    2    0    0  0.87935913965E-02  0.21630080483E-01  0.30277242918E-02  0.23544739237E-01  0.00000000000E+00 0.  1.
     999901    1    3    3    0    0 -0.50156802676E-01 -0.93199539450E-01 -0.99444485961E-01  0.89190305796E+00  0.88000000000E+00 0.  1.
        -11    1    4    4    0    0  0.30230880472E-01  0.40910899490E-01  0.46936118829E-01  0.69216097860E-01  0.51100000000E-03 0. -1.
         11    1    4    4    0    0  0.11132330808E-01  0.30658559477E-01  0.49480642840E-01  0.59266104944E-01  0.51100000000E-03 0.  1.
</event>
<event>
 8    1  0.1112171E+005  0.1043930E+01  0.7957747E-01            NaN
         13   -1    0    0    0    0  0.00000000000E+00  0.00000000000E+00  0.74505805969E-08  0.10566000000E+00  0.10566000000E+00 0. -1.
     999900   -1    0    0    0    0 -0.00000000000E+00 -0.00000000000E+00 -0.74505805969E-08  0.93827000000E+00  0.93827000000E+00 0.  1.
     999902    2    1    2    0    0  0.13979811337E-01  0.10522299850E-01 -0.11779158265E-01  0.10228372883E+01  0.10226197806E+01 0.  0.
     999903    2    3    3    0    0  0.26029492271E-01 -0.11092257005E+00 -0.65200914562E-01  0.13281035873E+00  0.20151454377E-01 0.  0.
         14    1    1    2    0    0 -0.13979811337E-01 -0.10522299850E-01  0.11779158265E-01  0.21092711741E-01  0.00000000000E+00 0.  1.
     999901    1    3    3    0    0 -0.12049680934E-01  0.12144486990E+00  0.53421756297E-01  0.89002692953E+00  0.88000000000E+00 0. -1.
        -11    1    4    4    0    0  0.28900501013E-01 -0.10141773339E+00 -0.56719372877E-01  0.11974198923E+00  0.51100000000E-03 0. -1.
         11    1    4    4    0    0 -0.28710087420E-02 -0.95048366591E-02 -0.84815416855E-02  0.13068369503E-01  0.51100000000E-03 0.  1.
</event>
<event>
 8    1  0.1112171E+005  0.1043930E+01  0.7957747E-01            NaN
         13   -1    0    0    0    0  0.00000000000E+00  0.00000000000E+00  0.74505805969E-08  0.10566000000E+00  0.10566000000E+00 0. -1.
     999900   -1    0    0    0    0 -0.00000000000E+00 -0.00000000000E+00 -0.74505805969E-08  0.93827000000E+00  0.93827000000E+00 0.  1.
     999902    2    1    2    0    0  0.22666675584E-01  0.30179588682E-02  0.12395821702E-01  0.10179195665E+01  0.10175871958E+01 0.  0.
     999903    2    3    3    0    0 -0.10437680624E+00 -0.15666965512E-02  0.69344887654E-01  0.12696263065E+00  0.20342662533E-01 0.  0.
         14    1    1    2    0    0 -0.22666675584E-01 -0.30179588682E-02 -0.12395821702E-01  0.26010433549E-01  0.00000000000E+00 0. -1.
     999901    1    3    3    0    0  0.12704348182E+00  0.45846554194E-02 -0.56949065952E-01  0.89095693580E+00  0.88000000000E+00 0.  1.
        -11    1    4    4    0    0 -0.47055541514E-01  0.23294685132E-02  0.42870438417E-01  0.63700753699E-01  0.51100000000E-03 0.  1.
         11    1    4    4    0    0 -0.57321264726E-01 -0.38961650644E-02  0.26474449236E-01  0.63261876951E-01  0.51100000000E-03 0. -1.
</event>
<event>
 8    1  0.1112171E+005  0.1043930E+01  0.7957747E-01            NaN
         13   -1    0    0    0    0  0.00000000000E+00  0.00000000000E+00  0.74505805969E-08  0.10566000000E+00  0.10566000000E+00 0. -1.
     999900   -1    0    0    0    0 -0.00000000000E+00 -0.00000000000E+00 -0.74505805969E-08  0.93827000000E+00  0.93827000000E+00 0. -1.
     999902    2    1    2    0    0 -0.19188129776E-01  0.53219976925E-02 -0.13341471138E-01  0.10199612112E+01  0.10196795426E+01 0.  0.
     999903    2    3    3    0    0  0.71432857506E-01 -0.26613833756E-02 -0.10704639980E+00  0.13032279513E+00  0.20380459471E-01 0.  0.
         14    1    1    2    0    0  0.19188129776E-01 -0.53219976925E-02  0.13341471138E-01  0.23968788786E-01  0.00000000000E+00 0. -1.
     999901    1    3    3    0    0 -0.90620987282E-01  0.79833810682E-02  0.93704928664E-01  0.88963841608E+00  0.88000000000E+00 0.  1.
        -11    1    4    4    0    0  0.61533360137E-02  0.57245058902E-02 -0.14317153561E-01  0.16609500861E-01  0.51100000000E-03 0. -1.
         11    1    4    4    0    0  0.65279521493E-01 -0.83858892658E-02 -0.92729246240E-01  0.11371329427E+00  0.51100000000E-03 0.  1.
</event>
<event>
 8    1  0.1112171E+005  0.1043930E+01  0.7957747E-01            NaN
         13   -1    0    0    0    0  0.00000000000E+00  0.00000000000E+00  0.74505805969E-08  0.10566000000E+00  0.10566000000E+00 0. -1.
     999900   -1    0    0    0    0 -0.00000000000E+00 -0.00000000000E+00 -0.74505805969E-08  0.93827000000E+00  0.93827000000E+00 0.  1.
     999902    2    1    2    0    0  0.61814839009E-02  0.57130254580E-02 -0.22011858274E-01  0.10203636828E+01  0.10200915027E+01 0.  0.
     999903    2    3    3    0    0 -0.95547208854E-02 -0.71722413946E-01 -0.10917169890E+00  0.13253446877E+00  0.20286158267E-01 0.  0.
         14    1    1    2    0    0 -0.61814839009E-02 -0.57130254580E-02  0.22011858274E-01  0.23566317230E-01  0.00000000000E+00 0. -1.
     999901    1    3    3    0    0  0.15736204786E-01  0.77435439404E-01  0.87159840628E-01  0.88782921400E+00  0.88000000000E+00 0. -1.
        -11    1    4    4    0    0  0.30293284866E-02 -0.39610977850E-01 -0.48013241443E-01  0.62319650771E-01  0.51100000000E-03 0.  1.
         11    1    4    4    0    0 -0.12584049372E-01 -0.32111436095E-01 -0.61158457459E-01  0.70214817998E-01  0.51100000000E-03 0. -1.
</event>
<event>
 8    1  0.1112171E+005  0.1043930E+01  0.7957747E-01            NaN
         13   -1    0    0    0    0  0.00000000000E+00  0.00000000000E+00  0.74505805969E-08  0.10566000000E+00  0.10566000000E+00 0.  1.
     999900   -1    0    0    0    0 -0.00000000000E+00 -0.00000000000E+00 -0.74505805969E-08  0.93827000000E+00  0.93827000000E+00 0. -1.
     999902    2    1    2    0    0 -0.89586592099E-02 -0.82639171378E-02  0.24798443884E-01  0.10162982661E+01  0.10159225624E+01 0.  0.
     999903    2    3    3    0    0 -0.10782958834E+00 -0.63627680495E-01 -0.14624978591E-01  0.12815705366E+00  0.23122252436E-01 0.  0.
         14    1    1    2    0    0  0.89586592099E-02  0.82639171378E-02 -0.24798443884E-01  0.27631733937E-01  0.00000000000E+00 0. -1.
     999901    1    3    3    0    0  0.98870929133E-01  0.55363763357E-01  0.39423422476E-01  0.88814121240E+00  0.88000000000E+00 0.  1.
        -11    1    4    4    0    0 -0.40939364972E-01 -0.17679925425E-01  0.43718603533E-02  0.44810552901E-01  0.51100000000E-03 0.  1.
         11    1    4    4    0    0 -0.66890223371E-01 -0.45947755071E-01 -0.18996838944E-01  0.83346500764E-01  0.51100000000E-03 0. -1.
</event>
<event>
 7    1  0.1112171E+005  0.1043930E+01  0.7957747E-01            NaN
         13   -1    0    0    0    0  0.00000000000E+00  0.00000000000E+00  0.74505805969E-08  0.10566000000E+00  0.10566000000E+00 0. -1.
     999900   -1    0    0    0    0 -0.00000000000E+00 -0.00000000000E+00 -0.74505805969E-08  0.93827000000E+00  0.93827000000E+00 0.  1.
     999903    2    1    2    0    0  0.96855463946E-01 -0.88185429827E-03  0.45928137045E-01  0.10955141142E+00  0.22591135601E-01 0.  0.
         14    1    1    2    0    0 -0.94665745840E-03 -0.46627192533E-01 -0.56666755131E-02  0.46979809017E-01  0.00000000000E+00 0. -1.
     999901    1    1    2    0    0 -0.95908806487E-01  0.47509046831E-01 -0.40261461532E-01  0.88739877957E+00  0.88000000000E+00 0.  1.
        -11    1    3    3    0    0  0.78317601552E-02  0.62213301147E-02  0.64092262912E-02  0.11890362407E-01  0.51100000000E-03 0.  1.
         11    1    3    3    0    0  0.89023703791E-01 -0.71031844129E-02  0.39518910754E-01  0.97661049009E-01  0.51100000000E-03 0. -1.
</event>
<event>
 8    1  0.1112171E+005  0.1043930E+01  0.7957747E-01            NaN
         13   -1    0    0    0    0  0.00000000000E+00  0.00000000000E+00  0.74505805969E-08  0.10566000000E+00  0.10566000000E+00 0. -1.
     999900   -1    0    0    0    0 -0.00000000000E+00 -0.00000000000E+00 -0.74505805969E-08  0.93827000000E+00  0.93827000000E+00 0.  1.
     999902    2    1    2    0    0  0.18743930317E-01 -0.14788959129E-01 -0.48230571236E-02  0.10195720420E+01  0.10192810401E+01 0.  0.
     999903    2    3    3    0    0 -0.73906798275E-01  0.39033697286E-01 -0.94136248438E-01  0.12858501520E+00  0.26203597267E-01 0.  0.
         14    1    1    2    0    0 -0.18743930317E-01  0.14788959129E-01  0.48230571236E-02  0.24357957958E-01  0.00000000000E+00 0.  1.
     999901    1    3    3    0    0  0.92650728592E-01 -0.53822656415E-01  0.89313191315E-01  0.89098702684E+00  0.88000000000E+00 0. -1.
        -11    1    4    4    0    0 -0.35372907018E-01  0.32826754363E-01 -0.57278426471E-01  0.74899383261E-01  0.51100000000E-03 0.  1.
         11    1    4    4    0    0 -0.38533891257E-01  0.62069429228E-02 -0.36857821967E-01  0.53685631942E-01  0.51100000000E-03 0. -1.
</event>
<event>
 8    1  0.1112171E+005  0.1043930E+01  0.7957747E-01            NaN
         13   -1    0    0    0    0  0.00000000000E+00  0.00000000000E+00  0.74505805969E-08  0.10566000000E+00  0.10566000000E+00 0. -1.
     999900   -1    0    0    0    0 -0.00000000000E+00 -0.00000000000E+00 -0.74505805969E-08  0.93827000000E+00  0.93827000000E+00 0.  1.
     999902    2    1    2    0    0  0.15923972661E-01  0.18370293811E-01  0.52508337309E-03  0.10196130036E+01  0.10193229914E+01 0.  0.
     999903    2    3    3    0    0  0.34750366297E-01 -0.11685891129E+00 -0.34924472756E-01  0.12837900403E+00  0.19946347369E-01 0.  0.
         14    1    1    2    0    0 -0.15923972661E-01 -0.18370293811E-01 -0.52508337309E-03  0.24316996372E-01  0.00000000000E+00 0.  1.
     999901    1    3    3    0    0 -0.18826393636E-01  0.13522920510E+00  0.35449556129E-01  0.89123399960E+00  0.88000000000E+00 0.  1.
        -11    1    4    4    0    0  0.17072435606E-01 -0.31875804959E-01 -0.47194045308E-02  0.36470109672E-01  0.51100000000E-03 0. -1.
         11    1    4    4    0    0  0.17677930691E-01 -0.84983106328E-01 -0.30205068225E-01  0.91908894359E-01  0.51100000000E-03 0.  1.
</event>
<event>
 8    1  0.1112171E+005  0.1043930E+01  0.7957747E-01            NaN
         13   -1    0    0    0    0  0.00000000000E+00  0.00000000000E+00  0.74505805969E-08  0.10566000000E+00  0.10566000000E+00 0.  1.
     999900   -1    0    0    0    0 -0.00000000000E+00 -0.00000000000E+00 -0.74505805969E-08  0.93827000000E+00  0.93827000000E+00 0. -1.
     999902    2    1    2    0    0  0.14913544369E-01 -0.42047547051E-02  0.16611486336E-01  0.10212135908E+01  0.10209609017E+01 0.  0.
     999903    2    3    3    0    0 -0.80382054929E-01  0.90039979089E-01 -0.41450477489E-01  0.12917406662E+00  0.19983113214E-01 0.  0.
         14    1    1    2    0    0 -0.14913544369E-01  0.42047547051E-02 -0.16611486336E-01  0.22716409181E-01  0.00000000000E+00 0. -1.
     999901    1    3    3    0    0  0.95295599298E-01 -0.94244733794E-01  0.58061963825E-01  0.89203952420E+00  0.88000000000E+00 0.  1.
        -11    1    4    4    0    0 -0.74281872308E-01  0.73528036290E-01 -0.32742458500E-01  0.10952852772E+00  0.51100000000E-03 0. -1.
         11    1    4    4    0    0 -0.61001826205E-02  0.16511942798E-01 -0.87080189889E-02  0.19645538901E-01  0.51100000000E-03 0.  1.
</event>
<event>
 8    1  0.1112171E+005  0.1043930E+01  0.7957747E-01            NaN
         13   -1    0    0    0    0  0.00000000000E+00  0.00000000000E+00  0.74505805969E-08  0.10566000000E+00  0.10566000000E+00 0. -1.
     999900   -1    0    0    0    0 -0.00000000000E+00 -0.00000000000E+00 -0.74505805969E-08  0.93827000000E+00  0.93827000000E+00 0.  1.
     999902    2    1    2    0    0  0.18330668521E-01  0.54826193757E-03 -0.19895890622E-01  0.10168715362E+01  0.10165114661E+01 0.  0.
     999903    2    3    3    0    0 -0.69001767055E-01 -0.52720770527E-01 -0.92022594567E-01  0.12801451421E+00  0.19463669623E-01 0.  0.
         14    1    1    2    0    0 -0.18330668521E-01 -0.54826193757E-03  0.19895890622E-01  0.27058463800E-01  0.00000000000E+00 0. -1.
     999901    1    3    3    0    0  0.87332435576E-01  0.53269032465E-01  0.72126703945E-01  0.88885702199E+00  0.88000000000E+00 0. -1.
        -11    1    4    4    0    0 -0.34044520702E-01 -0.37872922708E-01 -0.55395057107E-01  0.75247997562E-01  0.51100000000E-03 0.  1.
         11    1    4    4    0    0 -0.34957246353E-01 -0.14847847819E-01 -0.36627537460E-01  0.52766516645E-01  0.51100000000E-03 0. -1.
</event>
<event>
 8    1  0.1112171E+005  0.1043930E+01  0.7957747E-01            NaN
         13   -1    0    0    0    0  0.00000000000E+00  0.00000000000E+00  0.74505805969E-08  0.10566000000E+00  0.10566000000E+00 0. -1.
     999900   -1    0    0    0    0 -0.00000000000E+00 -0.00000000000E+00 -0.74505805969E-08  0.93827000000E+00  0.93827000000E+00 0.  1.
     999902    2    1    2    0    0 -0.10622044104E-01 -0.15439365340E-01  0.13412496506E-01  0.10208844606E+01  0.10206243114E+01 0.  0.
     999903    2    3    3    0    0 -0.80151484791E-01 -0.10187971196E+00  0.26398467035E-01  0.13382476021E+00  0.20210174660E-01 0.  0.
         14    1    1    2    0    0  0.10622044104E-01  0.15439365340E-01 -0.13412496506E-01  0.23045539386E-01  0.00000000000E+00 0.  1.
     999901    1    3    3    0    0  0.69529440687E-01  0.86440346624E-01 -0.12985970530E-01  0.88705970040E+00  0.88000000000E+00 0.  1.
        -11    1    4    4    0    0 -0.29052129665E-01 -0.32078245560E-01 -0.32573514947E-03  0.43282875374E-01  0.51100000000E-03 0.  1.
         11    1    4    4    0    0 -0.51099355126E-01 -0.69801466405E-01  0.26724202185E-01  0.90541884838E-01  0.51100000000E-03 0. -1.
</event>
<event>
 8    1  0.1112171E+005  0.1043930E+01  0.7957747E-01            NaN
         13   -1    0    0    0    0  0.00000000000E+00  0.00000000000E+00  0.74505805969E-08  0.10566000000E+00  0.10566000000E+00 0. -1.
     999900   -1    0    0    0    0 -0.00000000000E+00 -0.00000000000E+00 -0.74505805969E-08  0.93827000000E+00  0.93827000000E+00 0.  1.
     999902    2    1    2    0    0  0.18301124992E-01 -0.79535321998E-03 -0.14282658015E-01  0.10207016104E+01  0.10204372687E+01 0.  0.
     999903    2    3    3    0    0  0.95365405134E-01  0.73647911288E-01 -0.53490074139E-01  0.13333588853E+00  0.19967368487E-01 0.  0.
         14    1    1    2    0    0 -0.18301124992E-01  0.79535321998E-03  0.14282658015E-01  0.23228389585E-01  0.00000000000E+00 0.  1.
     999901    1    3    3    0    0 -0.77064280142E-01 -0.74443264508E-01  0.39207416123E-01  0.88736572189E+00  0.88000000000E+00 0.  1.
        -11    1    4    4    0    0  0.50437095722E-01  0.38422630012E-01 -0.38969804414E-01  0.74425169795E-01  0.51100000000E-03 0. -1.
         11    1    4    4    0    0  0.44928309412E-01  0.35225281276E-01 -0.14520269725E-01  0.58910718731E-01  0.51100000000E-03 0.  1.
</event>
<event>
 8    1  0.1112171E+005  0.1043930E+01  0.7957747E-01            NaN
         13   -1    0    0    0    0  0.00000000000E+00  0.00000000000E+00  0.74505805969E-08  0.10566000000E+00  0.10566000000E+00 0. -1.
     999900   -1    0    0    0    0 -0.00000000000E+00 -0.00000000000E+00 -0.74505805969E-08  0.93827000000E+00  0.93827000000E+00 0. -1.
     999902    2    1    2    0    0  0.16601456710E-01 -0.63189398540E-02  0.15404408522E-01  0.10204175955E+01  0.10201466737E+01 0.  0.
     999903    2    3    3    0    0  0.82239504046E-01 -0.41960643533E-02 -0.99329790804E-01  0.13054299959E+00  0.19852567081E-01 0.  0.
         14    1    1    2    0    0 -0.16601456710E-01  0.63189398540E-02 -0.15404408522E-01  0.23512404549E-01  0.00000000000E+00 0.  1.
     999901    1    3    3    0    0 -0.65638047335E-01 -0.21228755007E-02  0.11473419933E+00  0.88987459586E+00  0.88000000000E+00 0.  1.
        -11    1    4    4    0    0  0.26029940764E-01  0.78921140481E-02 -0.32493567175E-01  0.42378488754E-01  0.51100000000E-03 0. -1.
         11    1    4    4    0    0  0.56209563281E-01 -0.12088178401E-01 -0.66836223629E-01  0.88164510838E-01  0.51100000000E-03 0.  1.
</event>
<event>
 8    1  0.1112171E+005  0.1043930E+01  0.7957747E-01            NaN
         13   -1    0    0    0    0  0.00000000000E+00  0.00000000000E+00  0.74505805969E-08  0.10566000000E+00  0.10566000000E+00 0. -1.
     999900   -1    0    0    0    0 -0.00000000000E+00 -0.00000000000E+00 -0.74505805969E-08  0.93827000000E+00  0.93827000000E+00 0.  1.
     999902    2    1    2    0    0  0.63364344897E-02 -0.23145546106E-01 -0.50888133334E-03  0.10199273821E+01  0.10196449083E+01 0.  0.
     999903    2    3    3    0    0  0.11050073650E+00 -0.45328268384E-01  0.52562862203E-01  0.13191900096E+00  0.19357263474E-01 0.  0.
         14    1    1    2    0    0 -0.63364344897E-02  0.23145546106E-01  0.50888133334E-03  0.24002617915E-01  0.00000000000E+00 0.  1.
     999901    1    3    3    0    0 -0.10416430201E+00  0.22182722278E-01 -0.53071743537E-01  0.88800838112E+00  0.88000000000E+00 0.  1.
        -11    1    4    4    0    0  0.28302620567E-01 -0.20857603971E-01  0.13280684285E-01  0.37586110073E-01  0.51100000000E-03 0.  1.
         11    1    4    4    0    0  0.82198115937E-01 -0.24470664413E-01  0.39282177919E-01  0.94332890889E-01  0.51100000000E-03 0. -1.
</event>
<event>
 8    1  0.1112171E+005  0.1043930E+01  0.7957747E-01            NaN
         13   -1    0    0    0    0  0.00000000000E+00  0.00000000000E+00  0.74505805969E-08  0.10566000000E+00  0.10566000000E+00 0. -1.
     999900   -1    0    0    0    0 -0.00000000000E+00 -0.00000000000E+00 -0.74505805969E-08  0.93827000000E+00  0.93827000000E+00 0.  1.
     999902    2    1    2    0    0 -0.12891910054E-02 -0.22980920476E-01 -0.69363229840E-02  0.10198905055E+01  0.10196071527E+01 0.  0.
     999903    2    3    3    0    0  0.36605217119E-01  0.11305151052E+00  0.41054745281E-01  0.12734137459E+00  0.20242223743E-01 0.  0.
         14    1    1    2    0    0  0.12891910054E-02  0.22980920476E-01  0.69363229840E-02  0.24039494502E-01  0.00000000000E+00 0. -1.
     999901    1    3    3    0    0 -0.37894408124E-01 -0.13603243099E+00 -0.47991068265E-01  0.89254913091E+00  0.88000000000E+00 0.  1.
        -11    1    4    4    0    0  0.28982731150E-01  0.58478423412E-01  0.25604583806E-01  0.70111201263E-01  0.51100000000E-03 0.  1.
         11    1    4    4    0    0  0.76224859690E-02  0.54573087105E-01  0.15450161475E-01  0.57230173327E-01  0.51100000000E-03 0. -1.
</event>
<event>
 8    1  0.1112171E+005  0.1043930E+01  0.7957747E-01            NaN
         13   -1    0    0    0    0  0.00000000000E+00  0.00000000000E+00  0.74505805969E-08  0.10566000000E+00  0.10566000000E+00 0.  1.
     999900   -1    0    0    0    0 -0.00000000000E+00 -0.00000000000E+00 -0.74505805969E-08  0.93827000000E+00  0.93827000000E+00 0. -1.
     999902    2    1    2    0    0 -0.13581920745E-01  0.16969065757E-01 -0.72075461688E-02  0.10210309501E+01  0.10207741350E+01 0.  0.
     999903    2    3    3    0    0  0.11008325719E+00  0.62350112778E-01  0.25460555583E-01  0.13062670454E+00  0.20229581590E-01 0.  0.
         14    1    1    2    0    0  0.13581920745E-01 -0.16969065757E-01  0.72075461688E-02  0.22899049883E-01  0.00000000000E+00 0. -1.
     999901    1    3    3    0    0 -0.12366517794E+00 -0.45381047021E-01 -0.32668101752E-01  0.89040424557E+00  0.88000000000E+00 0. -1.
        -11    1    4    4    0    0  0.64492439185E-01  0.43810127505E-01  0.78892493452E-02  0.78365192275E-01  0.51100000000E-03 0.  1.
         11    1    4    4    0    0  0.45590818009E-01  0.18539985272E-01  0.17571306238E-01  0.52261512268E-01  0.51100000000E-03 0. -1.
</event>
<event>
 8    1  0.1112171E+005  0.1043930E+01  0.7957747E-01            NaN
         13   -1    0    0    0    0  0.00000000000E+00  0.00000000000E+00  0.74505805969E-08  0.10566000000E+00  0.10566000000E+00 0. -1.
     999900   -1    0    0    0    0 -0.00000000000E+00 -0.00000000000E+00 -0.74505805969E-08  0.93827000000E+00  0.93827000000E+00 0. -1.
     999902    2    1    2    0    0  0.17864764994E-01  0.13544140618E-01  0.75955287981E-02  0.10202596466E+01  0.10199850297E+01 0.  0.
     999903    2    3    3    0    0  0.15033267854E-01 -0.88834420050E-01 -0.90244095684E-01  0.12893367973E+00  0.19035325967E-01 0.  0.
         14    1    1    2    0    0 -0.17864764994E-01 -0.13544140618E-01 -0.75955287981E-02  0.23670353422E-01  0.00000000000E+00 0.  1.
     999901    1    3    3    0    0  0.28314971406E-02  0.10237856067E+00  0.97839624483E-01  0.89132596685E+00  0.88000000000E+00 0. -1.
        -11    1    4    4    0    0  0.68951318019E-02 -0.56578278677E-01 -0.44208864343E-01  0.72134106136E-01  0.51100000000E-03 0.  1.
         11    1    4    4    0    0  0.81381360516E-02 -0.32256141373E-01 -0.46035231341E-01  0.56799573593E-01  0.51100000000E-03 0. -1.
</event>
<event>
 8    1  0.1112171E+005  0.1043930E+01  0.7957747E-01            NaN
         13   -1    0    0    0    0  0.00000000000E+00  0.00000000000E+00  0.74505805969E-08  0.10566000000E+00  0.10566000000E+00 0. -1.
     999900   -1    0    0    0    0 -0.00000000000E+00 -0.00000000000E+00 -0.74505805969E-08  0.93827000000E+00  0.93827000000E+00 0.  1.
     999902    2    1    2    0    0  0.80815060973E-02 -0.10144943562E-01  0.19871438357E-01  0.10202001731E+01  0.10199241582E+01 0.  0.
     999903    2    3    3    0    0  0.39346956246E-01 -0.12053353059E+00  0.33799961115E-01  0.13264331734E+00  0.19372591487E-01 0.  0.
         14    1    1    2    0    0 -0.80815060973E-02  0.10144943562E-01 -0.19871438357E-01  0.23729826865E-01  0.00000000000E+00 0. -1.
     999901    1    3    3    0    0 -0.31265450149E-01  0.11038858703E+00 -0.13928522758E-01  0.88755685579E+00  0.88000000000E+00 0. -1.
        -11    1    4    4    0    0  0.39692345664E-01 -0.98976899448E-01  0.26601650483E-01  0.10990822471E+00  0.51100000000E-03 0. -1.
         11    1    4    4    0    0 -0.34538941812E-03 -0.21556631145E-01  0.71983106320E-02  0.22735092635E-01  0.51100000000E-03 0.  1.
</event>
<event>
 8    1  0.1112171E+005  0.1043930E+01  0.7957747E-01            NaN
         13   -1    0    0    0    0  0.00000000000E+00  0.00000000000E+00  0.74505805969E-08  0.10566000000E+00  0.10566000000E+00 0. -1.
     999900   -1    0    0    0    0 -0.00000000000E+00 -0.00000000000E+00 -0.74505805969E-08  0.93827000000E+00  0.93827000000E+00 0. -1.
     999902    2    1    2    0    0  0.15454070663E-01 -0.21737864494E-01 -0.14141734633E-01  0.10137413977E+01  0.10132917989E+01 0.  0.
     999903    2    3    3    0    0  0.35330924899E-01 -0.12015861226E+00  0.13525429901E-01  0.12759964550E+00  0.20306795032E-01 0.  0.
         14    1    1    2    0    0 -0.15454070663E-01  0.21737864494E-01  0.14141734633E-01  0.30188602340E-01  0.00000000000E+00 0. -1.
     999901    1    3    3    0    0 -0.19876854236E-01  0.98420747763E-01 -0.27667164534E-01  0.88614175216E+00  0.88000000000E+00 0. -1.
        -11    1    4    4    0    0  0.21452479195E-01 -0.93447971157E-01  0.16713740928E-01  0.97325959712E-01  0.51100000000E-03 0.  1.
         11    1    4    4    0    0  0.13878445704E-01 -0.26710641100E-01 -0.31883110270E-02  0.30273685790E-01  0.51100000000E-03 0. -1.
</event>
<event>
 8    1  0.1112171E+005  0.1043930E+01  0.7957747E-01            NaN
         13   -1    0    0    0    0  0.00000000000E+00  0.00000000000E+00  0.74505805969E-08  0.10566000000E+00  0.10566000000E+00 0. -1.
     999900   -1    0    0    0    0 -0.00000000000E+00 -0.00000000000E+00 -0.74505805969E-08  0.93827000000E+00  0.93827000000E+00 0. -1.
     999902    2    1    2    0    0 -0.63568756632E-04  0.41853293795E-02  0.24286101787E-01  0.10192858169E+01  0.10189878511E+01 0.  0.
     999903    2    3    3    0    0  0.94878911229E-01 -0.29257715790E-01 -0.76745494018E-01  0.12780396335E+00  0.24206620292E-01 0.  0.
         14    1    1    2    0    0  0.63568756632E-04 -0.41853293795E-02 -0.24286101787E-01  0.24644183148E-01  0.00000000000E+00 0.  1.
     999901    1    3    3    0    0 -0.94942479986E-01  0.33443045170E-01  0.10103159581E+00  0.89148185350E+00  0.88000000000E+00 0.  1.
        -11    1    4    4    0    0  0.62727977581E-01 -0.72047028291E-02 -0.49608787246E-01  0.80299438400E-01  0.51100000000E-03 0. -1.
         11    1    4    4    0    0  0.32150933648E-01 -0.22053012961E-01 -0.27136706773E-01  0.47504524948E-01  0.51100000000E-03 0.  1.
</event>
<event>
 8    1  0.1112171E+005  0.1043930E+01  0.7957747E-01            NaN
         13   -1    0    0    0    0  0.00000000000E+00  0.00000000000E+00  0.74505805969E-08  0.10566000000E+00  0.10566000000E+00 0. -1.
     999900   -1    0    0    0    0 -0.00000000000E+00 -0.00000000000E+00 -0.74505805969E-08  0.93827000000E+00  0.93827000000E+00 0. -1.
     999902    2    1    2    0    0  0.19435358680E-01  0.29543878539E-02  0.40383831615E-02  0.10238608667E+01  0.10236641559E+01 0.  0.
     999903    2    3    3    0    0  0.87175392402E-02 -0.12033797010E+00 -0.53410902899E-01  0.13334624148E+00  0.19268446480E-01 0.  0.
         14    1    1    2    0    0 -0.19435358680E-01 -0.29543878539E-02 -0.40383831615E-02  0.20069133344E-01  0.00000000000E+00 0.  1.
     999901    1    3    3    0    0  0.10717819440E-01  0.12329235796E+00  0.57449286061E-01  0.89051462518E+00  0.88000000000E+00 0. -1.
        -11    1    4    4    0    0  0.47609078798E-02 -0.92831550749E-01 -0.32167858388E-01  0.98363587229E-01  0.51100000000E-03 0.  1.
         11    1    4    4    0    0  0.39566313604E-02 -0.27506419352E-01 -0.21243044512E-01  0.34982654251E-01  0.51100000000E-03 0. -1.
</event>
<event>
 8    1  0.1112171E+005  0.1043930E+01  0.7957747E-01            NaN
         13   -1    0    0    0    0  0.00000000000E+00  0.00000000000E+00  0.74505805969E-08  0.10566000000E+00  0.10566000000E+00 0. -1.
     999900   -1    0    0    0    0 -0.00000000000E+00 -0.00000000000E+00 -0.74505805969E-08  0.93827000000E+00  0.93827000000E+00 0. -1.
     999902    2    1    2    0    0  0.22390729269E-01 -0.19619028819E-02  0.75715475294E-02  0.10202124505E+01  0.10199367246E+01 0.  0.
     999903    2    3    3    0    0  0.17538839401E-01 -0.42213407531E-01 -0.12018299771E+00  0.13006361564E+00  0.19570603199E-01 0.  0.
         14    1    1    2    0    0 -0.22390729269E-01  0.19619028819E-02 -0.75715475294E-02  0.23717549454E-01  0.00000000000E+00 0.  1.
     999901    1    3    3    0    0  0.48518898676E-02  0.40251504649E-01  0.12775454524E+00  0.89014883491E+00  0.88000000000E+00 0. -1.
        -11    1    4    4    0    0  0.17775451322E-01 -0.17330389219E-01 -0.60936988330E-01  0.65801874806E-01  0.51100000000E-03 0. -1.
         11    1    4    4    0    0 -0.23661192055E-03 -0.24883018312E-01 -0.59246009385E-01  0.64261740830E-01  0.51100000000E-03 0.  1.
</event>
<event>
 8    1  0.1112171E+005  0.1043930E+01  0.7957747E-01            NaN
         13   -1    0    0    0    0  0.00000000000E+00  0.00000000000E+00  0.74505805969E-08  0.10566000000E+00  0.10566000000E+00 0. -1.
     999900   -1    0    0    0    0 -0.00000000000E+00 -0.00000000000E+00 -0.74505805969E-08  0.93827000000E+00  0.93827000000E+00 0.  1.
     999902    2    1    2    0    0  0.84040402083E-02  0.20916220697E-01  0.77843058946E-02  0.10200823251E+01  0.10198035293E+01 0.  0.
     999903    2    3    3    0    0  0.42584528963E-01  0.91301750951E-01  0.85318291941E-01  0.13321483349E+00  0.17819345871E-01 0.  0.
         14    1    1    2    0    0 -0.84040402083E-02 -0.20916220697E-01 -0.77843058946E-02  0.23847674904E-01  0.00000000000E+00 0. -1.
     999901    1    3    3    0    0 -0.34180488755E-01 -0.70385530254E-01 -0.77533986047E-01  0.88686749161E+00  0.88000000000E+00 0.  1.
        -11    1    4    4    0    0  0.20843982423E-02  0.10677746688E-01  0.16362403032E-01  0.19655745835E-01  0.51100000000E-03 0.  1.
         11    1    4    4    0    0  0.40500130721E-01  0.80624004263E-01  0.68955888909E-01  0.11355908765E+00  0.51100000000E-03 0. -1.
</event>
<event>
 8    1  0.1112171E+005  0.1043930E+01  0.7957747E-01            NaN
         13   -1    0    0    0    0  0.00000000000E+00  0.00000000000E+00  0.74505805969E-08  0.10566000000E+00  0.10566000000E+00 0. -1.
     999900   -1    0    0    0    0 -0.00000000000E+00 -0.00000000000E+00 -0.74505805969E-08  0.93827000000E+00  0.93827000000E+00 0. -1.
     999902    2    1    2    0    0  0.12058240900E-01 -0.23832925403E-02  0.14700522477E-01  0.10247678859E+01  0.10245887142E+01 0.  0.
     999903    2    3    3    0    0 -0.20102010166E-01  0.71613408477E-01  0.11170866052E+00  0.13576823887E+00  0.20533357397E-01 0.  0.
         14    1    1    2    0    0 -0.12058240900E-01  0.23832925403E-02 -0.14700522477E-01  0.19162114133E-01  0.00000000000E+00 0.  1.
     999901    1    3    3    0    0  0.32160251066E-01 -0.73996701017E-01 -0.97008138039E-01  0.88899964699E+00  0.88000000000E+00 0. -1.
        -11    1    4    4    0    0 -0.94652822055E-02  0.54821373302E-01  0.68826965062E-01  0.88500772757E-01  0.51100000000E-03 0.  1.
         11    1    4    4    0    0 -0.10636727961E-01  0.16792035175E-01  0.42881695454E-01  0.47267466116E-01  0.51100000000E-03 0. -1.
</event>
<event>
 8    1  0.1112171E+005  0.1043930E+01  0.7957747E-01            NaN
         13   -1    0    0    0    0  0.00000000000E+00  0.00000000000E+00  0.74505805969E-08  0.10566000000E+00  0.10566000000E+00 0. -1.
     999900   -1    0    0    0    0 -0.00000000000E+00 -0.00000000000E+00 -0.74505805969E-08  0.93827000000E+00  0.93827000000E+00 0.  1.
     999902    2    1    2    0    0 -0.10750693537E-01 -0.17306646283E-01  0.10607803367E-01  0.10209599563E+01  0.10207015281E+01 0.  0.
     999903    2    3    3    0    0  0.99692175401E-01  0.71355142378E-01 -0.33061420891E-01  0.12856680231E+00  0.20156361904E-01 0.  0.
         14    1    1    2    0    0  0.10750693537E-01  0.17306646283E-01 -0.10607803367E-01  0.22970043740E-01  0.00000000000E+00 0.  1.
     999901    1    3    3    0    0 -0.11044286894E+00 -0.88661788662E-01  0.43669224258E-01  0.89239315395E+00  0.88000000000E+00 0.  1.
        -11    1    4    4    0    0  0.49580001597E-01  0.46811623225E-01 -0.14104726799E-01  0.69632672406E-01  0.51100000000E-03 0.  1.
         11    1    4    4    0    0  0.50112173804E-01  0.24543519153E-01 -0.18956694092E-01  0.58934129905E-01  0.51100000000E-03 0. -1.
</event>
<event>
 8    1  0.1112171E+005  0.1043930E+01  0.7957747E-01            NaN
         13   -1    0    0    0    0  0.00000000000E+00  0.00000000000E+00  0.74505805969E-08  0.10566000000E+00  0.10566000000E+00 0. -1.
     999900   -1    0    0    0    0 -0.00000000000E+00 -0.00000000000E+00 -0.74505805969E-08  0.93827000000E+00  0.93827000000E+00 0. -1.
     999902    2    1    2    0    0 -0.19778965968E-01 -0.12485915015E-01  0.31571504185E-02  0.10203276025E+01  0.10200545786E+01 0.  0.
     999903    2    3    3    0    0 -0.10173267015E+00 -0.75982627030E-01 -0.35871823805E-01  0.13338256312E+00  0.19524974136E-01 0.  0.
         14    1    1    2    0    0  0.19778965968E-01  0.12485915015E-01 -0.31571504185E-02  0.23602397490E-01  0.00000000000E+00 0. -1.
     999901    1    3    3    0    0  0.81953704185E-01  0.63496712015E-01  0.39028974224E-01  0.88694503939E+00  0.88000000000E+00 0.  1.
        -11    1    4    4    0    0 -0.58393024175E-01 -0.32253102576E-01 -0.22257151574E-01  0.70325314185E-01  0.51100000000E-03 0. -1.
         11    1    4    4    0    0 -0.43339645978E-01 -0.43729524454E-01 -0.13614672231E-01  0.63057248936E-01  0.51100000000E-03 0.  1.
</event>
<event>
 8    1  0.1269906E+005  0.1043930E+01  0.7957747E-01            NaN
         13   -1    0    0    0    0  0.00000000000E+00  0.00000000000E+00  0.74505805969E-08  0.10566000000E+00  0.10566000000E+00 0. -1.
     999900   -1    0    0    0    0 -0.00000000000E+00 -0.00000000000E+00 -0.74505805969E-08  0.93827000000E+00  0.93827000000E+00 0. -1.
     999902    2    1    2    0    0 -0.22623497700E-01  0.54177917812E-02  0.20147323307E-02  0.10205797481E+01  0.10203125933E+01 0.  0.
     999903    2    3    3    0    0  0.59370847263E-01 -0.62616290165E-02  0.11345612496E+00  0.12969329888E+00  0.19594743652E-01 0.  0.
         14    1    1    2    0    0  0.22623497700E-01 -0.54177917812E-02 -0.20147323307E-02  0.23350251868E-01  0.00000000000E+00 0. -1.
     999901    1    3    3    0    0 -0.81994344962E-01  0.11679420798E-01 -0.11144139263E+00  0.89088644926E+00  0.88000000000E+00 0. -1.
        -11    1    4    4    0    0  0.30100916723E-01 -0.12433518851E-01  0.65880284036E-01  0.73492384124E-01  0.51100000000E-03 0. -1.
         11    1    4    4    0    0  0.29269930539E-01  0.61718898344E-02  0.47575840928E-01  0.56200914751E-01  0.51100000000E-03 0.  1.
</event>
<event>
 8    1  0.1112171E+005  0.1043930E+01  0.7957747E-01            NaN
         13   -1    0    0    0    0  0.00000000000E+00  0.00000000000E+00  0.74505805969E-08  0.10566000000E+00  0.10566000000E+00 0. -1.
     999900   -1    0    0    0    0 -0.00000000000E+00 -0.00000000000E+00 -0.74505805969E-08  0.93827000000E+00  0.93827000000E+00 0. -1.
     999902    2    1    2    0    0 -0.13653639613E-01  0.77750538934E-02  0.17624535928E-01  0.10203186128E+01  0.10200453784E+01 0.  0.
     999903    2    3    3    0    0 -0.32653600182E-01  0.11468454553E+00 -0.50575851293E-01  0.13102567418E+00  0.19773921545E-01 0.  0.
         14    1    1    2    0    0  0.13653639613E-01 -0.77750538934E-02 -0.17624535928E-01  0.23611387176E-01  0.00000000000E+00 0. -1.
     999901    1    3    3    0    0  0.18999960569E-01 -0.10690949163E+00  0.68200387221E-01  0.88929293864E+00  0.88000000000E+00 0.  1.
        -11    1    4    4    0    0 -0.31913074566E-01  0.11506160945E+00 -0.48787916314E-01  0.12898891502E+00  0.51100000000E-03 0.  1.
         11    1    4    4    0    0 -0.74052561615E-03 -0.37706392875E-03 -0.17879349792E-02  0.20367591621E-02  0.51100000000E-03 0. -1.
</event>
<event>
 8    1  0.1112171E+005  0.1043930E+01  0.7957747E-01            NaN
         13   -1    0    0    0    0  0.00000000000E+00  0.00000000000E+00  0.74505805969E-08  0.10566000000E+00  0.10566000000E+00 0.  1.
     999900   -1    0    0    0    0 -0.00000000000E+00 -0.00000000000E+00 -0.74505805969E-08  0.93827000000E+00  0.93827000000E+00 0. -1.
     999902    2    1    2    0    0 -0.16002213622E-01 -0.15672924556E-01  0.84262872629E-02  0.10199985621E+01  0.10197177810E+01 0.  0.
     999903    2    3    3    0    0 -0.72732608581E-03  0.84482304733E-02  0.12947521835E+00  0.13125338146E+00  0.19791826015E-01 0.  0.
         14    1    1    2    0    0  0.16002213622E-01  0.15672924556E-01 -0.84262872629E-02  0.23931437943E-01  0.00000000000E+00 0. -1.
     999901    1    3    3    0    0 -0.15274887537E-01 -0.24121155030E-01 -0.12104893109E+00  0.88874518059E+00  0.88000000000E+00 0. -1.
        -11    1    4    4    0    0 -0.10206276758E-01  0.41033286877E-02  0.72097029382E-01  0.72933175978E-01  0.51100000000E-03 0. -1.
         11    1    4    4    0    0  0.94789506726E-02  0.43449017857E-02  0.57378188971E-01  0.58320205486E-01  0.51100000000E-03 0.  1.
</event>
<event>
 8    1  0.1112171E+005  0.1043930E+01  0.7957747E-01            NaN
         13   -1    0    0    0    0  0.00000000000E+00  0.00000000000E+00  0.74505805969E-08  0.10566000000E+00  0.10566000000E+00 0.  1.
     999900   -1    0    0    0    0 -0.00000000000E+00 -0.00000000000E+00 -0.74505805969E-08  0.93827000000E+00  0.93827000000E+00 0. -1.
     999902    2    1    2    0    0 -0.40741025659E-02  0.93691308687E-02 -0.22356775772E-01  0.10193494315E+01  0.10190530208E+01 0.  0.
     999903    2    3    3    0    0  0.36062289601E-01 -0.10032140271E+00 -0.71752759799E-01  0.13025837521E+00  0.21305238785E-01 0.  0.
         14    1    1    2    0    0  0.40741025659E-02 -0.93691308687E-02  0.22356775772E-01  0.24580568502E-01  0.00000000000E+00 0.  1.
     999901    1    3    3    0    0 -0.40136392167E-01  0.10969053358E+00  0.49395984028E-01  0.88909105629E+00  0.88000000000E+00 0. -1.
        -11    1    4    4    0    0  0.25966078320E-01 -0.50380954973E-01 -0.28603519828E-01  0.63489371669E-01  0.51100000000E-03 0. -1.
         11    1    4    4    0    0  0.10096211281E-01 -0.49940447741E-01 -0.43149239971E-01  0.66769003541E-01  0.51100000000E-03 0.  1.
</event>
<event>
 8    1  0.1112171E+005  0.1043930E+01  0.7957747E-01            NaN
         13   -1    0    0    0    0  0.00000000000E+00  0.00000000000E+00  0.74505805969E-08  0.10566000000E+00  0.10566000000E+00 0. -1.
     999900   -1    0    0    0    0 -0.00000000000E+00 -0.00000000000E+00 -0.74505805969E-08  0.93827000000E+00  0.93827000000E+00 0.  1.
     999902    2    1    2    0    0 -0.20969189295E-01  0.11692123644E-01  0.20157228284E-02  0.10198369347E+01  0.10195523026E+01 0.  0.
     999903    2    3    3    0    0 -0.13010395832E+00 -0.60481056016E-02 -0.16166813739E-01  0.13273168835E+00  0.19817055147E-01 0.  0.
         14    1    1    2    0    0  0.20969189295E-01 -0.11692123644E-01 -0.20157228284E-02  0.24093065258E-01  0.00000000000E+00 0. -1.
     999901    1    3    3    0    0  0.10913476902E+00  0.17740229246E-01  0.18182536568E-01  0.88710524639E+00  0.88000000000E+00 0.  1.
        -11    1    4    4    0    0 -0.82328232234E-01 -0.46391393538E-03 -0.11521566444E-02  0.82339186447E-01  0.51100000000E-03 0. -1.
         11    1    4    4    0    0 -0.47775726082E-01 -0.55841916662E-02 -0.15014657095E-01  0.50392501901E-01  0.51100000000E-03 0.  1.
</event>
<event>
 8    1  0.1112171E+005  0.1043930E+01  0.7957747E-01            NaN
         13   -1    0    0    0    0  0.00000000000E+00  0.00000000000E+00  0.74505805969E-08  0.10566000000E+00  0.10566000000E+00 0. -1.
     999900   -1    0    0    0    0 -0.00000000000E+00 -0.00000000000E+00 -0.74505805969E-08  0.93827000000E+00  0.93827000000E+00 0. -1.
     999902    2    1    2    0    0  0.64171828842E-02 -0.22815065887E-01 -0.68216354909E-02  0.10192674337E+01  0.10189690178E+01 0.  0.
     999903    2    3    3    0    0 -0.15769752415E-01  0.14180771831E-01 -0.12675386493E+00  0.13008539844E+00  0.20146692797E-01 0.  0.
         14    1    1    2    0    0 -0.64171828842E-02  0.22815065887E-01  0.68216354909E-02  0.24662566337E-01  0.00000000000E+00 0.  1.
     999901    1    3    3    0    0  0.22186935299E-01 -0.36995837718E-01  0.11993222944E+00  0.88918203522E+00  0.88000000000E+00 0.  1.
        -11    1    4    4    0    0 -0.14089360115E-01  0.14074689074E-01 -0.58315005673E-01  0.61623923509E-01  0.51100000000E-03 0.  1.
         11    1    4    4    0    0 -0.16803923001E-02  0.10608275694E-03 -0.68438859259E-01  0.68461474930E-01  0.51100000000E-03 0. -1.
</event>
<event>
 8    1  0.1112171E+005  0.1043930E+01  0.7957747E-01            NaN
         13   -1    0    0    0    0  0.00000000000E+00  0.00000000000E+00  0.74505805969E-08  0.10566000000E+00  0.10566000000E+00 0.  1.
     999900   -1    0    0    0    0 -0.00000000000E+00 -0.00000000000E+00 -0.74505805969E-08  0.93827000000E+00  0.93827000000E+00 0.  1.
     999902    2    1    2    0    0 -0.44404438316E-02  0.60791251121E-02 -0.21439257805E-01  0.10212074324E+01  0.10209546047E+01 0.  0.
     999903    2    3    3    0    0 -0.71206688288E-01 -0.89035745833E-01  0.58610303935E-01  0.12996532027E+00  0.21402342247E-01 0.  0.
         14    1    1    2    0    0  0.44404438316E-02 -0.60791251121E-02  0.21439257805E-01  0.22722567610E-01  0.00000000000E+00 0.  1.
     999901    1    3    3    0    0  0.66766244457E-01  0.95114870945E-01 -0.80049561740E-01  0.89124211212E+00  0.88000000000E+00 0.  1.
        -11    1    4    4    0    0 -0.23196955208E-01 -0.42934287978E-01  0.18137676378E-01  0.52064270287E-01  0.51100000000E-03 0.  1.
         11    1    4    4    0    0 -0.48009733081E-01 -0.46101457854E-01  0.40472627557E-01  0.77901049988E-01  0.51100000000E-03 0. -1.
</event>
<event>
 8    1  0.1112171E+005  0.1043930E+01  0.7957747E-01            NaN
         13   -1    0    0    0    0  0.00000000000E+00  0.00000000000E+00  0.74505805969E-08  0.10566000000E+00  0.10566000000E+00 0. -1.
     999900   -1    0    0    0    0 -0.00000000000E+00 -0.00000000000E+00 -0.74505805969E-08  0.93827000000E+00  0.93827000000E+00 0.  1.
     999902    2    1    2    0    0 -0.21272017458E-01 -0.51800353742E-02 -0.19207594967E-02  0.10219522656E+01  0.10217159157E+01 0.  0.
     999903    2    3    3    0    0  0.14142735986E-01 -0.12746027851E+00 -0.26191306512E-01  0.13246043196E+00  0.20338188726E-01 0.  0.
         14    1    1    2    0    0  0.21272017458E-01  0.51800353742E-02  0.19207594967E-02  0.21977734420E-01  0.00000000000E+00 0.  1.
     999901    1    3    3    0    0 -0.35414753444E-01  0.12228024313E+00  0.24270547016E-01  0.88949183362E+00  0.88000000000E+00 0.  1.
        -11    1    4    4    0    0  0.13476986114E-02 -0.68479545507E-01 -0.22080595225E-01  0.71965813070E-01  0.51100000000E-03 0.  1.
         11    1    4    4    0    0  0.12795037374E-01 -0.58980732999E-01 -0.41107112876E-02  0.60494618891E-01  0.51100000000E-03 0. -1.
</event>
<event>
 8    1  0.1112171E+005  0.1043930E+01  0.7957747E-01            NaN
         13   -1    0    0    0    0  0.00000000000E+00  0.00000000000E+00  0.74505805969E-08  0.10566000000E+00  0.10566000000E+00 0.  1.
     999900   -1    0    0    0    0 -0.00000000000E+00 -0.00000000000E+00 -0.74505805969E-08  0.93827000000E+00  0.93827000000E+00 0.  1.
     999902    2    1    2    0    0  0.45017777661E-02  0.20176210340E-01 -0.10263824619E-01  0.10208498882E+01  0.10205889489E+01 0.  0.
     999903    2    3    3    0    0  0.57696548077E-02  0.51411978363E-01  0.11855826264E+00  0.13092157033E+00  0.20196918096E-01 0.  0.
         14    1    1    2    0    0 -0.45017777661E-02 -0.20176210340E-01  0.10263824619E-01  0.23080111840E-01  0.00000000000E+00 0.  1.
     999901    1    3    3    0    0 -0.12678770416E-02 -0.31235768023E-01 -0.12882208726E+00  0.88992831783E+00  0.88000000000E+00 0.  1.
        -11    1    4    4    0    0 -0.26947755682E-02  0.40927040489E-01  0.77204277441E-01  0.87424516211E-01  0.51100000000E-03 0. -1.
         11    1    4    4    0    0  0.84644303758E-02  0.10484937873E-01  0.41353985200E-01  0.43497054116E-01  0.51100000000E-03 0.  1.
</event>
<event>
 8    1  0.1112171E+005  0.1043930E+01  0.7957747E-01            NaN
         13   -1    0    0    0    0  0.00000000000E+00  0.00000000000E+00  0.74505805969E-08  0.10566000000E+00  0.10566000000E+00 0. -1.
     999900   -1    0    0    0    0 -0.00000000000E+00 -0.00000000000E+00 -0.74505805969E-08  0.93827000000E+00  0.93827000000E+00 0. -1.
     999902    2    1    2    0    0 -0.18155478709E-01  0.36064285275E-02  0.14220823805E-01  0.10205877730E+01  0.10203208038E+01 0.  0.
     999903    2    3    3    0    0 -0.13107939645E+00  0.59839785350E-02 -0.10209011499E-01  0.13303254605E+00  0.19386031596E-01 0.  0.
         14    1    1    2    0    0  0.18155478709E-01 -0.36064285275E-02 -0.14220823805E-01  0.23342227048E-01  0.00000000000E+00 0. -1.
     999901    1    3    3    0    0  0.11292391774E+00 -0.23775500074E-02  0.24429835304E-01  0.88755522690E+00  0.88000000000E+00 0. -1.
        -11    1    4    4    0    0 -0.38187939792E-01  0.10460579934E-01 -0.15260574974E-02  0.39627420439E-01  0.51100000000E-03 0. -1.
         11    1    4    4    0    0 -0.92891456657E-01 -0.44766013987E-02 -0.86829540014E-02  0.93405125615E-01  0.51100000000E-03 0.  1.
</event>
<event>
 8    1  0.1112171E+005  0.1043930E+01  0.7957747E-01            NaN
         13   -1    0    0    0    0  0.00000000000E+00  0.00000000000E+00  0.74505805969E-08  0.10566000000E+00  0.10566000000E+00 0.  1.
     999900   -1    0    0    0    0 -0.00000000000E+00 -0.00000000000E+00 -0.74505805969E-08  0.93827000000E+00  0.93827000000E+00 0.  1.
     999902    2    1    2    0    0  0.21325937541E-01 -0.53095622264E-02 -0.10224902577E-01  0.10196908644E+01  0.10194027287E+01 0.  0.
     999903    2    3    3    0    0 -0.28229120392E-01 -0.12019959029E+00 -0.37098154850E-01  0.13043409943E+00  0.19797890205E-01 0.  0.
         14    1    1    2    0    0 -0.21325937541E-01  0.53095622264E-02  0.10224902577E-01  0.24239135623E-01  0.00000000000E+00 0.  1.
     999901    1    3    3    0    0  0.49555057933E-01  0.11489002807E+00  0.26873252273E-01  0.88925676495E+00  0.88000000000E+00 0.  1.
        -11    1    4    4    0    0 -0.13952735990E-01 -0.24240055296E-01 -0.66776576810E-02  0.28759543728E-01  0.51100000000E-03 0.  1.
         11    1    4    4    0    0 -0.14276384402E-01 -0.95959534996E-01 -0.30420497169E-01  0.10167455570E+00  0.51100000000E-03 0. -1.
</event>
<event>
 8    1  0.1112171E+005  0.1043930E+01  0.7957747E-01            NaN
         13   -1    0    0    0    0  0.00000000000E+00  0.00000000000E+00  0.74505805969E-08  0.10566000000E+00  0.10566000000E+00 0.  1.
     999900   -1    0    0    0    0 -0.00000000000E+00 -0.00000000000E+00 -0.74505805969E-08  0.93827000000E+00  0.93827000000E+00 0.  1.
     999902    2    1    2    0    0 -0.10437404613E-01 -0.26882037692E-02  0.20484235033E-01  0.10207832996E+01  0.10205208352E+01 0.  0.
     999903    2    3    3    0    0 -0.12736835400E-01 -0.55740066919E-01 -0.11386458815E+00  0.12900451881E+00  0.20195034114E-01 0.  0.
         14    1    1    2    0    0  0.10437404613E-01  0.26882037692E-02 -0.20484235033E-01  0.23146700401E-01  0.00000000000E+00 0. -1.
     999901    1    3    3    0    0  0.22994307867E-02  0.53051863150E-01  0.13434882319E+00  0.89177878078E+00  0.88000000000E+00 0. -1.
        -11    1    4    4    0    0 -0.38156156983E-03 -0.37394973504E-01 -0.82923857677E-01  0.90967889531E-01  0.51100000000E-03 0.  1.
         11    1    4    4    0    0 -0.12355273830E-01 -0.18345093415E-01 -0.30940730478E-01  0.38036629284E-01  0.51100000000E-03 0. -1.
</event>
<event>
 8    1  0.1112171E+005  0.1043930E+01  0.7957747E-01            NaN
         13   -1    0    0    0    0  0.00000000000E+00  0.00000000000E+00  0.74505805969E-08  0.10566000000E+00  0.10566000000E+00 0.  1.
     999900   -1    0    0    0    0 -0.00000000000E+00 -0.00000000000E+00 -0.74505805969E-08  0.93827000000E+00  0.93827000000E+00 0.  1.
     999902    2    1    2    0    0 -0.47377911560E-02  0.71493121890E-02 -0.21800666745E-01  0.10205029131E+01  0.10202339767E+01 0.  0.
     999903    2    3    3    0    0 -0.46252023208E-02 -0.62073272462E-01 -0.11550035494E+00  0.13282537567E+00  0.20682475178E-01 0.  0.
         14    1    1    2    0    0  0.47377911560E-02 -0.71493121890E-02  0.21800666745E-01  0.23427086894E-01  0.00000000000E+00 0.  1.
     999901    1    3    3    0    0 -0.11258883521E-03  0.69222584651E-01  0.93699688196E-01  0.88767753744E+00  0.88000000000E+00 0. -1.
        -11    1    4    4    0    0 -0.48740746390E-02 -0.55692001454E-01 -0.85553214275E-01  0.10220063221E+00  0.51100000000E-03 0.  1.
         11    1    4    4    0    0  0.24887231820E-03 -0.63812710080E-02 -0.29947140666E-01  0.30624743463E-01  0.51100000000E-03 0. -1.
</event>
<event>
 8    1  0.1193784E+005  0.1043930E+01  0.7957747E-01            NaN
         13   -1    0    0    0    0  0.00000000000E+00  0.00000000000E+00  0.74505805969E-08  0.10566000000E+00  0.10566000000E+00 0. -1.
     999900   -1    0    0    0    0 -0.00000000000E+00 -0.00000000000E+00 -0.74505805969E-08  0.93827000000E+00  0.93827000000E+00 0. -1.
     999902    2    1    2    0    0 -0.14569171233E-01 -0.14565640514E-01  0.12237710559E-01  0.10199679426E+01  0.10196864340E+01 0.  0.
     999903    2    3    3    0    0  0.71390921359E-01 -0.10653903585E+00 -0.14479197005E-01  0.13060747795E+00  0.20035876320E-01 0.  0.
         14    1    1    2    0    0  0.14569171233E-01  0.14565640514E-01 -0.12237710559E-01  0.23962057377E-01  0.00000000000E+00 0.  1.
     999901    1    3    3    0    0 -0.85960092593E-01  0.91973395332E-01  0.26716907564E-01  0.88936046467E+00  0.88000000000E+00 0. -1.
        -11    1    4    4    0    0  0.32520394342E-01 -0.31940366113E-01 -0.75056174123E-02  0.46199117409E-01  0.51100000000E-03 0.  1.
         11    1    4    4    0    0  0.38870527018E-01 -0.74598669733E-01 -0.69735795929E-02  0.84408360545E-01  0.51100000000E-03 0. -1.
</event>
<event>
 8    1  0.1112171E+005  0.1043930E+01  0.7957747E-01            NaN
         13   -1    0    0    0    0  0.00000000000E+00  0.00000000000E+00  0.74505805969E-08  0.10566000000E+00  0.10566000000E+00 0. -1.
     999900   -1    0    0    0    0 -0.00000000000E+00 -0.00000000000E+00 -0.74505805969E-08  0.93827000000E+00  0.93827000000E+00 0. -1.
     999902    2    1    2    0    0 -0.21331163223E-01  0.84083844446E-02  0.63183887456E-02  0.10201467813E+01  0.10198695083E+01 0.  0.
     999903    2    3    3    0    0  0.11792256562E+00  0.76142937734E-02  0.46091672914E-01  0.12830927052E+00  0.19367953887E-01 0.  0.
         14    1    1    2    0    0  0.21331163223E-01 -0.84083844446E-02 -0.63183887456E-02  0.23783218658E-01  0.00000000000E+00 0.  1.
     999901    1    3    3    0    0 -0.13925372884E+00  0.79409067121E-03 -0.39773284169E-01  0.89183751082E+00  0.88000000000E+00 0. -1.
        -11    1    4    4    0    0  0.78368203288E-01 -0.32183181018E-02  0.34504159731E-01  0.85689736945E-01  0.51100000000E-03 0. -1.
         11    1    4    4    0    0  0.39554362330E-01  0.10832611875E-01  0.11587513184E-01  0.42619533575E-01  0.51100000000E-03 0.  1.
</event>
<event>
 8    1  0.1112171E+005  0.1043930E+01  0.7957747E-01            NaN
         13   -1    0    0    0    0  0.00000000000E+00  0.00000000000E+00  0.74505805969E-08  0.10566000000E+00  0.10566000000E+00 0.  1.
     999900   -1    0    0    0    0 -0.00000000000E+00 -0.00000000000E+00 -0.74505805969E-08  0.93827000000E+00  0.93827000000E+00 0. -1.
     999902    2    1    2    0    0 -0.13604548298E-01 -0.70142580743E-02  0.18167425544E-01  0.10201741817E+01  0.10198975547E+01 0.  0.
     999903    2    3    3    0    0  0.10501950123E+00 -0.42315081309E-01 -0.56813793840E-01  0.12835581653E+00  0.20682038617E-01 0.  0.
         14    1    1    2    0    0  0.13604548298E-01  0.70142580743E-02 -0.18167425544E-01  0.23755818269E-01  0.00000000000E+00 0. -1.
     999901    1    3    3    0    0 -0.11862404953E+00  0.35300823234E-01  0.74981219383E-01  0.89181836520E+00  0.88000000000E+00 0.  1.
        -11    1    4    4    0    0  0.13855064786E-01 -0.13790805420E-01 -0.10512653604E-01  0.22201940031E-01  0.51100000000E-03 0.  1.
         11    1    4    4    0    0  0.91164436447E-01 -0.28524275889E-01 -0.46301140236E-01  0.10615387650E+00  0.51100000000E-03 0. -1.
</event>
<event>
 8    1  0.1112171E+005  0.1043930E+01  0.7957747E-01            NaN
         13   -1    0    0    0    0  0.00000000000E+00  0.00000000000E+00  0.74505805969E-08  0.10566000000E+00  0.10566000000E+00 0.  1.
     999900   -1    0    0    0    0 -0.00000000000E+00 -0.00000000000E+00 -0.74505805969E-08  0.93827000000E+00  0.93827000000E+00 0.  1.
     999902    2    1    2    0    0 -0.49830201472E-02 -0.21324287363E-01  0.90426662196E-02  0.10202376904E+01  0.10199625578E+01 0.  0.
     999903    2    3    3    0    0  0.77042975657E-01 -0.91237608956E-01 -0.51976189286E-01  0.13156483877E+00  0.18651036446E-01 0.  0.
         14    1    1    2    0    0  0.49830201472E-02  0.21324287363E-01 -0.90426662196E-02  0.23692309590E-01  0.00000000000E+00 0.  1.
     999901    1    3    3    0    0 -0.82025995804E-01  0.69913321593E-01  0.61018855505E-01  0.88867285165E+00  0.88000000000E+00 0. -1.
        -11    1    4    4    0    0  0.25928672364E-01 -0.29252506861E-01 -0.77525606627E-02  0.39854341370E-01  0.51100000000E-03 0. -1.
         11    1    4    4    0    0  0.51114303293E-01 -0.61985102095E-01 -0.44223628623E-01  0.91710497395E-01  0.51100000000E-03 0.  1.
</event>
<event>
 8    1  0.1112171E+005  0.1043930E+01  0.7957747E-01            NaN
         13   -1    0    0    0    0  0.00000000000E+00  0.00000000000E+00  0.74505805969E-08  0.10566000000E+00  0.10566000000E+00 0. -1.
     999900   -1    0    0    0    0 -0.00000000000E+00 -0.00000000000E+00 -0.74505805969E-08  0.93827000000E+00  0.93827000000E+00 0. -1.
     999902    2    1    2    0    0  0.18483849372E-02  0.18845059422E-01 -0.66706699105E-02  0.10238538791E+01  0.10236570301E+01 0.  0.
     999903    2    3    3    0    0 -0.26993656223E-01  0.11572655225E+00  0.61840256825E-01  0.13542175789E+00  0.19837912535E-01 0.  0.
         14    1    1    2    0    0 -0.18483849372E-02 -0.18845059422E-01  0.66706699105E-02  0.20076120854E-01  0.00000000000E+00 0.  1.
     999901    1    3    3    0    0  0.28842041160E-01 -0.96881492833E-01 -0.68510926736E-01  0.88843212125E+00  0.88000000000E+00 0. -1.
        -11    1    4    4    0    0 -0.86232647483E-02  0.78147943681E-01  0.41592543101E-01  0.88947526998E-01  0.51100000000E-03 0. -1.
         11    1    4    4    0    0 -0.18370391474E-01  0.37578608574E-01  0.20247713724E-01  0.46474230895E-01  0.51100000000E-03 0.  1.
</event>
<event>
 8    1  0.1112171E+005  0.1043930E+01  0.7957747E-01            NaN
         13   -1    0    0    0    0  0.00000000000E+00  0.00000000000E+00  0.74505805969E-08  0.10566000000E+00  0.10566000000E+00 0.  1.
     999900   -1    0    0    0    0 -0.00000000000E+00 -0.00000000000E+00 -0.74505805969E-08  0.93827000000E+00  0.93827000000E+00 0. -1.
     999902    2    1    2    0    0  0.41695488830E-02 -0.15439909193E-02 -0.23254717707E-01  0.10202540430E+01  0.10199792945E+01 0.  0.
     999903    2    3    3    0    0  0.53857775796E-01  0.29091324366E-01 -0.11690682422E+00  0.13336162588E+00  0.19265319616E-01 0.  0.
         14    1    1    2    0    0 -0.41695488830E-02  0.15439909193E-02  0.23254717707E-01  0.23675957034E-01  0.00000000000E+00 0.  1.
     999901    1    3    3    0    0 -0.49688226913E-01 -0.30635315285E-01  0.93652106514E-01  0.88689241709E+00  0.88000000000E+00 0. -1.
        -11    1    4    4    0    0  0.25224298526E-01  0.72159735794E-02 -0.33900119469E-01  0.42869741448E-01  0.51100000000E-03 0.  1.
         11    1    4    4    0    0  0.28633477271E-01  0.21875350786E-01 -0.83006704751E-01  0.90491884428E-01  0.51100000000E-03 0. -1.
</event>
<event>
 8    1  0.1112171E+005  0.1043930E+01  0.7957747E-01            NaN
         13   -1    0    0    0    0  0.00000000000E+00  0.00000000000E+00  0.74505805969E-08  0.10566000000E+00  0.10566000000E+00 0. -1.
     999900   -1    0    0    0    0 -0.00000000000E+00 -0.00000000000E+00 -0.74505805969E-08  0.93827000000E+00  0.93827000000E+00 0.  1.
     999902    2    1    2    0    0  0.15597256199E-01 -0.16101872216E-01  0.68799394467E-02  0.10204805169E+01  0.10202110601E+01 0.  0.
     999903    2    3    3    0    0  0.10645155862E+00 -0.23351817353E-01 -0.72044213998E-01  0.13225977411E+00  0.20616434439E-01 0.  0.
         14    1    1    2    0    0 -0.15597256199E-01  0.16101872216E-01 -0.68799394467E-02  0.23449483077E-01  0.00000000000E+00 0.  1.
     999901    1    3    3    0    0 -0.90854302424E-01  0.72499451361E-02  0.78924153445E-01  0.88822074282E+00  0.88000000000E+00 0. -1.
        -11    1    4    4    0    0  0.72148134907E-01 -0.24621871062E-01 -0.44732423134E-01  0.88390274949E-01  0.51100000000E-03 0. -1.
         11    1    4    4    0    0  0.34303423716E-01  0.12700537089E-02 -0.27311790864E-01  0.43869499157E-01  0.51100000000E-03 0.  1.
</event>
<event>
 8    1  0.1112171E+005  0.1043930E+01  0.7957747E-01            NaN
         13   -1    0    0    0    0  0.00000000000E+00  0.00000000000E+00  0.74505805969E-08  0.10566000000E+00  0.10566000000E+00 0.  1.
     999900   -1    0    0    0    0 -0.00000000000E+00 -0.00000000000E+00 -0.74505805969E-08  0.93827000000E+00  0.93827000000E+00 0. -1.
     999902    2    1    2    0    0 -0.21441155850E-01 -0.10153114279E-02  0.80771187578E-02  0.10209954438E+01  0.10207378225E+01 0.  0.
     999903    2    3    3    0    0 -0.27559447373E-02  0.80875132210E-01  0.10238004682E+00  0.13198013226E+00  0.19715452920E-01 0.  0.
         14    1    1    2    0    0  0.21441155850E-01  0.10153114279E-02 -0.80771187578E-02  0.22934556218E-01  0.00000000000E+00 0. -1.
     999901    1    3    3    0    0 -0.18685211113E-01 -0.81890443638E-01 -0.94302928063E-01  0.88901531152E+00  0.88000000000E+00 0.  1.
        -11    1    4    4    0    0  0.14706347979E-02  0.19955775976E-02  0.10546072044E-01  0.10845545317E-01  0.51100000000E-03 0. -1.
         11    1    4    4    0    0 -0.42265795352E-02  0.78879554613E-01  0.91833974776E-01  0.12113458695E+00  0.51100000000E-03 0.  1.
</event>
<event>
 8    1  0.1112171E+005  0.1043930E+01  0.7957747E-01            NaN
         13   -1    0    0    0    0  0.00000000000E+00  0.00000000000E+00  0.74505805969E-08  0.10566000000E+00  0.10566000000E+00 0. -1.
     999900   -1    0    0    0    0 -0.00000000000E+00 -0.00000000000E+00 -0.74505805969E-08  0.93827000000E+00  0.93827000000E+00 0.  1.
     999902    2    1    2    0    0  0.33285010236E-02 -0.68711850511E-02 -0.22495616340E-01  0.10201740564E+01  0.10198974264E+01 0.  0.
     999903    2    3    3    0    0  0.49966829912E-01  0.11089032318E+00 -0.43984109953E-01  0.13084584817E+00  0.19816311191E-01 0.  0.
         14    1    1    2    0    0 -0.33285010236E-02  0.68711850511E-02  0.22495616340E-01  0.23755943626E-01  0.00000000000E+00 0. -1.
     999901    1    3    3    0    0 -0.46638328889E-01 -0.11776150823E+00  0.21488493613E-01  0.88932820820E+00  0.88000000000E+00 0.  1.
        -11    1    4    4    0    0  0.39835352878E-01  0.70793630470E-01 -0.22778810876E-01  0.84366633214E-01  0.51100000000E-03 0.  1.
         11    1    4    4    0    0  0.10131477035E-01  0.40096692711E-01 -0.21205299077E-01  0.46479214959E-01  0.51100000000E-03 0. -1.
</event>
<event>
 8    1  0.1112171E+005  0.1043930E+01  0.7957747E-01            NaN
         13   -1    0    0    0    0  0.00000000000E+00  0.00000000000E+00  0.74505805969E-08  0.10566000000E+00  0.10566000000E+00 0. -1.
     999900   -1    0    0    0    0 -0.00000000000E+00 -0.00000000000E+00 -0.74505805969E-08  0.93827000000E+00  0.93827000000E+00 0.  1.
     999902    2    1    2    0    0 -0.80475244151E-02 -0.19894612692E-01 -0.17953877356E-01  0.10159496502E+01  0.10155642726E+01 0.  0.
     999903    2    3    3    0    0  0.45708080233E-01  0.61996194777E-01  0.94253278030E-01  0.12343286318E+00  0.20475217395E-01 0.  0.
         14    1    1    2    0    0  0.80475244151E-02  0.19894612692E-01  0.17953877356E-01  0.27980349810E-01  0.00000000000E+00 0. -1.
     999901    1    3    3    0    0 -0.53755604648E-01 -0.81890807470E-01 -0.11220715539E+00  0.89251678701E+00  0.88000000000E+00 0.  1.
        -11    1    4    4    0    0  0.36370798264E-01  0.53950612474E-01  0.66381002621E-01  0.92952687872E-01  0.51100000000E-03 0. -1.
         11    1    4    4    0    0  0.93372819684E-02  0.80455823030E-02  0.27872275409E-01  0.30480175305E-01  0.51100000000E-03 0.  1.
</event>
<event>
 8    1  0.1112171E+005  0.1043930E+01  0.7957747E-01            NaN
         13   -1    0    0    0    0  0.00000000000E+00  0.00000000000E+00  0.74505805969E-08  0.10566000000E+00  0.10566000000E+00 0. -1.
     999900   -1    0    0    0    0 -0.00000000000E+00 -0.00000000000E+00 -0.74505805969E-08  0.93827000000E+00  0.93827000000E+00 0. -1.
     999902    2    1    2    0    0 -0.21799371297E-01 -0.38838390630E-02  0.69654861564E-02  0.10207176155E+01  0.10204536422E+01 0.  0.
     999903    2    3    3    0    0 -0.31662907853E-01 -0.10180366312E+00  0.76319818422E-01  0.13251966199E+00  0.19241116652E-01 0.  0.
         14    1    1    2    0    0  0.21799371297E-01  0.38838390630E-02 -0.69654861564E-02  0.23212384457E-01  0.00000000000E+00 0.  1.
     999901    1    3    3    0    0  0.98635365564E-02  0.97919824060E-01 -0.69354332266E-01  0.88819795356E+00  0.88000000000E+00 0.  1.
        -11    1    4    4    0    0 -0.18443458161E-01 -0.40438612044E-01  0.22436277797E-01  0.49790462695E-01  0.51100000000E-03 0.  1.
         11    1    4    4    0    0 -0.13219449692E-01 -0.61365051079E-01  0.53883540625E-01  0.82729199292E-01  0.51100000000E-03 0. -1.
</event>
<event>
 8    1  0.1112171E+005  0.1043930E+01  0.7957747E-01            NaN
         13   -1    0    0    0    0  0.00000000000E+00  0.00000000000E+00  0.74505805969E-08  0.10566000000E+00  0.10566000000E+00 0. -1.
     999900   -1    0    0    0    0 -0.00000000000E+00 -0.00000000000E+00 -0.74505805969E-08  0.93827000000E+00  0.93827000000E+00 0.  1.
     999902    2    1    2    0    0 -0.19508440710E-01  0.12448648710E-01  0.60367753876E-02  0.10200136715E+01  0.10197332490E+01 0.  0.
     999903    2    3    3    0    0  0.31182094941E-01  0.11315928814E+00 -0.53546481054E-01  0.13082171932E+00  0.21673695480E-01 0.  0.
         14    1    1    2    0    0  0.19508440710E-01 -0.12448648710E-01 -0.60367753876E-02  0.23916328537E-01  0.00000000000E+00 0. -1.
     999901    1    3    3    0    0 -0.50690535651E-01 -0.10071063943E+00  0.59583256442E-01  0.88919195214E+00  0.88000000000E+00 0. -1.
        -11    1    4    4    0    0  0.29767290527E-01  0.69061364424E-01 -0.35214761254E-01  0.83041580986E-01  0.51100000000E-03 0.  1.
         11    1    4    4    0    0  0.14148044146E-02  0.44097923719E-01 -0.18331719800E-01  0.47780138338E-01  0.51100000000E-03 0. -1.
</event>
<event>
 8    1  0.1112171E+005  0.1043930E+01  0.7957747E-01            NaN
         13   -1    0    0    0    0  0.00000000000E+00  0.00000000000E+00  0.74505805969E-08  0.10566000000E+00  0.10566000000E+00 0.  1.
     999900   -1    0    0    0    0 -0.00000000000E+00 -0.00000000000E+00 -0.74505805969E-08  0.93827000000E+00  0.93827000000E+00 0. -1.
     999902    2    1    2    0    0 -0.19618167769E-01  0.95110948677E-02 -0.74185900509E-02  0.10209002603E+01  0.10206404718E+01 0.  0.
     999903    2    3    3    0    0  0.72337398620E-01 -0.58696993743E-01 -0.88664081320E-01  0.12977232370E+00  0.17363765967E-01 0.  0.
         14    1    1    2    0    0  0.19618167769E-01 -0.95110948677E-02  0.74185900509E-02  0.23029739698E-01  0.00000000000E+00 0. -1.
     999901    1    3    3    0    0 -0.91955566389E-01  0.68208088611E-01  0.81245491269E-01  0.89112793660E+00  0.88000000000E+00 0.  1.
        -11    1    4    4    0    0  0.34926031818E-01 -0.18799880473E-01 -0.31474367881E-01  0.50637537054E-01  0.51100000000E-03 0. -1.
         11    1    4    4    0    0  0.37411366802E-01 -0.39897113270E-01 -0.57189713439E-01  0.79134786646E-01  0.51100000000E-03 0.  1.
</event>
<event>
 8    1  0.1112171E+005  0.1043930E+01  0.7957747E-01            NaN
         13   -1    0    0    0    0  0.00000000000E+00  0.00000000000E+00  0.74505805969E-08  0.10566000000E+00  0.10566000000E+00 0. -1.
     999900   -1    0    0    0    0 -0.00000000000E+00 -0.00000000000E+00 -0.74505805969E-08  0.93827000000E+00  0.93827000000E+00 0.  1.
     999902    2    1    2    0    0  0.86369412074E-03  0.20025160406E-02 -0.23163963035E-01  0.10206636032E+01  0.10203983857E+01 0.  0.
     999903    2    3    3    0    0  0.21878896771E-01 -0.11451726726E+00  0.52671703400E-01  0.12950169479E+00  0.20087060255E-01 0.  0.
         14    1    1    2    0    0 -0.86369412074E-03 -0.20025160406E-02  0.23163963035E-01  0.23266396832E-01  0.00000000000E+00 0. -1.
     999901    1    3    3    0    0 -0.21015202650E-01  0.11651978330E+00 -0.75835666435E-01  0.89116190838E+00  0.88000000000E+00 0.  1.
        -11    1    4    4    0    0  0.22287505236E-01 -0.82973742407E-01  0.31513208209E-01  0.91513486609E-01  0.51100000000E-03 0. -1.
         11    1    4    4    0    0 -0.40860846496E-03 -0.31543524853E-01  0.21158495191E-01  0.37988208180E-01  0.51100000000E-03 0.  1.
</event>
<event>
 8    1  0.1112171E+005  0.1043930E+01  0.7957747E-01            NaN
         13   -1    0    0    0    0  0.00000000000E+00  0.00000000000E+00  0.74505805969E-08  0.10566000000E+00  0.10566000000E+00 0. -1.
     999900   -1    0    0    0    0 -0.00000000000E+00 -0.00000000000E+00 -0.74505805969E-08  0.93827000000E+00  0.93827000000E+00 0. -1.
     999902    2    1    2    0    0 -0.11728927527E-01  0.22244015605E-01  0.35037896598E-02  0.10185402282E+01  0.10182237259E+01 0.  0.
     999903    2    3    3    0    0  0.57064194005E-01 -0.10756505559E+00 -0.24827882547E-01  0.12591176561E+00  0.20267845152E-01 0.  0.
         14    1    1    2    0    0  0.11728927527E-01 -0.22244015605E-01 -0.35037896598E-02  0.25389771822E-01  0.00000000000E+00 0.  1.
     999901    1    3    3    0    0 -0.68793121532E-01  0.12980907119E+00  0.28331672207E-01  0.89262846257E+00  0.88000000000E+00 0.  1.
        -11    1    4    4    0    0  0.25496306431E-01 -0.43249004646E-01 -0.20188099874E-01  0.54114309957E-01  0.51100000000E-03 0.  1.
         11    1    4    4    0    0  0.31567887574E-01 -0.64316050940E-01 -0.46397826725E-02  0.71797455655E-01  0.51100000000E-03 0. -1.
</event>
<event>
 7    1  0.1112171E+005  0.1043930E+01  0.7957747E-01            NaN
         13   -1    0    0    0    0  0.00000000000E+00  0.00000000000E+00  0.74505805969E-08  0.10566000000E+00  0.10566000000E+00 0. -1.
     999900   -1    0    0    0    0 -0.00000000000E+00 -0.00000000000E+00 -0.74505805969E-08  0.93827000000E+00  0.93827000000E+00 0.  1.
     999903    2    1    2    0    0  0.82592761504E-01  0.56634848096E-01 -0.18332687106E-01  0.10390083006E+00  0.20741861018E-01 0.  0.
         14    1    1    2    0    0  0.25613705032E-01  0.32760140277E-01  0.25682032739E-01  0.48875919245E-01  0.00000000000E+00 0.  1.
     999901    1    1    2    0    0 -0.10820646654E+00 -0.89394988373E-01 -0.73493456335E-02  0.89115325070E+00  0.88000000000E+00 0.  1.
        -11    1    3    3    0    0  0.59908099699E-01  0.49235880103E-01 -0.19653705549E-01  0.79998009737E-01  0.51100000000E-03 0.  1.
         11    1    3    3    0    0  0.22684661805E-01  0.73989679928E-02  0.13210184429E-02  0.23902820321E-01  0.51100000000E-03 0. -1.
</event>
<event>
 8    1  0.1112171E+005  0.1043930E+01  0.7957747E-01            NaN
         13   -1    0    0    0    0  0.00000000000E+00  0.00000000000E+00  0.74505805969E-08  0.10566000000E+00  0.10566000000E+00 0. -1.
     999900   -1    0    0    0    0 -0.00000000000E+00 -0.00000000000E+00 -0.74505805969E-08  0.93827000000E+00  0.93827000000E+00 0. -1.
     999902    2    1    2    0    0 -0.11061996729E-01 -0.76410816754E-02  0.19461338786E-01  0.10202762982E+01  0.10200020721E+01 0.  0.
     999903    2    3    3    0    0 -0.19916790897E-01 -0.81105431202E-01 -0.97095308838E-01  0.12951209253E+00  0.19264308497E-01 0.  0.
         14    1    1    2    0    0  0.11061996729E-01  0.76410816754E-02 -0.19461338786E-01  0.23653701786E-01  0.00000000000E+00 0.  1.
     999901    1    3    3    0    0  0.88547941677E-02  0.73464349526E-01  0.11655664762E+00  0.89076420569E+00  0.88000000000E+00 0.  1.
        -11    1    4    4    0    0  0.17651679308E-03 -0.21916239356E-01 -0.35707186538E-01  0.41900083498E-01  0.51100000000E-03 0. -1.
         11    1    4    4    0    0 -0.20093307690E-01 -0.59189191846E-01 -0.61388122301E-01  0.87612009028E-01  0.51100000000E-03 0.  1.
</event>
<event>
 8    1  0.1112171E+005  0.1043930E+01  0.7957747E-01            NaN
         13   -1    0    0    0    0  0.00000000000E+00  0.00000000000E+00  0.74505805969E-08  0.10566000000E+00  0.10566000000E+00 0. -1.
     999900   -1    0    0    0    0 -0.00000000000E+00 -0.00000000000E+00 -0.74505805969E-08  0.93827000000E+00  0.93827000000E+00 0.  1.
     999902    2    1    2    0    0 -0.12986954629E-01  0.18500689079E-01  0.43515273943E-02  0.10209110453E+01  0.10206515027E+01 0.  0.
     999903    2    3    3    0    0  0.60394399281E-01  0.98959940506E-01  0.60605580404E-01  0.13241623226E+00  0.20505338323E-01 0.  0.
         14    1    1    2    0    0  0.12986954629E-01 -0.18500689079E-01 -0.43515273943E-02  0.23018954746E-01  0.00000000000E+00 0.  1.
     999901    1    3    3    0    0 -0.73381353910E-01 -0.80459251427E-01 -0.56254053010E-01  0.88849481300E+00  0.88000000000E+00 0.  1.
        -11    1    4    4    0    0  0.18117226338E-01  0.45645684106E-01  0.18996852409E-01  0.52658369611E-01  0.51100000000E-03 0. -1.
         11    1    4    4    0    0  0.42277172943E-01  0.53314256400E-01  0.41608727995E-01  0.79757862647E-01  0.51100000000E-03 0.  1.
</event>
<event>
 8    1  0.1112171E+005  0.1043930E+01  0.7957747E-01            NaN
         13   -1    0    0    0    0  0.00000000000E+00  0.00000000000E+00  0.74505805969E-08  0.10566000000E+00  0.10566000000E+00 0.  1.
     999900   -1    0    0    0    0 -0.00000000000E+00 -0.00000000000E+00 -0.74505805969E-08  0.93827000000E+00  0.93827000000E+00 0.  1.
     999902    2    1    2    0    0  0.33142308683E-02  0.29169364724E-02 -0.23417071254E-01  0.10201003573E+01  0.10198219880E+01 0.  0.
     999903    2    3    3    0    0  0.10536770768E+00  0.69975356327E-01 -0.27805846633E-01  0.13165733429E+00  0.23697768881E-01 0.  0.
         14    1    1    2    0    0 -0.33142308683E-02 -0.29169364724E-02  0.23417071254E-01  0.23829642690E-01  0.00000000000E+00 0.  1.
     999901    1    3    3    0    0 -0.10205347681E+00 -0.67058419855E-01  0.43887753792E-02  0.88844302302E+00  0.88000000000E+00 0.  1.
        -11    1    4    4    0    0  0.40371180981E-01  0.40625008583E-01 -0.14888586660E-01  0.59179005652E-01  0.51100000000E-03 0.  1.
         11    1    4    4    0    0  0.64996526702E-01  0.29350347744E-01 -0.12917259972E-01  0.72478328638E-01  0.51100000000E-03 0. -1.
</event>
<event>
 8    1  0.1112171E+005  0.1043930E+01  0.7957747E-01            NaN
         13   -1    0    0    0    0  0.00000000000E+00  0.00000000000E+00  0.74505805969E-08  0.10566000000E+00  0.10566000000E+00 0. -1.
     999900   -1    0    0    0    0 -0.00000000000E+00 -0.00000000000E+00 -0.74505805969E-08  0.93827000000E+00  0.93827000000E+00 0.  1.
     999902    2    1    2    0    0  0.14472014603E-01  0.28581718314E-02 -0.19183369344E-01  0.10197306196E+01  0.10194434396E+01 0.  0.
     999903    2    3    3    0    0 -0.63521590219E-01 -0.11032324434E+00 -0.11562466900E-01  0.12902802415E+00  0.17559319786E-01 0.  0.
         14    1    1    2    0    0 -0.14472014603E-01 -0.28581718314E-02  0.19183369344E-01  0.24199380411E-01  0.00000000000E+00 0. -1.
     999901    1    3    3    0    0  0.77993604822E-01  0.11318141617E+00 -0.76209024442E-02  0.89070259543E+00  0.88000000000E+00 0. -1.
        -11    1    4    4    0    0 -0.46670366143E-01 -0.79221863179E-01 -0.45835623189E-03  0.91949431172E-01  0.51100000000E-03 0.  1.
         11    1    4    4    0    0 -0.16851224076E-01 -0.31101381159E-01 -0.11104110668E-01  0.37078592983E-01  0.51100000000E-03 0. -1.
</event>
<event>
 8    1  0.1112171E+005  0.1043930E+01  0.7957747E-01            NaN
         13   -1    0    0    0    0  0.00000000000E+00  0.00000000000E+00  0.74505805969E-08  0.10566000000E+00  0.10566000000E+00 0.  1.
     999900   -1    0    0    0    0 -0.00000000000E+00 -0.00000000000E+00 -0.74505805969E-08  0.93827000000E+00  0.93827000000E+00 0. -1.
     999902    2    1    2    0    0 -0.18551830576E-01 -0.11694129447E-01 -0.70551109872E-02  0.10208931236E+01  0.10206331722E+01 0.  0.
     999903    2    3    3    0    0 -0.11758177636E+00 -0.43834668971E-01  0.40451313763E-01  0.13348295645E+00  0.20843189319E-01 0.  0.
         14    1    1    2    0    0  0.18551830576E-01  0.11694129447E-01  0.70551109872E-02  0.23036876357E-01  0.00000000000E+00 0. -1.
     999901    1    3    3    0    0  0.99029945788E-01  0.32140539524E-01 -0.47506424750E-01  0.88741016719E+00  0.88000000000E+00 0. -1.
        -11    1    4    4    0    0 -0.28520745678E-01 -0.78430913339E-02  0.18676290506E-01  0.34985882349E-01  0.51100000000E-03 0.  1.
         11    1    4    4    0    0 -0.89061030686E-01 -0.35991577637E-01  0.21775023257E-01  0.98497074101E-01  0.51100000000E-03 0. -1.
</event>
<event>
 8    1  0.1112171E+005  0.1043930E+01  0.7957747E-01            NaN
         13   -1    0    0    0    0  0.00000000000E+00  0.00000000000E+00  0.74505805969E-08  0.10566000000E+00  0.10566000000E+00 0.  1.
     999900   -1    0    0    0    0 -0.00000000000E+00 -0.00000000000E+00 -0.74505805969E-08  0.93827000000E+00  0.93827000000E+00 0.  1.
     999902    2    1    2    0    0 -0.16648645666E-01  0.12205677876E-01 -0.76924466475E-02  0.10218998000E+01  0.10216623080E+01 0.  0.
     999903    2    3    3    0    0  0.12607563667E+00 -0.12956013828E-01 -0.21522319765E-01  0.12993870398E+00  0.18919093222E-01 0.  0.
         14    1    1    2    0    0  0.16648645666E-01 -0.12205677876E-01  0.76924466475E-02  0.22030199961E-01  0.00000000000E+00 0.  1.
     999901    1    3    3    0    0 -0.14272428233E+00  0.25161691704E-01  0.13829873118E-01  0.89196109606E+00  0.88000000000E+00 0.  1.
        -11    1    4    4    0    0  0.61702137548E-01 -0.14170072002E-01 -0.52522744719E-02  0.63527885426E-01  0.51100000000E-03 0.  1.
         11    1    4    4    0    0  0.64373499118E-01  0.12140581734E-02 -0.16270045293E-01  0.66410818552E-01  0.51100000000E-03 0. -1.
</event>
<event>
 8    1  0.1112171E+005  0.1043930E+01  0.7957747E-01            NaN
         13   -1    0    0    0    0  0.00000000000E+00  0.00000000000E+00  0.74505805969E-08  0.10566000000E+00  0.10566000000E+00 0.  1.
     999900   -1    0    0    0    0 -0.00000000000E+00 -0.00000000000E+00 -0.74505805969E-08  0.93827000000E+00  0.93827000000E+00 0. -1.
     999902    2    1    2    0    0 -0.13077933139E-01 -0.15699445744E-01 -0.12735861436E-01  0.10198528926E+01  0.10195686419E+01 0.  0.
     999903    2    3    3    0    0  0.11745460826E+00 -0.19201572949E-01  0.43886488444E-01  0.12841747728E+00  0.20018471420E-01 0.  0.
         14    1    1    2    0    0  0.13077933139E-01  0.15699445744E-01  0.12735861436E-01  0.24077107351E-01  0.00000000000E+00 0. -1.
     999901    1    3    3    0    0 -0.13053254140E+00  0.35021272044E-02 -0.56622349879E-01  0.89143541536E+00  0.88000000000E+00 0. -1.
        -11    1    4    4    0    0  0.38242168898E-01 -0.14918520281E-01  0.19317649991E-01  0.45370237509E-01  0.51100000000E-03 0.  1.
         11    1    4    4    0    0  0.79212439367E-01 -0.42830526676E-02  0.24568838453E-01  0.83047239776E-01  0.51100000000E-03 0. -1.
</event>
<event>
 8    1  0.1112171E+005  0.1043930E+01  0.7957747E-01            NaN
         13   -1    0    0    0    0  0.00000000000E+00  0.00000000000E+00  0.74505805969E-08  0.10566000000E+00  0.10566000000E+00 0.  1.
     999900   -1    0    0    0    0 -0.00000000000E+00 -0.00000000000E+00 -0.74505805969E-08  0.93827000000E+00  0.93827000000E+00 0. -1.
     999902    2    1    2    0    0 -0.11700960956E-01 -0.12340429683E-01 -0.16984558591E-01  0.10198951519E+01  0.10196119100E+01 0.  0.
     999903    2    3    3    0    0 -0.85190083123E-01  0.92567173989E-01 -0.29635883663E-01  0.13053228311E+00  0.18285496151E-01 0.  0.
         14    1    1    2    0    0  0.11700960956E-01  0.12340429683E-01  0.16984558591E-01  0.24034848088E-01  0.00000000000E+00 0.  1.
     999901    1    3    3    0    0  0.73489122167E-01 -0.10490760367E+00  0.12651325071E-01  0.88936286881E+00  0.88000000000E+00 0. -1.
        -11    1    4    4    0    0 -0.41324883884E-01  0.33375355295E-01 -0.78171627317E-02  0.53693849957E-01  0.51100000000E-03 0. -1.
         11    1    4    4    0    0 -0.43865199239E-01  0.59191818695E-01 -0.21818720931E-01  0.76838433149E-01  0.51100000000E-03 0.  1.
</event>
<event>
 8    1  0.1112171E+005  0.1043930E+01  0.7957747E-01            NaN
         13   -1    0    0    0    0  0.00000000000E+00  0.00000000000E+00  0.74505805969E-08  0.10566000000E+00  0.10566000000E+00 0. -1.
     999900   -1    0    0    0    0 -0.00000000000E+00 -0.00000000000E+00 -0.74505805969E-08  0.93827000000E+00  0.93827000000E+00 0. -1.
     999902    2    1    2    0    0  0.95416856296E-02  0.21135331399E-01  0.69745225279E-02  0.10197145099E+01  0.10194269428E+01 0.  0.
     999903    2    3    3    0    0 -0.55858543249E-01  0.23007287614E-01  0.11406704876E+00  0.13081096992E+00  0.21229839869E-01 0.  0.
         14    1    1    2    0    0 -0.95416856296E-02 -0.21135331399E-01 -0.69745225279E-02  0.24215490136E-01  0.00000000000E+00 0.  1.
     999901    1    3    3    0    0  0.65400228879E-01 -0.18719562143E-02 -0.10709252623E+00  0.88890353995E+00  0.88000000000E+00 0.  1.
        -11    1    4    4    0    0  0.95716962992E-04 -0.94167545209E-03  0.11451754153E-01  0.11502161039E-01  0.51100000000E-03 0. -1.
         11    1    4    4    0    0 -0.55954260212E-01  0.23948963066E-01  0.10261529461E+00  0.11930880888E+00  0.51100000000E-03 0.  1.
</event>
<event>
 8    1  0.1112171E+005  0.1043930E+01  0.7957747E-01            NaN
         13   -1    0    0    0    0  0.00000000000E+00  0.00000000000E+00  0.74505805969E-08  0.10566000000E+00  0.10566000000E+00 0. -1.
     999900   -1    0    0    0    0 -0.00000000000E+00 -0.00000000000E+00 -0.74505805969E-08  0.93827000000E+00  0.93827000000E+00 0.  1.
     999902    2    1    2    0    0  0.75594543495E-02 -0.22551898038E-01 -0.37601547318E-04  0.10201448183E+01  0.10198674989E+01 0.  0.
     999903    2    3    3    0    0 -0.96860511608E-01  0.60713918833E-01 -0.54813587080E-01  0.12838412497E+00  0.20243901994E-01 0.  0.
         14    1    1    2    0    0 -0.75594543495E-02  0.22551898038E-01  0.37601547318E-04  0.23785181711E-01  0.00000000000E+00 0.  1.
     999901    1    3    3    0    0  0.10441996596E+00 -0.83265816870E-01  0.54775985533E-01  0.89176069331E+00  0.88000000000E+00 0. -1.
        -11    1    4    4    0    0 -0.68842033633E-01  0.53039553221E-01 -0.43715888850E-01  0.97281857813E-01  0.51100000000E-03 0.  1.
         11    1    4    4    0    0 -0.28018477975E-01  0.76743656112E-02 -0.11097698230E-01  0.31102267161E-01  0.51100000000E-03 0. -1.
</event>
<event>
 8    1  0.1112171E+005  0.1043930E+01  0.7957747E-01            NaN
         13   -1    0    0    0    0  0.00000000000E+00  0.00000000000E+00  0.74505805969E-08  0.10566000000E+00  0.10566000000E+00 0.  1.
     999900   -1    0    0    0    0 -0.00000000000E+00 -0.00000000000E+00 -0.74505805969E-08  0.93827000000E+00  0.93827000000E+00 0.  1.
     999902    2    1    2    0    0  0.18389844861E-01 -0.28858080972E-02 -0.14847199545E-01  0.10201192122E+01  0.10198412884E+01 0.  0.
     999903    2    3    3    0    0  0.55750973051E-01 -0.29043708477E-01  0.10925038230E+00  0.13024264800E+00  0.32799288528E-01 0.  0.
         14    1    1    2    0    0 -0.18389844861E-01  0.28858080972E-02  0.14847199545E-01  0.23810787823E-01  0.00000000000E+00 0.  1.
     999901    1    3    3    0    0 -0.37361128189E-01  0.26157900379E-01 -0.12409758184E+00  0.88987656418E+00  0.88000000000E+00 0.  1.
        -11    1    4    4    0    0  0.11609964008E-01 -0.23651795626E-01  0.43675907957E-01  0.51010241692E-01  0.51100000000E-03 0.  1.
         11    1    4    4    0    0  0.44141009042E-01 -0.53919128504E-02  0.65574474341E-01  0.79232406309E-01  0.51100000000E-03 0. -1.
</event>
<event>
 8    1  0.1112171E+005  0.1043930E+01  0.7957747E-01            NaN
         13   -1    0    0    0    0  0.00000000000E+00  0.00000000000E+00  0.74505805969E-08  0.10566000000E+00  0.10566000000E+00 0. -1.
     999900   -1    0    0    0    0 -0.00000000000E+00 -0.00000000000E+00 -0.74505805969E-08  0.93827000000E+00  0.93827000000E+00 0. -1.
     999902    2    1    2    0    0 -0.19805372856E-01 -0.68530202431E-02  0.11254592035E-01  0.10201417146E+01  0.10198643220E+01 0.  0.
     999903    2    3    3    0    0  0.10640389486E+00 -0.67511751871E-01  0.18958336535E-01  0.12903700209E+00  0.20285558948E-01 0.  0.
         14    1    1    2    0    0  0.19805372856E-01  0.68530202431E-02 -0.11254592035E-01  0.23788285400E-01  0.00000000000E+00 0.  1.
     999901    1    3    3    0    0 -0.12620926772E+00  0.60658731627E-01 -0.77037445007E-02  0.89110471251E+00  0.88000000000E+00 0. -1.
        -11    1    4    4    0    0  0.62724031393E-01 -0.29706056320E-01  0.15797133494E-01  0.71179803623E-01  0.51100000000E-03 0. -1.
         11    1    4    4    0    0  0.43679863468E-01 -0.37805695550E-01  0.31612030412E-02  0.57857198466E-01  0.51100000000E-03 0.  1.
</event>
<event>
 8    1  0.1112171E+005  0.1043930E+01  0.7957747E-01            NaN
         13   -1    0    0    0    0  0.00000000000E+00  0.00000000000E+00  0.74505805969E-08  0.10566000000E+00  0.10566000000E+00 0. -1.
     999900   -1    0    0    0    0 -0.00000000000E+00 -0.00000000000E+00 -0.74505805969E-08  0.93827000000E+00  0.93827000000E+00 0.  1.
     999902    2    1    2    0    0  0.15376037606E-01  0.13916294604E-01 -0.12780709890E-01  0.10195695334E+01  0.10192784708E+01 0.  0.
     999903    2    3    3    0    0  0.40580881698E-01 -0.34038929129E-01  0.11552457247E+00  0.12861654186E+00  0.19769454679E-01 0.  0.
         14    1    1    2    0    0 -0.15376037606E-01 -0.13916294604E-01  0.12780709890E-01  0.24360466606E-01  0.00000000000E+00 0. -1.
     999901    1    3    3    0    0 -0.25204844092E-01  0.47955223733E-01 -0.12830528236E+00  0.89095299154E+00  0.88000000000E+00 0.  1.
        -11    1    4    4    0    0  0.15180662385E-01 -0.22776903067E-01  0.43284843767E-01  0.51215999889E-01  0.51100000000E-03 0. -1.
         11    1    4    4    0    0  0.25400219314E-01 -0.11262026062E-01  0.72239728706E-01  0.77400541967E-01  0.51100000000E-03 0.  1.
</event>
<event>
 8    1  0.1112171E+005  0.1043930E+01  0.7957747E-01            NaN
         13   -1    0    0    0    0  0.00000000000E+00  0.00000000000E+00  0.74505805969E-08  0.10566000000E+00  0.10566000000E+00 0.  1.
     999900   -1    0    0    0    0 -0.00000000000E+00 -0.00000000000E+00 -0.74505805969E-08  0.93827000000E+00  0.93827000000E+00 0.  1.
     999902    2    1    2    0    0 -0.17199013480E-01 -0.16916998423E-01 -0.24175821023E-02  0.10196846787E+01  0.10193963942E+01 0.  0.
     999903    2    3    3    0    0 -0.48125099678E-01 -0.11119551865E+00 -0.50542968338E-01  0.13280198356E+00  0.20032638461E-01 0.  0.
         14    1    1    2    0    0  0.17199013480E-01  0.16916998423E-01  0.24175821023E-02  0.24245321272E-01  0.00000000000E+00 0. -1.
     999901    1    3    3    0    0  0.30926086197E-01  0.94278520224E-01  0.48125386236E-01  0.88688269517E+00  0.88000000000E+00 0. -1.
        -11    1    4    4    0    0 -0.13924421368E-01 -0.33933755775E-01 -0.25496022446E-01  0.44673231056E-01  0.51100000000E-03 0. -1.
         11    1    4    4    0    0 -0.34200678310E-01 -0.77261762872E-01 -0.25046945893E-01  0.88128752507E-01  0.51100000000E-03 0.  1.
</event>
<event>
 8    1  0.1112171E+005  0.1043930E+01  0.7957747E-01            NaN
         13   -1    0    0    0    0  0.00000000000E+00  0.00000000000E+00  0.74505805969E-08  0.10566000000E+00  0.10566000000E+00 0.  1.
     999900   -1    0    0    0    0 -0.00000000000E+00 -0.00000000000E+00 -0.74505805969E-08  0.93827000000E+00  0.93827000000E+00 0.  1.
     999902    2    1    2    0    0 -0.97841579262E-02 -0.19341510118E-01  0.97561170982E-02  0.10201601540E+01  0.10198831963E+01 0.  0.
     999903    2    3    3    0    0 -0.71271707507E-01  0.10582411911E+00 -0.23197842366E-02  0.12909731617E+00  0.19553392718E-01 0.  0.
         14    1    1    2    0    0  0.97841579262E-02  0.19341510118E-01 -0.97561170982E-02  0.23769846041E-01  0.00000000000E+00 0. -1.
     999901    1    3    3    0    0  0.61487549581E-01 -0.12516562923E+00  0.12075901335E-01  0.89106283779E+00  0.88000000000E+00 0. -1.
        -11    1    4    4    0    0 -0.68035945491E-01  0.10329852447E+00 -0.55990013988E-02  0.12381875857E+00  0.51100000000E-03 0.  1.
         11    1    4    4    0    0 -0.32357620162E-02  0.25255946392E-02  0.32792171622E-02  0.52785575970E-02  0.51100000000E-03 0. -1.
</event>
<event>
 8    1  0.1112171E+005  0.1043930E+01  0.7957747E-01            NaN
         13   -1    0    0    0    0  0.00000000000E+00  0.00000000000E+00  0.74505805969E-08  0.10566000000E+00  0.10566000000E+00 0. -1.
     999900   -1    0    0    0    0 -0.00000000000E+00 -0.00000000000E+00 -0.74505805969E-08  0.93827000000E+00  0.93827000000E+00 0. -1.
     999902    2    1    2    0    0  0.19907313574E-01 -0.51031009799E-02 -0.48210340348E-02  0.10228211122E+01  0.10226032674E+01 0.  0.
     999903    2    3    3    0    0 -0.42212334502E-01 -0.26494894108E-01 -0.12132530394E+00  0.13271454312E+00  0.20235117518E-01 0.  0.
         14    1    1    2    0    0 -0.19907313574E-01  0.51031009799E-02  0.48210340348E-02  0.21108887761E-01  0.00000000000E+00 0.  1.
     999901    1    3    3    0    0  0.62119648076E-01  0.21391793128E-01  0.11650426990E+00  0.89010656912E+00  0.88000000000E+00 0.  1.
        -11    1    4    4    0    0 -0.36016025444E-01 -0.27999132666E-01 -0.11499852521E+00  0.12371753086E+00  0.51100000000E-03 0. -1.
         11    1    4    4    0    0 -0.61963090571E-02  0.15042385576E-02 -0.63267787230E-02  0.89970122585E-02  0.51100000000E-03 0.  1.
</event>
<event>
 8    1  0.1112171E+005  0.1043930E+01  0.7957747E-01            NaN
         13   -1    0    0    0    0  0.00000000000E+00  0.00000000000E+00  0.74505805969E-08  0.10566000000E+00  0.10566000000E+00 0.  1.
     999900   -1    0    0    0    0 -0.00000000000E+00 -0.00000000000E+00 -0.74505805969E-08  0.93827000000E+00  0.93827000000E+00 0. -1.
     999902    2    1    2    0    0 -0.29196227542E-02  0.30230984454E-02 -0.22816272473E-01  0.10207298791E+01  0.10204661878E+01 0.  0.
     999903    2    3    3    0    0  0.20458144242E-01  0.12797329470E+00  0.81519977237E-03  0.13128200651E+00  0.20942799714E-01 0.  0.
         14    1    1    2    0    0  0.29196227542E-02 -0.30230984454E-02  0.22816272473E-01  0.23200120922E-01  0.00000000000E+00 0.  1.
     999901    1    3    3    0    0 -0.23377766996E-01 -0.12495019626E+00 -0.23631472245E-01  0.88944787257E+00  0.88000000000E+00 0.  1.
        -11    1    4    4    0    0  0.10302465435E-02  0.72299177837E-01  0.84533252401E-03  0.72313264564E-01  0.51100000000E-03 0.  1.
         11    1    4    4    0    0  0.19427897699E-01  0.55674116866E-01 -0.30132751638E-04  0.58968741946E-01  0.51100000000E-03 0. -1.
</event>
<event>
 8    1  0.1112171E+005  0.1043930E+01  0.7957747E-01            NaN
         13   -1    0    0    0    0  0.00000000000E+00  0.00000000000E+00  0.74505805969E-08  0.10566000000E+00  0.10566000000E+00 0. -1.
     999900   -1    0    0    0    0 -0.00000000000E+00 -0.00000000000E+00 -0.74505805969E-08  0.93827000000E+00  0.93827000000E+00 0.  1.
     999902    2    1    2    0    0 -0.11916044170E-01  0.12591923786E-01 -0.15391970675E-01  0.10207467859E+01  0.10204834832E+01 0.  0.
     999903    2    3    3    0    0  0.40727743323E-01  0.11605013522E+00 -0.45268502183E-01  0.13262090690E+00  0.20314642390E-01 0.  0.
         14    1    1    2    0    0  0.11916044170E-01 -0.12591923786E-01  0.15391970675E-01  0.23183214069E-01  0.00000000000E+00 0. -1.
     999901    1    3    3    0    0 -0.52643787493E-01 -0.10345821143E+00  0.29876531508E-01  0.88812587903E+00  0.88000000000E+00 0.  1.
        -11    1    4    4    0    0  0.31206993678E-01  0.73392194158E-01 -0.37874491944E-01  0.88289460746E-01  0.51100000000E-03 0.  1.
         11    1    4    4    0    0  0.95207496457E-02  0.42657941062E-01 -0.73940102399E-02  0.44331446152E-01  0.51100000000E-03 0. -1.
</event>
<event>
 8    1  0.1112171E+005  0.1043930E+01  0.7957747E-01            NaN
         13   -1    0    0    0    0  0.00000000000E+00  0.00000000000E+00  0.74505805969E-08  0.10566000000E+00  0.10566000000E+00 0. -1.
     999900   -1    0    0    0    0 -0.00000000000E+00 -0.00000000000E+00 -0.74505805969E-08  0.93827000000E+00  0.93827000000E+00 0. -1.
     999902    2    1    2    0    0 -0.19857401142E-01  0.11777601786E-02 -0.12841967221E-01  0.10202525926E+01  0.10199778101E+01 0.  0.
     999903    2    3    3    0    0  0.97784238798E-01 -0.31067836565E-01  0.73339004120E-01  0.12766842638E+00  0.19840608447E-01 0.  0.
         14    1    1    2    0    0  0.19857401142E-01 -0.11777601786E-02  0.12841967221E-01  0.23677407402E-01  0.00000000000E+00 0.  1.
     999901    1    3    3    0    0 -0.11764163994E+00  0.32245596744E-01 -0.86180971341E-01  0.89258416622E+00  0.88000000000E+00 0. -1.
        -11    1    4    4    0    0  0.91405704674E-01 -0.28944036482E-01  0.73675629718E-01  0.12091782181E+00  0.51100000000E-03 0.  1.
         11    1    4    4    0    0  0.63785341241E-02 -0.21238000831E-02 -0.33662559802E-03  0.67506045773E-02  0.51100000000E-03 0. -1.
</event>
<event>
 8    1  0.1112171E+005  0.1043930E+01  0.7957747E-01            NaN
         13   -1    0    0    0    0  0.00000000000E+00  0.00000000000E+00  0.74505805969E-08  0.10566000000E+00  0.10566000000E+00 0.  1.
     999900   -1    0    0    0    0 -0.00000000000E+00 -0.00000000000E+00 -0.74505805969E-08  0.93827000000E+00  0.93827000000E+00 0.  1.
     999902    2    1    2    0    0 -0.28556248258E-03  0.22090192178E-01 -0.71656743510E-02  0.10207049053E+01  0.10204406394E+01 0.  0.
     999903    2    3    3    0    0 -0.79683567873E-01 -0.26475093935E-01 -0.98503104582E-01  0.13109535247E+00  0.20802121005E-01 0.  0.
         14    1    1    2    0    0  0.28556248258E-03 -0.22090192178E-01  0.71656743510E-02  0.23225094731E-01  0.00000000000E+00 0.  1.
     999901    1    3    3    0    0  0.79398005391E-01  0.48565286112E-01  0.91337430231E-01  0.88960955280E+00  0.88000000000E+00 0.  1.
        -11    1    4    4    0    0 -0.49163712066E-01 -0.25899253176E-01 -0.57379233447E-01  0.79877903398E-01  0.51100000000E-03 0.  1.
         11    1    4    4    0    0 -0.30519855808E-01 -0.57584075829E-03 -0.41123871134E-01  0.51217449069E-01  0.51100000000E-03 0. -1.
</event>
<event>
 8    1  0.1112171E+005  0.1043930E+01  0.7957747E-01            NaN
         13   -1    0    0    0    0  0.00000000000E+00  0.00000000000E+00  0.74505805969E-08  0.10566000000E+00  0.10566000000E+00 0. -1.
     999900   -1    0    0    0    0 -0.00000000000E+00 -0.00000000000E+00 -0.74505805969E-08  0.93827000000E+00  0.93827000000E+00 0.  1.
     999902    2    1    2    0    0  0.87761813808E-02 -0.16816660343E-01  0.14688520865E-01  0.10199388752E+01  0.10196566751E+01 0.  0.
     999903    2    3    3    0    0  0.11140581495E+00 -0.66608805598E-01 -0.14258624565E-01  0.13210441052E+00  0.20006956700E-01 0.  0.
         14    1    1    2    0    0 -0.87761813808E-02  0.16816660343E-01 -0.14688520865E-01  0.23991124816E-01  0.00000000000E+00 0.  1.
     999901    1    3    3    0    0 -0.10262963357E+00  0.49792145255E-01  0.28947145431E-01  0.88783446466E+00  0.88000000000E+00 0. -1.
        -11    1    4    4    0    0  0.21124171219E-01 -0.69822487158E-02  0.32855083326E-02  0.22495290459E-01  0.51100000000E-03 0. -1.
         11    1    4    4    0    0  0.90281643731E-01 -0.59626556883E-01 -0.17544132898E-01  0.10960912006E+00  0.51100000000E-03 0.  1.
</event>
<event>
 8    1  0.1112171E+005  0.1043930E+01  0.7957747E-01            NaN
         13   -1    0    0    0    0  0.00000000000E+00  0.00000000000E+00  0.74505805969E-08  0.10566000000E+00  0.10566000000E+00 0.  1.
     999900   -1    0    0    0    0 -0.00000000000E+00 -0.00000000000E+00 -0.74505805969E-08  0.93827000000E+00  0.93827000000E+00 0.  1.
     999902    2    1    2    0    0  0.15889461740E-02  0.23475044661E-01  0.10113521387E-02  0.10203795158E+01  0.10201077056E+01 0.  0.
     999903    2    3    3    0    0  0.73217899918E-01 -0.21884036339E-01  0.10382432096E+00  0.13034656149E+00  0.19260440122E-01 0.  0.
         14    1    1    2    0    0 -0.15889461740E-02 -0.23475044661E-01 -0.10113521387E-02  0.23550484176E-01  0.00000000000E+00 0.  1.
     999901    1    3    3    0    0 -0.71628953744E-01  0.45359081000E-01 -0.10281296882E+00  0.89003295433E+00  0.88000000000E+00 0.  1.
        -11    1    4    4    0    0  0.34432352395E-01 -0.20237646841E-01  0.54770886400E-01  0.67788349730E-01  0.51100000000E-03 0. -1.
         11    1    4    4    0    0  0.38785547523E-01 -0.16463894982E-02  0.49053434563E-01  0.62558211759E-01  0.51100000000E-03 0.  1.
</event>
<event>
 8    1  0.1112171E+005  0.1043930E+01  0.7957747E-01            NaN
         13   -1    0    0    0    0  0.00000000000E+00  0.00000000000E+00  0.74505805969E-08  0.10566000000E+00  0.10566000000E+00 0.  1.
     999900   -1    0    0    0    0 -0.00000000000E+00 -0.00000000000E+00 -0.74505805969E-08  0.93827000000E+00  0.93827000000E+00 0.  1.
     999902    2    1    2    0    0  0.19625732480E-01  0.28844757858E-02 -0.79731904644E-02  0.10225510070E+01  0.10223274918E+01 0.  0.
     999903    2    3    3    0    0 -0.10017659251E+00 -0.42862680209E-02  0.80200963324E-01  0.13003843115E+00  0.20593136669E-01 0.  0.
         14    1    1    2    0    0 -0.19625732480E-01 -0.28844757858E-02  0.79731904644E-02  0.21378993010E-01  0.00000000000E+00 0.  1.
     999901    1    3    3    0    0  0.11980232499E+00  0.71707438068E-02 -0.88174153789E-01  0.89251257584E+00  0.88000000000E+00 0.  1.
        -11    1    4    4    0    0 -0.53806051349E-01 -0.11760682711E-01  0.38221846187E-01  0.67041595048E-01  0.51100000000E-03 0.  1.
         11    1    4    4    0    0 -0.46370541157E-01  0.74744146896E-02  0.41979117137E-01  0.62996836101E-01  0.51100000000E-03 0. -1.
</event>
<event>
 8    1  0.1112171E+005  0.1043930E+01  0.7957747E-01            NaN
         13   -1    0    0    0    0  0.00000000000E+00  0.00000000000E+00  0.74505805969E-08  0.10566000000E+00  0.10566000000E+00 0. -1.
     999900   -1    0    0    0    0 -0.00000000000E+00 -0.00000000000E+00 -0.74505805969E-08  0.93827000000E+00  0.93827000000E+00 0. -1.
     999902    2    1    2    0    0  0.68367305633E-02  0.22025343618E-01  0.18003085998E-02  0.10207978199E+01  0.10205356884E+01 0.  0.
     999903    2    3    3    0    0 -0.10288715814E+00 -0.19294104905E-01 -0.74084323612E-01  0.12978429249E+00  0.19936042198E-01 0.  0.
         14    1    1    2    0    0 -0.68367305633E-02 -0.22025343618E-01 -0.18003085998E-02  0.23132180125E-01  0.00000000000E+00 0. -1.
     999901    1    3    3    0    0  0.10972388870E+00  0.41319448523E-01  0.75884632212E-01  0.89101352739E+00  0.88000000000E+00 0.  1.
        -11    1    4    4    0    0 -0.73843394590E-01 -0.76550095134E-02 -0.60056156345E-01  0.95490570902E-01  0.51100000000E-03 0.  1.
         11    1    4    4    0    0 -0.29043763546E-01 -0.11639095392E-01 -0.14028167267E-01  0.34293721588E-01  0.51100000000E-03 0. -1.
</event>
<event>
 8    1  0.1112171E+005  0.1043930E+01  0.7957747E-01            NaN
         13   -1    0    0    0    0  0.00000000000E+00  0.00000000000E+00  0.74505805969E-08  0.10566000000E+00  0.10566000000E+00 0. -1.
     999900   -1    0    0    0    0 -0.00000000000E+00 -0.00000000000E+00 -0.74505805969E-08  0.93827000000E+00  0.93827000000E+00 0. -1.
     999902    2    1    2    0    0  0.99995873015E-03  0.19547148177E-01  0.14008722660E-01  0.10198606163E+01  0.10195765501E+01 0.  0.
     999903    2    3    3    0    0 -0.67887664945E-02 -0.65334793365E-01 -0.10718042662E+00  0.12747481516E+00  0.21153299370E-01 0.  0.
         14    1    1    2    0    0 -0.99995873015E-03 -0.19547148177E-01 -0.14008722660E-01  0.24069383662E-01  0.00000000000E+00 0.  1.
     999901    1    3    3    0    0  0.77887252247E-02  0.84881941541E-01  0.12118914928E+00  0.89238580118E+00  0.88000000000E+00 0.  1.
        -11    1    4    4    0    0 -0.11996776618E-01 -0.36747936535E-01 -0.48773115241E-01  0.62236736580E-01  0.51100000000E-03 0. -1.
         11    1    4    4    0    0  0.52080101235E-02 -0.28586856830E-01 -0.58407311382E-01  0.65238078580E-01  0.51100000000E-03 0.  1.
</event>
<event>
 8    1  0.1112171E+005  0.1043930E+01  0.7957747E-01            NaN
         13   -1    0    0    0    0  0.00000000000E+00  0.00000000000E+00  0.74505805969E-08  0.10566000000E+00  0.10566000000E+00 0.  1.
     999900   -1    0    0    0    0 -0.00000000000E+00 -0.00000000000E+00 -0.74505805969E-08  0.93827000000E+00  0.93827000000E+00 0.  1.
     999902    2    1    2    0    0  0.16806233154E-01 -0.10494751705E-01  0.13209657502E-01  0.10201164673E+01  0.10198384787E+01 0.  0.
     999903    2    3    3    0    0 -0.91440873270E-01 -0.23190869477E-01  0.87550175676E-01  0.13028213439E+00  0.20227494905E-01 0.  0.
         14    1    1    2    0    0 -0.16806233154E-01  0.10494751705E-01 -0.13209657502E-01  0.23813532654E-01  0.00000000000E+00 0.  1.
     999901    1    3    3    0    0  0.10824710642E+00  0.12696117772E-01 -0.74340518174E-01  0.88983433295E+00  0.88000000000E+00 0.  1.
        -11    1    4    4    0    0 -0.83004127122E-01 -0.26556371366E-01  0.81758374974E-01  0.11949735971E+00  0.51100000000E-03 0.  1.
         11    1    4    4    0    0 -0.84367461484E-02  0.33655018888E-02  0.57918007018E-02  0.10784774680E-01  0.51100000000E-03 0. -1.
</event>
<event>
 8    1  0.1112171E+005  0.1043930E+01  0.7957747E-01            NaN
         13   -1    0    0    0    0  0.00000000000E+00  0.00000000000E+00  0.74505805969E-08  0.10566000000E+00  0.10566000000E+00 0.  1.
     999900   -1    0    0    0    0 -0.00000000000E+00 -0.00000000000E+00 -0.74505805969E-08  0.93827000000E+00  0.93827000000E+00 0. -1.
     999902    2    1    2    0    0 -0.54643230469E-02 -0.22858692261E-01 -0.36134992888E-02  0.10201511015E+01  0.10198739304E+01 0.  0.
     999903    2    3    3    0    0 -0.10851084113E+00  0.24809997711E-01  0.64607046096E-01  0.13023822275E+00  0.19944563925E-01 0.  0.
         14    1    1    2    0    0  0.54643230469E-02  0.22858692261E-01  0.36134992888E-02  0.23778898531E-01  0.00000000000E+00 0.  1.
     999901    1    3    3    0    0  0.10304651809E+00 -0.47668689972E-01 -0.68220545385E-01  0.88991287872E+00  0.88000000000E+00 0. -1.
        -11    1    4    4    0    0 -0.18075684608E-01 -0.30758383668E-02  0.84795328097E-02  0.20207789424E-01  0.51100000000E-03 0.  1.
         11    1    4    4    0    0 -0.90435156526E-01  0.27885836078E-01  0.56127513286E-01  0.11003043333E+00  0.51100000000E-03 0. -1.
</event>
<event>
 8    1  0.1112171E+005  0.1043930E+01  0.7957747E-01            NaN
         13   -1    0    0    0    0  0.00000000000E+00  0.00000000000E+00  0.74505805969E-08  0.10566000000E+00  0.10566000000E+00 0.  1.
     999900   -1    0    0    0    0 -0.00000000000E+00 -0.00000000000E+00 -0.74505805969E-08  0.93827000000E+00  0.93827000000E+00 0.  1.
     999902    2    1    2    0    0 -0.20681507108E-02  0.17688912825E-01 -0.16072594835E-01  0.10199403525E+01  0.10196581875E+01 0.  0.
     999903    2    3    3    0    0  0.11475661387E+00 -0.27011791793E-01  0.47472023832E-01  0.12882638827E+00  0.21069597630E-01 0.  0.
         14    1    1    2    0    0  0.20681507108E-02 -0.17688912825E-01  0.16072594835E-01  0.23989647539E-01  0.00000000000E+00 0.  1.
     999901    1    3    3    0    0 -0.11682476459E+00  0.44700704618E-01 -0.63544618667E-01  0.89111396419E+00  0.88000000000E+00 0.  1.
        -11    1    4    4    0    0  0.43558602227E-01 -0.10344168896E-01  0.72082832692E-02  0.45349466665E-01  0.51100000000E-03 0.  1.
         11    1    4    4    0    0  0.71198011648E-01 -0.16667622897E-01  0.40263740563E-01  0.83476921605E-01  0.51100000000E-03 0. -1.
</event>
<event>
 8    1  0.1112171E+005  0.1043930E+01  0.7957747E-01            NaN
         13   -1    0    0    0    0  0.00000000000E+00  0.00000000000E+00  0.74505805969E-08  0.10566000000E+00  0.10566000000E+00 0.  1.
     999900   -1    0    0    0    0 -0.00000000000E+00 -0.00000000000E+00 -0.74505805969E-08  0.93827000000E+00  0.93827000000E+00 0.  1.
     999902    2    1    2    0    0  0.18088767103E-01 -0.16726193651E-01 -0.57800676124E-02  0.10186243044E+01  0.10183099210E+01 0.  0.
     999903    2    3    3    0    0  0.32407933503E-01  0.10807938969E-01  0.12254499017E+00  0.12877572881E+00  0.19970678903E-01 0.  0.
         14    1    1    2    0    0 -0.18088767103E-01  0.16726193651E-01  0.57800676124E-02  0.25305695623E-01  0.00000000000E+00 0. -1.
     999901    1    3    3    0    0 -0.14319166400E-01 -0.27534132620E-01 -0.12832505778E+00  0.88984857557E+00  0.88000000000E+00 0.  1.
        -11    1    4    4    0    0  0.28407244613E-01  0.32521669166E-02  0.71322164692E-01  0.76841788328E-01  0.51100000000E-03 0. -1.
         11    1    4    4    0    0  0.40006888901E-02  0.75557720524E-02  0.51222825479E-01  0.51933940481E-01  0.51100000000E-03 0.  1.
</event>
<event>
 8    1  0.1112171E+005  0.1043930E+01  0.7957747E-01            NaN
         13   -1    0    0    0    0  0.00000000000E+00  0.00000000000E+00  0.74505805969E-08  0.10566000000E+00  0.10566000000E+00 0. -1.
     999900   -1    0    0    0    0 -0.00000000000E+00 -0.00000000000E+00 -0.74505805969E-08  0.93827000000E+00  0.93827000000E+00 0. -1.
     999902    2    1    2    0    0  0.84178561136E-02  0.10557667804E-02  0.22269356962E-01  0.10200993642E+01  0.10198209713E+01 0.  0.
     999903    2    3    3    0    0 -0.59210665368E-01 -0.63975037392E-01  0.96999852208E-01  0.13196239875E+00  0.20159242364E-01 0.  0.
         14    1    1    2    0    0 -0.84178561136E-02 -0.10557667804E-02 -0.22269356962E-01  0.23830635840E-01  0.00000000000E+00 0.  1.
     999901    1    3    3    0    0  0.67628521482E-01  0.65030804172E-01 -0.74730495247E-01  0.88813696541E+00  0.88000000000E+00 0. -1.
        -11    1    4    4    0    0 -0.29996375792E-01 -0.36644024971E-01  0.38214312796E-01  0.60853610823E-01  0.51100000000E-03 0. -1.
         11    1    4    4    0    0 -0.29214289576E-01 -0.27331012421E-01  0.58785539412E-01  0.71108787926E-01  0.51100000000E-03 0.  1.
</event>
<event>
 8    1  0.1112171E+005  0.1043930E+01  0.7957747E-01            NaN
         13   -1    0    0    0    0  0.00000000000E+00  0.00000000000E+00  0.74505805969E-08  0.10566000000E+00  0.10566000000E+00 0. -1.
     999900   -1    0    0    0    0 -0.00000000000E+00 -0.00000000000E+00 -0.74505805969E-08  0.93827000000E+00  0.93827000000E+00 0. -1.
     999902    2    1    2    0    0 -0.51821315797E-02  0.40436498759E-02 -0.21591794720E-01  0.10213598606E+01  0.10211104513E+01 0.  0.
     999903    2    3    3    0    0 -0.98191173142E-01 -0.76003445096E-01 -0.42315598373E-01  0.13260359749E+00  0.19366828670E-01 0.  0.
         14    1    1    2    0    0  0.51821315797E-02 -0.40436498759E-02  0.21591794720E-01  0.22570139372E-01  0.00000000000E+00 0. -1.
     999901    1    3    3    0    0  0.93009041562E-01  0.80047094972E-01  0.20723803652E-01  0.88875626314E+00  0.88000000000E+00 0.  1.
        -11    1    4    4    0    0 -0.42714100258E-01 -0.45108631716E-01 -0.22675679511E-01  0.66134186156E-01  0.51100000000E-03 0.  1.
         11    1    4    4    0    0 -0.55477072883E-01 -0.30894813380E-01 -0.19639918861E-01  0.66469411336E-01  0.51100000000E-03 0. -1.
</event>
<event>
 8    1  0.1112171E+005  0.1043930E+01  0.7957747E-01            NaN
         13   -1    0    0    0    0  0.00000000000E+00  0.00000000000E+00  0.74505805969E-08  0.10566000000E+00  0.10566000000E+00 0.  1.
     999900   -1    0    0    0    0 -0.00000000000E+00 -0.00000000000E+00 -0.74505805969E-08  0.93827000000E+00  0.93827000000E+00 0.  1.
     999902    2    1    2    0    0  0.16692404929E-01 -0.14293137495E-01  0.91847352343E-02  0.10201121596E+01  0.10198340691E+01 0.  0.
     999903    2    3    3    0    0  0.17314029123E-01  0.78500853298E-01 -0.98573437183E-01  0.12869590726E+00  0.19589651729E-01 0.  0.
         14    1    1    2    0    0 -0.16692404929E-01  0.14293137495E-01 -0.91847352343E-02  0.23817840437E-01  0.00000000000E+00 0. -1.
     999901    1    3    3    0    0 -0.62162419431E-03 -0.92793990793E-01  0.10775817242E+00  0.89141625230E+00  0.88000000000E+00 0. -1.
        -11    1    4    4    0    0  0.36602769056E-02  0.37093993603E-01 -0.59129276240E-01  0.69899173229E-01  0.51100000000E-03 0.  1.
         11    1    4    4    0    0  0.13653752217E-01  0.41406859695E-01 -0.39444160944E-01  0.58796734033E-01  0.51100000000E-03 0. -1.
</event>
<event>
 8    1  0.1112171E+005  0.1043930E+01  0.7957747E-01            NaN
         13   -1    0    0    0    0  0.00000000000E+00  0.00000000000E+00  0.74505805969E-08  0.10566000000E+00  0.10566000000E+00 0.  1.
     999900   -1    0    0    0    0 -0.00000000000E+00 -0.00000000000E+00 -0.74505805969E-08  0.93827000000E+00  0.93827000000E+00 0. -1.
     999902    2    1    2    0    0 -0.10823399482E-01  0.20905567882E-01  0.35606407366E-02  0.10201210330E+01  0.10198431522E+01 0.  0.
     999903    2    3    3    0    0 -0.77658139009E-01  0.10935907341E-01  0.10364828485E+00  0.13187342509E+00  0.22299162980E-01 0.  0.
         14    1    1    2    0    0  0.10823399482E-01 -0.20905567882E-01 -0.35606407366E-02  0.23808966951E-01  0.00000000000E+00 0.  1.
     999901    1    3    3    0    0  0.66834739527E-01  0.99696605415E-02 -0.10008764411E+00  0.88824760796E+00  0.88000000000E+00 0. -1.
        -11    1    4    4    0    0 -0.47735532203E-01  0.42325943628E-02  0.79544006645E-01  0.92866064867E-01  0.51100000000E-03 0.  1.
         11    1    4    4    0    0 -0.29922606806E-01  0.67033129778E-02  0.24104278203E-01  0.39007360224E-01  0.51100000000E-03 0. -1.
</event>
<event>
 8    1  0.1660139E+005  0.1043930E+01  0.7957747E-01            NaN
         13   -1    0    0    0    0  0.00000000000E+00  0.00000000000E+00  0.74505805969E-08  0.10566000000E+00  0.10566000000E+00 0. -1.
     999900   -1    0    0    0    0 -0.00000000000E+00 -0.00000000000E+00 -0.74505805969E-08  0.93827000000E+00  0.93827000000E+00 0. -1.
     999902    2    1    2    0    0  0.10560759589E-01  0.54403016159E-02  0.22906796276E-01  0.10181259724E+01  0.10177989231E+01 0.  0.
     999903    2    3    3    0    0  0.13468343932E-01 -0.34234972666E-01  0.12458146246E+00  0.13137892889E+00  0.19658395810E-01 0.  0.
         14    1    1    2    0    0 -0.10560759589E-01 -0.54403016159E-02 -0.22906796276E-01  0.25804027600E-01  0.00000000000E+00 0.  1.
     999901    1    3    3    0    0 -0.29075843434E-02  0.39675274282E-01 -0.10167466618E+00  0.88674704351E+00  0.88000000000E+00 0. -1.
        -11    1    4    4    0    0 -0.46464198591E-02 -0.12744043093E-01  0.42766290547E-01  0.44868882090E-01  0.51100000000E-03 0.  1.
         11    1    4    4    0    0  0.18114763791E-01 -0.21490929573E-01  0.81815171910E-01  0.86510046797E-01  0.51100000000E-03 0. -1.
</event>
<event>
 8    1  0.1112171E+005  0.1043930E+01  0.7957747E-01            NaN
         13   -1    0    0    0    0  0.00000000000E+00  0.00000000000E+00  0.74505805969E-08  0.10566000000E+00  0.10566000000E+00 0. -1.
     999900   -1    0    0    0    0 -0.00000000000E+00 -0.00000000000E+00 -0.74505805969E-08  0.93827000000E+00  0.93827000000E+00 0. -1.
     999902    2    1    2    0    0  0.17162565868E-01 -0.12749530617E-01  0.69238960721E-02  0.10214568041E+01  0.10212095564E+01 0.  0.
     999903    2    3    3    0    0  0.60762494746E-02  0.10615551972E+00  0.74375831273E-01  0.13083282003E+00  0.16719669361E-01 0.  0.
         14    1    1    2    0    0 -0.17162565868E-01  0.12749530617E-01 -0.69238960721E-02  0.22473195922E-01  0.00000000000E+00 0.  1.
     999901    1    3    3    0    0  0.11086316393E-01 -0.11890505034E+00 -0.67451935201E-01  0.89062398405E+00  0.88000000000E+00 0. -1.
        -11    1    4    4    0    0  0.65154353951E-02  0.14738152027E-01  0.92449241416E-02  0.18584772448E-01  0.51100000000E-03 0. -1.
         11    1    4    4    0    0 -0.43918592043E-03  0.91417367693E-01  0.65130907132E-01  0.11224804758E+00  0.51100000000E-03 0.  1.
</event>
<event>
 7    1  0.1112171E+005  0.1043930E+01  0.7957747E-01            NaN
         13   -1    0    0    0    0  0.00000000000E+00  0.00000000000E+00  0.74505805969E-08  0.10566000000E+00  0.10566000000E+00 0.  1.
     999900   -1    0    0    0    0 -0.00000000000E+00 -0.00000000000E+00 -0.74505805969E-08  0.93827000000E+00  0.93827000000E+00 0.  1.
     999903    2    1    2    0    0  0.38712541906E-01 -0.43416166256E-01 -0.57519770930E-01  0.84559320245E-01  0.21403976248E-01 0.  0.
         14    1    1    2    0    0 -0.18862554184E-01 -0.47223457849E-01  0.54428511513E-01  0.74487004149E-01  0.00000000000E+00 0. -1.
     999901    1    1    2    0    0 -0.19849987722E-01  0.90639624105E-01  0.30912594168E-02  0.88488367561E+00  0.88000000000E+00 0. -1.
        -11    1    3    3    0    0  0.81519396850E-02 -0.11258049950E-01 -0.28015979036E-01  0.31278651052E-01  0.51100000000E-03 0.  1.
         11    1    3    3    0    0  0.30560602221E-01 -0.32158116306E-01 -0.29503791894E-01  0.53280669192E-01  0.51100000000E-03 0. -1.
</event>
<event>
 8    1  0.1112171E+005  0.1043930E+01  0.7957747E-01            NaN
         13   -1    0    0    0    0  0.00000000000E+00  0.00000000000E+00  0.74505805969E-08  0.10566000000E+00  0.10566000000E+00 0. -1.
     999900   -1    0    0    0    0 -0.00000000000E+00 -0.00000000000E+00 -0.74505805969E-08  0.93827000000E+00  0.93827000000E+00 0.  1.
     999902    2    1    2    0    0  0.25106912698E-02 -0.78629522981E-02  0.21644324720E-01  0.10207652340E+01  0.10205023550E+01 0.  0.
     999903    2    3    3    0    0  0.11164885425E+00 -0.59195225244E-01 -0.29662353037E-01  0.13105825079E+00  0.18079506760E-01 0.  0.
         14    1    1    2    0    0 -0.25106912698E-02  0.78629522981E-02 -0.21644324720E-01  0.23164765962E-01  0.00000000000E+00 0.  1.
     999901    1    3    3    0    0 -0.10913816298E+00  0.51332272946E-01  0.51306677757E-01  0.88970698325E+00  0.88000000000E+00 0. -1.
        -11    1    4    4    0    0  0.40810816449E-01 -0.27146401977E-01 -0.19032288380E-01  0.52582687279E-01  0.51100000000E-03 0. -1.
         11    1    4    4    0    0  0.70838037800E-01 -0.32048823268E-01 -0.10630064657E-01  0.78475563507E-01  0.51100000000E-03 0.  1.
</event>
<event>
 8    1  0.1112171E+005  0.1043930E+01  0.7957747E-01            NaN
         13   -1    0    0    0    0  0.00000000000E+00  0.00000000000E+00  0.74505805969E-08  0.10566000000E+00  0.10566000000E+00 0. -1.
     999900   -1    0    0    0    0 -0.00000000000E+00 -0.00000000000E+00 -0.74505805969E-08  0.93827000000E+00  0.93827000000E+00 0. -1.
     999902    2    1    2    0    0 -0.22657338029E-02  0.19268101407E-01  0.13226707269E-01  0.10204493896E+01  0.10201792086E+01 0.  0.
     999903    2    3    3    0    0 -0.34346135034E-01  0.51211376607E-01  0.11643592927E+00  0.13326188487E+00  0.19978544663E-01 0.  0.
         14    1    1    2    0    0  0.22657338029E-02 -0.19268101407E-01 -0.13226707269E-01  0.23480610441E-01  0.00000000000E+00 0.  1.
     999901    1    3    3    0    0  0.32080401231E-01 -0.31943275200E-01 -0.10320922201E+00  0.88718750469E+00  0.88000000000E+00 0. -1.
        -11    1    4    4    0    0 -0.35459539708E-01  0.41475950271E-01  0.10372821493E+00  0.11720681337E+00  0.51100000000E-03 0.  1.
         11    1    4    4    0    0  0.11134046739E-02  0.97354263354E-02  0.12707714347E-01  0.16055071499E-01  0.51100000000E-03 0. -1.
</event>
<event>
 8    1  0.1112171E+005  0.1043930E+01  0.7957747E-01            NaN
         13   -1    0    0    0    0  0.00000000000E+00  0.00000000000E+00  0.74505805969E-08  0.10566000000E+00  0.10566000000E+00 0. -1.
     999900   -1    0    0    0    0 -0.00000000000E+00 -0.00000000000E+00 -0.74505805969E-08  0.93827000000E+00  0.93827000000E+00 0.  1.
     999902    2    1    2    0    0 -0.20809168822E-01  0.74348293937E-02  0.78166067134E-02  0.10204907693E+01  0.10202215508E+01 0.  0.
     999903    2    3    3    0    0 -0.91730989995E-01 -0.71431304743E-01 -0.58417315260E-01  0.13165068006E+00  0.20057742003E-01 0.  0.
         14    1    1    2    0    0  0.20809168822E-01 -0.74348293937E-02 -0.78166067134E-02  0.23439230698E-01  0.00000000000E+00 0.  1.
     999901    1    3    3    0    0  0.70921821172E-01  0.78866134137E-01  0.66233921973E-01  0.88884008925E+00  0.88000000000E+00 0. -1.
        -11    1    4    4    0    0 -0.68167868240E-01 -0.63354504263E-01 -0.45771054875E-01  0.10371066510E+00  0.51100000000E-03 0.  1.
         11    1    4    4    0    0 -0.23563121754E-01 -0.80768004800E-02 -0.12646260385E-01  0.27940014952E-01  0.51100000000E-03 0. -1.
</event>
<event>
 8    1  0.1112171E+005  0.1043930E+01  0.7957747E-01            NaN
         13   -1    0    0    0    0  0.00000000000E+00  0.00000000000E+00  0.74505805969E-08  0.10566000000E+00  0.10566000000E+00 0.  1.
     999900   -1    0    0    0    0 -0.00000000000E+00 -0.00000000000E+00 -0.74505805969E-08  0.93827000000E+00  0.93827000000E+00 0.  1.
     999902    2    1    2    0    0  0.55999648358E-02  0.24509089384E-01 -0.14863760248E-01  0.10147240685E+01  0.10143036768E+01 0.  0.
     999903    2    3    3    0    0  0.85049984339E-01 -0.87837919993E-01 -0.15891216847E-01  0.12403039958E+00  0.13491079337E-01 0.  0.
         14    1    1    2    0    0 -0.55999648358E-02 -0.24509089384E-01  0.14863760248E-01  0.29205931543E-01  0.00000000000E+00 0.  1.
     999901    1    3    3    0    0 -0.79450019503E-01  0.11234700938E+00  0.10274565998E-02  0.89069366888E+00  0.88000000000E+00 0. -1.
        -11    1    4    4    0    0  0.32842116862E-01 -0.43424202209E-01 -0.60702772435E-02  0.54784809612E-01  0.51100000000E-03 0.  1.
         11    1    4    4    0    0  0.52207867477E-01 -0.44413717785E-01 -0.98209396038E-02  0.69245589965E-01  0.51100000000E-03 0. -1.
</event>
<event>
 8    1  0.1112171E+005  0.1043930E+01  0.7957747E-01            NaN
         13   -1    0    0    0    0  0.00000000000E+00  0.00000000000E+00  0.74505805969E-08  0.10566000000E+00  0.10566000000E+00 0.  1.
     999900   -1    0    0    0    0 -0.00000000000E+00 -0.00000000000E+00 -0.74505805969E-08  0.93827000000E+00  0.93827000000E+00 0.  1.
     999902    2    1    2    0    0 -0.16790807742E-01  0.16588708409E-01  0.39978555970E-02  0.10199905071E+01  0.10197095347E+01 0.  0.
     999903    2    3    3    0    0 -0.97346459563E-01 -0.81214301823E-01 -0.26600669399E-01  0.13038896057E+00  0.14885879713E-01 0.  0.
         14    1    1    2    0    0  0.16790807742E-01 -0.16588708409E-01 -0.39978555970E-02  0.23939492908E-01  0.00000000000E+00 0.  1.
     999901    1    3    3    0    0  0.80555651821E-01  0.97803010232E-01  0.30598524996E-01  0.88960154653E+00  0.88000000000E+00 0.  1.
        -11    1    4    4    0    0 -0.50311306429E-01 -0.46387064256E-01 -0.21050017536E-01  0.71598544986E-01  0.51100000000E-03 0.  1.
         11    1    4    4    0    0 -0.47035153134E-01 -0.34827237567E-01 -0.55506518631E-02  0.58790415579E-01  0.51100000000E-03 0. -1.
</event>
<event>
 8    1  0.1112171E+005  0.1043930E+01  0.7957747E-01            NaN
         13   -1    0    0    0    0  0.00000000000E+00  0.00000000000E+00  0.74505805969E-08  0.10566000000E+00  0.10566000000E+00 0. -1.
     999900   -1    0    0    0    0 -0.00000000000E+00 -0.00000000000E+00 -0.74505805969E-08  0.93827000000E+00  0.93827000000E+00 0. -1.
     999902    2    1    2    0    0 -0.12373232960E-01  0.53857960624E-03  0.19934134114E-01  0.10204617946E+01  0.10201919023E+01 0.  0.
     999903    2    3    3    0    0  0.12374439203E+00 -0.89615945694E-03  0.33698889726E-01  0.12988920642E+00  0.20545391582E-01 0.  0.
         14    1    1    2    0    0  0.12373232960E-01 -0.53857960624E-03 -0.19934134114E-01  0.23468205401E-01  0.00000000000E+00 0.  1.
     999901    1    3    3    0    0 -0.13611762499E+00  0.14347390632E-02 -0.13764755612E-01  0.89057258817E+00  0.88000000000E+00 0.  1.
        -11    1    4    4    0    0  0.78287202392E-01  0.38586029089E-02  0.12018154064E-01  0.79299886651E-01  0.51100000000E-03 0.  1.
         11    1    4    4    0    0  0.45457189642E-01 -0.47547623658E-02  0.21680735662E-01  0.50589319773E-01  0.51100000000E-03 0. -1.
</event>
<event>
 8    1  0.1112171E+005  0.1043930E+01  0.7957747E-01            NaN
         13   -1    0    0    0    0  0.00000000000E+00  0.00000000000E+00  0.74505805969E-08  0.10566000000E+00  0.10566000000E+00 0.  1.
     999900   -1    0    0    0    0 -0.00000000000E+00 -0.00000000000E+00 -0.74505805969E-08  0.93827000000E+00  0.93827000000E+00 0. -1.
     999902    2    1    2    0    0  0.28916171528E-02 -0.14095304654E-01 -0.19623039311E-01  0.10195968388E+01  0.10193064362E+01 0.  0.
     999903    2    3    3    0    0 -0.68499985799E-01 -0.11010452340E+00 -0.72799210141E-02  0.13141505355E+00  0.20041579813E-01 0.  0.
         14    1    1    2    0    0 -0.28916171528E-02  0.14095304654E-01  0.19623039311E-01  0.24333161218E-01  0.00000000000E+00 0.  1.
     999901    1    3    3    0    0  0.71391602952E-01  0.96009218744E-01 -0.12343118297E-01  0.88818178524E+00  0.88000000000E+00 0. -1.
        -11    1    4    4    0    0 -0.52370978253E-01 -0.66094966625E-01 -0.39580773794E-02  0.84422695254E-01  0.51100000000E-03 0. -1.
         11    1    4    4    0    0 -0.16129007546E-01 -0.44009556772E-01 -0.33218436347E-02  0.46992358292E-01  0.51100000000E-03 0.  1.
</event>
<event>
 8    1  0.1112171E+005  0.1043930E+01  0.7957747E-01            NaN
         13   -1    0    0    0    0  0.00000000000E+00  0.00000000000E+00  0.74505805969E-08  0.10566000000E+00  0.10566000000E+00 0.  1.
     999900   -1    0    0    0    0 -0.00000000000E+00 -0.00000000000E+00 -0.74505805969E-08  0.93827000000E+00  0.93827000000E+00 0.  1.
     999902    2    1    2    0    0  0.17484160579E-01 -0.84125075449E-02  0.12956724173E-01  0.10205988437E+01  0.10203321307E+01 0.  0.
     999903    2    3    3    0    0  0.63991774320E-02 -0.13003341934E+00 -0.10196456109E-01  0.13186345403E+00  0.18285600208E-01 0.  0.
         14    1    1    2    0    0 -0.17484160579E-01  0.84125075449E-02 -0.12956724173E-01  0.23331156329E-01  0.00000000000E+00 0.  1.
     999901    1    3    3    0    0  0.11084983147E-01  0.12162091180E+00  0.23153180282E-01  0.88873538964E+00  0.88000000000E+00 0. -1.
        -11    1    4    4    0    0  0.25688279525E-03 -0.97800167662E-01 -0.14107138303E-01  0.98814023577E-01  0.51100000000E-03 0.  1.
         11    1    4    4    0    0  0.61422946367E-02 -0.32233251679E-01  0.39106821931E-02  0.33049430456E-01  0.51100000000E-03 0. -1.
</event>
<event>
 8    1  0.1112171E+005  0.1043930E+01  0.7957747E-01            NaN
         13   -1    0    0    0    0  0.00000000000E+00  0.00000000000E+00  0.74505805969E-08  0.10566000000E+00  0.10566000000E+00 0. -1.
     999900   -1    0    0    0    0 -0.00000000000E+00 -0.00000000000E+00 -0.74505805969E-08  0.93827000000E+00  0.93827000000E+00 0.  1.
     999902    2    1    2    0    0  0.10365145520E-01 -0.35551066897E-02 -0.21510626288E-01  0.10197891204E+01  0.10195033438E+01 0.  0.
     999903    2    3    3    0    0  0.11289486987E+00  0.43265038431E-01 -0.49441034720E-01  0.13216049417E+00  0.20121260201E-01 0.  0.
         14    1    1    2    0    0 -0.10365145520E-01  0.35551066897E-02  0.21510626288E-01  0.24140879613E-01  0.00000000000E+00 0. -1.
     999901    1    3    3    0    0 -0.10252972435E+00 -0.46820145121E-01  0.27930408432E-01  0.88762862622E+00  0.88000000000E+00 0. -1.
        -11    1    4    4    0    0  0.76306149796E-01  0.32992384618E-01 -0.43050330986E-01  0.93620072946E-01  0.51100000000E-03 0. -1.
         11    1    4    4    0    0  0.36588720073E-01  0.10272653813E-01 -0.63907037340E-02  0.38540421224E-01  0.51100000000E-03 0.  1.
</event>
<event>
 8    1  0.1112171E+005  0.1043930E+01  0.7957747E-01            NaN
         13   -1    0    0    0    0  0.00000000000E+00  0.00000000000E+00  0.74505805969E-08  0.10566000000E+00  0.10566000000E+00 0. -1.
     999900   -1    0    0    0    0 -0.00000000000E+00 -0.00000000000E+00 -0.74505805969E-08  0.93827000000E+00  0.93827000000E+00 0.  1.
     999902    2    1    2    0    0 -0.11100167093E-01  0.56423038147E-02  0.48380884194E-02  0.10305712425E+01  0.10304846576E+01 0.  0.
     999903    2    3    3    0    0 -0.54108707673E-01 -0.33228524280E-01  0.12384825787E+00  0.14067007033E+00  0.20439927501E-01 0.  0.
         14    1    1    2    0    0  0.11100167093E-01 -0.56423038147E-02 -0.48380884194E-02  0.13358757479E-01  0.00000000000E+00 0.  1.
     999901    1    3    3    0    0  0.43008540580E-01  0.38870828095E-01 -0.11901016945E+00  0.88990117219E+00  0.88000000000E+00 0.  1.
        -11    1    4    4    0    0 -0.79562887422E-04 -0.47146081132E-02  0.16350696161E-01  0.17024695177E-01  0.51100000000E-03 0. -1.
         11    1    4    4    0    0 -0.54029144786E-01 -0.28513916167E-01  0.10749756171E+00  0.12364537515E+00  0.51100000000E-03 0.  1.
</event>
<event>
 8    1  0.1112171E+005  0.1043930E+01  0.7957747E-01            NaN
         13   -1    0    0    0    0  0.00000000000E+00  0.00000000000E+00  0.74505805969E-08  0.10566000000E+00  0.10566000000E+00 0. -1.
     999900   -1    0    0    0    0 -0.00000000000E+00 -0.00000000000E+00 -0.74505805969E-08  0.93827000000E+00  0.93827000000E+00 0. -1.
     999902    2    1    2    0    0 -0.18333606353E-01 -0.13142491314E-01 -0.20409789655E-02  0.10212802363E+01  0.10210290443E+01 0.  0.
     999903    2    3    3    0    0  0.15757174017E-01  0.85342222305E-01 -0.94919269193E-01  0.13027642212E+00  0.20753193830E-01 0.  0.
         14    1    1    2    0    0  0.18333606353E-01  0.13142491314E-01  0.20409789655E-02  0.22649763685E-01  0.00000000000E+00 0.  1.
     999901    1    3    3    0    0 -0.34090780370E-01 -0.98484713619E-01  0.92878290227E-01  0.89100381420E+00  0.88000000000E+00 0.  1.
        -11    1    4    4    0    0  0.20184702961E-01  0.57201388288E-01 -0.61987780544E-01  0.86730427841E-01  0.51100000000E-03 0.  1.
         11    1    4    4    0    0 -0.44275289442E-02  0.28140834017E-01 -0.32931488649E-01  0.43545994275E-01  0.51100000000E-03 0. -1.
</event>
<event>
 8    1  0.1112171E+005  0.1043930E+01  0.7957747E-01            NaN
         13   -1    0    0    0    0  0.00000000000E+00  0.00000000000E+00  0.74505805969E-08  0.10566000000E+00  0.10566000000E+00 0.  1.
     999900   -1    0    0    0    0 -0.00000000000E+00 -0.00000000000E+00 -0.74505805969E-08  0.93827000000E+00  0.93827000000E+00 0. -1.
     999902    2    1    2    0    0 -0.18500785904E-01 -0.39586496091E-02  0.14223890073E-01  0.10202599972E+01  0.10199853885E+01 0.  0.
     999903    2    3    3    0    0 -0.71373118036E-01 -0.97333479456E-01  0.51854371422E-01  0.13294359616E+00  0.20425369585E-01 0.  0.
         14    1    1    2    0    0  0.18500785904E-01  0.39586496091E-02 -0.14223890073E-01  0.23670002843E-01  0.00000000000E+00 0. -1.
     999901    1    3    3    0    0  0.52872332132E-01  0.93374829847E-01 -0.37630481350E-01  0.88731640100E+00  0.88000000000E+00 0. -1.
        -11    1    4    4    0    0 -0.16532912318E-01 -0.22294599769E-01  0.29441949899E-02  0.27916227785E-01  0.51100000000E-03 0. -1.
         11    1    4    4    0    0 -0.54840205718E-01 -0.75038879686E-01  0.48910176432E-01  0.10502736837E+00  0.51100000000E-03 0.  1.
</event>
<event>
 8    1  0.1112171E+005  0.1043930E+01  0.7957747E-01            NaN
         13   -1    0    0    0    0  0.00000000000E+00  0.00000000000E+00  0.74505805969E-08  0.10566000000E+00  0.10566000000E+00 0.  1.
     999900   -1    0    0    0    0 -0.00000000000E+00 -0.00000000000E+00 -0.74505805969E-08  0.93827000000E+00  0.93827000000E+00 0.  1.
     999902    2    1    2    0    0 -0.24057367565E-01 -0.25826760353E-03 -0.61540052508E-02  0.10190966471E+01  0.10187940325E+01 0.  0.
     999903    2    3    3    0    0  0.45766002404E-01 -0.89019121299E-01  0.77260003989E-01  0.12796720134E+00  0.19686682525E-01 0.  0.
         14    1    1    2    0    0  0.24057367565E-01  0.25826760353E-03  0.61540052508E-02  0.24833352914E-01  0.00000000000E+00 0. -1.
     999901    1    3    3    0    0 -0.69823369969E-01  0.88760853696E-01 -0.83414009240E-01  0.89112944575E+00  0.88000000000E+00 0. -1.
        -11    1    4    4    0    0  0.93022589906E-02 -0.36141402293E-01  0.34314604890E-01  0.50699962641E-01  0.51100000000E-03 0.  1.
         11    1    4    4    0    0  0.36463743413E-01 -0.52877719006E-01  0.42945399099E-01  0.77267238696E-01  0.51100000000E-03 0. -1.
</event>
<event>
 8    1  0.1112171E+005  0.1043930E+01  0.7957747E-01            NaN
         13   -1    0    0    0    0  0.00000000000E+00  0.00000000000E+00  0.74505805969E-08  0.10566000000E+00  0.10566000000E+00 0.  1.
     999900   -1    0    0    0    0 -0.00000000000E+00 -0.00000000000E+00 -0.74505805969E-08  0.93827000000E+00  0.93827000000E+00 0.  1.
     999902    2    1    2    0    0  0.43598452230E-02  0.95910758276E-02  0.22331174103E-01  0.10192383350E+01  0.10189392058E+01 0.  0.
     999903    2    3    3    0    0 -0.68896576676E-01 -0.46019776401E-01 -0.93793304852E-01  0.12685727014E+00  0.20761138061E-01 0.  0.
         14    1    1    2    0    0 -0.43598452230E-02 -0.95910758276E-02 -0.22331174103E-01  0.24691665046E-01  0.00000000000E+00 0. -1.
     999901    1    3    3    0    0  0.73256421899E-01  0.55610852228E-01  0.11612447895E+00  0.89238106482E+00  0.88000000000E+00 0. -1.
        -11    1    4    4    0    0 -0.55597065546E-01 -0.37620111079E-01 -0.61998200807E-01  0.91380219299E-01  0.51100000000E-03 0.  1.
         11    1    4    4    0    0 -0.13299511130E-01 -0.83996653219E-02 -0.31795104045E-01  0.35477050836E-01  0.51100000000E-03 0. -1.
</event>
<event>
 8    1  0.1112171E+005  0.1043930E+01  0.7957747E-01            NaN
         13   -1    0    0    0    0  0.00000000000E+00  0.00000000000E+00  0.74505805969E-08  0.10566000000E+00  0.10566000000E+00 0. -1.
     999900   -1    0    0    0    0 -0.00000000000E+00 -0.00000000000E+00 -0.74505805969E-08  0.93827000000E+00  0.93827000000E+00 0. -1.
     999902    2    1    2    0    0 -0.76246118475E-04  0.22955413343E-01  0.51910668848E-02  0.10203948350E+01  0.10201233824E+01 0.  0.
     999903    2    3    3    0    0 -0.54236771553E-01  0.11502342671E+00  0.34581217167E-01  0.13344857817E+00  0.20991578223E-01 0.  0.
         14    1    1    2    0    0  0.76246118475E-04 -0.22955413343E-01 -0.51910668848E-02  0.23535164980E-01  0.00000000000E+00 0. -1.
     999901    1    3    3    0    0  0.54160525434E-01 -0.92068013362E-01 -0.29390150283E-01  0.88694625685E+00  0.88000000000E+00 0.  1.
        -11    1    4    4    0    0 -0.18515966727E-01  0.37945930059E-01  0.21856725165E-01  0.47546947198E-01  0.51100000000E-03 0.  1.
         11    1    4    4    0    0 -0.35720804826E-01  0.77077496646E-01  0.12724492003E-01  0.85901630976E-01  0.51100000000E-03 0. -1.
</event>
<event>
 8    1  0.1112171E+005  0.1043930E+01  0.7957747E-01            NaN
         13   -1    0    0    0    0  0.00000000000E+00  0.00000000000E+00  0.74505805969E-08  0.10566000000E+00  0.10566000000E+00 0. -1.
     999900   -1    0    0    0    0 -0.00000000000E+00 -0.00000000000E+00 -0.74505805969E-08  0.93827000000E+00  0.93827000000E+00 0.  1.
     999902    2    1    2    0    0  0.18377732685E-01  0.15301293192E-01 -0.73052630976E-02  0.10189252504E+01  0.10186183920E+01 0.  0.
     999903    2    3    3    0    0  0.25111283968E-01 -0.10329495810E+00  0.68616334562E-01  0.12770445819E+00  0.17314800624E-01 0.  0.
         14    1    1    2    0    0 -0.18377732685E-01 -0.15301293192E-01  0.73052630976E-02  0.25004749567E-01  0.00000000000E+00 0. -1.
     999901    1    3    3    0    0 -0.67335512828E-02  0.11859625130E+00 -0.75921597660E-01  0.89122079224E+00  0.88000000000E+00 0.  1.
        -11    1    4    4    0    0  0.76032247847E-02 -0.46644231679E-01  0.39743424317E-01  0.61751876680E-01  0.51100000000E-03 0.  1.
         11    1    4    4    0    0  0.17508059183E-01 -0.56650726425E-01  0.28872910246E-01  0.65952581510E-01  0.51100000000E-03 0. -1.
</event>
<event>
 7    1  0.1112171E+005  0.1043930E+01  0.7957747E-01            NaN
         13   -1    0    0    0    0  0.00000000000E+00  0.00000000000E+00  0.74505805969E-08  0.10566000000E+00  0.10566000000E+00 0. -1.
     999900   -1    0    0    0    0 -0.00000000000E+00 -0.00000000000E+00 -0.74505805969E-08  0.93827000000E+00  0.93827000000E+00 0.  1.
     999903    2    1    2    0    0 -0.27236372386E-02  0.33962530060E-01 -0.22079346265E-01  0.45383333838E-01  0.20279985475E-01 0.  0.
         14    1    1    2    0    0  0.35842870216E-01  0.68522454994E-01  0.78493163500E-01  0.11018718120E+00  0.00000000000E+00 0. -1.
     999901    1    1    2    0    0 -0.33119232978E-01 -0.10248498505E+00 -0.56413817235E-01  0.88835948497E+00  0.88000000000E+00 0.  1.
        -11    1    3    3    0    0  0.62583193373E-02  0.21934223659E-01 -0.19764129360E-01  0.30185404732E-01  0.51100000000E-03 0.  1.
         11    1    3    3    0    0 -0.89819565759E-02  0.12028306400E-01 -0.23152169051E-02  0.15197929106E-01  0.51100000000E-03 0. -1.
</event>
<event>
 8    1  0.1112171E+005  0.1043930E+01  0.7957747E-01            NaN
         13   -1    0    0    0    0  0.00000000000E+00  0.00000000000E+00  0.74505805969E-08  0.10566000000E+00  0.10566000000E+00 0. -1.
     999900   -1    0    0    0    0 -0.00000000000E+00 -0.00000000000E+00 -0.74505805969E-08  0.93827000000E+00  0.93827000000E+00 0.  1.
     999902    2    1    2    0    0 -0.80100911032E-02  0.16516274615E-01 -0.14981323681E-01  0.10202363522E+01  0.10199611882E+01 0.  0.
     999903    2    3    3    0    0 -0.11419258982E+00  0.43639596177E-01 -0.48128310389E-01  0.13281924603E+00  0.19500152059E-01 0.  0.
         14    1    1    2    0    0  0.80100911032E-02 -0.16516274615E-01  0.14981323681E-01  0.23693647796E-01  0.00000000000E+00 0. -1.
     999901    1    3    3    0    0  0.10618249872E+00 -0.27123321562E-01  0.33146986708E-01  0.88741710618E+00  0.88000000000E+00 0. -1.
        -11    1    4    4    0    0 -0.57282840822E-01  0.13127014890E-01 -0.17306189373E-01  0.61265060876E-01  0.51100000000E-03 0.  1.
         11    1    4    4    0    0 -0.56909748997E-01  0.30512581288E-01 -0.30822121017E-01  0.71554185152E-01  0.51100000000E-03 0. -1.
</event>
<event>
 8    1  0.1112171E+005  0.1043930E+01  0.7957747E-01            NaN
         13   -1    0    0    0    0  0.00000000000E+00  0.00000000000E+00  0.74505805969E-08  0.10566000000E+00  0.10566000000E+00 0. -1.
     999900   -1    0    0    0    0 -0.00000000000E+00 -0.00000000000E+00 -0.74505805969E-08  0.93827000000E+00  0.93827000000E+00 0.  1.
     999902    2    1    2    0    0  0.90110290250E-02 -0.20033154873E-01  0.10735012686E-01  0.10194807375E+01  0.10191875233E+01 0.  0.
     999903    2    3    3    0    0 -0.16216949725E-01 -0.88641779787E-01 -0.92072567420E-01  0.13048524099E+00  0.20704730463E-01 0.  0.
         14    1    1    2    0    0 -0.90110290250E-02  0.20033154873E-01 -0.10735012686E-01  0.24449262476E-01  0.00000000000E+00 0.  1.
     999901    1    3    3    0    0  0.25227978750E-01  0.68608624915E-01  0.10280758011E+00  0.88899549653E+00  0.88000000000E+00 0.  1.
        -11    1    4    4    0    0 -0.13596429220E-01 -0.30654145379E-01 -0.25318850956E-01  0.42021956775E-01  0.51100000000E-03 0.  1.
         11    1    4    4    0    0 -0.26205205052E-02 -0.57987634408E-01 -0.66753716464E-01  0.88463284218E-01  0.51100000000E-03 0. -1.
</event>
<event>
 8    1  0.1112171E+005  0.1043930E+01  0.7957747E-01            NaN
         13   -1    0    0    0    0  0.00000000000E+00  0.00000000000E+00  0.74505805969E-08  0.10566000000E+00  0.10566000000E+00 0.  1.
     999900   -1    0    0    0    0 -0.00000000000E+00 -0.00000000000E+00 -0.74505805969E-08  0.93827000000E+00  0.93827000000E+00 0. -1.
     999902    2    1    2    0    0 -0.20861354541E-02  0.16574559040E-01 -0.14403327380E-01  0.10218727153E+01  0.10216346326E+01 0.  0.
     999903    2    3    3    0    0  0.17625835268E-01  0.90708132115E-01  0.92379034857E-01  0.13210486843E+00  0.19472413343E-01 0.  0.
         14    1    1    2    0    0  0.20861354541E-02 -0.16574559040E-01  0.14403327380E-01  0.22057284695E-01  0.00000000000E+00 0.  1.
     999901    1    3    3    0    0 -0.19711970722E-01 -0.74133573075E-01 -0.10678236224E+00  0.88976784687E+00  0.88000000000E+00 0. -1.
        -11    1    4    4    0    0  0.16022205825E-02  0.15392663093E-01  0.26843899216E-01  0.30989631072E-01  0.51100000000E-03 0.  1.
         11    1    4    4    0    0  0.16023614685E-01  0.75315469022E-01  0.65535135641E-01  0.10111523736E+00  0.51100000000E-03 0. -1.
</event>
<event>
 8    1  0.1112171E+005  0.1043930E+01  0.7957747E-01            NaN
         13   -1    0    0    0    0  0.00000000000E+00  0.00000000000E+00  0.74505805969E-08  0.10566000000E+00  0.10566000000E+00 0.  1.
     999900   -1    0    0    0    0 -0.00000000000E+00 -0.00000000000E+00 -0.74505805969E-08  0.93827000000E+00  0.93827000000E+00 0. -1.
     999902    2    1    2    0    0 -0.22716911691E-02 -0.23265732450E-01  0.33001035750E-02  0.10203218325E+01  0.10200486735E+01 0.  0.
     999903    2    3    3    0    0  0.30644885952E-01 -0.80709528938E-01 -0.97887512103E-01  0.13205260287E+00  0.20069574085E-01 0.  0.
         14    1    1    2    0    0  0.22716911691E-02  0.23265732450E-01 -0.33001035750E-02  0.23608167460E-01  0.00000000000E+00 0. -1.
     999901    1    3    3    0    0 -0.32916577121E-01  0.57443796488E-01  0.10118761568E+00  0.88826922967E+00  0.88000000000E+00 0.  1.
        -11    1    4    4    0    0  0.33392200213E-01 -0.76260191794E-01 -0.93633636372E-01  0.12529235758E+00  0.51100000000E-03 0.  1.
         11    1    4    4    0    0 -0.27473142611E-02 -0.44493371435E-02 -0.42538757306E-02  0.67602452911E-02  0.51100000000E-03 0. -1.
</event>
<event>
 8    1  0.1112171E+005  0.1043930E+01  0.7957747E-01            NaN
         13   -1    0    0    0    0  0.00000000000E+00  0.00000000000E+00  0.74505805969E-08  0.10566000000E+00  0.10566000000E+00 0. -1.
     999900   -1    0    0    0    0 -0.00000000000E+00 -0.00000000000E+00 -0.74505805969E-08  0.93827000000E+00  0.93827000000E+00 0. -1.
     999902    2    1    2    0    0 -0.19920177998E-01 -0.24259053643E-02  0.13224779612E-01  0.10198968291E+01  0.10196136272E+01 0.  0.
     999903    2    3    3    0    0 -0.20642434192E-01 -0.12491184616E+00 -0.25061655146E-01  0.13058857070E+00  0.19904995296E-01 0.  0.
         14    1    1    2    0    0  0.19920177998E-01  0.24259053643E-02 -0.13224779612E-01  0.24033170912E-01  0.00000000000E+00 0.  1.
     999901    1    3    3    0    0  0.72225619407E-03  0.12248594080E+00  0.38286434758E-01  0.88930825839E+00  0.88000000000E+00 0. -1.
        -11    1    4    4    0    0 -0.23069869300E-01 -0.83278370214E-01 -0.15418231028E-01  0.87780913552E-01  0.51100000000E-03 0.  1.
         11    1    4    4    0    0  0.24274351085E-02 -0.41633475951E-01 -0.96434241184E-02  0.42807657150E-01  0.51100000000E-03 0. -1.
</event>
<event>
 8    1  0.1112171E+005  0.1043930E+01  0.7957747E-01            NaN
         13   -1    0    0    0    0  0.00000000000E+00  0.00000000000E+00  0.74505805969E-08  0.10566000000E+00  0.10566000000E+00 0.  1.
     999900   -1    0    0    0    0 -0.00000000000E+00 -0.00000000000E+00 -0.74505805969E-08  0.93827000000E+00  0.93827000000E+00 0. -1.
     999902    2    1    2    0    0 -0.34618310736E-02  0.22041601132E-01 -0.65161130579E-02  0.10206861581E+01  0.10204214606E+01 0.  0.
     999903    2    3    3    0    0  0.71098814146E-01  0.10494228412E+00  0.33082580025E-01  0.13276731639E+00  0.21558729799E-01 0.  0.
         14    1    1    2    0    0  0.34618310736E-02 -0.22041601132E-01  0.65161130579E-02  0.23243841856E-01  0.00000000000E+00 0.  1.
     999901    1    3    3    0    0 -0.74560645219E-01 -0.82900682985E-01 -0.39598693083E-01  0.88791884176E+00  0.88000000000E+00 0. -1.
        -11    1    4    4    0    0  0.66122164535E-01  0.86734217131E-01  0.23402148430E-01  0.11154768817E+00  0.51100000000E-03 0. -1.
         11    1    4    4    0    0  0.49766496105E-02  0.18208066986E-01  0.96804315944E-02  0.21219628215E-01  0.51100000000E-03 0.  1.
</event>
<event>
 7    1  0.1112171E+005  0.1043930E+01  0.7957747E-01            NaN
         13   -1    0    0    0    0  0.00000000000E+00  0.00000000000E+00  0.74505805969E-08  0.10566000000E+00  0.10566000000E+00 0.  1.
     999900   -1    0    0    0    0 -0.00000000000E+00 -0.00000000000E+00 -0.74505805969E-08  0.93827000000E+00  0.93827000000E+00 0.  1.
     999903    2    1    2    0    0  0.62097883258E-01 -0.18924084051E-01  0.84208082415E-01  0.11144214964E+00  0.33377889549E-01 0.  0.
         14    1    1    2    0    0  0.10032218528E-01  0.14322225202E-01  0.37307580276E-01  0.41202270440E-01  0.00000000000E+00 0.  1.
     999901    1    1    2    0    0 -0.72130101785E-01  0.46018588494E-02 -0.12151566269E+00  0.89128557992E+00  0.88000000000E+00 0. -1.
        -11    1    3    3    0    0  0.43632262231E-01 -0.49492933601E-02  0.74173374618E-01  0.86198726414E-01  0.51100000000E-03 0. -1.
         11    1    3    3    0    0  0.18465621026E-01 -0.13974790691E-01  0.10034707798E-01  0.25243423229E-01  0.51100000000E-03 0.  1.
</event>
<event>
 8    1  0.1112171E+005  0.1043930E+01  0.7957747E-01            NaN
         13   -1    0    0    0    0  0.00000000000E+00  0.00000000000E+00  0.74505805969E-08  0.10566000000E+00  0.10566000000E+00 0. -1.
     999900   -1    0    0    0    0 -0.00000000000E+00 -0.00000000000E+00 -0.74505805969E-08  0.93827000000E+00  0.93827000000E+00 0. -1.
     999902    2    1    2    0    0 -0.14461136657E-01  0.46644398893E-02 -0.18703450713E-01  0.10198322710E+01  0.10195475273E+01 0.  0.
     999903    2    3    3    0    0  0.99664349619E-01 -0.67320720106E-01 -0.42405589733E-01  0.12923231523E+00  0.20921169149E-01 0.  0.
         14    1    1    2    0    0  0.14461136657E-01 -0.46644398893E-02  0.18703450713E-01  0.24097728969E-01  0.00000000000E+00 0. -1.
     999901    1    3    3    0    0 -0.11412548628E+00  0.71985159995E-01  0.23702139020E-01  0.89059995580E+00  0.88000000000E+00 0.  1.
        -11    1    4    4    0    0  0.39568225259E-01 -0.24023911359E-01 -0.59411946721E-02  0.46672815238E-01  0.51100000000E-03 0. -1.
         11    1    4    4    0    0  0.60096124360E-01 -0.43296808747E-01 -0.36464395061E-01  0.82559499992E-01  0.51100000000E-03 0.  1.
</event>
<event>
 8    1  0.1112171E+005  0.1043930E+01  0.7957747E-01            NaN
         13   -1    0    0    0    0  0.00000000000E+00  0.00000000000E+00  0.74505805969E-08  0.10566000000E+00  0.10566000000E+00 0.  1.
     999900   -1    0    0    0    0 -0.00000000000E+00 -0.00000000000E+00 -0.74505805969E-08  0.93827000000E+00  0.93827000000E+00 0.  1.
     999902    2    1    2    0    0  0.12859713355E-01  0.12410711502E-01 -0.15722897649E-01  0.10201264814E+01  0.10198487292E+01 0.  0.
     999903    2    3    3    0    0 -0.31772201268E-01  0.12596585114E+00  0.53434585517E-02  0.13145861942E+00  0.19389369359E-01 0.  0.
         14    1    1    2    0    0 -0.12859713355E-01 -0.12410711502E-01  0.15722897649E-01  0.23803518606E-01  0.00000000000E+00 0. -1.
     999901    1    3    3    0    0  0.44631914623E-01 -0.11355513964E+00 -0.21066356200E-01  0.88866786197E+00  0.88000000000E+00 0. -1.
        -11    1    4    4    0    0 -0.30057750941E-01  0.97667446689E-01  0.10176446757E-01  0.10269478918E+00  0.51100000000E-03 0.  1.
         11    1    4    4    0    0 -0.17144503275E-02  0.28298404449E-01 -0.48329882057E-02  0.28763830244E-01  0.51100000000E-03 0. -1.
</event>
<event>
 8    1  0.1112171E+005  0.1043930E+01  0.7957747E-01            NaN
         13   -1    0    0    0    0  0.00000000000E+00  0.00000000000E+00  0.74505805969E-08  0.10566000000E+00  0.10566000000E+00 0.  1.
     999900   -1    0    0    0    0 -0.00000000000E+00 -0.00000000000E+00 -0.74505805969E-08  0.93827000000E+00  0.93827000000E+00 0.  1.
     999902    2    1    2    0    0 -0.13390651210E-01 -0.18552482159E-01 -0.66365616180E-02  0.10201067323E+01  0.10198285136E+01 0.  0.
     999903    2    3    3    0    0 -0.68903818828E-01 -0.91813660278E-01  0.63164080981E-01  0.13257023068E+00  0.20191098841E-01 0.  0.
         14    1    1    2    0    0  0.13390651210E-01  0.18552482159E-01  0.66365616180E-02  0.23823267706E-01  0.00000000000E+00 0.  1.
     999901    1    3    3    0    0  0.55513167619E-01  0.73261178119E-01 -0.69800642599E-01  0.88753650162E+00  0.88000000000E+00 0.  1.
        -11    1    4    4    0    0 -0.22202269373E-01 -0.17089400369E-01  0.10574281470E-01  0.29951042050E-01  0.51100000000E-03 0. -1.
         11    1    4    4    0    0 -0.46701549455E-01 -0.74724259909E-01  0.52589799511E-01  0.10261918863E+00  0.51100000000E-03 0.  1.
</event>
<event>
 8    1  0.1112171E+005  0.1043930E+01  0.7957747E-01            NaN
         13   -1    0    0    0    0  0.00000000000E+00  0.00000000000E+00  0.74505805969E-08  0.10566000000E+00  0.10566000000E+00 0. -1.
     999900   -1    0    0    0    0 -0.00000000000E+00 -0.00000000000E+00 -0.74505805969E-08  0.93827000000E+00  0.93827000000E+00 0.  1.
     999902    2    1    2    0    0 -0.13270174755E-01  0.10749877311E-01 -0.14750670379E-01  0.10213636605E+01  0.10211143361E+01 0.  0.
     999903    2    3    3    0    0 -0.80385297114E-01 -0.68325757449E-01  0.74670720155E-01  0.13077195793E+00  0.19884250283E-01 0.  0.
         14    1    1    2    0    0  0.13270174755E-01 -0.10749877311E-01  0.14750670379E-01  0.22566339465E-01  0.00000000000E+00 0. -1.
     999901    1    3    3    0    0  0.67115122359E-01  0.79075634760E-01 -0.89421390534E-01  0.89059170260E+00  0.88000000000E+00 0.  1.
        -11    1    4    4    0    0 -0.44859637973E-01 -0.40504289332E-01  0.30807324227E-01  0.67840525649E-01  0.51100000000E-03 0.  1.
         11    1    4    4    0    0 -0.35525659142E-01 -0.27821468117E-01  0.43863395928E-01  0.62931432281E-01  0.51100000000E-03 0. -1.
</event>
<event>
 8    1  0.1112171E+005  0.1043930E+01  0.7957747E-01            NaN
         13   -1    0    0    0    0  0.00000000000E+00  0.00000000000E+00  0.74505805969E-08  0.10566000000E+00  0.10566000000E+00 0.  1.
     999900   -1    0    0    0    0 -0.00000000000E+00 -0.00000000000E+00 -0.74505805969E-08  0.93827000000E+00  0.93827000000E+00 0.  1.
     999902    2    1    2    0    0 -0.18927603292E-01 -0.14082887529E-01 -0.85971832897E-02  0.10188203714E+01  0.10185109011E+01 0.  0.
     999903    2    3    3    0    0 -0.14455574632E-01 -0.11588011750E+00  0.55257793282E-01  0.13064238637E+00  0.19412473563E-01 0.  0.
         14    1    1    2    0    0  0.18927603292E-01  0.14082887529E-01  0.85971832897E-02  0.25109628592E-01  0.00000000000E+00 0.  1.
     999901    1    3    3    0    0 -0.44720286599E-02  0.10179722997E+00 -0.63854976572E-01  0.88817798504E+00  0.88000000000E+00 0.  1.
        -11    1    4    4    0    0 -0.84362939700E-02 -0.73892719852E-01  0.45249671282E-01  0.87058020740E-01  0.51100000000E-03 0. -1.
         11    1    4    4    0    0 -0.60192806620E-02 -0.41987397643E-01  0.10008122000E-01  0.43584365632E-01  0.51100000000E-03 0.  1.
</event>
<event>
 8    1  0.1112171E+005  0.1043930E+01  0.7957747E-01            NaN
         13   -1    0    0    0    0  0.00000000000E+00  0.00000000000E+00  0.74505805969E-08  0.10566000000E+00  0.10566000000E+00 0. -1.
     999900   -1    0    0    0    0 -0.00000000000E+00 -0.00000000000E+00 -0.74505805969E-08  0.93827000000E+00  0.93827000000E+00 0.  1.
     999902    2    1    2    0    0  0.27946780049E-02 -0.23672707809E-01  0.29893928219E-02  0.10199061829E+01  0.10196232040E+01 0.  0.
     999903    2    3    3    0    0  0.62507344037E-01 -0.11484891714E+00  0.14950749911E-01  0.13310193294E+00  0.19878576456E-01 0.  0.
         14    1    1    2    0    0 -0.27946780049E-02  0.23672707809E-01 -0.29893928219E-02  0.24023817133E-01  0.00000000000E+00 0. -1.
     999901    1    3    3    0    0 -0.59712666033E-01  0.91176209330E-01 -0.11961357089E-01  0.88680424993E+00  0.88000000000E+00 0.  1.
        -11    1    4    4    0    0  0.10910657005E-01 -0.11531490198E-01  0.69561498217E-02  0.17339747512E-01  0.51100000000E-03 0.  1.
         11    1    4    4    0    0  0.51596687032E-01 -0.10331742694E+00  0.79946000889E-02  0.11576218542E+00  0.51100000000E-03 0. -1.
</event>
<event>
 8    1  0.1112171E+005  0.1043930E+01  0.7957747E-01            NaN
         13   -1    0    0    0    0  0.00000000000E+00  0.00000000000E+00  0.74505805969E-08  0.10566000000E+00  0.10566000000E+00 0.  1.
     999900   -1    0    0    0    0 -0.00000000000E+00 -0.00000000000E+00 -0.74505805969E-08  0.93827000000E+00  0.93827000000E+00 0. -1.
     999902    2    1    2    0    0  0.44169426909E-02 -0.18316168132E-01  0.13231472391E-01  0.10209068973E+01  0.10206472601E+01 0.  0.
     999903    2    3    3    0    0 -0.24350564054E-01 -0.95624606341E-01  0.88021485711E-01  0.13389071356E+00  0.21022034253E-01 0.  0.
         14    1    1    2    0    0 -0.44169426909E-02  0.18316168132E-01 -0.13231472391E-01  0.23023102732E-01  0.00000000000E+00 0. -1.
     999901    1    3    3    0    0  0.28767506745E-01  0.77308438209E-01 -0.74790013320E-01  0.88701618371E+00  0.88000000000E+00 0. -1.
        -11    1    4    4    0    0 -0.20981479682E-01 -0.57933585060E-01  0.43327063582E-01  0.75326079993E-01  0.51100000000E-03 0.  1.
         11    1    4    4    0    0 -0.33690843719E-02 -0.37691021281E-01  0.44694422129E-01  0.58564633570E-01  0.51100000000E-03 0. -1.
</event>
<event>
 8    1  0.1112171E+005  0.1043930E+01  0.7957747E-01            NaN
         13   -1    0    0    0    0  0.00000000000E+00  0.00000000000E+00  0.74505805969E-08  0.10566000000E+00  0.10566000000E+00 0. -1.
     999900   -1    0    0    0    0 -0.00000000000E+00 -0.00000000000E+00 -0.74505805969E-08  0.93827000000E+00  0.93827000000E+00 0. -1.
     999902    2    1    2    0    0 -0.46052057703E-02  0.84106218162E-02  0.21602187646E-01  0.10202952588E+01  0.10200214773E+01 0.  0.
     999903    2    3    3    0    0  0.10697665637E+00  0.62945138010E-01  0.37964208800E-01  0.13142392890E+00  0.20612436297E-01 0.  0.
         14    1    1    2    0    0  0.46052057703E-02 -0.84106218162E-02 -0.21602187646E-01  0.23634741179E-01  0.00000000000E+00 0.  1.
     999901    1    3    3    0    0 -0.11158186214E+00 -0.54534516194E-01 -0.16362021154E-01  0.88887132992E+00  0.88000000000E+00 0. -1.
        -11    1    4    4    0    0  0.65033467240E-01  0.35269187937E-01  0.32724665525E-01  0.80897665811E-01  0.51100000000E-03 0. -1.
         11    1    4    4    0    0  0.41943189134E-01  0.27675950072E-01  0.52395432754E-02  0.50526263090E-01  0.51100000000E-03 0.  1.
</event>
<event>
 8    1  0.1112171E+005  0.1043930E+01  0.7957747E-01            NaN
         13   -1    0    0    0    0  0.00000000000E+00  0.00000000000E+00  0.74505805969E-08  0.10566000000E+00  0.10566000000E+00 0. -1.
     999900   -1    0    0    0    0 -0.00000000000E+00 -0.00000000000E+00 -0.74505805969E-08  0.93827000000E+00  0.93827000000E+00 0.  1.
     999902    2    1    2    0    0  0.10060592140E-02  0.17277371070E-02 -0.22817776003E-01  0.10210248012E+01  0.10207678465E+01 0.  0.
     999903    2    3    3    0    0  0.90986605017E-01 -0.60595516860E-01  0.66698703500E-01  0.12973703245E+00  0.20799076530E-01 0.  0.
         14    1    1    2    0    0 -0.10060592140E-02 -0.17277371070E-02  0.22817776003E-01  0.22905198807E-01  0.00000000000E+00 0. -1.
     999901    1    3    3    0    0 -0.89980545803E-01  0.62323253967E-01 -0.89516479503E-01  0.89128776874E+00  0.88000000000E+00 0.  1.
        -11    1    4    4    0    0  0.50809309074E-02 -0.98178086293E-02  0.34591687290E-02  0.11594489832E-01  0.51100000000E-03 0.  1.
         11    1    4    4    0    0  0.85905674109E-01 -0.50777708231E-01  0.63239534771E-01  0.11814254262E+00  0.51100000000E-03 0. -1.
</event>
<event>
 8    1  0.1112171E+005  0.1043930E+01  0.7957747E-01            NaN
         13   -1    0    0    0    0  0.00000000000E+00  0.00000000000E+00  0.74505805969E-08  0.10566000000E+00  0.10566000000E+00 0.  1.
     999900   -1    0    0    0    0 -0.00000000000E+00 -0.00000000000E+00 -0.74505805969E-08  0.93827000000E+00  0.93827000000E+00 0.  1.
     999902    2    1    2    0    0  0.67038489601E-02 -0.18770291272E-01 -0.11090347548E-01  0.10211207643E+01  0.10208659824E+01 0.  0.
     999903    2    3    3    0    0 -0.10167732901E+00 -0.33606510575E-01 -0.74730599250E-01  0.13206695557E+00  0.19731738457E-01 0.  0.
         14    1    1    2    0    0 -0.67038489601E-02  0.18770291272E-01  0.11090347548E-01  0.22809235719E-01  0.00000000000E+00 0.  1.
     999901    1    3    3    0    0  0.10838117797E+00  0.14836219302E-01  0.63640251702E-01  0.88905380871E+00  0.88000000000E+00 0. -1.
        -11    1    4    4    0    0 -0.30833357689E-02 -0.35972533970E-02 -0.36769992283E-05  0.47653253809E-02  0.51100000000E-03 0.  1.
         11    1    4    4    0    0 -0.98593993241E-01 -0.30009257178E-01 -0.74726922250E-01  0.12730163019E+00  0.51100000000E-03 0. -1.
</event>
<event>
 8    1  0.1112171E+005  0.1043930E+01  0.7957747E-01            NaN
         13   -1    0    0    0    0  0.00000000000E+00  0.00000000000E+00  0.74505805969E-08  0.10566000000E+00  0.10566000000E+00 0. -1.
     999900   -1    0    0    0    0 -0.00000000000E+00 -0.00000000000E+00 -0.74505805969E-08  0.93827000000E+00  0.93827000000E+00 0.  1.
     999902    2    1    2    0    0  0.11588361778E-01 -0.69990074372E-02  0.18992987258E-01  0.10206059824E+01  0.10203394344E+01 0.  0.
     999903    2    3    3    0    0 -0.10357854600E-01 -0.12234776166E+00  0.44682149478E-01  0.13243544436E+00  0.21596122472E-01 0.  0.
         14    1    1    2    0    0 -0.11588361778E-01  0.69990074372E-02 -0.18992987258E-01  0.23324017638E-01  0.00000000000E+00 0. -1.
     999901    1    3    3    0    0  0.21946216378E-01  0.11534875423E+00 -0.25689162220E-01  0.88817053800E+00  0.88000000000E+00 0.  1.
        -11    1    4    4    0    0 -0.11130434903E-01 -0.26111788958E-01  0.87775720826E-02  0.29715635554E-01  0.51100000000E-03 0.  1.
         11    1    4    4    0    0  0.77258030297E-03 -0.96235972705E-01  0.35904577395E-01  0.10271980881E+00  0.51100000000E-03 0. -1.
</event>
<event>
 8    1  0.1112171E+005  0.1043930E+01  0.7957747E-01            NaN
         13   -1    0    0    0    0  0.00000000000E+00  0.00000000000E+00  0.74505805969E-08  0.10566000000E+00  0.10566000000E+00 0.  1.
     999900   -1    0    0    0    0 -0.00000000000E+00 -0.00000000000E+00 -0.74505805969E-08  0.93827000000E+00  0.93827000000E+00 0. -1.
     999902    2    1    2    0    0  0.22006556109E-01 -0.26323091497E-02  0.79061565894E-02  0.10203986406E+01  0.10201272768E+01 0.  0.
     999903    2    3    3    0    0  0.62488984259E-01 -0.23635644534E-01 -0.11093093816E+00  0.13124048696E+00  0.21327811232E-01 0.  0.
         14    1    1    2    0    0 -0.22006556109E-01  0.26323091497E-02 -0.79061565894E-02  0.23531359401E-01  0.00000000000E+00 0. -1.
     999901    1    3    3    0    0 -0.40482428150E-01  0.21003335385E-01  0.11883709475E+00  0.88915815363E+00  0.88000000000E+00 0.  1.
        -11    1    4    4    0    0  0.11739615534E-01  0.24454631390E-02 -0.29112031305E-01  0.31489210066E-01  0.51100000000E-03 0.  1.
         11    1    4    4    0    0  0.50749368725E-01 -0.26081107673E-01 -0.81818906853E-01  0.99751276899E-01  0.51100000000E-03 0. -1.
</event>
<event>
 8    1  0.1112171E+005  0.1043930E+01  0.7957747E-01            NaN
         13   -1    0    0    0    0  0.00000000000E+00  0.00000000000E+00  0.74505805969E-08  0.10566000000E+00  0.10566000000E+00 0. -1.
     999900   -1    0    0    0    0 -0.00000000000E+00 -0.00000000000E+00 -0.74505805969E-08  0.93827000000E+00  0.93827000000E+00 0. -1.
     999902    2    1    2    0    0 -0.15693940095E-02 -0.60489040948E-02  0.22451321305E-01  0.10206251922E+01  0.10203590882E+01 0.  0.
     999903    2    3    3    0    0 -0.83273507174E-01  0.55203740729E-01 -0.78763034622E-01  0.12895720777E+00  0.21081172312E-01 0.  0.
         14    1    1    2    0    0  0.15693940095E-02  0.60489040948E-02 -0.22451321305E-01  0.23304807801E-01  0.00000000000E+00 0.  1.
     999901    1    3    3    0    0  0.81704113164E-01 -0.61252644823E-01  0.10121435593E+00  0.89166798443E+00  0.88000000000E+00 0.  1.
        -11    1    4    4    0    0 -0.52696750080E-01  0.26356757889E-01 -0.36315403038E-01  0.69214852266E-01  0.51100000000E-03 0.  1.
         11    1    4    4    0    0 -0.30576757094E-01  0.28846982839E-01 -0.42447631584E-01  0.59742355506E-01  0.51100000000E-03 0. -1.
</event>
<event>
 8    1  0.1112171E+005  0.1043930E+01  0.7957747E-01            NaN
         13   -1    0    0    0    0  0.00000000000E+00  0.00000000000E+00  0.74505805969E-08  0.10566000000E+00  0.10566000000E+00 0.  1.
     999900   -1    0    0    0    0 -0.00000000000E+00 -0.00000000000E+00 -0.74505805969E-08  0.93827000000E+00  0.93827000000E+00 0.  1.
     999902    2    1    2    0    0  0.11781874944E-01 -0.20366655948E-01 -0.19210956886E-02  0.10203227159E+01  0.10200495776E+01 0.  0.
     999903    2    3    3    0    0  0.89341575194E-01 -0.97070422630E-01  0.47936782739E-02  0.13356228431E+00  0.20281036250E-01 0.  0.
         14    1    1    2    0    0 -0.11781874944E-01  0.20366655948E-01  0.19210956886E-02  0.23607284053E-01  0.00000000000E+00 0.  1.
     999901    1    3    3    0    0 -0.77559700250E-01  0.76703766682E-01 -0.67147739625E-02  0.88676043164E+00  0.88000000000E+00 0.  1.
        -11    1    4    4    0    0  0.76313392285E-01 -0.79136761803E-01 -0.32197831676E-02  0.10998631295E+00  0.51100000000E-03 0.  1.
         11    1    4    4    0    0  0.13028182909E-01 -0.17933660827E-01  0.80134614415E-02  0.23575971366E-01  0.51100000000E-03 0. -1.
</event>
<event>
 8    1  0.1112171E+005  0.1043930E+01  0.7957747E-01            NaN
         13   -1    0    0    0    0  0.00000000000E+00  0.00000000000E+00  0.74505805969E-08  0.10566000000E+00  0.10566000000E+00 0. -1.
     999900   -1    0    0    0    0 -0.00000000000E+00 -0.00000000000E+00 -0.74505805969E-08  0.93827000000E+00  0.93827000000E+00 0.  1.
     999902    2    1    2    0    0 -0.69089379872E-02 -0.23305901740E-01  0.56074340949E-02  0.10189832207E+01  0.10186778010E+01 0.  0.
     999903    2    3    3    0    0  0.12431361566E+00 -0.36132170081E-02 -0.25374031777E-01  0.12849626873E+00  0.20012976118E-01 0.  0.
         14    1    1    2    0    0  0.69089379872E-02  0.23305901740E-01 -0.56074340949E-02  0.24946779294E-01  0.00000000000E+00 0.  1.
     999901    1    3    3    0    0 -0.13122255364E+00 -0.19692684732E-01  0.30981465872E-01  0.89048695198E+00  0.88000000000E+00 0.  1.
        -11    1    4    4    0    0  0.26088013030E-01  0.25921349554E-02 -0.13098343867E-01  0.29310941994E-01  0.51100000000E-03 0. -1.
         11    1    4    4    0    0  0.98225602627E-01 -0.62053519635E-02 -0.12275687910E-01  0.99185326733E-01  0.51100000000E-03 0.  1.
</event>
<event>
 8    1  0.1112171E+005  0.1043930E+01  0.7957747E-01            NaN
         13   -1    0    0    0    0  0.00000000000E+00  0.00000000000E+00  0.74505805969E-08  0.10566000000E+00  0.10566000000E+00 0. -1.
     999900   -1    0    0    0    0 -0.00000000000E+00 -0.00000000000E+00 -0.74505805969E-08  0.93827000000E+00  0.93827000000E+00 0. -1.
     999902    2    1    2    0    0 -0.25043682232E-01 -0.16046061694E-01 -0.17422471296E-01  0.10094596559E+01  0.10088709493E+01 0.  0.
     999903    2    3    3    0    0  0.56771650553E-02  0.23172469241E-01 -0.11828977105E+00  0.12229784666E+00  0.19877118234E-01 0.  0.
         14    1    1    2    0    0  0.25043682232E-01  0.16046061694E-01  0.17422471296E-01  0.34470344090E-01  0.00000000000E+00 0. -1.
     999901    1    3    3    0    0 -0.30720847287E-01 -0.39218530935E-01  0.10086729975E+00  0.88716180925E+00  0.88000000000E+00 0. -1.
        -11    1    4    4    0    0  0.46157439835E-02 -0.25443951627E-02 -0.21594350951E-01  0.22234121373E-01  0.51100000000E-03 0. -1.
         11    1    4    4    0    0  0.10614210718E-02  0.25716864404E-01 -0.96695420100E-01  0.10006372529E+00  0.51100000000E-03 0.  1.
</event>
<event>
 8    1  0.1112171E+005  0.1043930E+01  0.7957747E-01            NaN
         13   -1    0    0    0    0  0.00000000000E+00  0.00000000000E+00  0.74505805969E-08  0.10566000000E+00  0.10566000000E+00 0. -1.
     999900   -1    0    0    0    0 -0.00000000000E+00 -0.00000000000E+00 -0.74505805969E-08  0.93827000000E+00  0.93827000000E+00 0.  1.
     999902    2    1    2    0    0 -0.56741746259E-02  0.12834786928E-01  0.19755990978E-01  0.10196972290E+01  0.10194092463E+01 0.  0.
     999903    2    3    3    0    0 -0.10192743371E-01  0.36621723518E-01  0.12600531058E+00  0.13297565273E+00  0.18977441207E-01 0.  0.
         14    1    1    2    0    0  0.56741746259E-02 -0.12834786928E-01 -0.19755990978E-01  0.24232771049E-01  0.00000000000E+00 0.  1.
     999901    1    3    3    0    0  0.45185687455E-02 -0.23786936590E-01 -0.10624931960E+00  0.88672157622E+00  0.88000000000E+00 0.  1.
        -11    1    4    4    0    0 -0.13069054901E-01  0.36652237879E-01  0.12171621355E+00  0.12778608883E+00  0.51100000000E-03 0.  1.
         11    1    4    4    0    0  0.28763115292E-02 -0.30514360842E-04  0.42890970307E-02  0.51895639006E-02  0.51100000000E-03 0. -1.
</event>
<event>
 8    1  0.1112171E+005  0.1043930E+01  0.7957747E-01            NaN
         13   -1    0    0    0    0  0.00000000000E+00  0.00000000000E+00  0.74505805969E-08  0.10566000000E+00  0.10566000000E+00 0. -1.
     999900   -1    0    0    0    0 -0.00000000000E+00 -0.00000000000E+00 -0.74505805969E-08  0.93827000000E+00  0.93827000000E+00 0.  1.
     999902    2    1    2    0    0 -0.35990935799E-02 -0.10989119020E-01  0.36068465988E-01  0.10060532466E+01  0.10053399855E+01 0.  0.
     999903    2    3    3    0    0  0.71761040433E-01 -0.82083317668E-01  0.44737831387E-01  0.11993322492E+00  0.22252795750E-01 0.  0.
         14    1    1    2    0    0  0.35990935799E-02  0.10989119020E-01 -0.36068465988E-01  0.37876753427E-01  0.00000000000E+00 0.  1.
     999901    1    3    3    0    0 -0.75360134013E-01  0.71094198648E-01 -0.86693653985E-02  0.88612002165E+00  0.88000000000E+00 0. -1.
        -11    1    4    4    0    0  0.72860420628E-02 -0.12123537279E-01 -0.13497605094E-02  0.14217930213E-01  0.51100000000E-03 0.  1.
         11    1    4    4    0    0  0.64474998370E-01 -0.69959780389E-01  0.46087591896E-01  0.10571529471E+00  0.51100000000E-03 0. -1.
</event>
<event>
 8    1  0.1112171E+005  0.1043930E+01  0.7957747E-01            NaN
         13   -1    0    0    0    0  0.00000000000E+00  0.00000000000E+00  0.74505805969E-08  0.10566000000E+00  0.10566000000E+00 0.  1.
     999900   -1    0    0    0    0 -0.00000000000E+00 -0.00000000000E+00 -0.74505805969E-08  0.93827000000E+00  0.93827000000E+00 0. -1.
     999902    2    1    2    0    0  0.16149792977E-01 -0.15877305773E-01  0.15825445485E-01  0.10163012219E+01  0.10159255998E+01 0.  0.
     999903    2    3    3    0    0  0.12089913793E+00 -0.26107837118E-01 -0.29736147987E-01  0.12885942226E+00  0.20549732237E-01 0.  0.
         14    1    1    2    0    0 -0.16149792977E-01  0.15877305773E-01 -0.15825445485E-01  0.27628778052E-01  0.00000000000E+00 0. -1.
     999901    1    3    3    0    0 -0.10474934496E+00  0.10230531345E-01  0.45561593473E-01  0.88744179969E+00  0.88000000000E+00 0.  1.
        -11    1    4    4    0    0  0.89457219320E-01 -0.15852846182E-01 -0.12959757464E-01  0.91772126788E-01  0.51100000000E-03 0. -1.
         11    1    4    4    0    0  0.31441918614E-01 -0.10254990936E-01 -0.16776390524E-01  0.37087295469E-01  0.51100000000E-03 0.  1.
</event>
<event>
 8    1  0.1112171E+005  0.1043930E+01  0.7957747E-01            NaN
         13   -1    0    0    0    0  0.00000000000E+00  0.00000000000E+00  0.74505805969E-08  0.10566000000E+00  0.10566000000E+00 0. -1.
     999900   -1    0    0    0    0 -0.00000000000E+00 -0.00000000000E+00 -0.74505805969E-08  0.93827000000E+00  0.93827000000E+00 0.  1.
     999902    2    1    2    0    0  0.19298969571E-01 -0.64135708626E-02 -0.58565443115E-02  0.10227667481E+01  0.10225477680E+01 0.  0.
     999903    2    3    3    0    0  0.11221700876E+00  0.70061673499E-01  0.61856090928E-03  0.13455272439E+00  0.24551127769E-01 0.  0.
         14    1    1    2    0    0 -0.19298969571E-01  0.64135708626E-02  0.58565443115E-02  0.21163251853E-01  0.00000000000E+00 0. -1.
     999901    1    3    3    0    0 -0.92918039191E-01 -0.76475244362E-01 -0.64751052208E-02  0.88821402375E+00  0.88000000000E+00 0. -1.
        -11    1    4    4    0    0  0.50088626209E-01  0.17846272999E-01  0.39875417958E-02  0.53324680459E-01  0.51100000000E-03 0.  1.
         11    1    4    4    0    0  0.62128382554E-01  0.52215400500E-01 -0.33689808865E-02  0.81228043934E-01  0.51100000000E-03 0. -1.
</event>
<event>
 8    1  0.1112171E+005  0.1043930E+01  0.7957747E-01            NaN
         13   -1    0    0    0    0  0.00000000000E+00  0.00000000000E+00  0.74505805969E-08  0.10566000000E+00  0.10566000000E+00 0.  1.
     999900   -1    0    0    0    0 -0.00000000000E+00 -0.00000000000E+00 -0.74505805969E-08  0.93827000000E+00  0.93827000000E+00 0.  1.
     999902    2    1    2    0    0  0.16081733297E-01 -0.53796078664E-02  0.16491681504E-01  0.10202754468E+01  0.10200012007E+01 0.  0.
     999903    2    3    3    0    0  0.77711045538E-01  0.19325232432E-02  0.10664725994E+00  0.13349493977E+00  0.20112673805E-01 0.  0.
         14    1    1    2    0    0 -0.16081733297E-01  0.53796078664E-02 -0.16491681504E-01  0.23654553165E-01  0.00000000000E+00 0.  1.
     999901    1    3    3    0    0 -0.61629312242E-01 -0.73121311096E-02 -0.90155578432E-01  0.88678050707E+00  0.88000000000E+00 0.  1.
        -11    1    4    4    0    0  0.43314329621E-01 -0.56707849569E-02  0.71083653431E-01  0.83435219533E-01  0.51100000000E-03 0. -1.
         11    1    4    4    0    0  0.34396715917E-01  0.76033082000E-02  0.35563606505E-01  0.50059720236E-01  0.51100000000E-03 0.  1.
</event>
<event>
 8    1  0.1112171E+005  0.1043930E+01  0.7957747E-01            NaN
         13   -1    0    0    0    0  0.00000000000E+00  0.00000000000E+00  0.74505805969E-08  0.10566000000E+00  0.10566000000E+00 0.  1.
     999900   -1    0    0    0    0 -0.00000000000E+00 -0.00000000000E+00 -0.74505805969E-08  0.93827000000E+00  0.93827000000E+00 0.  1.
     999902    2    1    2    0    0  0.83358903303E-02  0.23864348858E-01 -0.76661701751E-03  0.10186400432E+01  0.10183260557E+01 0.  0.
     999903    2    3    3    0    0 -0.12079671531E-01  0.11897927470E+00 -0.51578696307E-01  0.13182241160E+00  0.20366639805E-01 0.  0.
         14    1    1    2    0    0 -0.83358903303E-02 -0.23864348858E-01  0.76661701751E-03  0.25289956814E-01  0.00000000000E+00 0. -1.
     999901    1    3    3    0    0  0.20415561861E-01 -0.95114925838E-01  0.50812079289E-01  0.88681763158E+00  0.88000000000E+00 0. -1.
        -11    1    4    4    0    0  0.39273679398E-02  0.39806317135E-01 -0.11344672167E-01  0.41580401758E-01  0.51100000000E-03 0. -1.
         11    1    4    4    0    0 -0.16007039470E-01  0.79172957561E-01 -0.40234024140E-01  0.90242009846E-01  0.51100000000E-03 0.  1.
</event>
<event>
 8    1  0.1112171E+005  0.1043930E+01  0.7957747E-01            NaN
         13   -1    0    0    0    0  0.00000000000E+00  0.00000000000E+00  0.74505805969E-08  0.10566000000E+00  0.10566000000E+00 0.  1.
     999900   -1    0    0    0    0 -0.00000000000E+00 -0.00000000000E+00 -0.74505805969E-08  0.93827000000E+00  0.93827000000E+00 0.  1.
     999902    2    1    2    0    0 -0.16876359608E-01 -0.15368263542E-01 -0.60031061100E-02  0.10203284678E+01  0.10200554641E+01 0.  0.
     999903    2    3    3    0    0 -0.31785511914E-01 -0.62271088356E-01 -0.11104125746E+00  0.13271640671E+00  0.19886591984E-01 0.  0.
         14    1    1    2    0    0  0.16876359608E-01  0.15368263542E-01  0.60031061100E-02  0.23601532173E-01  0.00000000000E+00 0. -1.
     999901    1    3    3    0    0  0.14909152306E-01  0.46902824814E-01  0.10503815135E+00  0.88761206111E+00  0.88000000000E+00 0. -1.
        -11    1    4    4    0    0 -0.14528841433E-01 -0.11605796713E-01 -0.21843942475E-01  0.28691474249E-01  0.51100000000E-03 0. -1.
         11    1    4    4    0    0 -0.17256670481E-01 -0.50665291643E-01 -0.89197314981E-01  0.10402493246E+00  0.51100000000E-03 0.  1.
</event>
<event>
 8    1  0.1112171E+005  0.1043930E+01  0.7957747E-01            NaN
         13   -1    0    0    0    0  0.00000000000E+00  0.00000000000E+00  0.74505805969E-08  0.10566000000E+00  0.10566000000E+00 0.  1.
     999900   -1    0    0    0    0 -0.00000000000E+00 -0.00000000000E+00 -0.74505805969E-08  0.93827000000E+00  0.93827000000E+00 0.  1.
     999902    2    1    2    0    0 -0.62674265980E-02  0.17174213849E-01  0.17525062545E-01  0.10186048727E+01  0.10182900002E+01 0.  0.
     999903    2    3    3    0    0 -0.82421557951E-01 -0.10896334974E-01 -0.94839744308E-01  0.12775513379E+00  0.20365504599E-01 0.  0.
         14    1    1    2    0    0  0.62674265980E-02 -0.17174213849E-01 -0.17525062545E-01  0.25325127338E-01  0.00000000000E+00 0.  1.
     999901    1    3    3    0    0  0.76154131353E-01  0.28070548823E-01  0.11236480685E+00  0.89084973887E+00  0.88000000000E+00 0. -1.
        -11    1    4    4    0    0 -0.61097223168E-01 -0.14628925709E-01 -0.60917905687E-01  0.87510733631E-01  0.51100000000E-03 0.  1.
         11    1    4    4    0    0 -0.21324334783E-01  0.37325907349E-02 -0.33921838621E-01  0.40244400156E-01  0.51100000000E-03 0. -1.
</event>
<event>
 8    1  0.1112171E+005  0.1043930E+01  0.7957747E-01            NaN
         13   -1    0    0    0    0  0.00000000000E+00  0.00000000000E+00  0.74505805969E-08  0.10566000000E+00  0.10566000000E+00 0. -1.
     999900   -1    0    0    0    0 -0.00000000000E+00 -0.00000000000E+00 -0.74505805969E-08  0.93827000000E+00  0.93827000000E+00 0. -1.
     999902    2    1    2    0    0  0.33901866279E-02 -0.20177691425E-01  0.10138672405E-01  0.10210952617E+01  0.10208399033E+01 0.  0.
     999903    2    3    3    0    0 -0.15557853662E-01  0.93931848758E-01 -0.83987706460E-01  0.12854846144E+00  0.20137851950E-01 0.  0.
         14    1    1    2    0    0 -0.33901866279E-02  0.20177691425E-01 -0.10138672405E-01  0.22834738334E-01  0.00000000000E+00 0.  1.
     999901    1    3    3    0    0  0.18948040290E-01 -0.11410954018E+00  0.94126378865E-01  0.89254680022E+00  0.88000000000E+00 0.  1.
        -11    1    4    4    0    0 -0.13094535065E-01  0.41444931927E-01 -0.48566621373E-01  0.65177657703E-01  0.51100000000E-03 0. -1.
         11    1    4    4    0    0 -0.24633185971E-02  0.52486916830E-01 -0.35421085087E-01  0.63370803740E-01  0.51100000000E-03 0.  1.
</event>
<event>
 8    1  0.1112171E+005  0.1043930E+01  0.7957747E-01            NaN
         13   -1    0    0    0    0  0.00000000000E+00  0.00000000000E+00  0.74505805969E-08  0.10566000000E+00  0.10566000000E+00 0.  1.
     999900   -1    0    0    0    0 -0.00000000000E+00 -0.00000000000E+00 -0.74505805969E-08  0.93827000000E+00  0.93827000000E+00 0.  1.
     999902    2    1    2    0    0 -0.76265050451E-02  0.21853189014E-01 -0.38227545128E-02  0.10204706969E+01  0.10202010117E+01 0.  0.
     999903    2    3    3    0    0 -0.37855764384E-01 -0.38725999418E-01  0.11636661477E+00  0.12972430726E+00  0.18826707994E-01 0.  0.
         14    1    1    2    0    0  0.76265050451E-02 -0.21853189014E-01  0.38227545128E-02  0.23459303088E-01  0.00000000000E+00 0.  1.
     999901    1    3    3    0    0  0.30229259339E-01  0.60579188432E-01 -0.12018936928E+00  0.89074638965E+00  0.88000000000E+00 0. -1.
        -11    1    4    4    0    0 -0.10768981560E-01 -0.24399599360E-01  0.52804804128E-01  0.59160120628E-01  0.51100000000E-03 0.  1.
         11    1    4    4    0    0 -0.27086782824E-01 -0.14326400058E-01  0.63561810639E-01  0.70564186632E-01  0.51100000000E-03 0. -1.
</event>
<event>
 8    1  0.1112171E+005  0.1043930E+01  0.7957747E-01            NaN
         13   -1    0    0    0    0  0.00000000000E+00  0.00000000000E+00  0.74505805969E-08  0.10566000000E+00  0.10566000000E+00 0. -1.
     999900   -1    0    0    0    0 -0.00000000000E+00 -0.00000000000E+00 -0.74505805969E-08  0.93827000000E+00  0.93827000000E+00 0.  1.
     999902    2    1    2    0    0 -0.11245889811E-01  0.19158813344E-01  0.11268451214E-01  0.10190199988E+01  0.10187154901E+01 0.  0.
     999903    2    3    3    0    0 -0.42917559653E-01  0.10392732485E+00 -0.64476753641E-01  0.13114268112E+00  0.19958588993E-01 0.  0.
         14    1    1    2    0    0  0.11245889811E-01 -0.19158813344E-01 -0.11268451214E-01  0.24910001187E-01  0.00000000000E+00 0.  1.
     999901    1    3    3    0    0  0.31671669842E-01 -0.84768511505E-01  0.75745204855E-01  0.88787731769E+00  0.88000000000E+00 0.  1.
        -11    1    4    4    0    0 -0.29321315141E-01  0.89721876927E-01 -0.50898835731E-01  0.10724135080E+00  0.51100000000E-03 0. -1.
         11    1    4    4    0    0 -0.13596244512E-01  0.14205447922E-01 -0.13577917910E-01  0.23901330325E-01  0.51100000000E-03 0.  1.
</event>
<event>
 8    1  0.1112171E+005  0.1043930E+01  0.7957747E-01            NaN
         13   -1    0    0    0    0  0.00000000000E+00  0.00000000000E+00  0.74505805969E-08  0.10566000000E+00  0.10566000000E+00 0. -1.
     999900   -1    0    0    0    0 -0.00000000000E+00 -0.00000000000E+00 -0.74505805969E-08  0.93827000000E+00  0.93827000000E+00 0. -1.
     999902    2    1    2    0    0 -0.90752300613E-02  0.25121070400E-01  0.14542836517E-01  0.10135174685E+01  0.10130610726E+01 0.  0.
     999903    2    3    3    0    0  0.55547297696E-01  0.11198872593E+00  0.10599370066E-01  0.12687345222E+00  0.18908971837E-01 0.  0.
         14    1    1    2    0    0  0.90752300613E-02 -0.25121070400E-01 -0.14542836517E-01  0.30412531507E-01  0.00000000000E+00 0.  1.
     999901    1    3    3    0    0 -0.64622527758E-01 -0.86867655525E-01  0.39434664506E-02  0.88664401628E+00  0.88000000000E+00 0.  1.
        -11    1    4    4    0    0  0.20805092241E-01  0.44510854497E-01 -0.49971694656E-02  0.49389278744E-01  0.51100000000E-03 0. -1.
         11    1    4    4    0    0  0.34742205455E-01  0.67477871428E-01  0.15596539532E-01  0.77484173473E-01  0.51100000000E-03 0.  1.
</event>
<event>
 8    1  0.1112171E+005  0.1043930E+01  0.7957747E-01            NaN
         13   -1    0    0    0    0  0.00000000000E+00  0.00000000000E+00  0.74505805969E-08  0.10566000000E+00  0.10566000000E+00 0.  1.
     999900   -1    0    0    0    0 -0.00000000000E+00 -0.00000000000E+00 -0.74505805969E-08  0.93827000000E+00  0.93827000000E+00 0. -1.
     999902    2    1    2    0    0 -0.11479038550E-02  0.75267625102E-02  0.23212161199E-01  0.10195010364E+01  0.10192083148E+01 0.  0.
     999903    2    3    3    0    0 -0.73605864085E-01  0.27608071293E-01 -0.98882117008E-01  0.12789550265E+00  0.19988939597E-01 0.  0.
         14    1    1    2    0    0  0.11479038550E-02 -0.75267625102E-02 -0.23212161199E-01  0.24428963643E-01  0.00000000000E+00 0. -1.
     999901    1    3    3    0    0  0.72457960230E-01 -0.20081308782E-01  0.12209427821E+00  0.89160553371E+00  0.88000000000E+00 0.  1.
        -11    1    4    4    0    0 -0.37569882343E-01  0.99012903286E-02 -0.34201307963E-01  0.51764101430E-01  0.51100000000E-03 0. -1.
         11    1    4    4    0    0 -0.36035981741E-01  0.17706780964E-01 -0.64680809045E-01  0.76131401221E-01  0.51100000000E-03 0.  1.
</event>
<event>
 8    1  0.1112171E+005  0.1043930E+01  0.7957747E-01            NaN
         13   -1    0    0    0    0  0.00000000000E+00  0.00000000000E+00  0.74505805969E-08  0.10566000000E+00  0.10566000000E+00 0.  1.
     999900   -1    0    0    0    0 -0.00000000000E+00 -0.00000000000E+00 -0.74505805969E-08  0.93827000000E+00  0.93827000000E+00 0. -1.
     999902    2    1    2    0    0 -0.11102624342E-01  0.48148134694E-02 -0.19251657197E-01  0.10211906728E+01  0.10209374678E+01 0.  0.
     999903    2    3    3    0    0 -0.97389189120E-01 -0.78690940388E-01 -0.39348498605E-01  0.13280873625E+00  0.20320871632E-01 0.  0.
         14    1    1    2    0    0  0.11102624342E-01 -0.48148134694E-02  0.19251657197E-01  0.22739327185E-01  0.00000000000E+00 0.  1.
     999901    1    3    3    0    0  0.86286564779E-01  0.83505753857E-01  0.20096841408E-01  0.88838193657E+00  0.88000000000E+00 0.  1.
        -11    1    4    4    0    0 -0.88420735269E-01 -0.64412069088E-01 -0.29618355214E-01  0.11333423647E+00  0.51100000000E-03 0. -1.
         11    1    4    4    0    0 -0.89684538517E-02 -0.14278871300E-01 -0.97301433905E-02  0.19474499775E-01  0.51100000000E-03 0.  1.
</event>
<event>
 8    1  0.1112171E+005  0.1043930E+01  0.7957747E-01            NaN
         13   -1    0    0    0    0  0.00000000000E+00  0.00000000000E+00  0.74505805969E-08  0.10566000000E+00  0.10566000000E+00 0. -1.
     999900   -1    0    0    0    0 -0.00000000000E+00 -0.00000000000E+00 -0.74505805969E-08  0.93827000000E+00  0.93827000000E+00 0. -1.
     999902    2    1    2    0    0 -0.43330924368E-02  0.22048251977E-01  0.93093272949E-02  0.10196078973E+01  0.10193177618E+01 0.  0.
     999903    2    3    3    0    0  0.60856082761E-01 -0.10349152042E+00 -0.36519734196E-01  0.12713371509E+00  0.20379718329E-01 0.  0.
         14    1    1    2    0    0  0.43330924368E-02 -0.22048251977E-01 -0.93093272949E-02  0.24322102705E-01  0.00000000000E+00 0.  1.
     999901    1    3    3    0    0 -0.65189175198E-01  0.12553977240E+00  0.45829061491E-01  0.89247418220E+00  0.88000000000E+00 0. -1.
        -11    1    4    4    0    0  0.29743562474E-01 -0.65347609087E-01 -0.14704622481E-01  0.73290357929E-01  0.51100000000E-03 0. -1.
         11    1    4    4    0    0  0.31112520287E-01 -0.38143911337E-01 -0.21815111714E-01  0.53843357165E-01  0.51100000000E-03 0.  1.
</event>
<event>
 8    1  0.1112171E+005  0.1043930E+01  0.7957747E-01            NaN
         13   -1    0    0    0    0  0.00000000000E+00  0.00000000000E+00  0.74505805969E-08  0.10566000000E+00  0.10566000000E+00 0.  1.
     999900   -1    0    0    0    0 -0.00000000000E+00 -0.00000000000E+00 -0.74505805969E-08  0.93827000000E+00  0.93827000000E+00 0.  1.
     999902    2    1    2    0    0 -0.25327775299E-01  0.65576420614E-02  0.11927779015E-02  0.10177398952E+01  0.10174028566E+01 0.  0.
     999903    2    3    3    0    0  0.33390505405E-01 -0.11779264078E+00  0.26033421174E-01  0.12671358419E+00  0.19711958972E-01 0.  0.
         14    1    1    2    0    0  0.25327775299E-01 -0.65576420614E-02 -0.11927779015E-02  0.26190104813E-01  0.00000000000E+00 0.  1.
     999901    1    3    3    0    0 -0.58718280704E-01  0.12435028284E+00 -0.24840643273E-01  0.89102631100E+00  0.88000000000E+00 0.  1.
        -11    1    4    4    0    0  0.48619386947E-02 -0.19276315883E-01 -0.30160033102E-02  0.20113980185E-01  0.51100000000E-03 0. -1.
         11    1    4    4    0    0  0.28528566710E-01 -0.98516324899E-01  0.29049424484E-01  0.10659960400E+00  0.51100000000E-03 0.  1.
</event>
<event>
 8    1  0.1112171E+005  0.1043930E+01  0.7957747E-01            NaN
         13   -1    0    0    0    0  0.00000000000E+00  0.00000000000E+00  0.74505805969E-08  0.10566000000E+00  0.10566000000E+00 0.  1.
     999900   -1    0    0    0    0 -0.00000000000E+00 -0.00000000000E+00 -0.74505805969E-08  0.93827000000E+00  0.93827000000E+00 0. -1.
     999902    2    1    2    0    0 -0.21593900473E-01  0.85007005175E-02  0.54864725141E-03  0.10207166534E+01  0.10204526579E+01 0.  0.
     999903    2    3    3    0    0 -0.89030763593E-01  0.95806877228E-01  0.18755268247E-01  0.13364192145E+00  0.20074075127E-01 0.  0.
         14    1    1    2    0    0  0.21593900473E-01 -0.85007005175E-02 -0.54864725141E-03  0.23213346608E-01  0.00000000000E+00 0. -1.
     999901    1    3    3    0    0  0.67436863120E-01 -0.87306176710E-01 -0.18206620995E-01  0.88707473194E+00  0.88000000000E+00 0.  1.
        -11    1    4    4    0    0 -0.68696664758E-01  0.69556838858E-01  0.56024653090E-02  0.97923614717E-01  0.51100000000E-03 0. -1.
         11    1    4    4    0    0 -0.20334098835E-01  0.26250038370E-01  0.13152802938E-01  0.35718306735E-01  0.51100000000E-03 0.  1.
</event>
<event>
 8    1  0.1112171E+005  0.1043930E+01  0.7957747E-01            NaN
         13   -1    0    0    0    0  0.00000000000E+00  0.00000000000E+00  0.74505805969E-08  0.10566000000E+00  0.10566000000E+00 0. -1.
     999900   -1    0    0    0    0 -0.00000000000E+00 -0.00000000000E+00 -0.74505805969E-08  0.93827000000E+00  0.93827000000E+00 0.  1.
     999902    2    1    2    0    0 -0.70340087219E-03  0.66420075043E-02  0.23990341188E-01  0.10190272390E+01  0.10187229095E+01 0.  0.
     999903    2    3    3    0    0 -0.12670601109E+00 -0.14687799279E-01  0.10247576900E-01  0.12969013640E+00  0.21080179188E-01 0.  0.
         14    1    1    2    0    0  0.70340087219E-03 -0.66420075043E-02 -0.23990341188E-01  0.24902761027E-01  0.00000000000E+00 0.  1.
     999901    1    3    3    0    0  0.12600261021E+00  0.21329806784E-01  0.13742764288E-01  0.88933710257E+00  0.88000000000E+00 0.  1.
        -11    1    4    4    0    0 -0.76502261866E-01 -0.38313488149E-02 -0.29446399383E-02  0.76656423930E-01  0.51100000000E-03 0. -1.
         11    1    4    4    0    0 -0.50203749220E-01 -0.10856450464E-01  0.13192216839E-01  0.53033712472E-01  0.51100000000E-03 0.  1.
</event>
<event>
 8    1  0.1112171E+005  0.1043930E+01  0.7957747E-01            NaN
         13   -1    0    0    0    0  0.00000000000E+00  0.00000000000E+00  0.74505805969E-08  0.10566000000E+00  0.10566000000E+00 0.  1.
     999900   -1    0    0    0    0 -0.00000000000E+00 -0.00000000000E+00 -0.74505805969E-08  0.93827000000E+00  0.93827000000E+00 0.  1.
     999902    2    1    2    0    0  0.21314529031E-01 -0.69498815278E-02 -0.79623251185E-02  0.10201390643E+01  0.10198616092E+01 0.  0.
     999903    2    3    3    0    0 -0.90204083809E-01  0.87575739797E-01  0.10367360028E-01  0.12789051626E+00  0.21028910037E-01 0.  0.
         14    1    1    2    0    0 -0.21314529031E-01  0.69498815278E-02  0.79623251185E-02  0.23790935718E-01  0.00000000000E+00 0. -1.
     999901    1    3    3    0    0  0.11151861284E+00 -0.94525621325E-01 -0.18329685146E-01  0.89224854803E+00  0.88000000000E+00 0. -1.
        -11    1    4    4    0    0 -0.21879932583E-01  0.21339287582E-01  0.11672303585E-01  0.32720031118E-01  0.51100000000E-03 0.  1.
         11    1    4    4    0    0 -0.68324151226E-01  0.66236452215E-01 -0.13049435568E-02  0.95170485138E-01  0.51100000000E-03 0. -1.
</event>
<event>
 8    1  0.1112171E+005  0.1043930E+01  0.7957747E-01            NaN
         13   -1    0    0    0    0  0.00000000000E+00  0.00000000000E+00  0.74505805969E-08  0.10566000000E+00  0.10566000000E+00 0.  1.
     999900   -1    0    0    0    0 -0.00000000000E+00 -0.00000000000E+00 -0.74505805969E-08  0.93827000000E+00  0.93827000000E+00 0. -1.
     999902    2    1    2    0    0 -0.61185741406E-02  0.17973121410E-01  0.15170954578E-01  0.10196271626E+01  0.10193374921E+01 0.  0.
     999903    2    3    3    0    0 -0.12415451959E+00  0.31467181691E-01 -0.19973895367E-01  0.13094851733E+00  0.18548030542E-01 0.  0.
         14    1    1    2    0    0  0.61185741406E-02 -0.17973121410E-01 -0.15170954578E-01  0.24302837397E-01  0.00000000000E+00 0. -1.
     999901    1    3    3    0    0  0.11803594545E+00 -0.13494060281E-01  0.35144849945E-01  0.88867864527E+00  0.88000000000E+00 0.  1.
        -11    1    4    4    0    0 -0.10083346917E+00  0.29492888599E-01 -0.22375030356E-01  0.10741565103E+00  0.51100000000E-03 0. -1.
         11    1    4    4    0    0 -0.23321050423E-01  0.19742930916E-02  0.24011349884E-02  0.23532866300E-01  0.51100000000E-03 0.  1.
</event>
<event>
 8    1  0.1112171E+005  0.1043930E+01  0.7957747E-01            NaN
         13   -1    0    0    0    0  0.00000000000E+00  0.00000000000E+00  0.74505805969E-08  0.10566000000E+00  0.10566000000E+00 0.  1.
     999900   -1    0    0    0    0 -0.00000000000E+00 -0.00000000000E+00 -0.74505805969E-08  0.93827000000E+00  0.93827000000E+00 0.  1.
     999902    2    1    2    0    0 -0.30711014754E-02 -0.21974821661E-01 -0.78258694850E-02  0.10204019596E+01  0.10201306732E+01 0.  0.
     999903    2    3    3    0    0 -0.34186855266E-01  0.11677760574E+00  0.34503708415E-01  0.12798265267E+00  0.19578130981E-01 0.  0.
         14    1    1    2    0    0  0.30711014754E-02  0.21974821661E-01  0.78258694850E-02  0.23528040388E-01  0.00000000000E+00 0. -1.
     999901    1    3    3    0    0  0.31115753791E-01 -0.13875242741E+00 -0.42329577900E-01  0.89241930695E+00  0.88000000000E+00 0.  1.
        -11    1    4    4    0    0 -0.28457442741E-01  0.68858203132E-01  0.15445918542E-01  0.76092809821E-01  0.51100000000E-03 0.  1.
         11    1    4    4    0    0 -0.57294125257E-02  0.47919402612E-01  0.19057789873E-01  0.51889842845E-01  0.51100000000E-03 0. -1.
</event>
<event>
 8    1  0.1112171E+005  0.1043930E+01  0.7957747E-01            NaN
         13   -1    0    0    0    0  0.00000000000E+00  0.00000000000E+00  0.74505805969E-08  0.10566000000E+00  0.10566000000E+00 0.  1.
     999900   -1    0    0    0    0 -0.00000000000E+00 -0.00000000000E+00 -0.74505805969E-08  0.93827000000E+00  0.93827000000E+00 0. -1.
     999902    2    1    2    0    0 -0.33958883674E-02 -0.51844640567E-02  0.23446957641E-01  0.10196777723E+01  0.10193893215E+01 0.  0.
     999903    2    3    3    0    0 -0.90086091853E-01  0.73497922139E-01  0.57599505733E-01  0.13126767229E+00  0.19901010604E-01 0.  0.
         14    1    1    2    0    0  0.33958883674E-02  0.51844640567E-02 -0.23446957641E-01  0.24252227691E-01  0.00000000000E+00 0. -1.
     999901    1    3    3    0    0  0.86690203485E-01 -0.78682386196E-01 -0.34152548092E-01  0.88841010002E+00  0.88000000000E+00 0.  1.
        -11    1    4    4    0    0 -0.36530549119E-01  0.42610103125E-01  0.27150708148E-01  0.62350011878E-01  0.51100000000E-03 0.  1.
         11    1    4    4    0    0 -0.53555542734E-01  0.30887819014E-01  0.30448797585E-01  0.68917660410E-01  0.51100000000E-03 0. -1.
</event>
<event>
 8    1  0.1112171E+005  0.1043930E+01  0.7957747E-01            NaN
         13   -1    0    0    0    0  0.00000000000E+00  0.00000000000E+00  0.74505805969E-08  0.10566000000E+00  0.10566000000E+00 0.  1.
     999900   -1    0    0    0    0 -0.00000000000E+00 -0.00000000000E+00 -0.74505805969E-08  0.93827000000E+00  0.93827000000E+00 0. -1.
     999902    2    1    2    0    0  0.20847255135E-03  0.23340146385E-01  0.67484540180E-03  0.10205791690E+01  0.10203120007E+01 0.  0.
     999903    2    3    3    0    0 -0.35701433565E-01 -0.78014418599E-01  0.94652884711E-01  0.12906689138E+00  0.18391628483E-01 0.  0.
         14    1    1    2    0    0 -0.20847255135E-03 -0.23340146385E-01 -0.67484540180E-03  0.23350831043E-01  0.00000000000E+00 0. -1.
     999901    1    3    3    0    0  0.35909906116E-01  0.10135456498E+00 -0.93978039309E-01  0.89151227758E+00  0.88000000000E+00 0.  1.
        -11    1    4    4    0    0 -0.34292487163E-01 -0.71839296047E-01  0.78905071728E-01  0.11208537192E+00  0.51100000000E-03 0.  1.
         11    1    4    4    0    0 -0.14089464013E-02 -0.61751225516E-02  0.15747812982E-01  0.16981519461E-01  0.51100000000E-03 0. -1.
</event>
<event>
 8    1  0.1112171E+005  0.1043930E+01  0.7957747E-01            NaN
         13   -1    0    0    0    0  0.00000000000E+00  0.00000000000E+00  0.74505805969E-08  0.10566000000E+00  0.10566000000E+00 0.  1.
     999900   -1    0    0    0    0 -0.00000000000E+00 -0.00000000000E+00 -0.74505805969E-08  0.93827000000E+00  0.93827000000E+00 0. -1.
     999902    2    1    2    0    0  0.54606694650E-02 -0.17404552306E-01 -0.14993104903E-01  0.10203179152E+01  0.10200446645E+01 0.  0.
     999903    2    3    3    0    0 -0.63713079300E-01  0.95315671402E-01  0.52746791069E-01  0.12786088554E+00  0.20536513709E-01 0.  0.
         14    1    1    2    0    0 -0.54606694650E-02  0.17404552306E-01  0.14993104903E-01  0.23612084758E-01  0.00000000000E+00 0.  1.
     999901    1    3    3    0    0  0.69173748765E-01 -0.11272022371E+00 -0.67739895972E-01  0.89245702970E+00  0.88000000000E+00 0. -1.
        -11    1    4    4    0    0 -0.27092880317E-01  0.58796962586E-01  0.30291787438E-01  0.71476992665E-01  0.51100000000E-03 0. -1.
         11    1    4    4    0    0 -0.36620198983E-01  0.36518708816E-01  0.22455003631E-01  0.56383892879E-01  0.51100000000E-03 0.  1.
</event>
<event>
 8    1  0.1112171E+005  0.1043930E+01  0.7957747E-01            NaN
         13   -1    0    0    0    0  0.00000000000E+00  0.00000000000E+00  0.74505805969E-08  0.10566000000E+00  0.10566000000E+00 0. -1.
     999900   -1    0    0    0    0 -0.00000000000E+00 -0.00000000000E+00 -0.74505805969E-08  0.93827000000E+00  0.93827000000E+00 0. -1.
     999902    2    1    2    0    0  0.12983035893E-02  0.15149135805E-01 -0.17903283201E-01  0.10204415037E+01  0.10201711391E+01 0.  0.
     999903    2    3    3    0    0 -0.12384582530E+00  0.38122362883E-01 -0.46497929756E-02  0.13119211398E+00  0.19966151325E-01 0.  0.
         14    1    1    2    0    0 -0.12983035893E-02 -0.15149135805E-01  0.17903283201E-01  0.23488496274E-01  0.00000000000E+00 0.  1.
     999901    1    3    3    0    0  0.12514412889E+00 -0.22973227079E-01 -0.13253490226E-01  0.88924938975E+00  0.88000000000E+00 0. -1.
        -11    1    4    4    0    0 -0.11124881931E+00  0.27443137246E-01 -0.38010193232E-02  0.11464787154E+00  0.51100000000E-03 0.  1.
         11    1    4    4    0    0 -0.12597005999E-01  0.10679225637E-01 -0.84877365234E-03  0.16544242445E-01  0.51100000000E-03 0. -1.
</event>
<event>
 8    1  0.1112171E+005  0.1043930E+01  0.7957747E-01            NaN
         13   -1    0    0    0    0  0.00000000000E+00  0.00000000000E+00  0.74505805969E-08  0.10566000000E+00  0.10566000000E+00 0.  1.
     999900   -1    0    0    0    0 -0.00000000000E+00 -0.00000000000E+00 -0.74505805969E-08  0.93827000000E+00  0.93827000000E+00 0.  1.
     999902    2    1    2    0    0  0.20443971315E-01  0.24932661089E-01 -0.64082574523E-02  0.10110566169E+01  0.10105220548E+01 0.  0.
     999903    2    3    3    0    0 -0.29507268900E-01  0.60669045932E-01  0.99972545743E-01  0.12252463049E+00  0.21595442176E-01 0.  0.
         14    1    1    2    0    0 -0.20443971315E-01 -0.24932661089E-01  0.64082574523E-02  0.32873383089E-01  0.00000000000E+00 0.  1.
     999901    1    3    3    0    0  0.49951240215E-01 -0.35736384843E-01 -0.10638080320E+00  0.88853198642E+00  0.88000000000E+00 0.  1.
        -11    1    4    4    0    0 -0.21433216823E-01  0.24787243764E-01  0.35628507689E-01  0.48409109865E-01  0.51100000000E-03 0.  1.
         11    1    4    4    0    0 -0.80740520767E-02  0.35881802167E-01  0.64344038054E-01  0.74115520627E-01  0.51100000000E-03 0. -1.
</event>
<event>
 8    1  0.1112171E+005  0.1043930E+01  0.7957747E-01            NaN
         13   -1    0    0    0    0  0.00000000000E+00  0.00000000000E+00  0.74505805969E-08  0.10566000000E+00  0.10566000000E+00 0.  1.
     999900   -1    0    0    0    0 -0.00000000000E+00 -0.00000000000E+00 -0.74505805969E-08  0.93827000000E+00  0.93827000000E+00 0.  1.
     999902    2    1    2    0    0 -0.11452645628E-01 -0.16289121709E-01 -0.73301189002E-02  0.10227113945E+01  0.10224912553E+01 0.  0.
     999903    2    3    3    0    0 -0.21028783747E-01 -0.20834163969E-02 -0.13071634378E+00  0.13393827101E+00  0.20153102436E-01 0.  0.
         14    1    1    2    0    0  0.11452645628E-01  0.16289121709E-01  0.73301189002E-02  0.21218605539E-01  0.00000000000E+00 0. -1.
     999901    1    3    3    0    0  0.95761381181E-02 -0.14205705312E-01  0.12338622488E+00  0.88877312345E+00  0.88000000000E+00 0. -1.
        -11    1    4    4    0    0 -0.11626934826E-02 -0.25074694553E-02 -0.69890084042E-01  0.69946581244E-01  0.51100000000E-03 0. -1.
         11    1    4    4    0    0 -0.19866090264E-01  0.42405305837E-03 -0.60826259742E-01  0.63991689762E-01  0.51100000000E-03 0.  1.
</event>
<event>
 8    1  0.1112171E+005  0.1043930E+01  0.7957747E-01            NaN
         13   -1    0    0    0    0  0.00000000000E+00  0.00000000000E+00  0.74505805969E-08  0.10566000000E+00  0.10566000000E+00 0.  1.
     999900   -1    0    0    0    0 -0.00000000000E+00 -0.00000000000E+00 -0.74505805969E-08  0.93827000000E+00  0.93827000000E+00 0.  1.
     999902    2    1    2    0    0  0.92651008072E-02 -0.12445125043E-01 -0.16380680940E-01  0.10213678649E+01  0.10211186344E+01 0.  0.
     999903    2    3    3    0    0 -0.48686001668E-01 -0.10944000696E+00  0.50984336618E-01  0.13159014945E+00  0.19212573219E-01 0.  0.
         14    1    1    2    0    0 -0.92651008072E-02  0.12445125043E-01  0.16380680940E-01  0.22562135058E-01  0.00000000000E+00 0.  1.
     999901    1    3    3    0    0  0.57951102475E-01  0.96994881918E-01 -0.67365017558E-01  0.88977771549E+00  0.88000000000E+00 0. -1.
        -11    1    4    4    0    0 -0.89038261873E-02 -0.36565053332E-01  0.97118200798E-02  0.38869805971E-01  0.51100000000E-03 0.  1.
         11    1    4    4    0    0 -0.39782175480E-01 -0.72874953630E-01  0.41272516538E-01  0.92720343479E-01  0.51100000000E-03 0. -1.
</event>
<event>
 8    1  0.1112171E+005  0.1043930E+01  0.7957747E-01            NaN
         13   -1    0    0    0    0  0.00000000000E+00  0.00000000000E+00  0.74505805969E-08  0.10566000000E+00  0.10566000000E+00 0.  1.
     999900   -1    0    0    0    0 -0.00000000000E+00 -0.00000000000E+00 -0.74505805969E-08  0.93827000000E+00  0.93827000000E+00 0. -1.
     999902    2    1    2    0    0  0.23765775946E-01  0.38155600963E-02  0.26729188801E-04  0.10198598666E+01  0.10195757825E+01 0.  0.
     999903    2    3    3    0    0  0.62400138521E-01 -0.56156986834E-01 -0.10072797704E+00  0.13124249613E+00  0.55752107367E-02 0.  0.
         14    1    1    2    0    0 -0.23765775946E-01 -0.38155600963E-02 -0.26729188800E-04  0.24070133353E-01  0.00000000000E+00 0. -1.
     999901    1    3    3    0    0 -0.38634362574E-01  0.59972546931E-01  0.10075470623E+00  0.88861737052E+00  0.88000000000E+00 0.  1.
        -11    1    4    4    0    0  0.33952910906E-01 -0.33971469954E-01 -0.56032420841E-01  0.73802128941E-01  0.51100000000E-03 0. -1.
         11    1    4    4    0    0  0.28447227615E-01 -0.22185516880E-01 -0.44695556196E-01  0.57440367190E-01  0.51100000000E-03 0.  1.
</event>
<event>
 8    1  0.1112171E+005  0.1043930E+01  0.7957747E-01            NaN
         13   -1    0    0    0    0  0.00000000000E+00  0.00000000000E+00  0.74505805969E-08  0.10566000000E+00  0.10566000000E+00 0.  1.
     999900   -1    0    0    0    0 -0.00000000000E+00 -0.00000000000E+00 -0.74505805969E-08  0.93827000000E+00  0.93827000000E+00 0. -1.
     999902    2    1    2    0    0  0.19820369551E-01  0.59441772558E-02 -0.15024996252E-02  0.10231830051E+01  0.10229726409E+01 0.  0.
     999903    2    3    3    0    0  0.87410438846E-01 -0.11586162133E-01  0.99527390724E-01  0.13465457617E+00  0.21244514755E-01 0.  0.
         14    1    1    2    0    0 -0.19820369551E-01 -0.59441772558E-02  0.15024996252E-02  0.20746994903E-01  0.00000000000E+00 0. -1.
     999901    1    3    3    0    0 -0.67590069295E-01  0.17530339388E-01 -0.10102989035E+00  0.88852842893E+00  0.88000000000E+00 0. -1.
        -11    1    4    4    0    0  0.34521006200E-01 -0.11885583879E-01  0.52042247696E-01  0.63573765340E-01  0.51100000000E-03 0. -1.
         11    1    4    4    0    0  0.52889432646E-01  0.29942174679E-03  0.47485143028E-01  0.71080810831E-01  0.51100000000E-03 0.  1.
</event>
<event>
 8    1  0.1112171E+005  0.1043930E+01  0.7957747E-01            NaN
         13   -1    0    0    0    0  0.00000000000E+00  0.00000000000E+00  0.74505805969E-08  0.10566000000E+00  0.10566000000E+00 0.  1.
     999900   -1    0    0    0    0 -0.00000000000E+00 -0.00000000000E+00 -0.74505805969E-08  0.93827000000E+00  0.93827000000E+00 0. -1.
     999902    2    1    2    0    0 -0.15084182242E-01 -0.16398720601E-01  0.16933975691E-01  0.10159441085E+01  0.10155585761E+01 0.  0.
     999903    2    3    3    0    0 -0.86619524365E-01 -0.92101596143E-01 -0.16496851691E-01  0.12917139197E+00  0.20675018107E-01 0.  0.
         14    1    1    2    0    0  0.15084182242E-01  0.16398720601E-01 -0.16933975691E-01  0.27985891516E-01  0.00000000000E+00 0. -1.
     999901    1    3    3    0    0  0.71535342123E-01  0.75702875542E-01  0.33430827382E-01  0.88677271652E+00  0.88000000000E+00 0.  1.
        -11    1    4    4    0    0 -0.79897019405E-01 -0.78015250794E-01 -0.95443164420E-02  0.11207706350E+00  0.51100000000E-03 0.  1.
         11    1    4    4    0    0 -0.67225049600E-02 -0.14086345350E-01 -0.69525352488E-02  0.17094328464E-01  0.51100000000E-03 0. -1.
</event>
<event>
 8    1  0.1112171E+005  0.1043930E+01  0.7957747E-01            NaN
         13   -1    0    0    0    0  0.00000000000E+00  0.00000000000E+00  0.74505805969E-08  0.10566000000E+00  0.10566000000E+00 0. -1.
     999900   -1    0    0    0    0 -0.00000000000E+00 -0.00000000000E+00 -0.74505805969E-08  0.93827000000E+00  0.93827000000E+00 0.  1.
     999902    2    1    2    0    0 -0.31978547779E-02 -0.21791071569E-01  0.15735522652E-01  0.10168618684E+01  0.10165015375E+01 0.  0.
     999903    2    3    3    0    0 -0.41883457222E-01 -0.43512609058E-01  0.11350758722E+00  0.13033619046E+00  0.21353665987E-01 0.  0.
         14    1    1    2    0    0  0.31978547779E-02  0.21791071569E-01 -0.15735522652E-01  0.27068131603E-01  0.00000000000E+00 0.  1.
     999901    1    3    3    0    0  0.38685602444E-01  0.21721537489E-01 -0.97772064571E-01  0.88652567793E+00  0.88000000000E+00 0.  1.
        -11    1    4    4    0    0 -0.34392254445E-01 -0.27587559752E-01  0.63397901857E-01  0.77223414193E-01  0.51100000000E-03 0. -1.
         11    1    4    4    0    0 -0.74912027771E-02 -0.15925049306E-01  0.50109685367E-01  0.53112776269E-01  0.51100000000E-03 0.  1.
</event>
<event>
 8    1  0.1112171E+005  0.1043930E+01  0.7957747E-01            NaN
         13   -1    0    0    0    0  0.00000000000E+00  0.00000000000E+00  0.74505805969E-08  0.10566000000E+00  0.10566000000E+00 0.  1.
     999900   -1    0    0    0    0 -0.00000000000E+00 -0.00000000000E+00 -0.74505805969E-08  0.93827000000E+00  0.93827000000E+00 0.  1.
     999902    2    1    2    0    0  0.21946743718E-01 -0.90108593356E-02  0.17192074485E-02  0.10201432217E+01  0.10198658647E+01 0.  0.
     999903    2    3    3    0    0  0.31998428453E-01  0.12128418759E+00 -0.21302280102E-01  0.13019500723E+00  0.27626059927E-01 0.  0.
         14    1    1    2    0    0 -0.21946743718E-01  0.90108593356E-02 -0.17192074485E-02  0.23786778261E-01  0.00000000000E+00 0.  1.
     999901    1    3    3    0    0 -0.10051684736E-01 -0.13029504693E+00  0.23021487550E-01  0.88994821451E+00  0.88000000000E+00 0.  1.
        -11    1    4    4    0    0  0.36308386897E-01  0.94858733349E-01 -0.14872460075E-01  0.10265441754E+00  0.51100000000E-03 0. -1.
         11    1    4    4    0    0 -0.43099584437E-02  0.26425454241E-01 -0.64298200270E-02  0.27540589685E-01  0.51100000000E-03 0.  1.
</event>
<event>
 8    1  0.1112171E+005  0.1043930E+01  0.7957747E-01            NaN
         13   -1    0    0    0    0  0.00000000000E+00  0.00000000000E+00  0.74505805969E-08  0.10566000000E+00  0.10566000000E+00 0.  1.
     999900   -1    0    0    0    0 -0.00000000000E+00 -0.00000000000E+00 -0.74505805969E-08  0.93827000000E+00  0.93827000000E+00 0. -1.
     999902    2    1    2    0    0 -0.15220362940E-01  0.16654727415E-01  0.65548076535E-02  0.10204352155E+01  0.10201647045E+01 0.  0.
     999903    2    3    3    0    0 -0.17175764026E-02 -0.11899288719E+00  0.46004993966E-01  0.12906609010E+00  0.19476623775E-01 0.  0.
         14    1    1    2    0    0  0.15220362940E-01 -0.16654727415E-01 -0.65548076535E-02  0.23494784457E-01  0.00000000000E+00 0. -1.
     999901    1    3    3    0    0 -0.13502786537E-01  0.13564761460E+00 -0.39450186312E-01  0.89136912544E+00  0.88000000000E+00 0.  1.
        -11    1    4    4    0    0 -0.65330365660E-02 -0.39636585203E-01  0.80766080224E-02  0.40978435444E-01  0.51100000000E-03 0.  1.
         11    1    4    4    0    0  0.48154601634E-02 -0.79356301987E-01  0.37928385943E-01  0.88087654656E-01  0.51100000000E-03 0. -1.
</event>
<event>
 8    1  0.1112171E+005  0.1043930E+01  0.7957747E-01            NaN
         13   -1    0    0    0    0  0.00000000000E+00  0.00000000000E+00  0.74505805969E-08  0.10566000000E+00  0.10566000000E+00 0. -1.
     999900   -1    0    0    0    0 -0.00000000000E+00 -0.00000000000E+00 -0.74505805969E-08  0.93827000000E+00  0.93827000000E+00 0. -1.
     999902    2    1    2    0    0  0.18794963156E-01 -0.59619063374E-02 -0.13192725627E-01  0.10202056881E+01  0.10199298030E+01 0.  0.
     999903    2    3    3    0    0  0.11706095458E+00  0.57517970818E-01 -0.11950394378E-01  0.13246279552E+00  0.19798894331E-01 0.  0.
         14    1    1    2    0    0 -0.18794963156E-01  0.59619063374E-02  0.13192725627E-01  0.23724311933E-01  0.00000000000E+00 0. -1.
     999901    1    3    3    0    0 -0.98265991429E-01 -0.63479877155E-01 -0.12423312494E-02  0.88774289254E+00  0.88000000000E+00 0.  1.
        -11    1    4    4    0    0  0.78921009461E-01  0.29983232767E-01 -0.24029400979E-02  0.84460376649E-01  0.51100000000E-03 0. -1.
         11    1    4    4    0    0  0.38139945124E-01  0.27534738051E-01 -0.95474542800E-02  0.48002418875E-01  0.51100000000E-03 0.  1.
</event>
<event>
 8    1  0.1112171E+005  0.1043930E+01  0.7957747E-01            NaN
         13   -1    0    0    0    0  0.00000000000E+00  0.00000000000E+00  0.74505805969E-08  0.10566000000E+00  0.10566000000E+00 0. -1.
     999900   -1    0    0    0    0 -0.00000000000E+00 -0.00000000000E+00 -0.74505805969E-08  0.93827000000E+00  0.93827000000E+00 0.  1.
     999902    2    1    2    0    0  0.12428129571E-01  0.16495139860E-01  0.10670361418E-01  0.10206833947E+01  0.10204186335E+01 0.  0.
     999903    2    3    3    0    0 -0.63783081635E-01  0.10362954930E+00 -0.45645691567E-01  0.13131729922E+00  0.18797311674E-01 0.  0.
         14    1    1    2    0    0 -0.12428129571E-01 -0.16495139860E-01 -0.10670361418E-01  0.23246605267E-01  0.00000000000E+00 0.  1.
     999901    1    3    3    0    0  0.76211211206E-01 -0.87134409436E-01  0.56316052985E-01  0.88936609551E+00  0.88000000000E+00 0. -1.
        -11    1    4    4    0    0 -0.44078638257E-01  0.72036046137E-01 -0.22234075207E-01  0.87331171497E-01  0.51100000000E-03 0. -1.
         11    1    4    4    0    0 -0.19704443378E-01  0.31593503159E-01 -0.23411616360E-01  0.43986127725E-01  0.51100000000E-03 0.  1.
</event>
<event>
 8    1  0.1112171E+005  0.1043930E+01  0.7957747E-01            NaN
         13   -1    0    0    0    0  0.00000000000E+00  0.00000000000E+00  0.74505805969E-08  0.10566000000E+00  0.10566000000E+00 0. -1.
     999900   -1    0    0    0    0 -0.00000000000E+00 -0.00000000000E+00 -0.74505805969E-08  0.93827000000E+00  0.93827000000E+00 0.  1.
     999902    2    1    2    0    0 -0.14835954975E-01 -0.10117270295E-01 -0.14140698097E-01  0.10210734022E+01  0.10208175492E+01 0.  0.
     999903    2    3    3    0    0  0.10892899543E+00 -0.68717910570E-01  0.55504683582E-03  0.13036146064E+00  0.20152544885E-01 0.  0.
         14    1    1    2    0    0  0.14835954975E-01  0.10117270295E-01  0.14140698097E-01  0.22856597755E-01  0.00000000000E+00 0. -1.
     999901    1    3    3    0    0 -0.12376495041E+00  0.58600640275E-01 -0.14695744933E-01  0.89071194160E+00  0.88000000000E+00 0.  1.
        -11    1    4    4    0    0  0.28362118309E-01 -0.24624890783E-01  0.73094413823E-02  0.38268577912E-01  0.51100000000E-03 0.  1.
         11    1    4    4    0    0  0.80566877124E-01 -0.44093019787E-01 -0.67543945465E-02  0.92092882733E-01  0.51100000000E-03 0. -1.
</event>
<event>
 8    1  0.1112171E+005  0.1043930E+01  0.7957747E-01            NaN
         13   -1    0    0    0    0  0.00000000000E+00  0.00000000000E+00  0.74505805969E-08  0.10566000000E+00  0.10566000000E+00 0.  1.
     999900   -1    0    0    0    0 -0.00000000000E+00 -0.00000000000E+00 -0.74505805969E-08  0.93827000000E+00  0.93827000000E+00 0. -1.
     999902    2    1    2    0    0  0.21944361743E-01 -0.35415921298E-02  0.66799447954E-02  0.10207196672E+01  0.10204557410E+01 0.  0.
     999903    2    3    3    0    0  0.43486931722E-01 -0.34717859451E-01 -0.11715180566E+00  0.13124209895E+00  0.20087308736E-01 0.  0.
         14    1    1    2    0    0 -0.21944361743E-01  0.35415921298E-02 -0.66799447954E-02  0.23210332820E-01  0.00000000000E+00 0. -1.
     999901    1    3    3    0    0 -0.21542569978E-01  0.31176267321E-01  0.12383175045E+00  0.88947756823E+00  0.88000000000E+00 0.  1.
        -11    1    4    4    0    0  0.16553253804E-01 -0.19424785237E-02 -0.35772426405E-01  0.39467848260E-01  0.51100000000E-03 0.  1.
         11    1    4    4    0    0  0.26933677917E-01 -0.32775380927E-01 -0.81379379253E-01  0.91774250690E-01  0.51100000000E-03 0. -1.
</event>
<event>
 8    1  0.1112171E+005  0.1043930E+01  0.7957747E-01            NaN
         13   -1    0    0    0    0  0.00000000000E+00  0.00000000000E+00  0.74505805969E-08  0.10566000000E+00  0.10566000000E+00 0. -1.
     999900   -1    0    0    0    0 -0.00000000000E+00 -0.00000000000E+00 -0.74505805969E-08  0.93827000000E+00  0.93827000000E+00 0.  1.
     999902    2    1    2    0    0  0.17815613375E-01  0.12850181667E-01 -0.91223986760E-02  0.10201446809E+01  0.10198673583E+01 0.  0.
     999903    2    3    3    0    0 -0.11287434964E-01  0.86404349439E-01  0.95140340113E-01  0.13046613121E+00  0.19406423817E-01 0.  0.
         14    1    1    2    0    0 -0.17815613375E-01 -0.12850181667E-01  0.91223986760E-02  0.23785319136E-01  0.00000000000E+00 0. -1.
     999901    1    3    3    0    0  0.29103048339E-01 -0.73554167773E-01 -0.10426273879E+00  0.88967854966E+00  0.88000000000E+00 0.  1.
        -11    1    4    4    0    0 -0.15117439833E-01  0.49174884846E-01  0.61062567594E-01  0.79847382981E-01  0.51100000000E-03 0.  1.
         11    1    4    4    0    0  0.38300048685E-02  0.37229464593E-01  0.34077772520E-01  0.50618748227E-01  0.51100000000E-03 0. -1.
</event>
<event>
 7    1  0.1112171E+005  0.1043930E+01  0.7957747E-01            NaN
         13   -1    0    0    0    0  0.00000000000E+00  0.00000000000E+00  0.74505805969E-08  0.10566000000E+00  0.10566000000E+00 0.  1.
     999900   -1    0    0    0    0 -0.00000000000E+00 -0.00000000000E+00 -0.74505805969E-08  0.93827000000E+00  0.93827000000E+00 0.  1.
     999902    2    1    2    0    0 -0.22567652406E-01 -0.75720497785E-02 -0.15243099270E-02  0.10200771512E+01  0.10197982330E+01 0.  0.
         14    1    1    2    0    0  0.22567652406E-01  0.75720497785E-02  0.15243099270E-02  0.23852848755E-01  0.00000000000E+00 0.  1.
     999901    1    3    3    0    0  0.39769089358E-01  0.33170331908E-01  0.10740256644E+00  0.88804119424E+00  0.88000000000E+00 0. -1.
        -11    1    3    3    0    0 -0.45258307795E-01 -0.27316016721E-01 -0.75583418964E-01  0.92236617117E-01  0.51100000000E-03 0.  1.
         11    1    3    3    0    0 -0.17078433969E-01 -0.13426364965E-01 -0.33343457403E-01  0.39799339889E-01  0.51100000000E-03 0. -1.
</event>
<event>
 8    1  0.1112171E+005  0.1043930E+01  0.7957747E-01            NaN
         13   -1    0    0    0    0  0.00000000000E+00  0.00000000000E+00  0.74505805969E-08  0.10566000000E+00  0.10566000000E+00 0. -1.
     999900   -1    0    0    0    0 -0.00000000000E+00 -0.00000000000E+00 -0.74505805969E-08  0.93827000000E+00  0.93827000000E+00 0. -1.
     999902    2    1    2    0    0  0.92151387847E-02 -0.17356332601E-01 -0.13150344341E-01  0.10202848605E+01  0.10200108352E+01 0.  0.
     999903    2    3    3    0    0  0.10629257141E-01 -0.38947977104E-01  0.12183477792E+00  0.12972931365E+00  0.18869437810E-01 0.  0.
         14    1    1    2    0    0 -0.92151387847E-02  0.17356332601E-01  0.13150344341E-01  0.23645139468E-01  0.00000000000E+00 0. -1.
     999901    1    3    3    0    0 -0.14141183563E-02  0.21591644503E-01 -0.13498512226E+00  0.89055554688E+00  0.88000000000E+00 0. -1.
        -11    1    4    4    0    0  0.10725833152E-01 -0.25539069995E-01  0.55264300290E-01  0.61819831773E-01  0.51100000000E-03 0.  1.
         11    1    4    4    0    0 -0.96576010701E-04 -0.13408907109E-01  0.66570477628E-01  0.67909481881E-01  0.51100000000E-03 0. -1.
</event>
<event>
 8    1  0.1112171E+005  0.1043930E+01  0.7957747E-01            NaN
         13   -1    0    0    0    0  0.00000000000E+00  0.00000000000E+00  0.74505805969E-08  0.10566000000E+00  0.10566000000E+00 0. -1.
     999900   -1    0    0    0    0 -0.00000000000E+00 -0.00000000000E+00 -0.74505805969E-08  0.93827000000E+00  0.93827000000E+00 0.  1.
     999902    2    1    2    0    0 -0.17514555062E-01  0.88790081063E-02  0.14030201077E-01  0.10197961448E+01  0.10195105365E+01 0.  0.
     999903    2    3    3    0    0 -0.13014309391E+00 -0.10703960084E-01 -0.17467211058E-02  0.13226158679E+00  0.20935057957E-01 0.  0.
         14    1    1    2    0    0  0.17514555062E-01 -0.88790081063E-02 -0.14030201077E-01  0.24133855188E-01  0.00000000000E+00 0.  1.
     999901    1    3    3    0    0  0.11262853885E+00  0.19582968191E-01  0.15776922182E-01  0.88753455802E+00  0.88000000000E+00 0. -1.
        -11    1    4    4    0    0 -0.84209213015E-01 -0.69761577977E-02 -0.11127796057E-01  0.85228793845E-01  0.51100000000E-03 0.  1.
         11    1    4    4    0    0 -0.45933880897E-01 -0.37278022868E-02  0.93810749509E-02  0.47032792947E-01  0.51100000000E-03 0. -1.
</event>
<event>
 8    1  0.1112171E+005  0.1043930E+01  0.7957747E-01            NaN
         13   -1    0    0    0    0  0.00000000000E+00  0.00000000000E+00  0.74505805969E-08  0.10566000000E+00  0.10566000000E+00 0.  1.
     999900   -1    0    0    0    0 -0.00000000000E+00 -0.00000000000E+00 -0.74505805969E-08  0.93827000000E+00  0.93827000000E+00 0. -1.
     999902    2    1    2    0    0 -0.81903203374E-02  0.32945373016E-02  0.22322464022E-01  0.10199252562E+01  0.10196427318E+01 0.  0.
     999903    2    3    3    0    0  0.10684350136E+00 -0.17847427173E-01  0.69542336905E-01  0.13093173590E+00  0.23935713983E-01 0.  0.
         14    1    1    2    0    0  0.81903203374E-02 -0.32945373016E-02 -0.22322464022E-01  0.24004743766E-01  0.00000000000E+00 0.  1.
     999901    1    3    3    0    0 -0.11503382170E+00  0.21141964475E-01 -0.47219872883E-01  0.88899352033E+00  0.88000000000E+00 0. -1.
        -11    1    4    4    0    0  0.19824422504E-01 -0.46533211736E-02  0.29911967289E-02  0.20588091326E-01  0.51100000000E-03 0.  1.
         11    1    4    4    0    0  0.87019078859E-01 -0.13194106000E-01  0.66551140176E-01  0.11034364458E+00  0.51100000000E-03 0. -1.
</event>
<event>
 8    1  0.1112171E+005  0.1043930E+01  0.7957747E-01            NaN
         13   -1    0    0    0    0  0.00000000000E+00  0.00000000000E+00  0.74505805969E-08  0.10566000000E+00  0.10566000000E+00 0. -1.
     999900   -1    0    0    0    0 -0.00000000000E+00 -0.00000000000E+00 -0.74505805969E-08  0.93827000000E+00  0.93827000000E+00 0. -1.
     999902    2    1    2    0    0  0.21733983596E-01 -0.45156727852E-02  0.92450480475E-02  0.10198836228E+01  0.10196001058E+01 0.  0.
     999903    2    3    3    0    0  0.93806616231E-01 -0.90600533332E-01 -0.12110120715E-01  0.13249356716E+00  0.19993809708E-01 0.  0.
         14    1    1    2    0    0 -0.21733983596E-01  0.45156727852E-02 -0.92450480475E-02  0.24046377213E-01  0.00000000000E+00 0.  1.
     999901    1    3    3    0    0 -0.72072632635E-01  0.86084860547E-01  0.21355168762E-01  0.88739005563E+00  0.88000000000E+00 0.  1.
        -11    1    4    4    0    0  0.91434700903E-02 -0.18819683122E-01 -0.25540755852E-02  0.21084779847E-01  0.51100000000E-03 0. -1.
         11    1    4    4    0    0  0.84663146141E-01 -0.71780850211E-01 -0.95560451297E-02  0.11140878731E+00  0.51100000000E-03 0.  1.
</event>
<event>
 8    1  0.1112171E+005  0.1043930E+01  0.7957747E-01            NaN
         13   -1    0    0    0    0  0.00000000000E+00  0.00000000000E+00  0.74505805969E-08  0.10566000000E+00  0.10566000000E+00 0. -1.
     999900   -1    0    0    0    0 -0.00000000000E+00 -0.00000000000E+00 -0.74505805969E-08  0.93827000000E+00  0.93827000000E+00 0.  1.
     999902    2    1    2    0    0  0.21185805614E-01  0.77043242064E-02 -0.63857325815E-02  0.10204998367E+01  0.10202308289E+01 0.  0.
     999903    2    3    3    0    0  0.38714956691E-01  0.11829003899E+00 -0.42593076291E-01  0.13266683260E+00  0.17173733713E-01 0.  0.
         14    1    1    2    0    0 -0.21185805614E-01 -0.77043242064E-02  0.63857325815E-02  0.23430163286E-01  0.00000000000E+00 0.  1.
     999901    1    3    3    0    0 -0.17529151077E-01 -0.11058571478E+00  0.36207343710E-01  0.88783300411E+00  0.88000000000E+00 0. -1.
        -11    1    4    4    0    0  0.18204200849E-01  0.80876714582E-01 -0.30240773811E-01  0.88245121178E-01  0.51100000000E-03 0.  1.
         11    1    4    4    0    0  0.20510755842E-01  0.37413324405E-01 -0.12352302480E-01  0.44421711424E-01  0.51100000000E-03 0. -1.
</event>
<event>
 8    1  0.1112171E+005  0.1043930E+01  0.7957747E-01            NaN
         13   -1    0    0    0    0  0.00000000000E+00  0.00000000000E+00  0.74505805969E-08  0.10566000000E+00  0.10566000000E+00 0.  1.
     999900   -1    0    0    0    0 -0.00000000000E+00 -0.00000000000E+00 -0.74505805969E-08  0.93827000000E+00  0.93827000000E+00 0. -1.
     999902    2    1    2    0    0  0.13958995080E-01  0.39599684427E-02  0.13573795934E-01  0.10240608573E+01  0.10238680856E+01 0.  0.
     999903    2    3    3    0    0  0.19515632513E-01 -0.28924014088E-01  0.13004074867E+00  0.13576091723E+00  0.17406086046E-01 0.  0.
         14    1    1    2    0    0 -0.13958995080E-01 -0.39599684427E-02 -0.13573795934E-01  0.19869142653E-01  0.00000000000E+00 0. -1.
     999901    1    3    3    0    0 -0.55566374333E-02  0.32883982531E-01 -0.11646695273E+00  0.88829994011E+00  0.88000000000E+00 0. -1.
        -11    1    4    4    0    0  0.17650682078E-01 -0.14739454098E-01  0.98071905034E-01  0.10073310162E+00  0.51100000000E-03 0.  1.
         11    1    4    4    0    0  0.18649504358E-02 -0.14184559991E-01  0.31968843631E-01  0.35027815609E-01  0.51100000000E-03 0. -1.
</event>
<event>
 8    1  0.1112171E+005  0.1043930E+01  0.7957747E-01            NaN
         13   -1    0    0    0    0  0.00000000000E+00  0.00000000000E+00  0.74505805969E-08  0.10566000000E+00  0.10566000000E+00 0. -1.
     999900   -1    0    0    0    0 -0.00000000000E+00 -0.00000000000E+00 -0.74505805969E-08  0.93827000000E+00  0.93827000000E+00 0. -1.
     999902    2    1    2    0    0  0.19995984331E-01 -0.38757919758E-02  0.11056231735E-01  0.10207545515E+01  0.10204914272E+01 0.  0.
     999903    2    3    3    0    0  0.48331818796E-01 -0.12155718665E+00  0.69552569193E-02  0.13245919062E+00  0.19620072532E-01 0.  0.
         14    1    1    2    0    0 -0.19995984331E-01  0.38757919758E-02 -0.11056231735E-01  0.23175448496E-01  0.00000000000E+00 0.  1.
     999901    1    3    3    0    0 -0.28335834465E-01  0.11768139468E+00  0.41009748158E-02  0.88829536088E+00  0.88000000000E+00 0.  1.
        -11    1    4    4    0    0  0.20023002328E-01 -0.35216349914E-01  0.92867213331E-02  0.41564603181E-01  0.51100000000E-03 0. -1.
         11    1    4    4    0    0  0.28308816468E-01 -0.86340836741E-01 -0.23314644138E-02  0.90894587442E-01  0.51100000000E-03 0.  1.
</event>
<event>
 8    1  0.1112171E+005  0.1043930E+01  0.7957747E-01            NaN
         13   -1    0    0    0    0  0.00000000000E+00  0.00000000000E+00  0.74505805969E-08  0.10566000000E+00  0.10566000000E+00 0. -1.
     999900   -1    0    0    0    0 -0.00000000000E+00 -0.00000000000E+00 -0.74505805969E-08  0.93827000000E+00  0.93827000000E+00 0.  1.
     999902    2    1    2    0    0 -0.16648761078E-01 -0.31638107316E-02  0.16366570500E-01  0.10203703826E+01  0.10200983590E+01 0.  0.
     999903    2    3    3    0    0  0.55051723239E-01 -0.94621430051E-01 -0.65426303801E-01  0.12896950200E+00  0.19199582302E-01 0.  0.
         14    1    1    2    0    0  0.16648761078E-01  0.31638107316E-02 -0.16366570500E-01  0.23559617436E-01  0.00000000000E+00 0.  1.
     999901    1    3    3    0    0 -0.71700484318E-01  0.91457619320E-01  0.81792874301E-01  0.89140088056E+00  0.88000000000E+00 0. -1.
        -11    1    4    4    0    0  0.22796317130E-02 -0.17163133026E-01 -0.12152952380E-01  0.21159518628E-01  0.51100000000E-03 0. -1.
         11    1    4    4    0    0  0.52772091526E-01 -0.77458297025E-01 -0.53273351421E-01  0.10780998337E+00  0.51100000000E-03 0.  1.
</event>
<event>
 8    1  0.1112171E+005  0.1043930E+01  0.7957747E-01            NaN
         13   -1    0    0    0    0  0.00000000000E+00  0.00000000000E+00  0.74505805969E-08  0.10566000000E+00  0.10566000000E+00 0.  1.
     999900   -1    0    0    0    0 -0.00000000000E+00 -0.00000000000E+00 -0.74505805969E-08  0.93827000000E+00  0.93827000000E+00 0. -1.
     999902    2    1    2    0    0 -0.60342059566E-02 -0.72697935643E-02  0.21380669333E-01  0.10205549158E+01  0.10202871859E+01 0.  0.
     999903    2    3    3    0    0  0.34154685238E-01 -0.80630746895E-02  0.12696559456E+00  0.13333230974E+00  0.20632181730E-01 0.  0.
         14    1    1    2    0    0  0.60342059566E-02  0.72697935643E-02 -0.21380669333E-01  0.23375084195E-01  0.00000000000E+00 0. -1.
     999901    1    3    3    0    0 -0.40188891194E-01  0.79328112527E-03 -0.10558492523E+00  0.88722260606E+00  0.88000000000E+00 0. -1.
        -11    1    4    4    0    0  0.52011364217E-02  0.25868015227E-02  0.51112790267E-01  0.51444356465E-01  0.51100000000E-03 0.  1.
         11    1    4    4    0    0  0.28953548816E-01 -0.10649876212E-01  0.75852804292E-01  0.81887953279E-01  0.51100000000E-03 0. -1.
</event>
<event>
 8    1  0.1112171E+005  0.1043930E+01  0.7957747E-01            NaN
         13   -1    0    0    0    0  0.00000000000E+00  0.00000000000E+00  0.74505805969E-08  0.10566000000E+00  0.10566000000E+00 0. -1.
     999900   -1    0    0    0    0 -0.00000000000E+00 -0.00000000000E+00 -0.74505805969E-08  0.93827000000E+00  0.93827000000E+00 0. -1.
     999902    2    1    2    0    0  0.22146212092E-01  0.74138291120E-02 -0.42143245095E-02  0.10201985840E+01  0.10199225318E+01 0.  0.
     999903    2    3    3    0    0 -0.19043885435E-01 -0.45932415878E-01 -0.11869193072E+00  0.13022804054E+00  0.19977780750E-01 0.  0.
         14    1    1    2    0    0 -0.22146212092E-01 -0.74138291120E-02  0.42143245095E-02  0.23731415954E-01  0.00000000000E+00 0. -1.
     999901    1    3    3    0    0  0.41190097527E-01  0.53346244990E-01  0.11447760621E+00  0.88997054351E+00  0.88000000000E+00 0.  1.
        -11    1    4    4    0    0 -0.14255913670E-01 -0.16871111126E-01 -0.33891485384E-01  0.40456882823E-01  0.51100000000E-03 0.  1.
         11    1    4    4    0    0 -0.47879717648E-02 -0.29061304751E-01 -0.84800445334E-01  0.89771157714E-01  0.51100000000E-03 0. -1.
</event>
<event>
 8    1  0.1112171E+005  0.1043930E+01  0.7957747E-01            NaN
         13   -1    0    0    0    0  0.00000000000E+00  0.00000000000E+00  0.74505805969E-08  0.10566000000E+00  0.10566000000E+00 0. -1.
     999900   -1    0    0    0    0 -0.00000000000E+00 -0.00000000000E+00 -0.74505805969E-08  0.93827000000E+00  0.93827000000E+00 0. -1.
     999902    2    1    2    0    0  0.28394973004E-02 -0.19708857655E-01 -0.12459041379E-01  0.10204410765E+01  0.10201707019E+01 0.  0.
     999903    2    3    3    0    0 -0.36016621837E-01 -0.94382889522E-01 -0.82894085942E-01  0.13362254685E+00  0.27896749987E-01 0.  0.
         14    1    1    2    0    0 -0.28394973004E-02  0.19708857655E-01  0.12459041379E-01  0.23488923497E-01  0.00000000000E+00 0. -1.
     999901    1    3    3    0    0  0.38856119138E-01  0.74674031866E-01  0.70435044564E-01  0.88681852965E+00  0.88000000000E+00 0.  1.
        -11    1    4    4    0    0 -0.40281139168E-02 -0.39199818906E-01 -0.20620422279E-01  0.44478246817E-01  0.51100000000E-03 0. -1.
         11    1    4    4    0    0 -0.31988507921E-01 -0.55183070616E-01 -0.62273663663E-01  0.89144300034E-01  0.51100000000E-03 0.  1.
</event>
<event>
 8    1  0.1112171E+005  0.1043930E+01  0.7957747E-01            NaN
         13   -1    0    0    0    0  0.00000000000E+00  0.00000000000E+00  0.74505805969E-08  0.10566000000E+00  0.10566000000E+00 0.  1.
     999900   -1    0    0    0    0 -0.00000000000E+00 -0.00000000000E+00 -0.74505805969E-08  0.93827000000E+00  0.93827000000E+00 0.  1.
     999902    2    1    2    0    0  0.21003966584E-01  0.19781601607E-02  0.10700531285E-01  0.10202745334E+01  0.10200002659E+01 0.  0.
     999903    2    3    3    0    0 -0.57721859194E-01 -0.76055153827E-01 -0.83350452956E-01  0.12834822402E+00  0.20242755484E-01 0.  0.
         14    1    1    2    0    0 -0.21003966584E-01 -0.19781601607E-02 -0.10700531285E-01  0.23655466591E-01  0.00000000000E+00 0. -1.
     999901    1    3    3    0    0  0.78725825778E-01  0.78033313988E-01  0.94050984241E-01  0.89192630938E+00  0.88000000000E+00 0.  1.
        -11    1    4    4    0    0 -0.24859438924E-01 -0.47356852655E-01 -0.52193340915E-01  0.74733320238E-01  0.51100000000E-03 0. -1.
         11    1    4    4    0    0 -0.32862420270E-01 -0.28698301172E-01 -0.31157112041E-01  0.53614903786E-01  0.51100000000E-03 0.  1.
</event>
<event>
 8    1  0.1112171E+005  0.1043930E+01  0.7957747E-01            NaN
         13   -1    0    0    0    0  0.00000000000E+00  0.00000000000E+00  0.74505805969E-08  0.10566000000E+00  0.10566000000E+00 0.  1.
     999900   -1    0    0    0    0 -0.00000000000E+00 -0.00000000000E+00 -0.74505805969E-08  0.93827000000E+00  0.93827000000E+00 0. -1.
     999902    2    1    2    0    0  0.14838340448E-01 -0.13646818792E-01  0.13430547052E-01  0.10197062182E+01  0.10194184518E+01 0.  0.
     999903    2    3    3    0    0 -0.10075716658E+00  0.99887840177E-02  0.78097444448E-01  0.12947997135E+00  0.20348703344E-01 0.  0.
         14    1    1    2    0    0 -0.14838340448E-01  0.13646818792E-01 -0.13430547052E-01  0.24223781797E-01  0.00000000000E+00 0. -1.
     999901    1    3    3    0    0  0.11559550703E+00 -0.23635602810E-01 -0.64666897395E-01  0.89022624685E+00  0.88000000000E+00 0. -1.
        -11    1    4    4    0    0 -0.56955154708E-01  0.10742454633E-01  0.33421861229E-01  0.66907188764E-01  0.51100000000E-03 0. -1.
         11    1    4    4    0    0 -0.43802011875E-01 -0.75367061525E-03  0.44675583219E-01  0.62572782587E-01  0.51100000000E-03 0.  1.
</event>
<event>
 8    1  0.1112171E+005  0.1043930E+01  0.7957747E-01            NaN
         13   -1    0    0    0    0  0.00000000000E+00  0.00000000000E+00  0.74505805969E-08  0.10566000000E+00  0.10566000000E+00 0. -1.
     999900   -1    0    0    0    0 -0.00000000000E+00 -0.00000000000E+00 -0.74505805969E-08  0.93827000000E+00  0.93827000000E+00 0.  1.
     999902    2    1    2    0    0  0.22346894107E-01 -0.51928560006E-02 -0.24942178663E-02  0.10208525098E+01  0.10205916305E+01 0.  0.
     999903    2    3    3    0    0  0.16883762189E-01  0.80617446624E-01  0.99658357830E-01  0.13078037648E+00  0.19684625003E-01 0.  0.
         14    1    1    2    0    0 -0.22346894107E-01  0.51928560006E-02  0.24942178663E-02  0.23077490167E-01  0.00000000000E+00 0. -1.
     999901    1    3    3    0    0  0.54631319179E-02 -0.85810302624E-01 -0.10215257570E+00  0.89007213335E+00  0.88000000000E+00 0.  1.
        -11    1    4    4    0    0 -0.15298863934E-02  0.13479037216E-01  0.26592381570E-01  0.29857007137E-01  0.51100000000E-03 0.  1.
         11    1    4    4    0    0  0.18413648582E-01  0.67138409408E-01  0.73065976260E-01  0.10092336934E+00  0.51100000000E-03 0. -1.
</event>
<event>
 8    1  0.1112171E+005  0.1043930E+01  0.7957747E-01            NaN
         13   -1    0    0    0    0  0.00000000000E+00  0.00000000000E+00  0.74505805969E-08  0.10566000000E+00  0.10566000000E+00 0.  1.
     999900   -1    0    0    0    0 -0.00000000000E+00 -0.00000000000E+00 -0.74505805969E-08  0.93827000000E+00  0.93827000000E+00 0. -1.
     999902    2    1    2    0    0 -0.20333306662E-01 -0.11190060176E-01 -0.38903906460E-02  0.10203971305E+01  0.10201257315E+01 0.  0.
     999903    2    3    3    0    0 -0.14600784790E-01  0.12520359538E+00 -0.23249895169E-01  0.12966098468E+00  0.19552240561E-01 0.  0.
         14    1    1    2    0    0  0.20333306662E-01  0.11190060176E-01  0.38903906460E-02  0.23532869480E-01  0.00000000000E+00 0.  1.
     999901    1    3    3    0    0 -0.57325218728E-02 -0.13639365556E+00  0.19359504523E-01  0.89073614584E+00  0.88000000000E+00 0. -1.
        -11    1    4    4    0    0 -0.31573699334E-02  0.67916072693E-01 -0.38407818852E-02  0.68099740392E-01  0.51100000000E-03 0. -1.
         11    1    4    4    0    0 -0.11443414856E-01  0.57287522688E-01 -0.19409113284E-01  0.61561244292E-01  0.51100000000E-03 0.  1.
</event>
<event>
 8    1  0.1112171E+005  0.1043930E+01  0.7957747E-01            NaN
         13   -1    0    0    0    0  0.00000000000E+00  0.00000000000E+00  0.74505805969E-08  0.10566000000E+00  0.10566000000E+00 0. -1.
     999900   -1    0    0    0    0 -0.00000000000E+00 -0.00000000000E+00 -0.74505805969E-08  0.93827000000E+00  0.93827000000E+00 0. -1.
     999902    2    1    2    0    0 -0.17997798809E-01  0.76187566313E-02  0.12995538198E-01  0.10204598013E+01  0.10201898626E+01 0.  0.
     999903    2    3    3    0    0  0.50626879492E-01  0.11011788581E+00  0.45658202642E-01  0.13125663687E+00  0.21321434090E-01 0.  0.
         14    1    1    2    0    0  0.17997798809E-01 -0.76187566313E-02 -0.12995538198E-01  0.23470198713E-01  0.00000000000E+00 0.  1.
     999901    1    3    3    0    0 -0.68624678301E-01 -0.10249912918E+00 -0.32662664444E-01  0.88920316441E+00  0.88000000000E+00 0.  1.
        -11    1    4    4    0    0  0.51077359679E-02  0.32541482699E-01  0.92197599062E-02  0.34209679284E-01  0.51100000000E-03 0. -1.
         11    1    4    4    0    0  0.45519143524E-01  0.77576403114E-01  0.36438442735E-01  0.97046957589E-01  0.51100000000E-03 0.  1.
</event>
<event>
 8    1  0.1112171E+005  0.1043930E+01  0.7957747E-01            NaN
         13   -1    0    0    0    0  0.00000000000E+00  0.00000000000E+00  0.74505805969E-08  0.10566000000E+00  0.10566000000E+00 0.  1.
     999900   -1    0    0    0    0 -0.00000000000E+00 -0.00000000000E+00 -0.74505805969E-08  0.93827000000E+00  0.93827000000E+00 0. -1.
     999902    2    1    2    0    0  0.18308675679E-02 -0.16972037606E-02 -0.23947560038E-01  0.10198526619E+01  0.10195684057E+01 0.  0.
     999903    2    3    3    0    0  0.59098420096E-01  0.10029961326E+00  0.50851109189E-01  0.12896671852E+00  0.22224839764E-01 0.  0.
         14    1    1    2    0    0 -0.18308675679E-02  0.16972037606E-02  0.23947560038E-01  0.24077338068E-01  0.00000000000E+00 0.  1.
     999901    1    3    3    0    0 -0.57267552529E-01 -0.10199681702E+00 -0.74798669227E-01  0.89088594341E+00  0.88000000000E+00 0. -1.
        -11    1    4    4    0    0  0.10495314353E-01  0.12364840206E-01  0.15541796480E-01  0.22468855234E-01  0.51100000000E-03 0.  1.
         11    1    4    4    0    0  0.48603105743E-01  0.87934773051E-01  0.35309312709E-01  0.10649786329E+00  0.51100000000E-03 0. -1.
</event>
<event>
 8    1  0.1112171E+005  0.1043930E+01  0.7957747E-01            NaN
         13   -1    0    0    0    0  0.00000000000E+00  0.00000000000E+00  0.74505805969E-08  0.10566000000E+00  0.10566000000E+00 0.  1.
     999900   -1    0    0    0    0 -0.00000000000E+00 -0.00000000000E+00 -0.74505805969E-08  0.93827000000E+00  0.93827000000E+00 0.  1.
     999902    2    1    2    0    0  0.24199673927E-01 -0.18785546344E-02  0.14985038022E-01  0.10154044930E+01  0.10150037339E+01 0.  0.
     999903    2    3    3    0    0  0.11438532901E+00  0.34911098782E-01 -0.41985589841E-01  0.12819956547E+00  0.19223696830E-01 0.  0.
         14    1    1    2    0    0 -0.24199673927E-01  0.18785546344E-02 -0.14985038022E-01  0.28525507010E-01  0.00000000000E+00 0. -1.
     999901    1    3    3    0    0 -0.90185655088E-01 -0.36789653416E-01  0.56970627862E-01  0.88720492752E+00  0.88000000000E+00 0.  1.
        -11    1    4    4    0    0  0.47617461400E-01  0.17497000674E-01 -0.82798089119E-02  0.51404124537E-01  0.51100000000E-03 0.  1.
         11    1    4    4    0    0  0.66767867614E-01  0.17414098108E-01 -0.33705780929E-01  0.76795440930E-01  0.51100000000E-03 0. -1.
</event>
<event>
 8    1  0.1112171E+005  0.1043930E+01  0.7957747E-01            NaN
         13   -1    0    0    0    0  0.00000000000E+00  0.00000000000E+00  0.74505805969E-08  0.10566000000E+00  0.10566000000E+00 0.  1.
     999900   -1    0    0    0    0 -0.00000000000E+00 -0.00000000000E+00 -0.74505805969E-08  0.93827000000E+00  0.93827000000E+00 0. -1.
     999902    2    1    2    0    0  0.16962861508E-01  0.81542118447E-02  0.14566635962E-01  0.10201304890E+01  0.10198528315E+01 0.  0.
     999903    2    3    3    0    0 -0.11332739937E+00 -0.23732877886E-01 -0.49844039769E-01  0.12763899114E+00  0.20023356844E-01 0.  0.
         14    1    1    2    0    0 -0.16962861508E-01 -0.81542118447E-02 -0.14566635962E-01  0.23799511015E-01  0.00000000000E+00 0. -1.
     999901    1    3    3    0    0  0.13029026088E+00  0.31887089730E-01  0.64410675731E-01  0.89249149784E+00  0.88000000000E+00 0. -1.
        -11    1    4    4    0    0 -0.62691420789E-01 -0.34306753390E-02 -0.23340899333E-01  0.66985390023E-01  0.51100000000E-03 0.  1.
         11    1    4    4    0    0 -0.50635978579E-01 -0.20302202547E-01 -0.26503140436E-01  0.60653601121E-01  0.51100000000E-03 0. -1.
</event>
<event>
 8    1  0.1112171E+005  0.1043930E+01  0.7957747E-01            NaN
         13   -1    0    0    0    0  0.00000000000E+00  0.00000000000E+00  0.74505805969E-08  0.10566000000E+00  0.10566000000E+00 0. -1.
     999900   -1    0    0    0    0 -0.00000000000E+00 -0.00000000000E+00 -0.74505805969E-08  0.93827000000E+00  0.93827000000E+00 0.  1.
     999902    2    1    2    0    0 -0.59694831940E-02  0.19213825792E-01 -0.13110559308E-01  0.10199155752E+01  0.10196328202E+01 0.  0.
     999903    2    3    3    0    0  0.73497951125E-01 -0.96969264926E-01  0.32548355137E-01  0.12756008545E+00  0.20179019267E-01 0.  0.
         14    1    1    2    0    0  0.59694831940E-02 -0.19213825792E-01  0.13110559308E-01  0.24014424760E-01  0.00000000000E+00 0. -1.
     999901    1    3    3    0    0 -0.79467434319E-01  0.11618309072E+00 -0.45658914445E-01  0.89235548979E+00  0.88000000000E+00 0. -1.
        -11    1    4    4    0    0  0.34758643356E-01 -0.59625243862E-01  0.24013289221E-01  0.73076892201E-01  0.51100000000E-03 0.  1.
         11    1    4    4    0    0  0.38739307769E-01 -0.37344021064E-01  0.85350659164E-02  0.54483193251E-01  0.51100000000E-03 0. -1.
</event>
<event>
 8    1  0.1112171E+005  0.1043930E+01  0.7957747E-01            NaN
         13   -1    0    0    0    0  0.00000000000E+00  0.00000000000E+00  0.74505805969E-08  0.10566000000E+00  0.10566000000E+00 0.  1.
     999900   -1    0    0    0    0 -0.00000000000E+00 -0.00000000000E+00 -0.74505805969E-08  0.93827000000E+00  0.93827000000E+00 0.  1.
     999902    2    1    2    0    0 -0.21832692206E-01 -0.22865172487E-03 -0.12031022883E-01  0.10190008155E+01  0.10186958318E+01 0.  0.
     999903    2    3    3    0    0 -0.31540521622E-02 -0.10002271933E+00 -0.81134907397E-01  0.13047220343E+00  0.20630808135E-01 0.  0.
         14    1    1    2    0    0  0.21832692206E-01  0.22865172487E-03  0.12031022883E-01  0.24929184547E-01  0.00000000000E+00 0. -1.
     999901    1    3    3    0    0 -0.18678640044E-01  0.99794067600E-01  0.69103884515E-01  0.88852861202E+00  0.88000000000E+00 0. -1.
        -11    1    4    4    0    0  0.60154581592E-02 -0.29869215526E-01 -0.32887876250E-01  0.44835580717E-01  0.51100000000E-03 0. -1.
         11    1    4    4    0    0 -0.91695103214E-02 -0.70153503799E-01 -0.48247031148E-01  0.85636622717E-01  0.51100000000E-03 0.  1.
</event>
<event>
 8    1  0.1112171E+005  0.1043930E+01  0.7957747E-01            NaN
         13   -1    0    0    0    0  0.00000000000E+00  0.00000000000E+00  0.74505805969E-08  0.10566000000E+00  0.10566000000E+00 0.  1.
     999900   -1    0    0    0    0 -0.00000000000E+00 -0.00000000000E+00 -0.74505805969E-08  0.93827000000E+00  0.93827000000E+00 0. -1.
     999902    2    1    2    0    0 -0.75092395612E-02 -0.87517614292E-02 -0.13680864410E-01  0.10260373183E+01  0.10258812946E+01 0.  0.
     999903    2    3    3    0    0  0.13070435911E+00 -0.23086922927E-01 -0.16362979913E-01  0.13513009000E+00  0.19384494146E-01 0.  0.
         14    1    1    2    0    0  0.75092395612E-02  0.87517614292E-02  0.13680864410E-01  0.17892681686E-01  0.00000000000E+00 0.  1.
     999901    1    3    3    0    0 -0.13821359867E+00  0.14335161498E-01  0.26821155027E-02  0.89090722831E+00  0.88000000000E+00 0. -1.
        -11    1    4    4    0    0  0.46058297442E-01  0.11866886071E-02 -0.56993784252E-02  0.46427567550E-01  0.51100000000E-03 0. -1.
         11    1    4    4    0    0  0.84646061664E-01 -0.24273611534E-01 -0.10663601488E-01  0.88702522454E-01  0.51100000000E-03 0.  1.
</event>
<event>
 8    1  0.1112171E+005  0.1043930E+01  0.7957747E-01            NaN
         13   -1    0    0    0    0  0.00000000000E+00  0.00000000000E+00  0.74505805969E-08  0.10566000000E+00  0.10566000000E+00 0. -1.
     999900   -1    0    0    0    0 -0.00000000000E+00 -0.00000000000E+00 -0.74505805969E-08  0.93827000000E+00  0.93827000000E+00 0.  1.
     999902    2    1    2    0    0 -0.22911598122E-01 -0.18390825359E-02 -0.51232500160E-02  0.10203806636E+01  0.10201088802E+01 0.  0.
     999903    2    3    3    0    0 -0.19385435929E-01 -0.10763889028E+00  0.69139711648E-01  0.13093082208E+00  0.20016358784E-01 0.  0.
         14    1    1    2    0    0  0.22911598122E-01  0.18390825359E-02  0.51232500160E-02  0.23549336377E-01  0.00000000000E+00 0. -1.
     999901    1    3    3    0    0 -0.35261621926E-02  0.10579980774E+00 -0.74262961664E-01  0.88944984154E+00  0.88000000000E+00 0.  1.
        -11    1    4    4    0    0 -0.20003755449E-01 -0.71071332490E-01  0.38797641897E-01  0.83407449738E-01  0.51100000000E-03 0.  1.
         11    1    4    4    0    0  0.61831952007E-03 -0.36567557786E-01  0.30342069750E-01  0.47523372347E-01  0.51100000000E-03 0. -1.
</event>
<event>
 8    1  0.1112171E+005  0.1043930E+01  0.7957747E-01            NaN
         13   -1    0    0    0    0  0.00000000000E+00  0.00000000000E+00  0.74505805969E-08  0.10566000000E+00  0.10566000000E+00 0. -1.
     999900   -1    0    0    0    0 -0.00000000000E+00 -0.00000000000E+00 -0.74505805969E-08  0.93827000000E+00  0.93827000000E+00 0. -1.
     999902    2    1    2    0    0 -0.17692141984E-02 -0.16840613858E-01  0.17207415480E-01  0.10197880957E+01  0.10195022946E+01 0.  0.
     999903    2    3    3    0    0 -0.81208345180E-01  0.19319555111E-01  0.10066103469E+00  0.13154114814E+00  0.14226356285E-01 0.  0.
         14    1    1    2    0    0  0.17692141984E-02  0.16840613858E-01 -0.17207415480E-01  0.24141904264E-01  0.00000000000E+00 0.  1.
     999901    1    3    3    0    0  0.79439130981E-01 -0.36160168969E-01 -0.83453619209E-01  0.88824694759E+00  0.88000000000E+00 0.  1.
        -11    1    4    4    0    0 -0.31425717418E-01  0.14508205087E-01  0.39088588938E-01  0.52213433485E-01  0.51100000000E-03 0.  1.
         11    1    4    4    0    0 -0.49782627762E-01  0.48113500246E-02  0.61572445751E-01  0.79327714657E-01  0.51100000000E-03 0. -1.
</event>
<event>
 8    1  0.1112171E+005  0.1043930E+01  0.7957747E-01            NaN
         13   -1    0    0    0    0  0.00000000000E+00  0.00000000000E+00  0.74505805969E-08  0.10566000000E+00  0.10566000000E+00 0. -1.
     999900   -1    0    0    0    0 -0.00000000000E+00 -0.00000000000E+00 -0.74505805969E-08  0.93827000000E+00  0.93827000000E+00 0. -1.
     999902    2    1    2    0    0 -0.82582614534E-02 -0.10175556984E-01  0.20952009037E-01  0.10192170980E+01  0.10189174478E+01 0.  0.
     999903    2    3    3    0    0  0.18813657789E-01  0.41720516842E-01  0.12087793995E+00  0.13162975979E+00  0.24907068289E-01 0.  0.
         14    1    1    2    0    0  0.82582614534E-02  0.10175556984E-01 -0.20952009037E-01  0.24712901992E-01  0.00000000000E+00 0.  1.
     999901    1    3    3    0    0 -0.27071919243E-01 -0.51896073826E-01 -0.99925930917E-01  0.88758733822E+00  0.88000000000E+00 0. -1.
        -11    1    4    4    0    0 -0.34810069866E-02  0.21972994741E-01  0.48464271273E-01  0.53328947285E-01  0.51100000000E-03 0.  1.
         11    1    4    4    0    0  0.22294664776E-01  0.19747522101E-01  0.72413668681E-01  0.78300812508E-01  0.51100000000E-03 0. -1.
</event>
<event>
 8    1  0.1112171E+005  0.1043930E+01  0.7957747E-01            NaN
         13   -1    0    0    0    0  0.00000000000E+00  0.00000000000E+00  0.74505805969E-08  0.10566000000E+00  0.10566000000E+00 0.  1.
     999900   -1    0    0    0    0 -0.00000000000E+00 -0.00000000000E+00 -0.74505805969E-08  0.93827000000E+00  0.93827000000E+00 0.  1.
     999902    2    1    2    0    0 -0.11988534003E-01 -0.19223637879E-01  0.61637803904E-02  0.10204509585E+01  0.10201808140E+01 0.  0.
     999903    2    3    3    0    0  0.10719956093E+00  0.66415650621E-01 -0.98417479583E-02  0.12815276471E+00  0.20578789769E-01 0.  0.
         14    1    1    2    0    0  0.11988534003E-01  0.19223637879E-01 -0.61637803904E-02  0.23479041495E-01  0.00000000000E+00 0.  1.
     999901    1    3    3    0    0 -0.11918809494E+00 -0.85639288500E-01  0.16005528349E-01  0.89229819379E+00  0.88000000000E+00 0.  1.
        -11    1    4    4    0    0  0.45709021371E-01  0.17440688716E-01 -0.75657914548E-02  0.49507520428E-01  0.51100000000E-03 0. -1.
         11    1    4    4    0    0  0.61490539563E-01  0.48974961905E-01 -0.22759565035E-02  0.78645244283E-01  0.51100000000E-03 0.  1.
</event>
<event>
 8    1  0.1112171E+005  0.1043930E+01  0.7957747E-01            NaN
         13   -1    0    0    0    0  0.00000000000E+00  0.00000000000E+00  0.74505805969E-08  0.10566000000E+00  0.10566000000E+00 0. -1.
     999900   -1    0    0    0    0 -0.00000000000E+00 -0.00000000000E+00 -0.74505805969E-08  0.93827000000E+00  0.93827000000E+00 0.  1.
     999902    2    1    2    0    0  0.23322037844E-01 -0.12070678760E-01  0.98938238665E-03  0.10176507760E+01  0.10173114097E+01 0.  0.
     999903    2    3    3    0    0 -0.24382384312E-01 -0.50947403279E-01  0.11340719069E+00  0.12836742679E+00  0.20660754950E-01 0.  0.
         14    1    1    2    0    0 -0.23322037844E-01  0.12070678760E-01 -0.98938238665E-03  0.26279223970E-01  0.00000000000E+00 0. -1.
     999901    1    3    3    0    0  0.47704422157E-01  0.38876724519E-01 -0.11241780831E+00  0.88928334924E+00  0.88000000000E+00 0.  1.
        -11    1    4    4    0    0 -0.27489664414E-02 -0.15018241059E-01  0.50500040394E-01  0.52760018782E-01  0.51100000000E-03 0. -1.
         11    1    4    4    0    0 -0.21633417871E-01 -0.35929162220E-01  0.62907150300E-01  0.75607408013E-01  0.51100000000E-03 0.  1.
</event>
<event>
 8    1  0.1112171E+005  0.1043930E+01  0.7957747E-01            NaN
         13   -1    0    0    0    0  0.00000000000E+00  0.00000000000E+00  0.74505805969E-08  0.10566000000E+00  0.10566000000E+00 0.  1.
     999900   -1    0    0    0    0 -0.00000000000E+00 -0.00000000000E+00 -0.74505805969E-08  0.93827000000E+00  0.93827000000E+00 0.  1.
     999902    2    1    2    0    0  0.51345187504E-02 -0.49041241286E-02  0.21968139063E-01  0.10208429289E+01  0.10205818305E+01 0.  0.
     999903    2    3    3    0    0 -0.10435716705E+00  0.75138647922E-01 -0.10444187167E-02  0.13015507541E+00  0.20075311129E-01 0.  0.
         14    1    1    2    0    0 -0.51345187504E-02  0.49041241286E-02 -0.21968139063E-01  0.23087071060E-01  0.00000000000E+00 0. -1.
     999901    1    3    3    0    0  0.10949168580E+00 -0.80042772051E-01  0.23012557779E-01  0.89068785353E+00  0.88000000000E+00 0.  1.
        -11    1    4    4    0    0 -0.65523309832E-01  0.38293345471E-01  0.61339947609E-02  0.76141785187E-01  0.51100000000E-03 0.  1.
         11    1    4    4    0    0 -0.38833857219E-01  0.36845302450E-01 -0.71784134776E-02  0.54013290219E-01  0.51100000000E-03 0. -1.
</event>
<event>
 8    1  0.1112171E+005  0.1043930E+01  0.7957747E-01            NaN
         13   -1    0    0    0    0  0.00000000000E+00  0.00000000000E+00  0.74505805969E-08  0.10566000000E+00  0.10566000000E+00 0. -1.
     999900   -1    0    0    0    0 -0.00000000000E+00 -0.00000000000E+00 -0.74505805969E-08  0.93827000000E+00  0.93827000000E+00 0. -1.
     999902    2    1    2    0    0  0.11312148670E-01  0.19958533520E-01 -0.71747530276E-04  0.10209884892E+01  0.10207307100E+01 0.  0.
     999903    2    3    3    0    0 -0.46088096764E-01 -0.11559445035E+00 -0.24485834820E-01  0.12842731640E+00  0.20194798268E-01 0.  0.
         14    1    1    2    0    0 -0.11312148670E-01 -0.19958533520E-01  0.71747530276E-04  0.22941510750E-01  0.00000000000E+00 0.  1.
     999901    1    3    3    0    0  0.57400245434E-01  0.13555298387E+00  0.24414087290E-01  0.89256117284E+00  0.88000000000E+00 0.  1.
        -11    1    4    4    0    0 -0.38980856778E-02 -0.16683842139E-01 -0.10206350519E-01  0.19949345162E-01  0.51100000000E-03 0. -1.
         11    1    4    4    0    0 -0.42190011086E-01 -0.98910608211E-01 -0.14279484301E-01  0.10847797124E+00  0.51100000000E-03 0.  1.
</event>
<event>
 8    1  0.1112171E+005  0.1043930E+01  0.7957747E-01            NaN
         13   -1    0    0    0    0  0.00000000000E+00  0.00000000000E+00  0.74505805969E-08  0.10566000000E+00  0.10566000000E+00 0. -1.
     999900   -1    0    0    0    0 -0.00000000000E+00 -0.00000000000E+00 -0.74505805969E-08  0.93827000000E+00  0.93827000000E+00 0. -1.
     999902    2    1    2    0    0 -0.37144715862E-02  0.15575370929E-02 -0.22848029055E-01  0.10207296627E+01  0.10204659664E+01 0.  0.
     999903    2    3    3    0    0 -0.95094424711E-01 -0.80212720831E-01 -0.39530539865E-01  0.13207057331E+00  0.20073429174E-01 0.  0.
         14    1    1    2    0    0  0.37144715862E-02 -0.15575370929E-02  0.22848029055E-01  0.23200337340E-01  0.00000000000E+00 0. -1.
     999901    1    3    3    0    0  0.91379953125E-01  0.81770257924E-01  0.16682510809E-01  0.88865908935E+00  0.88000000000E+00 0. -1.
        -11    1    4    4    0    0 -0.17764670002E-01 -0.17796557007E-01 -0.16434823248E-01  0.30044391786E-01  0.51100000000E-03 0. -1.
         11    1    4    4    0    0 -0.77329754709E-01 -0.62416163824E-01 -0.23095716617E-01  0.10202618153E+00  0.51100000000E-03 0.  1.
</event>
<event>
 8    1  0.1112171E+005  0.1043930E+01  0.7957747E-01            NaN
         13   -1    0    0    0    0  0.00000000000E+00  0.00000000000E+00  0.74505805969E-08  0.10566000000E+00  0.10566000000E+00 0. -1.
     999900   -1    0    0    0    0 -0.00000000000E+00 -0.00000000000E+00 -0.74505805969E-08  0.93827000000E+00  0.93827000000E+00 0. -1.
     999902    2    1    2    0    0 -0.25969150477E-01 -0.20844358686E-01  0.89971823898E-02  0.10094360388E+01  0.10088465112E+01 0.  0.
     999903    2    3    3    0    0  0.34604156260E-01  0.10930445180E+00  0.20866971754E-01  0.11772491395E+00  0.16697725554E-01 0.  0.
         14    1    1    2    0    0  0.25969150477E-01  0.20844358686E-01 -0.89971823898E-02  0.34493961160E-01  0.00000000000E+00 0.  1.
     999901    1    3    3    0    0 -0.60573306737E-01 -0.13014881049E+00 -0.11869789364E-01  0.89171112489E+00  0.88000000000E+00 0.  1.
        -11    1    4    4    0    0  0.26371857028E-01  0.63275905118E-01  0.17990617729E-01  0.70874808351E-01  0.51100000000E-03 0. -1.
         11    1    4    4    0    0  0.82322992316E-02  0.46028546687E-01  0.28763540248E-02  0.46850105595E-01  0.51100000000E-03 0.  1.
</event>
<event>
 8    1  0.1112171E+005  0.1043930E+01  0.7957747E-01            NaN
         13   -1    0    0    0    0  0.00000000000E+00  0.00000000000E+00  0.74505805969E-08  0.10566000000E+00  0.10566000000E+00 0.  1.
     999900   -1    0    0    0    0 -0.00000000000E+00 -0.00000000000E+00 -0.74505805969E-08  0.93827000000E+00  0.93827000000E+00 0. -1.
     999902    2    1    2    0    0  0.71235271001E-02 -0.21613123907E-01 -0.49721926010E-02  0.10206363429E+01  0.10203704964E+01 0.  0.
     999903    2    3    3    0    0  0.57715253489E-02 -0.11566556893E+00 -0.63456652890E-01  0.13369320917E+00  0.20863677533E-01 0.  0.
         14    1    1    2    0    0 -0.71235271001E-02  0.21613123907E-01  0.49721926010E-02  0.23293657133E-01  0.00000000000E+00 0. -1.
     999901    1    3    3    0    0  0.13520017512E-02  0.94052445024E-01  0.58484460289E-01  0.88694313370E+00  0.88000000000E+00 0. -1.
        -11    1    4    4    0    0  0.87885906767E-02 -0.10699839882E+00 -0.52866288966E-01  0.11967039026E+00  0.51100000000E-03 0.  1.
         11    1    4    4    0    0 -0.30170653278E-02 -0.86671701148E-02 -0.10590363924E-01  0.14022818905E-01  0.51100000000E-03 0. -1.
</event>
<event>
 8    1  0.1112171E+005  0.1043930E+01  0.7957747E-01            NaN
         13   -1    0    0    0    0  0.00000000000E+00  0.00000000000E+00  0.74505805969E-08  0.10566000000E+00  0.10566000000E+00 0.  1.
     999900   -1    0    0    0    0 -0.00000000000E+00 -0.00000000000E+00 -0.74505805969E-08  0.93827000000E+00  0.93827000000E+00 0.  1.
     999902    2    1    2    0    0  0.21631465877E-01  0.17031289588E-02  0.27066547995E-02  0.10220634286E+01  0.10218294893E+01 0.  0.
     999903    2    3    3    0    0 -0.63903797604E-01 -0.10368601859E+00  0.43372597078E-01  0.13072910716E+00  0.19350232112E-01 0.  0.
         14    1    1    2    0    0 -0.21631465877E-01 -0.17031289588E-02 -0.27066547995E-02  0.21866571392E-01  0.00000000000E+00 0. -1.
     999901    1    3    3    0    0  0.85535263481E-01  0.10538914755E+00 -0.40665942279E-01  0.89133432144E+00  0.88000000000E+00 0. -1.
        -11    1    4    4    0    0 -0.24825936287E-01 -0.55815830972E-01  0.27061160071E-01  0.66815429393E-01  0.51100000000E-03 0. -1.
         11    1    4    4    0    0 -0.39077861317E-01 -0.47870187621E-01  0.16311437007E-01  0.63913677772E-01  0.51100000000E-03 0.  1.
</event>
<event>
 8    1  0.1112171E+005  0.1043930E+01  0.7957747E-01            NaN
         13   -1    0    0    0    0  0.00000000000E+00  0.00000000000E+00  0.74505805969E-08  0.10566000000E+00  0.10566000000E+00 0. -1.
     999900   -1    0    0    0    0 -0.00000000000E+00 -0.00000000000E+00 -0.74505805969E-08  0.93827000000E+00  0.93827000000E+00 0.  1.
     999902    2    1    2    0    0 -0.22899446119E-01 -0.37496778603E-02 -0.72255520453E-02  0.10196266398E+01  0.10193369566E+01 0.  0.
     999903    2    3    3    0    0  0.53142060510E-01  0.17884610025E-01 -0.11483801574E+00  0.12955316218E+00  0.21267677400E-01 0.  0.
         14    1    1    2    0    0  0.22899446119E-01  0.37496778603E-02  0.72255520453E-02  0.24303360241E-01  0.00000000000E+00 0. -1.
     999901    1    3    3    0    0 -0.76041506629E-01 -0.21634287886E-01  0.10761246369E+00  0.89007347758E+00  0.88000000000E+00 0. -1.
        -11    1    4    4    0    0  0.67318809185E-02 -0.10928813334E-03 -0.33640660098E-01  0.34311591298E-01  0.51100000000E-03 0. -1.
         11    1    4    4    0    0  0.46410179592E-01  0.17993898159E-01 -0.81197355640E-01  0.95241570885E-01  0.51100000000E-03 0.  1.
</event>
<event>
 8    1  0.1112171E+005  0.1043930E+01  0.7957747E-01            NaN
         13   -1    0    0    0    0  0.00000000000E+00  0.00000000000E+00  0.74505805969E-08  0.10566000000E+00  0.10566000000E+00 0. -1.
     999900   -1    0    0    0    0 -0.00000000000E+00 -0.00000000000E+00 -0.74505805969E-08  0.93827000000E+00  0.93827000000E+00 0.  1.
     999902    2    1    2    0    0  0.78978497190E-02  0.10486013705E-01 -0.19216906034E-01  0.10206572264E+01  0.10203918619E+01 0.  0.
     999903    2    3    3    0    0  0.11106356526E+00  0.12726353686E-01 -0.67973838519E-01  0.13328727962E+00  0.25455462612E-01 0.  0.
         14    1    1    2    0    0 -0.78978497190E-02 -0.10486013705E-01  0.19216906034E-01  0.23272773602E-01  0.00000000000E+00 0. -1.
     999901    1    3    3    0    0 -0.10316571555E+00 -0.22403399806E-02  0.48756932485E-01  0.88736994678E+00  0.88000000000E+00 0. -1.
        -11    1    4    4    0    0  0.43450855454E-01 -0.41351337813E-02 -0.16551038056E-01  0.46682696504E-01  0.51100000000E-03 0.  1.
         11    1    4    4    0    0  0.67612709810E-01  0.16861487467E-01 -0.51422800463E-01  0.86604583112E-01  0.51100000000E-03 0. -1.
</event>
<event>
 8    1  0.1112171E+005  0.1043930E+01  0.7957747E-01            NaN
         13   -1    0    0    0    0  0.00000000000E+00  0.00000000000E+00  0.74505805969E-08  0.10566000000E+00  0.10566000000E+00 0.  1.
     999900   -1    0    0    0    0 -0.00000000000E+00 -0.00000000000E+00 -0.74505805969E-08  0.93827000000E+00  0.93827000000E+00 0. -1.
     999902    2    1    2    0    0  0.97556446934E-02  0.53113395324E-02 -0.22785182295E-01  0.10185814801E+01  0.10182660183E+01 0.  0.
     999903    2    3    3    0    0  0.99372169835E-01  0.52957879085E-01 -0.65596254369E-01  0.13171390133E+00  0.19139438892E-01 0.  0.
         14    1    1    2    0    0 -0.97556446934E-02 -0.53113395324E-02  0.22785182295E-01  0.25348519941E-01  0.00000000000E+00 0.  1.
     999901    1    3    3    0    0 -0.89616525142E-01 -0.47646539553E-01  0.42811072074E-01  0.88686757873E+00  0.88000000000E+00 0.  1.
        -11    1    4    4    0    0  0.91400149453E-01  0.44789339301E-01 -0.63852965516E-01  0.12015629222E+00  0.51100000000E-03 0.  1.
         11    1    4    4    0    0  0.79720203828E-02  0.81685397836E-02 -0.17432888527E-02  0.11557609104E-01  0.51100000000E-03 0. -1.
</event>
<event>
 8    1  0.1112171E+005  0.1043930E+01  0.7957747E-01            NaN
         13   -1    0    0    0    0  0.00000000000E+00  0.00000000000E+00  0.74505805969E-08  0.10566000000E+00  0.10566000000E+00 0. -1.
     999900   -1    0    0    0    0 -0.00000000000E+00 -0.00000000000E+00 -0.74505805969E-08  0.93827000000E+00  0.93827000000E+00 0. -1.
     999902    2    1    2    0    0  0.17562110104E-01  0.22140106534E-02 -0.15555677798E-01  0.10203650119E+01  0.10200928628E+01 0.  0.
     999903    2    3    3    0    0  0.52346629571E-02  0.11008673657E-01 -0.13055836326E+00  0.13275308668E+00  0.20719633523E-01 0.  0.
         14    1    1    2    0    0 -0.17562110104E-01 -0.22140106534E-02  0.15555677798E-01  0.23564988145E-01  0.00000000000E+00 0. -1.
     999901    1    3    3    0    0  0.12327447147E-01 -0.87946630031E-02  0.11500268546E+00  0.88761192518E+00  0.88000000000E+00 0.  1.
        -11    1    4    4    0    0  0.35977027813E-03  0.16552056542E-01 -0.85211422946E-01  0.86806380710E-01  0.51100000000E-03 0. -1.
         11    1    4    4    0    0  0.48748926790E-02 -0.55433828858E-02 -0.45346940315E-01  0.45946705969E-01  0.51100000000E-03 0.  1.
</event>
<event>
 8    1  0.1112171E+005  0.1043930E+01  0.7957747E-01            NaN
         13   -1    0    0    0    0  0.00000000000E+00  0.00000000000E+00  0.74505805969E-08  0.10566000000E+00  0.10566000000E+00 0.  1.
     999900   -1    0    0    0    0 -0.00000000000E+00 -0.00000000000E+00 -0.74505805969E-08  0.93827000000E+00  0.93827000000E+00 0.  1.
     999902    2    1    2    0    0 -0.27637404560E-02 -0.22123272324E-01  0.89179029201E-02  0.10199173693E+01  0.10196346570E+01 0.  0.
     999903    2    3    3    0    0 -0.36428288393E-01 -0.43163621399E-01  0.11803323908E+00  0.13229010821E+00  0.19460441823E-01 0.  0.
         14    1    1    2    0    0  0.27637404560E-02  0.22123272324E-01 -0.89179029201E-02  0.24012630679E-01  0.00000000000E+00 0. -1.
     999901    1    3    3    0    0  0.33664547937E-01  0.21040349075E-01 -0.10911533616E+00  0.88762726111E+00  0.88000000000E+00 0.  1.
        -11    1    4    4    0    0  0.13819793474E-02 -0.78469330595E-02  0.16790006429E-01  0.18591655715E-01  0.51100000000E-03 0.  1.
         11    1    4    4    0    0 -0.37810267741E-01 -0.35316688339E-01  0.10124323265E+00  0.11369845250E+00  0.51100000000E-03 0. -1.
</event>
<event>
 8    1  0.1112171E+005  0.1043930E+01  0.7957747E-01            NaN
         13   -1    0    0    0    0  0.00000000000E+00  0.00000000000E+00  0.74505805969E-08  0.10566000000E+00  0.10566000000E+00 0. -1.
     999900   -1    0    0    0    0 -0.00000000000E+00 -0.00000000000E+00 -0.74505805969E-08  0.93827000000E+00  0.93827000000E+00 0.  1.
     999902    2    1    2    0    0  0.17442057293E-01 -0.91633752087E-02  0.13766942145E-01  0.10198941621E+01  0.10196108966E+01 0.  0.
     999903    2    3    3    0    0  0.68471326359E-01 -0.11092641941E+00  0.13275798150E-01  0.13256111037E+00  0.20080042515E-01 0.  0.
         14    1    1    2    0    0 -0.17442057293E-01  0.91633752087E-02 -0.13766942145E-01  0.24035837906E-01  0.00000000000E+00 0. -1.
     999901    1    3    3    0    0 -0.51029269066E-01  0.10176304421E+00  0.49114399506E-03  0.88733305173E+00  0.88000000000E+00 0. -1.
        -11    1    4    4    0    0  0.37326378832E-01 -0.78106064452E-01  0.65569736050E-02  0.86816305408E-01  0.51100000000E-03 0. -1.
         11    1    4    4    0    0  0.31144947527E-01 -0.32820354962E-01  0.67188245445E-02  0.45744804957E-01  0.51100000000E-03 0.  1.
</event>
<event>
 8    1  0.1112171E+005  0.1043930E+01  0.7957747E-01            NaN
         13   -1    0    0    0    0  0.00000000000E+00  0.00000000000E+00  0.74505805969E-08  0.10566000000E+00  0.10566000000E+00 0.  1.
     999900   -1    0    0    0    0 -0.00000000000E+00 -0.00000000000E+00 -0.74505805969E-08  0.93827000000E+00  0.93827000000E+00 0. -1.
     999902    2    1    2    0    0 -0.19192679914E-01  0.63785697560E-02  0.80038061388E-02  0.10221789994E+01  0.10219475529E+01 0.  0.
     999903    2    3    3    0    0 -0.98405930833E-01 -0.54498338608E-01  0.70465725019E-01  0.13432640555E+00  0.20600210963E-01 0.  0.
         14    1    1    2    0    0  0.19192679914E-01 -0.63785697560E-02 -0.80038061388E-02  0.21751000600E-01  0.00000000000E+00 0.  1.
     999901    1    3    3    0    0  0.79213250920E-01  0.60876908364E-01 -0.62461918880E-01  0.88785259385E+00  0.88000000000E+00 0. -1.
        -11    1    4    4    0    0 -0.69057382656E-01 -0.40024525001E-01  0.60365915075E-01  0.10007591880E+00  0.51100000000E-03 0. -1.
         11    1    4    4    0    0 -0.29348548178E-01 -0.14473813607E-01  0.10099809944E-01  0.34250486746E-01  0.51100000000E-03 0.  1.
</event>
<event>
 8    1  0.1112171E+005  0.1043930E+01  0.7957747E-01            NaN
         13   -1    0    0    0    0  0.00000000000E+00  0.00000000000E+00  0.74505805969E-08  0.10566000000E+00  0.10566000000E+00 0.  1.
     999900   -1    0    0    0    0 -0.00000000000E+00 -0.00000000000E+00 -0.74505805969E-08  0.93827000000E+00  0.93827000000E+00 0.  1.
     999902    2    1    2    0    0  0.26784351669E-02 -0.19915815051E-01 -0.17060266399E-01  0.10175696815E+01  0.10172281899E+01 0.  0.
     999903    2    3    3    0    0  0.12719592059E-01  0.11689367439E+00  0.38185187061E-01  0.12523021614E+00  0.19964453115E-01 0.  0.
         14    1    1    2    0    0 -0.26784351669E-02  0.19915815051E-01  0.17060266399E-01  0.26360318543E-01  0.00000000000E+00 0.  1.
     999901    1    3    3    0    0 -0.10041156892E-01 -0.13680948944E+00 -0.55245453460E-01  0.89233946532E+00  0.88000000000E+00 0. -1.
        -11    1    4    4    0    0  0.59823779457E-02  0.10760493326E+00  0.34076672475E-01  0.11303137280E+00  0.51100000000E-03 0. -1.
         11    1    4    4    0    0  0.67372141132E-02  0.92887411306E-02  0.41085145865E-02  0.12198843343E-01  0.51100000000E-03 0.  1.
</event>
<event>
 8    1  0.1112171E+005  0.1043930E+01  0.7957747E-01            NaN
         13   -1    0    0    0    0  0.00000000000E+00  0.00000000000E+00  0.74505805969E-08  0.10566000000E+00  0.10566000000E+00 0. -1.
     999900   -1    0    0    0    0 -0.00000000000E+00 -0.00000000000E+00 -0.74505805969E-08  0.93827000000E+00  0.93827000000E+00 0.  1.
     999902    2    1    2    0    0 -0.14274370749E-01 -0.18085465552E-01  0.84364592110E-02  0.10193939944E+01  0.10190986706E+01 0.  0.
     999903    2    3    3    0    0 -0.80257267172E-01  0.11266763883E-01  0.10170176689E+00  0.13152366968E+00  0.19673774261E-01 0.  0.
         14    1    1    2    0    0  0.14274370749E-01  0.18085465552E-01 -0.84364592110E-02  0.24536005553E-01  0.00000000000E+00 0.  1.
     999901    1    3    3    0    0  0.65982896423E-01 -0.29352229434E-01 -0.93265307680E-01  0.88787032477E+00  0.88000000000E+00 0.  1.
        -11    1    4    4    0    0 -0.40221455365E-02 -0.45092329243E-03  0.14692145891E-01  0.15247991947E-01  0.51100000000E-03 0. -1.
         11    1    4    4    0    0 -0.76235121636E-01  0.11717687175E-01  0.87009621001E-01  0.11627567773E+00  0.51100000000E-03 0.  1.
</event>
<event>
 8    1  0.1112171E+005  0.1043930E+01  0.7957747E-01            NaN
         13   -1    0    0    0    0  0.00000000000E+00  0.00000000000E+00  0.74505805969E-08  0.10566000000E+00  0.10566000000E+00 0. -1.
     999900   -1    0    0    0    0 -0.00000000000E+00 -0.00000000000E+00 -0.74505805969E-08  0.93827000000E+00  0.93827000000E+00 0.  1.
     999902    2    1    2    0    0  0.11923737015E-01 -0.14826244288E-01  0.13599072534E-01  0.10205435125E+01  0.10202755182E+01 0.  0.
     999903    2    3    3    0    0  0.47937718098E-01  0.11481889532E-01  0.11874502851E+00  0.13316264905E+00  0.34670602861E-01 0.  0.
         14    1    1    2    0    0 -0.11923737015E-01  0.14826244288E-01 -0.13599072534E-01  0.23386487506E-01  0.00000000000E+00 0.  1.
     999901    1    3    3    0    0 -0.36013981083E-01 -0.26308133820E-01 -0.10514595598E+00  0.88738086344E+00  0.88000000000E+00 0.  1.
        -11    1    4    4    0    0  0.20609281313E-01 -0.11615198851E-01  0.36884905565E-01  0.43822513622E-01  0.51100000000E-03 0. -1.
         11    1    4    4    0    0  0.27328436785E-01  0.23097088384E-01  0.81860122949E-01  0.89340135433E-01  0.51100000000E-03 0.  1.
</event>
<event>
 8    1  0.1112171E+005  0.1043930E+01  0.7957747E-01            NaN
         13   -1    0    0    0    0  0.00000000000E+00  0.00000000000E+00  0.74505805969E-08  0.10566000000E+00  0.10566000000E+00 0.  1.
     999900   -1    0    0    0    0 -0.00000000000E+00 -0.00000000000E+00 -0.74505805969E-08  0.93827000000E+00  0.93827000000E+00 0.  1.
     999902    2    1    2    0    0 -0.23986472562E-01  0.52818505021E-02 -0.21698076359E-02  0.10192732185E+01  0.10189749442E+01 0.  0.
     999903    2    3    3    0    0 -0.94011471501E-01 -0.67670750017E-01 -0.59327485369E-01  0.13164008336E+00  0.19795803750E-01 0.  0.
         14    1    1    2    0    0  0.23986472562E-01 -0.52818505021E-02  0.21698076359E-02  0.24656781540E-01  0.00000000000E+00 0.  1.
     999901    1    3    3    0    0  0.70024998939E-01  0.72952600519E-01  0.57157677733E-01  0.88763313510E+00  0.88000000000E+00 0.  1.
        -11    1    4    4    0    0 -0.44487900401E-01 -0.30757076587E-01 -0.16762749163E-01  0.56625276359E-01  0.51100000000E-03 0. -1.
         11    1    4    4    0    0 -0.49523571100E-01 -0.36913673429E-01 -0.42564736206E-01  0.75014807004E-01  0.51100000000E-03 0.  1.
</event>
<event>
 8    1  0.1112171E+005  0.1043930E+01  0.7957747E-01            NaN
         13   -1    0    0    0    0  0.00000000000E+00  0.00000000000E+00  0.74505805969E-08  0.10566000000E+00  0.10566000000E+00 0. -1.
     999900   -1    0    0    0    0 -0.00000000000E+00 -0.00000000000E+00 -0.74505805969E-08  0.93827000000E+00  0.93827000000E+00 0. -1.
     999902    2    1    2    0    0  0.24952779544E-01 -0.12772636804E-02 -0.25254412512E-02  0.10188172450E+01  0.10185076967E+01 0.  0.
     999903    2    3    3    0    0 -0.62836962877E-01  0.90787181548E-01 -0.61072900687E-01  0.12774446126E+00  0.19948732944E-01 0.  0.
         14    1    1    2    0    0 -0.24952779544E-01  0.12772636804E-02  0.25254412512E-02  0.25112754986E-01  0.00000000000E+00 0.  1.
     999901    1    3    3    0    0  0.87789742421E-01 -0.92064445228E-01  0.58547459436E-01  0.89107278376E+00  0.88000000000E+00 0.  1.
        -11    1    4    4    0    0 -0.20177207871E-01  0.46487094975E-01 -0.26486290170E-01  0.57183515148E-01  0.51100000000E-03 0.  1.
         11    1    4    4    0    0 -0.42659755006E-01  0.44300086573E-01 -0.34586610516E-01  0.70560946107E-01  0.51100000000E-03 0. -1.
</event>
<event>
 8    1  0.1112171E+005  0.1043930E+01  0.7957747E-01            NaN
         13   -1    0    0    0    0  0.00000000000E+00  0.00000000000E+00  0.74505805969E-08  0.10566000000E+00  0.10566000000E+00 0.  1.
     999900   -1    0    0    0    0 -0.00000000000E+00 -0.00000000000E+00 -0.74505805969E-08  0.93827000000E+00  0.93827000000E+00 0. -1.
     999902    2    1    2    0    0 -0.14816439266E-01 -0.12276581952E-01 -0.99704353679E-02  0.10222585691E+01  0.10220288309E+01 0.  0.
     999903    2    3    3    0    0  0.12368283878E+00  0.19521470352E-01 -0.30110936815E-01  0.13063151366E+00  0.21895009257E-01 0.  0.
         14    1    1    2    0    0  0.14816439266E-01  0.12276581952E-01  0.99704353679E-02  0.21671430926E-01  0.00000000000E+00 0.  1.
     999901    1    3    3    0    0 -0.13849927805E+00 -0.31798052303E-01  0.20140501447E-01  0.89162705542E+00  0.88000000000E+00 0. -1.
        -11    1    4    4    0    0  0.89432964871E-01  0.21552004073E-01 -0.15302227771E-01  0.93258583417E-01  0.51100000000E-03 0.  1.
         11    1    4    4    0    0  0.34249873914E-01 -0.20305337217E-02 -0.14808709044E-01  0.37372930242E-01  0.51100000000E-03 0. -1.
</event>
<event>
 8    1  0.1112171E+005  0.1043930E+01  0.7957747E-01            NaN
         13   -1    0    0    0    0  0.00000000000E+00  0.00000000000E+00  0.74505805969E-08  0.10566000000E+00  0.10566000000E+00 0. -1.
     999900   -1    0    0    0    0 -0.00000000000E+00 -0.00000000000E+00 -0.74505805969E-08  0.93827000000E+00  0.93827000000E+00 0.  1.
     999902    2    1    2    0    0 -0.22483492990E-01  0.63407918884E-02  0.85956206182E-02  0.10190382786E+01  0.10187342222E+01 0.  0.
     999903    2    3    3    0    0  0.36970995635E-01 -0.11915566338E+00  0.18847269277E-01  0.12808974319E+00  0.22064363101E-01 0.  0.
         14    1    1    2    0    0  0.22483492990E-01 -0.63407918884E-02 -0.85956206182E-02  0.24891721367E-01  0.00000000000E+00 0. -1.
     999901    1    3    3    0    0 -0.59454488625E-01  0.12549645527E+00 -0.10251648658E-01  0.89094853544E+00  0.88000000000E+00 0.  1.
        -11    1    4    4    0    0 -0.41980214216E-03 -0.28718221744E-01  0.64826606173E-02  0.29448234305E-01  0.51100000000E-03 0.  1.
         11    1    4    4    0    0  0.37390797777E-01 -0.90437441632E-01  0.12364608659E-01  0.98641508888E-01  0.51100000000E-03 0. -1.
</event>
<event>
 8    1  0.1112171E+005  0.1043930E+01  0.7957747E-01            NaN
         13   -1    0    0    0    0  0.00000000000E+00  0.00000000000E+00  0.74505805969E-08  0.10566000000E+00  0.10566000000E+00 0. -1.
     999900   -1    0    0    0    0 -0.00000000000E+00 -0.00000000000E+00 -0.74505805969E-08  0.93827000000E+00  0.93827000000E+00 0. -1.
     999902    2    1    2    0    0 -0.17989612678E-01  0.13685930376E-03 -0.15274163897E-01  0.10203303183E+01  0.10200573579E+01 0.  0.
     999903    2    3    3    0    0  0.12137189070E+00  0.36086496132E-01  0.67667042948E-02  0.12836630281E+00  0.19968684347E-01 0.  0.
         14    1    1    2    0    0  0.17989612678E-01 -0.13685930376E-03  0.15274163897E-01  0.23599681725E-01  0.00000000000E+00 0.  1.
     999901    1    3    3    0    0 -0.13936150338E+00 -0.35949636828E-01 -0.22040868192E-01  0.89196401546E+00  0.88000000000E+00 0. -1.
        -11    1    4    4    0    0  0.57880910566E-01  0.26633884294E-01 -0.85585944129E-03  0.63722501653E-01  0.51100000000E-03 0.  1.
         11    1    4    4    0    0  0.63490980136E-01  0.94526118383E-02  0.76225637361E-02  0.64643801158E-01  0.51100000000E-03 0. -1.
</event>
<event>
 8    1  0.1112171E+005  0.1043930E+01  0.7957747E-01            NaN
         13   -1    0    0    0    0  0.00000000000E+00  0.00000000000E+00  0.74505805969E-08  0.10566000000E+00  0.10566000000E+00 0. -1.
     999900   -1    0    0    0    0 -0.00000000000E+00 -0.00000000000E+00 -0.74505805969E-08  0.93827000000E+00  0.93827000000E+00 0. -1.
     999902    2    1    2    0    0  0.21568589223E-01 -0.11687891349E-01  0.81749543188E-02  0.10180719118E+01  0.10177434731E+01 0.  0.
     999903    2    3    3    0    0  0.11732905532E+00 -0.53511699949E-02  0.56008917889E-01  0.13156285437E+00  0.19417608620E-01 0.  0.
         14    1    1    2    0    0 -0.21568589223E-01  0.11687891349E-01 -0.81749543188E-02  0.25858088161E-01  0.00000000000E+00 0. -1.
     999901    1    3    3    0    0 -0.95760466095E-01 -0.63367213542E-02 -0.47833963571E-01  0.88650905747E+00  0.88000000000E+00 0. -1.
        -11    1    4    4    0    0  0.65652645569E-01 -0.11334539942E-01  0.36743893064E-01  0.76086243595E-01  0.51100000000E-03 0. -1.
         11    1    4    4    0    0  0.51676409749E-01  0.59833699475E-02  0.19265024826E-01  0.55476610774E-01  0.51100000000E-03 0.  1.
</event>
<event>
 8    1  0.1112171E+005  0.1043930E+01  0.7957747E-01            NaN
         13   -1    0    0    0    0  0.00000000000E+00  0.00000000000E+00  0.74505805969E-08  0.10566000000E+00  0.10566000000E+00 0.  1.
     999900   -1    0    0    0    0 -0.00000000000E+00 -0.00000000000E+00 -0.74505805969E-08  0.93827000000E+00  0.93827000000E+00 0. -1.
     999902    2    1    2    0    0 -0.65818083040E-02  0.20566681783E-01 -0.76151535768E-02  0.10210324201E+01  0.10207756383E+01 0.  0.
     999903    2    3    3    0    0 -0.67156524767E-01  0.75882430870E-01 -0.85041252556E-01  0.13383236987E+00  0.20271814300E-01 0.  0.
         14    1    1    2    0    0  0.65818083040E-02 -0.20566681783E-01  0.76151535768E-02  0.22897579875E-01  0.00000000000E+00 0. -1.
     999901    1    3    3    0    0  0.60574716463E-01 -0.55315749087E-01  0.77426098979E-01  0.88720005026E+00  0.88000000000E+00 0.  1.
        -11    1    4    4    0    0 -0.16956884858E-01  0.14390933861E-01 -0.92945500575E-02  0.24109846603E-01  0.51100000000E-03 0. -1.
         11    1    4    4    0    0 -0.50199639909E-01  0.61491497009E-01 -0.75746702499E-01  0.10972252327E+00  0.51100000000E-03 0.  1.
</event>
<event>
 8    1  0.1112171E+005  0.1043930E+01  0.7957747E-01            NaN
         13   -1    0    0    0    0  0.00000000000E+00  0.00000000000E+00  0.74505805969E-08  0.10566000000E+00  0.10566000000E+00 0. -1.
     999900   -1    0    0    0    0 -0.00000000000E+00 -0.00000000000E+00 -0.74505805969E-08  0.93827000000E+00  0.93827000000E+00 0.  1.
     999902    2    1    2    0    0 -0.94520754878E-02 -0.60484415752E-02  0.21464023767E-01  0.10197095604E+01  0.10194218744E+01 0.  0.
     999903    2    3    3    0    0  0.86122313670E-01 -0.86313953600E-01 -0.36538397338E-01  0.12901247548E+00  0.21024101708E-01 0.  0.
         14    1    1    2    0    0  0.94520754878E-02  0.60484415752E-02 -0.21464023767E-01  0.24220439566E-01  0.00000000000E+00 0.  1.
     999901    1    3    3    0    0 -0.95574389158E-01  0.80265512025E-01  0.58002421105E-01  0.89069708495E+00  0.88000000000E+00 0. -1.
        -11    1    4    4    0    0  0.27793911038E-01 -0.15994744160E-01 -0.13444035950E-01  0.34775516605E-01  0.51100000000E-03 0. -1.
         11    1    4    4    0    0  0.58328402632E-01 -0.70319209441E-01 -0.23094361389E-01  0.94236958880E-01  0.51100000000E-03 0.  1.
</event>
<event>
 8    1  0.1112171E+005  0.1043930E+01  0.7957747E-01            NaN
         13   -1    0    0    0    0  0.00000000000E+00  0.00000000000E+00  0.74505805969E-08  0.10566000000E+00  0.10566000000E+00 0. -1.
     999900   -1    0    0    0    0 -0.00000000000E+00 -0.00000000000E+00 -0.74505805969E-08  0.93827000000E+00  0.93827000000E+00 0. -1.
     999902    2    1    2    0    0 -0.57805614445E-02 -0.22600753103E-01 -0.62703457672E-02  0.10197737137E+01  0.10194875678E+01 0.  0.
     999903    2    3    3    0    0  0.41318013996E-01 -0.89979198876E-01  0.83947263186E-01  0.13134963269E+00  0.20053640587E-01 0.  0.
         14    1    1    2    0    0  0.57805614445E-02  0.22600753103E-01  0.62703457672E-02  0.24156286293E-01  0.00000000000E+00 0. -1.
     999901    1    3    3    0    0 -0.47098575440E-01  0.67378445773E-01 -0.90217608953E-01  0.88842408102E+00  0.88000000000E+00 0. -1.
        -11    1    4    4    0    0  0.18571268222E-01 -0.52237503022E-01  0.57870858753E-01  0.80143285053E-01  0.51100000000E-03 0.  1.
         11    1    4    4    0    0  0.22746745774E-01 -0.37741695854E-01  0.26076404433E-01  0.51206347638E-01  0.51100000000E-03 0. -1.
</event>
<event>
 8    1  0.1112171E+005  0.1043930E+01  0.7957747E-01            NaN
         13   -1    0    0    0    0  0.00000000000E+00  0.00000000000E+00  0.74505805969E-08  0.10566000000E+00  0.10566000000E+00 0.  1.
     999900   -1    0    0    0    0 -0.00000000000E+00 -0.00000000000E+00 -0.74505805969E-08  0.93827000000E+00  0.93827000000E+00 0. -1.
     999902    2    1    2    0    0  0.42279930988E-02  0.41297670995E-02  0.23231145087E-01  0.10199588297E+01  0.10196771045E+01 0.  0.
     999903    2    3    3    0    0 -0.63455092601E-01  0.81208694212E-01 -0.74235940717E-01  0.12865529338E+00  0.20489236902E-01 0.  0.
         14    1    1    2    0    0 -0.42279930988E-02 -0.41297670995E-02 -0.23231145087E-01  0.23971170267E-01  0.00000000000E+00 0. -1.
     999901    1    3    3    0    0  0.67683085700E-01 -0.77078927112E-01  0.97467085803E-01  0.89130353635E+00  0.88000000000E+00 0.  1.
        -11    1    4    4    0    0 -0.19575128051E-01  0.34084533632E-01 -0.38448051717E-01  0.54985951596E-01  0.51100000000E-03 0.  1.
         11    1    4    4    0    0 -0.43879964550E-01  0.47124160579E-01 -0.35787889000E-01  0.73669341787E-01  0.51100000000E-03 0. -1.
</event>
<event>
 8    1  0.1112171E+005  0.1043930E+01  0.7957747E-01            NaN
         13   -1    0    0    0    0  0.00000000000E+00  0.00000000000E+00  0.74505805969E-08  0.10566000000E+00  0.10566000000E+00 0.  1.
     999900   -1    0    0    0    0 -0.00000000000E+00 -0.00000000000E+00 -0.74505805969E-08  0.93827000000E+00  0.93827000000E+00 0. -1.
     999902    2    1    2    0    0  0.10242029590E-01 -0.20921423539E-01  0.11220002236E-02  0.10206091077E+01  0.10203426320E+01 0.  0.
     999903    2    3    3    0    0  0.11477924515E+00  0.52799898195E-01  0.28604378931E-01  0.13093605323E+00  0.19077085083E-01 0.  0.
         14    1    1    2    0    0 -0.10242029590E-01  0.20921423539E-01 -0.11220002236E-02  0.23320892297E-01  0.00000000000E+00 0. -1.
     999901    1    3    3    0    0 -0.10453721556E+00 -0.73721321734E-01 -0.27482378707E-01  0.88967305447E+00  0.88000000000E+00 0. -1.
        -11    1    4    4    0    0  0.76321935960E-01  0.41834522545E-01  0.12981950789E-01  0.87999757685E-01  0.51100000000E-03 0.  1.
         11    1    4    4    0    0  0.38457309189E-01  0.10965375650E-01  0.15622428141E-01  0.42936295546E-01  0.51100000000E-03 0. -1.
</event>
<event>
 8    1  0.1112171E+005  0.1043930E+01  0.7957747E-01            NaN
         13   -1    0    0    0    0  0.00000000000E+00  0.00000000000E+00  0.74505805969E-08  0.10566000000E+00  0.10566000000E+00 0.  1.
     999900   -1    0    0    0    0 -0.00000000000E+00 -0.00000000000E+00 -0.74505805969E-08  0.93827000000E+00  0.93827000000E+00 0. -1.
     999902    2    1    2    0    0  0.23891810887E-01 -0.14280372069E-02  0.32251430859E-03  0.10199933767E+01  0.10197124725E+01 0.  0.
     999903    2    3    3    0    0 -0.24122806866E-01  0.27673470128E-01  0.12289441861E+00  0.12972590402E+00  0.19443283939E-01 0.  0.
         14    1    1    2    0    0 -0.23891810887E-01  0.14280372069E-02 -0.32251430859E-03  0.23936623263E-01  0.00000000000E+00 0. -1.
     999901    1    3    3    0    0  0.48014617754E-01 -0.29101507335E-01 -0.12257190430E+00  0.89026747271E+00  0.88000000000E+00 0. -1.
        -11    1    4    4    0    0 -0.43259246475E-02  0.12103735167E-01  0.69586566902E-01  0.70765566791E-01  0.51100000000E-03 0.  1.
         11    1    4    4    0    0 -0.19796882219E-01  0.15569734961E-01  0.53307851705E-01  0.58960337234E-01  0.51100000000E-03 0. -1.
</event>
<event>
 8    1  0.1112171E+005  0.1043930E+01  0.7957747E-01            NaN
         13   -1    0    0    0    0  0.00000000000E+00  0.00000000000E+00  0.74505805969E-08  0.10566000000E+00  0.10566000000E+00 0. -1.
     999900   -1    0    0    0    0 -0.00000000000E+00 -0.00000000000E+00 -0.74505805969E-08  0.93827000000E+00  0.93827000000E+00 0.  1.
     999902    2    1    2    0    0  0.11044579234E-01  0.89843442812E-02  0.17540587482E-01  0.10213385551E+01  0.10210886694E+01 0.  0.
     999903    2    3    3    0    0 -0.45647990640E-01  0.41333364446E-01 -0.11219537317E+00  0.12943501433E+00  0.19324469136E-01 0.  0.
         14    1    1    2    0    0 -0.11044579234E-01 -0.89843442812E-02 -0.17540587482E-01  0.22591444881E-01  0.00000000000E+00 0. -1.
     999901    1    3    3    0    0  0.56692569874E-01 -0.32349020164E-01  0.12973596065E+00  0.89190354079E+00  0.88000000000E+00 0. -1.
        -11    1    4    4    0    0  0.16932409110E-02  0.50335963001E-03 -0.18419198986E-02  0.26027342571E-02  0.51100000000E-03 0. -1.
         11    1    4    4    0    0 -0.47341231551E-01  0.40830004816E-01 -0.11035345327E+00  0.12683228007E+00  0.51100000000E-03 0.  1.
</event>
<event>
 8    1  0.1112171E+005  0.1043930E+01  0.7957747E-01            NaN
         13   -1    0    0    0    0  0.00000000000E+00  0.00000000000E+00  0.74505805969E-08  0.10566000000E+00  0.10566000000E+00 0.  1.
     999900   -1    0    0    0    0 -0.00000000000E+00 -0.00000000000E+00 -0.74505805969E-08  0.93827000000E+00  0.93827000000E+00 0.  1.
     999902    2    1    2    0    0  0.18147606447E-01 -0.49045399011E-02 -0.13083216797E-01  0.10210267100E+01  0.10207697986E+01 0.  0.
     999903    2    3    3    0    0 -0.49158810497E-01 -0.90843745683E-01 -0.78715364761E-01  0.13185671517E+00  0.22823450792E-01 0.  0.
         14    1    1    2    0    0 -0.18147606447E-01  0.49045399011E-02  0.13083216797E-01  0.22903290007E-01  0.00000000000E+00 0.  1.
     999901    1    3    3    0    0  0.67306416943E-01  0.85939205782E-01  0.65632147963E-01  0.88916999483E+00  0.88000000000E+00 0. -1.
        -11    1    4    4    0    0 -0.12327414807E-01 -0.37378518244E-01 -0.40699735861E-01  0.56620211958E-01  0.51100000000E-03 0. -1.
         11    1    4    4    0    0 -0.36831395690E-01 -0.53465227439E-01 -0.38015628899E-01  0.75236503209E-01  0.51100000000E-03 0.  1.
</event>
<event>
 8    1  0.1112171E+005  0.1043930E+01  0.7957747E-01            NaN
         13   -1    0    0    0    0  0.00000000000E+00  0.00000000000E+00  0.74505805969E-08  0.10566000000E+00  0.10566000000E+00 0.  1.
     999900   -1    0    0    0    0 -0.00000000000E+00 -0.00000000000E+00 -0.74505805969E-08  0.93827000000E+00  0.93827000000E+00 0.  1.
     999902    2    1    2    0    0  0.10069278744E-01  0.20789641797E-01 -0.66219894700E-02  0.10198998039E+01  0.10196166729E+01 0.  0.
     999903    2    3    3    0    0 -0.43128231074E-01 -0.10064753702E+00 -0.63920478409E-01  0.12812624503E+00  0.18453619715E-01 0.  0.
         14    1    1    2    0    0 -0.10069278744E-01 -0.20789641797E-01  0.66219894700E-02  0.24030196109E-01  0.00000000000E+00 0.  1.
     999901    1    3    3    0    0  0.53197509818E-01  0.12143717882E+00  0.57298488939E-01  0.89177355886E+00  0.88000000000E+00 0. -1.
        -11    1    4    4    0    0 -0.31891757491E-01 -0.85569904526E-01 -0.46457863788E-01  0.10245919668E+00  0.51100000000E-03 0. -1.
         11    1    4    4    0    0 -0.11236473583E-01 -0.15077632499E-01 -0.17462614621E-01  0.25667048345E-01  0.51100000000E-03 0.  1.
</event>
<event>
 8    1  0.1112171E+005  0.1043930E+01  0.7957747E-01            NaN
         13   -1    0    0    0    0  0.00000000000E+00  0.00000000000E+00  0.74505805969E-08  0.10566000000E+00  0.10566000000E+00 0.  1.
     999900   -1    0    0    0    0 -0.00000000000E+00 -0.00000000000E+00 -0.74505805969E-08  0.93827000000E+00  0.93827000000E+00 0.  1.
     999902    2    1    2    0    0  0.79765444087E-02  0.22103446546E-01 -0.15567938220E-02  0.10203798149E+01  0.10201080117E+01 0.  0.
     999903    2    3    3    0    0 -0.10852071983E+00 -0.81944298734E-02 -0.67544964558E-01  0.12973734313E+00  0.20629121464E-01 0.  0.
         14    1    1    2    0    0 -0.79765444087E-02 -0.22103446546E-01  0.15567938220E-02  0.23550185072E-01  0.00000000000E+00 0.  1.
     999901    1    3    3    0    0  0.11649726424E+00  0.30297876420E-01  0.65988170736E-01  0.89064247180E+00  0.88000000000E+00 0.  1.
        -11    1    4    4    0    0 -0.46385624631E-02 -0.38444369431E-02 -0.76303945201E-02  0.97355019730E-02  0.51100000000E-03 0. -1.
         11    1    4    4    0    0 -0.10388215737E+00 -0.43499929304E-02 -0.59914570038E-01  0.12000184116E+00  0.51100000000E-03 0.  1.
</event>
<event>
 8    1  0.1112171E+005  0.1043930E+01  0.7957747E-01            NaN
         13   -1    0    0    0    0  0.00000000000E+00  0.00000000000E+00  0.74505805969E-08  0.10566000000E+00  0.10566000000E+00 0. -1.
     999900   -1    0    0    0    0 -0.00000000000E+00 -0.00000000000E+00 -0.74505805969E-08  0.93827000000E+00  0.93827000000E+00 0. -1.
     999902    2    1    2    0    0  0.12695397852E-01 -0.10280876961E-01 -0.16571686497E-01  0.10206600548E+01  0.10203947555E+01 0.  0.
     999903    2    3    3    0    0 -0.11472132969E+00 -0.52588336449E-01 -0.26473793275E-01  0.13042244867E+00  0.19561103561E-01 0.  0.
         14    1    1    2    0    0 -0.12695397852E-01  0.10280876961E-01  0.16571686497E-01  0.23269945231E-01  0.00000000000E+00 0. -1.
     999901    1    3    3    0    0  0.12741672754E+00  0.42307459489E-01  0.99021067780E-02  0.89023760609E+00  0.88000000000E+00 0. -1.
        -11    1    4    4    0    0 -0.79664264091E-01 -0.36747235383E-01 -0.90843890393E-02  0.88201709318E-01  0.51100000000E-03 0. -1.
         11    1    4    4    0    0 -0.35057065595E-01 -0.15841101067E-01 -0.17389404236E-01  0.42220739357E-01  0.51100000000E-03 0.  1.
</event>
<event>
 8    1  0.1112171E+005  0.1043930E+01  0.7957747E-01            NaN
         13   -1    0    0    0    0  0.00000000000E+00  0.00000000000E+00  0.74505805969E-08  0.10566000000E+00  0.10566000000E+00 0. -1.
     999900   -1    0    0    0    0 -0.00000000000E+00 -0.00000000000E+00 -0.74505805969E-08  0.93827000000E+00  0.93827000000E+00 0.  1.
     999902    2    1    2    0    0 -0.17739429532E-01  0.87252015235E-03 -0.15412647147E-01  0.10204140832E+01  0.10201430796E+01 0.  0.
     999903    2    3    3    0    0  0.11208798543E+00 -0.28906832147E-01 -0.54612238112E-01  0.12952768446E+00  0.19889772952E-01 0.  0.
         14    1    1    2    0    0  0.17739429532E-01 -0.87252015235E-03  0.15412647147E-01  0.23515916814E-01  0.00000000000E+00 0. -1.
     999901    1    3    3    0    0 -0.12982741496E+00  0.29779352299E-01  0.39199590965E-01  0.89088639872E+00  0.88000000000E+00 0.  1.
        -11    1    4    4    0    0  0.15075809694E-01  0.11296671916E-02 -0.12350657858E-01  0.19528339828E-01  0.51100000000E-03 0. -1.
         11    1    4    4    0    0  0.97012175736E-01 -0.30036499339E-01 -0.42261580254E-01  0.10999934463E+00  0.51100000000E-03 0.  1.
</event>
<event>
 8    1  0.1112171E+005  0.1043930E+01  0.7957747E-01            NaN
         13   -1    0    0    0    0  0.00000000000E+00  0.00000000000E+00  0.74505805969E-08  0.10566000000E+00  0.10566000000E+00 0. -1.
     999900   -1    0    0    0    0 -0.00000000000E+00 -0.00000000000E+00 -0.74505805969E-08  0.93827000000E+00  0.93827000000E+00 0.  1.
     999902    2    1    2    0    0 -0.12569740627E-01  0.23271713671E-03 -0.18133256821E-01  0.10218649249E+01  0.10216266721E+01 0.  0.
     999903    2    3    3    0    0  0.47800347326E-01  0.10910126041E+00 -0.53880841674E-01  0.13238485369E+00  0.20848169231E-01 0.  0.
         14    1    1    2    0    0  0.12569740627E-01 -0.23271713671E-03  0.18133256821E-01  0.22065075111E-01  0.00000000000E+00 0. -1.
     999901    1    3    3    0    0 -0.60370087952E-01 -0.10886854327E+00  0.35747584853E-01  0.88948007120E+00  0.88000000000E+00 0.  1.
        -11    1    4    4    0    0  0.38325201614E-01  0.62500276601E-01 -0.34533395539E-01  0.81042718257E-01  0.51100000000E-03 0.  1.
         11    1    4    4    0    0  0.94751457114E-02  0.46600983808E-01 -0.19347446135E-01  0.51342135436E-01  0.51100000000E-03 0. -1.
</event>
<event>
 8    1  0.1112171E+005  0.1043930E+01  0.7957747E-01            NaN
         13   -1    0    0    0    0  0.00000000000E+00  0.00000000000E+00  0.74505805969E-08  0.10566000000E+00  0.10566000000E+00 0. -1.
     999900   -1    0    0    0    0 -0.00000000000E+00 -0.00000000000E+00 -0.74505805969E-08  0.93827000000E+00  0.93827000000E+00 0. -1.
     999902    2    1    2    0    0  0.26192292639E-01  0.42483208199E-02  0.32587238673E-02  0.10171960571E+01  0.10168446857E+01 0.  0.
     999903    2    3    3    0    0  0.22666102412E-01  0.12528124379E+00 -0.36658692990E-02  0.12887778502E+00  0.19669840620E-01 0.  0.
         14    1    1    2    0    0 -0.26192292639E-01 -0.42483208199E-02 -0.32587238673E-02  0.26733942933E-01  0.00000000000E+00 0.  1.
     999901    1    3    3    0    0  0.35261902268E-02 -0.12103292297E+00  0.69245931664E-02  0.88831827205E+00  0.88000000000E+00 0.  1.
        -11    1    4    4    0    0  0.44813779785E-02  0.73817419988E-01 -0.63507423689E-02  0.74227267846E-01  0.51100000000E-03 0. -1.
         11    1    4    4    0    0  0.18184724434E-01  0.51463823803E-01  0.26848730698E-02  0.54650517175E-01  0.51100000000E-03 0.  1.
</event>
<event>
 8    1  0.1112171E+005  0.1043930E+01  0.7957747E-01            NaN
         13   -1    0    0    0    0  0.00000000000E+00  0.00000000000E+00  0.74505805969E-08  0.10566000000E+00  0.10566000000E+00 0. -1.
     999900   -1    0    0    0    0 -0.00000000000E+00 -0.00000000000E+00 -0.74505805969E-08  0.93827000000E+00  0.93827000000E+00 0. -1.
     999902    2    1    2    0    0 -0.15104989839E-01 -0.17099189948E-01 -0.51807425848E-02  0.10205337800E+01  0.10202655601E+01 0.  0.
     999903    2    3    3    0    0 -0.12827275659E+00 -0.19461574293E-01  0.20867033124E-01  0.13290153022E+00  0.19867830924E-01 0.  0.
         14    1    1    2    0    0  0.15104989839E-01  0.17099189948E-01  0.51807425848E-02  0.23396219965E-01  0.00000000000E+00 0. -1.
     999901    1    3    3    0    0  0.11316776675E+00  0.23623843457E-02 -0.26047775709E-01  0.88763224981E+00  0.88000000000E+00 0. -1.
        -11    1    4    4    0    0 -0.44625587025E-01 -0.15691842360E-01  0.11175116783E-01  0.48608860201E-01  0.51100000000E-03 0.  1.
         11    1    4    4    0    0 -0.83647169568E-01 -0.37697319338E-02  0.96919163407E-02  0.84292670019E-01  0.51100000000E-03 0. -1.
</event>
<event>
 8    1  0.1112171E+005  0.1043930E+01  0.7957747E-01            NaN
         13   -1    0    0    0    0  0.00000000000E+00  0.00000000000E+00  0.74505805969E-08  0.10566000000E+00  0.10566000000E+00 0. -1.
     999900   -1    0    0    0    0 -0.00000000000E+00 -0.00000000000E+00 -0.74505805969E-08  0.93827000000E+00  0.93827000000E+00 0.  1.
     999902    2    1    2    0    0  0.28114020422E-02 -0.13674614955E-01  0.19527876947E-01  0.10199250619E+01  0.10196425329E+01 0.  0.
     999903    2    3    3    0    0 -0.93433734571E-03  0.38194280497E-01 -0.11986959804E+00  0.12743636789E+00  0.20288698297E-01 0.  0.
         14    1    1    2    0    0 -0.28114020422E-02  0.13674614955E-01 -0.19527876947E-01  0.24004938110E-01  0.00000000000E+00 0.  1.
     999901    1    3    3    0    0  0.37457393879E-02 -0.51868895451E-01  0.13939747499E+00  0.89248869400E+00  0.88000000000E+00 0. -1.
        -11    1    4    4    0    0  0.66863794743E-02  0.46438041879E-02 -0.33173279212E-01  0.34161384083E-01  0.51100000000E-03 0. -1.
         11    1    4    4    0    0 -0.76207168200E-02  0.33550476309E-01 -0.86696318828E-01  0.93274983810E-01  0.51100000000E-03 0.  1.
</event>
<event>
 8    1  0.1112171E+005  0.1043930E+01  0.7957747E-01            NaN
         13   -1    0    0    0    0  0.00000000000E+00  0.00000000000E+00  0.74505805969E-08  0.10566000000E+00  0.10566000000E+00 0.  1.
     999900   -1    0    0    0    0 -0.00000000000E+00 -0.00000000000E+00 -0.74505805969E-08  0.93827000000E+00  0.93827000000E+00 0. -1.
     999902    2    1    2    0    0  0.17143684375E-01  0.15373459209E-01  0.57435812842E-02  0.10201973666E+01  0.10199212857E+01 0.  0.
     999903    2    3    3    0    0  0.44303513261E-01 -0.29283227680E-02  0.12257688414E+00  0.13187161994E+00  0.19840747456E-01 0.  0.
         14    1    1    2    0    0 -0.17143684375E-01 -0.15373459209E-01 -0.57435812842E-02  0.23732633397E-01  0.00000000000E+00 0.  1.
     999901    1    3    3    0    0 -0.27159828887E-01  0.18301781977E-01 -0.11683330285E+00  0.88832574666E+00  0.88000000000E+00 0. -1.
        -11    1    4    4    0    0  0.10571311544E-01 -0.65614622593E-02  0.17693685891E-01  0.21636382696E-01  0.51100000000E-03 0. -1.
         11    1    4    4    0    0  0.33732201718E-01  0.36331394913E-02  0.10488319825E+00  0.11023523724E+00  0.51100000000E-03 0.  1.
</event>
<event>
 8    1  0.1112171E+005  0.1043930E+01  0.7957747E-01            NaN
         13   -1    0    0    0    0  0.00000000000E+00  0.00000000000E+00  0.74505805969E-08  0.10566000000E+00  0.10566000000E+00 0. -1.
     999900   -1    0    0    0    0 -0.00000000000E+00 -0.00000000000E+00 -0.74505805969E-08  0.93827000000E+00  0.93827000000E+00 0. -1.
     999902    2    1    2    0    0  0.61636795050E-02 -0.19281427755E-01 -0.12315321005E-01  0.10202354535E+01  0.10199602684E+01 0.  0.
     999903    2    3    3    0    0 -0.47897241301E-01  0.22075606960E-01 -0.11850677079E+00  0.13124185878E+00  0.19977302797E-01 0.  0.
         14    1    1    2    0    0 -0.61636795050E-02  0.19281427755E-01  0.12315321005E-01  0.23694546477E-01  0.00000000000E+00 0. -1.
     999901    1    3    3    0    0  0.54060920806E-01 -0.41357034715E-01  0.10619144979E+00  0.88899359474E+00  0.88000000000E+00 0.  1.
        -11    1    4    4    0    0 -0.40064292912E-02  0.88210850136E-02 -0.30518876360E-01  0.32023834120E-01  0.51100000000E-03 0. -1.
         11    1    4    4    0    0 -0.43890812010E-01  0.13254521947E-01 -0.87987894430E-01  0.99218024664E-01  0.51100000000E-03 0.  1.
</event>
<event>
 8    1  0.1112171E+005  0.1043930E+01  0.7957747E-01            NaN
         13   -1    0    0    0    0  0.00000000000E+00  0.00000000000E+00  0.74505805969E-08  0.10566000000E+00  0.10566000000E+00 0.  1.
     999900   -1    0    0    0    0 -0.00000000000E+00 -0.00000000000E+00 -0.74505805969E-08  0.93827000000E+00  0.93827000000E+00 0.  1.
     999902    2    1    2    0    0  0.20040149175E-01 -0.11136177330E-01  0.45617573606E-02  0.10205541224E+01  0.10202863740E+01 0.  0.
     999903    2    3    3    0    0 -0.80152625217E-01 -0.92338843302E-02 -0.98309816418E-01  0.12891250634E+00  0.21069084871E-01 0.  0.
         14    1    1    2    0    0 -0.20040149175E-01  0.11136177330E-01 -0.45617573606E-02  0.23375877624E-01  0.00000000000E+00 0.  1.
     999901    1    3    3    0    0  0.10019277439E+00 -0.19022929995E-02  0.10287157378E+00  0.89164161604E+00  0.88000000000E+00 0. -1.
        -11    1    4    4    0    0 -0.91018781837E-02  0.25870271602E-02 -0.22121147278E-01  0.24065393699E-01  0.51100000000E-03 0. -1.
         11    1    4    4    0    0 -0.71050747033E-01 -0.11820911490E-01 -0.76188669139E-01  0.10484711264E+00  0.51100000000E-03 0.  1.
</event>
<event>
 8    1  0.1112171E+005  0.1043930E+01  0.7957747E-01            NaN
         13   -1    0    0    0    0  0.00000000000E+00  0.00000000000E+00  0.74505805969E-08  0.10566000000E+00  0.10566000000E+00 0. -1.
     999900   -1    0    0    0    0 -0.00000000000E+00 -0.00000000000E+00 -0.74505805969E-08  0.93827000000E+00  0.93827000000E+00 0.  1.
     999902    2    1    2    0    0 -0.14250294098E-01 -0.17622183697E-01 -0.55146415101E-02  0.10206056884E+01  0.10203391337E+01 0.  0.
     999903    2    3    3    0    0 -0.46185989688E-01  0.79515567379E-01  0.89270593328E-01  0.12962876835E+00  0.19455273111E-01 0.  0.
         14    1    1    2    0    0  0.14250294098E-01  0.17622183697E-01  0.55146415101E-02  0.23324311589E-01  0.00000000000E+00 0. -1.
     999901    1    3    3    0    0  0.31935695590E-01 -0.97137751076E-01 -0.94785234838E-01  0.89097692006E+00  0.88000000000E+00 0. -1.
        -11    1    4    4    0    0 -0.19332559385E-01  0.48248905514E-01  0.58045802716E-01  0.77918425739E-01  0.51100000000E-03 0. -1.
         11    1    4    4    0    0 -0.26853430304E-01  0.31266661865E-01  0.31224790612E-01  0.51710342612E-01  0.51100000000E-03 0.  1.
</event>
<event>
 8    1  0.1112171E+005  0.1043930E+01  0.7957747E-01            NaN
         13   -1    0    0    0    0  0.00000000000E+00  0.00000000000E+00  0.74505805969E-08  0.10566000000E+00  0.10566000000E+00 0.  1.
     999900   -1    0    0    0    0 -0.00000000000E+00 -0.00000000000E+00 -0.74505805969E-08  0.93827000000E+00  0.93827000000E+00 0. -1.
     999902    2    1    2    0    0 -0.62894319005E-02 -0.12246242831E-01 -0.18689909526E-01  0.10207170697E+01  0.10204530838E+01 0.  0.
     999903    2    3    3    0    0 -0.48714777030E-01  0.69198635921E-01  0.94842738011E-01  0.12868408807E+00  0.20071593205E-01 0.  0.
         14    1    1    2    0    0  0.62894319005E-02  0.12246242831E-01  0.18689909526E-01  0.23212930345E-01  0.00000000000E+00 0. -1.
     999901    1    3    3    0    0  0.42425345129E-01 -0.81444878752E-01 -0.11353264754E+00  0.89203298159E+00  0.88000000000E+00 0. -1.
        -11    1    4    4    0    0 -0.26747910616E-01  0.22177959690E-01  0.32678776142E-01  0.47701951212E-01  0.51100000000E-03 0. -1.
         11    1    4    4    0    0 -0.21966866414E-01  0.47020676231E-01  0.62163961869E-01  0.80982136855E-01  0.51100000000E-03 0.  1.
</event>
<event>
 8    1  0.1112171E+005  0.1043930E+01  0.7957747E-01            NaN
         13   -1    0    0    0    0  0.00000000000E+00  0.00000000000E+00  0.74505805969E-08  0.10566000000E+00  0.10566000000E+00 0. -1.
     999900   -1    0    0    0    0 -0.00000000000E+00 -0.00000000000E+00 -0.74505805969E-08  0.93827000000E+00  0.93827000000E+00 0. -1.
     999902    2    1    2    0    0 -0.18227951293E-01 -0.10599146170E-01 -0.57710626582E-02  0.10220689554E+01  0.10218351356E+01 0.  0.
     999903    2    3    3    0    0 -0.64144153950E-01  0.11372844909E+00 -0.39602436934E-02  0.13214259456E+00  0.19933618541E-01 0.  0.
         14    1    1    2    0    0  0.18227951293E-01  0.10599146170E-01  0.57710626582E-02  0.21861044625E-01  0.00000000000E+00 0.  1.
     999901    1    3    3    0    0  0.45916202657E-01 -0.12432759526E+00 -0.18108189648E-02  0.88992636082E+00  0.88000000000E+00 0. -1.
        -11    1    4    4    0    0 -0.30252257741E-01  0.73295538124E-01 -0.36880166634E-02  0.79380712992E-01  0.51100000000E-03 0.  1.
         11    1    4    4    0    0 -0.33891896209E-01  0.40432910968E-01 -0.27222702998E-03  0.52761881567E-01  0.51100000000E-03 0. -1.
</event>
<event>
 8    1  0.1112171E+005  0.1043930E+01  0.7957747E-01            NaN
         13   -1    0    0    0    0  0.00000000000E+00  0.00000000000E+00  0.74505805969E-08  0.10566000000E+00  0.10566000000E+00 0.  1.
     999900   -1    0    0    0    0 -0.00000000000E+00 -0.00000000000E+00 -0.74505805969E-08  0.93827000000E+00  0.93827000000E+00 0.  1.
     999902    2    1    2    0    0 -0.19992656402E-02 -0.18531657475E-01  0.16870631194E-01  0.10187896422E+01  0.10184794046E+01 0.  0.
     999903    2    3    3    0    0  0.39000562184E-01 -0.81199757144E-01  0.94992947805E-01  0.13216042269E+00  0.18118299620E-01 0.  0.
         14    1    1    2    0    0  0.19992656402E-02  0.18531657475E-01 -0.16870631194E-01  0.25140357769E-01  0.00000000000E+00 0. -1.
     999901    1    3    3    0    0 -0.40999827824E-01  0.62668099669E-01 -0.78122316611E-01  0.88662921954E+00  0.88000000000E+00 0.  1.
        -11    1    4    4    0    0  0.12147739619E-01 -0.33802728733E-01  0.26476484643E-01  0.44625748259E-01  0.51100000000E-03 0. -1.
         11    1    4    4    0    0  0.26852822565E-01 -0.47397028412E-01  0.68516463161E-01  0.87534674427E-01  0.51100000000E-03 0.  1.
</event>
<event>
 8    1  0.1112171E+005  0.1043930E+01  0.7957747E-01            NaN
         13   -1    0    0    0    0  0.00000000000E+00  0.00000000000E+00  0.74505805969E-08  0.10566000000E+00  0.10566000000E+00 0. -1.
     999900   -1    0    0    0    0 -0.00000000000E+00 -0.00000000000E+00 -0.74505805969E-08  0.93827000000E+00  0.93827000000E+00 0. -1.
     999902    2    1    2    0    0 -0.15134169742E-01 -0.11892475295E-01 -0.15629357781E-01  0.10191358296E+01  0.10188341809E+01 0.  0.
     999903    2    3    3    0    0  0.96588348535E-01 -0.72878995935E-01  0.37803035649E-01  0.12837419061E+00  0.20253547553E-01 0.  0.
         14    1    1    2    0    0  0.15134169742E-01  0.11892475295E-01  0.15629357781E-01  0.24794170425E-01  0.00000000000E+00 0. -1.
     999901    1    3    3    0    0 -0.11172251828E+00  0.60986520641E-01 -0.53432393430E-01  0.89076163897E+00  0.88000000000E+00 0. -1.
        -11    1    4    4    0    0  0.49696118365E-01 -0.49809323393E-01  0.23619653237E-01  0.74221439069E-01  0.51100000000E-03 0. -1.
         11    1    4    4    0    0  0.46892230170E-01 -0.23069672543E-01  0.14183382412E-01  0.54152751538E-01  0.51100000000E-03 0.  1.
</event>
<event>
 8    1  0.1112171E+005  0.1043930E+01  0.7957747E-01            NaN
         13   -1    0    0    0    0  0.00000000000E+00  0.00000000000E+00  0.74505805969E-08  0.10566000000E+00  0.10566000000E+00 0. -1.
     999900   -1    0    0    0    0 -0.00000000000E+00 -0.00000000000E+00 -0.74505805969E-08  0.93827000000E+00  0.93827000000E+00 0. -1.
     999902    2    1    2    0    0 -0.23785116474E-02 -0.18582495284E-01 -0.13846674201E-01  0.10206341455E+01  0.10203682483E+01 0.  0.
     999903    2    3    3    0    0  0.14950540108E-01 -0.11843150111E+00  0.54340690062E-01  0.13219752054E+00  0.16544930803E-01 0.  0.
         14    1    1    2    0    0  0.23785116474E-02  0.18582495284E-01  0.13846674201E-01  0.23295854461E-01  0.00000000000E+00 0. -1.
     999901    1    3    3    0    0 -0.17329051756E-01  0.99849005826E-01 -0.68187364263E-01  0.88843662500E+00  0.88000000000E+00 0. -1.
        -11    1    4    4    0    0  0.81043262491E-02 -0.60314769364E-01  0.36732330125E-01  0.71084996341E-01  0.51100000000E-03 0.  1.
         11    1    4    4    0    0  0.68462138591E-02 -0.58116731746E-01  0.17608359937E-01  0.61112524197E-01  0.51100000000E-03 0. -1.
</event>
<event>
 8    1  0.1112171E+005  0.1043930E+01  0.7957747E-01            NaN
         13   -1    0    0    0    0  0.00000000000E+00  0.00000000000E+00  0.74505805969E-08  0.10566000000E+00  0.10566000000E+00 0.  1.
     999900   -1    0    0    0    0 -0.00000000000E+00 -0.00000000000E+00 -0.74505805969E-08  0.93827000000E+00  0.93827000000E+00 0. -1.
     999902    2    1    2    0    0  0.16934493804E-02 -0.11686125271E-01  0.20613920226E-01  0.10201735903E+01  0.10198969494E+01 0.  0.
     999903    2    3    3    0    0 -0.26416796273E-01  0.12227159714E+00 -0.22644228594E-01  0.12854243072E+00  0.19031679176E-01 0.  0.
         14    1    1    2    0    0 -0.16934493804E-02  0.11686125271E-01 -0.20613920226E-01  0.23756409698E-01  0.00000000000E+00 0. -1.
     999901    1    3    3    0    0  0.28110245654E-01 -0.13395772242E+00  0.43258148819E-01  0.89163115959E+00  0.88000000000E+00 0.  1.
        -11    1    4    4    0    0 -0.21694169086E-01  0.76622618724E-01 -0.65429248513E-02  0.79904528402E-01  0.51100000000E-03 0. -1.
         11    1    4    4    0    0 -0.47226271874E-02  0.45648978420E-01 -0.16101303742E-01  0.48637902314E-01  0.51100000000E-03 0.  1.
</event>
<event>
 8    1  0.1112171E+005  0.1043930E+01  0.7957747E-01            NaN
         13   -1    0    0    0    0  0.00000000000E+00  0.00000000000E+00  0.74505805969E-08  0.10566000000E+00  0.10566000000E+00 0.  1.
     999900   -1    0    0    0    0 -0.00000000000E+00 -0.00000000000E+00 -0.74505805969E-08  0.93827000000E+00  0.93827000000E+00 0.  1.
     999902    2    1    2    0    0  0.56217551250E-02  0.22903052651E-01 -0.10944597613E-02  0.10203217007E+01  0.10200485387E+01 0.  0.
     999903    2    3    3    0    0  0.54706164092E-01  0.88212254682E-01 -0.80552227402E-01  0.13297277957E+00  0.20467840680E-01 0.  0.
         14    1    1    2    0    0 -0.56217551250E-02 -0.22903052651E-01  0.10944597613E-02  0.23608299252E-01  0.00000000000E+00 0. -1.
     999901    1    3    3    0    0 -0.49084408967E-01 -0.65309202031E-01  0.79457767640E-01  0.88734892118E+00  0.88000000000E+00 0. -1.
        -11    1    4    4    0    0  0.42856049840E-01  0.50596939918E-01 -0.48586623937E-01  0.82204698671E-01  0.51100000000E-03 0.  1.
         11    1    4    4    0    0  0.11850114252E-01  0.37615314764E-01 -0.31965603464E-01  0.50768080901E-01  0.51100000000E-03 0. -1.
</event>
<event>
 8    1  0.1112171E+005  0.1043930E+01  0.7957747E-01            NaN
         13   -1    0    0    0    0  0.00000000000E+00  0.00000000000E+00  0.74505805969E-08  0.10566000000E+00  0.10566000000E+00 0.  1.
     999900   -1    0    0    0    0 -0.00000000000E+00 -0.00000000000E+00 -0.74505805969E-08  0.93827000000E+00  0.93827000000E+00 0.  1.
     999902    2    1    2    0    0  0.90946867828E-02 -0.11481126467E-01 -0.18988738118E-01  0.10199487205E+01  0.10196667547E+01 0.  0.
     999903    2    3    3    0    0 -0.12760062487E+00  0.12601484677E-03 -0.24234264367E-02  0.12916550133E+00  0.19897698124E-01 0.  0.
         14    1    1    2    0    0 -0.90946867828E-02  0.11481126467E-01  0.18988738118E-01  0.23981279531E-01  0.00000000000E+00 0.  1.
     999901    1    3    3    0    0  0.13669531165E+00 -0.11607141314E-01 -0.16565311681E-01  0.89078321914E+00  0.88000000000E+00 0.  1.
        -11    1    4    4    0    0 -0.10738542145E+00  0.48951792805E-02 -0.75595449769E-02  0.10776362727E+00  0.51100000000E-03 0. -1.
         11    1    4    4    0    0 -0.20215203415E-01 -0.47691644338E-02  0.51361185402E-02  0.21401874058E-01  0.51100000000E-03 0.  1.
</event>
<event>
 8    1  0.1112171E+005  0.1043930E+01  0.7957747E-01            NaN
         13   -1    0    0    0    0  0.00000000000E+00  0.00000000000E+00  0.74505805969E-08  0.10566000000E+00  0.10566000000E+00 0.  1.
     999900   -1    0    0    0    0 -0.00000000000E+00 -0.00000000000E+00 -0.74505805969E-08  0.93827000000E+00  0.93827000000E+00 0.  1.
     999902    2    1    2    0    0  0.11233358017E-01 -0.18534608242E-01  0.93139908728E-02  0.10203403739E+01  0.10200676488E+01 0.  0.
     999903    2    3    3    0    0  0.11162279401E+00 -0.16816072855E-01 -0.64440263900E-01  0.13156555294E+00  0.20359731351E-01 0.  0.
         14    1    1    2    0    0 -0.11233358017E-01  0.18534608242E-01 -0.93139908728E-02  0.23589626131E-01  0.00000000000E+00 0.  1.
     999901    1    3    3    0    0 -0.10038943599E+00 -0.17185353872E-02  0.73754254772E-01  0.88877482093E+00  0.88000000000E+00 0. -1.
        -11    1    4    4    0    0  0.60455440223E-01  0.16206085048E-03 -0.29053374245E-01  0.67076420539E-01  0.51100000000E-03 0. -1.
         11    1    4    4    0    0  0.51167353783E-01 -0.16978133706E-01 -0.35386889655E-01  0.64489132400E-01  0.51100000000E-03 0.  1.
</event>
<event>
 8    1  0.1112171E+005  0.1043930E+01  0.7957747E-01            NaN
         13   -1    0    0    0    0  0.00000000000E+00  0.00000000000E+00  0.74505805969E-08  0.10566000000E+00  0.10566000000E+00 0.  1.
     999900   -1    0    0    0    0 -0.00000000000E+00 -0.00000000000E+00 -0.74505805969E-08  0.93827000000E+00  0.93827000000E+00 0. -1.
     999902    2    1    2    0    0  0.23885860830E-01  0.96916517899E-02 -0.76709072406E-02  0.10170356645E+01  0.10166800075E+01 0.  0.
     999903    2    3    3    0    0  0.48202614831E-01 -0.40802670478E-01  0.10885660609E+00  0.12758659772E+00  0.20981640380E-01 0.  0.
         14    1    1    2    0    0 -0.23885860830E-01 -0.96916517899E-02  0.76709072406E-02  0.26894335461E-01  0.00000000000E+00 0. -1.
     999901    1    3    3    0    0 -0.24316754001E-01  0.50494322268E-01 -0.11652751333E+00  0.88944906682E+00  0.88000000000E+00 0. -1.
        -11    1    4    4    0    0  0.39337537687E-01 -0.29346687878E-01  0.97558592509E-01  0.10920902002E+00  0.51100000000E-03 0. -1.
         11    1    4    4    0    0  0.88650771442E-02 -0.11455982601E-01  0.11298013581E-01  0.18377577697E-01  0.51100000000E-03 0.  1.
</event>
<event>
 8    1  0.1112171E+005  0.1043930E+01  0.7957747E-01            NaN
         13   -1    0    0    0    0  0.00000000000E+00  0.00000000000E+00  0.74505805969E-08  0.10566000000E+00  0.10566000000E+00 0.  1.
     999900   -1    0    0    0    0 -0.00000000000E+00 -0.00000000000E+00 -0.74505805969E-08  0.93827000000E+00  0.93827000000E+00 0.  1.
     999902    2    1    2    0    0  0.11821461403E-01  0.15727789049E-01  0.14880669610E-01  0.10192613027E+01  0.10189627366E+01 0.  0.
     999903    2    3    3    0    0  0.63465101726E-01  0.19242408754E-01  0.11296603518E+00  0.13230011016E+00  0.18544665370E-01 0.  0.
         14    1    1    2    0    0 -0.11821461403E-01 -0.15727789049E-01 -0.14880669610E-01  0.24668697293E-01  0.00000000000E+00 0. -1.
     999901    1    3    3    0    0 -0.51643640323E-01 -0.35146197053E-02 -0.98085365570E-01  0.88696119254E+00  0.88000000000E+00 0.  1.
        -11    1    4    4    0    0  0.46227307110E-01  0.55801353278E-02  0.82260003679E-01  0.94525505336E-01  0.51100000000E-03 0.  1.
         11    1    4    4    0    0  0.17237794617E-01  0.13662273427E-01  0.30706031501E-01  0.37774604828E-01  0.51100000000E-03 0. -1.
</event>
<event>
 8    1  0.1112171E+005  0.1043930E+01  0.7957747E-01            NaN
         13   -1    0    0    0    0  0.00000000000E+00  0.00000000000E+00  0.74505805969E-08  0.10566000000E+00  0.10566000000E+00 0.  1.
     999900   -1    0    0    0    0 -0.00000000000E+00 -0.00000000000E+00 -0.74505805969E-08  0.93827000000E+00  0.93827000000E+00 0. -1.
     999902    2    1    2    0    0 -0.22267742833E-01  0.87706945105E-02  0.31670130011E-02  0.10197885952E+01  0.10195028060E+01 0.  0.
     999903    2    3    3    0    0  0.43014586682E-01  0.62631882168E-02  0.12041464643E+00  0.12961160289E+00  0.20248415639E-01 0.  0.
         14    1    1    2    0    0  0.22267742833E-01 -0.87706945105E-02 -0.31670130011E-02  0.24141404773E-01  0.00000000000E+00 0. -1.
     999901    1    3    3    0    0 -0.65282329515E-01  0.25075062937E-02 -0.11724763343E+00  0.89017699233E+00  0.88000000000E+00 0. -1.
        -11    1    4    4    0    0  0.58577310691E-02  0.14647776558E-02  0.38653847716E-02  0.71875522461E-02  0.51100000000E-03 0.  1.
         11    1    4    4    0    0  0.37156855613E-01  0.47984105610E-02  0.11654926166E+00  0.12242405065E+00  0.51100000000E-03 0. -1.
</event>
<event>
 8    1  0.1112171E+005  0.1043930E+01  0.7957747E-01            NaN
         13   -1    0    0    0    0  0.00000000000E+00  0.00000000000E+00  0.74505805969E-08  0.10566000000E+00  0.10566000000E+00 0.  1.
     999900   -1    0    0    0    0 -0.00000000000E+00 -0.00000000000E+00 -0.74505805969E-08  0.93827000000E+00  0.93827000000E+00 0.  1.
     999902    2    1    2    0    0 -0.54204949602E-02  0.65699879755E-02 -0.23214005465E-01  0.10192027568E+01  0.10189027544E+01 0.  0.
     999903    2    3    3    0    0  0.19426955353E-02 -0.11275200867E+00 -0.62068769521E-01  0.13026988634E+00  0.20023027071E-01 0.  0.
         14    1    1    2    0    0  0.54204949602E-02 -0.65699879755E-02  0.23214005465E-01  0.24727243221E-01  0.00000000000E+00 0.  1.
     999901    1    3    3    0    0 -0.73631904955E-02  0.11932199664E+00  0.38854764056E-01  0.88893287044E+00  0.88000000000E+00 0. -1.
        -11    1    4    4    0    0 -0.10531827965E-02 -0.31944436203E-01 -0.28097801807E-01  0.42559414771E-01  0.51100000000E-03 0.  1.
         11    1    4    4    0    0  0.29958783318E-02 -0.80807572463E-01 -0.33970967714E-01  0.87710471568E-01  0.51100000000E-03 0. -1.
</event>
<event>
 8    1  0.1112171E+005  0.1043930E+01  0.7957747E-01            NaN
         13   -1    0    0    0    0  0.00000000000E+00  0.00000000000E+00  0.74505805969E-08  0.10566000000E+00  0.10566000000E+00 0.  1.
     999900   -1    0    0    0    0 -0.00000000000E+00 -0.00000000000E+00 -0.74505805969E-08  0.93827000000E+00  0.93827000000E+00 0. -1.
     999902    2    1    2    0    0  0.12133078357E-01 -0.19937267596E-01 -0.31034990624E-02  0.10203856177E+01  0.10201139500E+01 0.  0.
     999903    2    3    3    0    0 -0.34025847291E-02 -0.10824770275E+00 -0.74774319815E-01  0.13293038150E+00  0.18712153457E-01 0.  0.
         14    1    1    2    0    0 -0.12133078357E-01  0.19937267596E-01  0.31034990624E-02  0.23544382261E-01  0.00000000000E+00 0.  1.
     999901    1    3    3    0    0  0.15535663086E-01  0.88310435158E-01  0.71670820752E-01  0.88745523624E+00  0.88000000000E+00 0.  1.
        -11    1    4    4    0    0 -0.77790180145E-02 -0.23606496605E-01 -0.13023286482E-01  0.28065047925E-01  0.51100000000E-03 0.  1.
         11    1    4    4    0    0  0.43764332854E-02 -0.84641206149E-01 -0.61751033333E-01  0.10486533357E+00  0.51100000000E-03 0. -1.
</event>
<event>
 8    1  0.1112171E+005  0.1043930E+01  0.7957747E-01            NaN
         13   -1    0    0    0    0  0.00000000000E+00  0.00000000000E+00  0.74505805969E-08  0.10566000000E+00  0.10566000000E+00 0.  1.
     999900   -1    0    0    0    0 -0.00000000000E+00 -0.00000000000E+00 -0.74505805969E-08  0.93827000000E+00  0.93827000000E+00 0. -1.
     999902    2    1    2    0    0  0.13420839302E-01 -0.78032523392E-03  0.23282058544E-01  0.10170453932E+01  0.10166899968E+01 0.  0.
     999903    2    3    3    0    0  0.10877058367E+00 -0.53200604897E-01  0.43126027874E-01  0.13012192262E+00  0.20261200172E-01 0.  0.
         14    1    1    2    0    0 -0.13420839302E-01  0.78032523392E-03 -0.23282058544E-01  0.26884606843E-01  0.00000000000E+00 0. -1.
     999901    1    3    3    0    0 -0.95349744370E-01  0.52420279663E-01 -0.19843969331E-01  0.88692347054E+00  0.88000000000E+00 0. -1.
        -11    1    4    4    0    0  0.11998222274E-01 -0.17900878815E-02  0.97440850970E-02  0.15568239070E-01  0.51100000000E-03 0.  1.
         11    1    4    4    0    0  0.96772361398E-01 -0.51410517016E-01  0.33381942777E-01  0.11455368355E+00  0.51100000000E-03 0. -1.
</event>
<event>
 8    1  0.1112171E+005  0.1043930E+01  0.7957747E-01            NaN
         13   -1    0    0    0    0  0.00000000000E+00  0.00000000000E+00  0.74505805969E-08  0.10566000000E+00  0.10566000000E+00 0.  1.
     999900   -1    0    0    0    0 -0.00000000000E+00 -0.00000000000E+00 -0.74505805969E-08  0.93827000000E+00  0.93827000000E+00 0. -1.
     999902    2    1    2    0    0  0.24135793463E-01 -0.27006675293E-01  0.44469731578E-02  0.10074379104E+01  0.10067767730E+01 0.  0.
     999903    2    3    3    0    0 -0.69308916397E-01 -0.94957169694E-01  0.11898253477E-01  0.11985427764E+00  0.20072106602E-01 0.  0.
         14    1    1    2    0    0 -0.24135793463E-01  0.27006675293E-01 -0.44469731578E-02  0.36492089646E-01  0.00000000000E+00 0.  1.
     999901    1    3    3    0    0  0.93444709860E-01  0.67950494401E-01 -0.74512803191E-02  0.88758363272E+00  0.88000000000E+00 0.  1.
        -11    1    4    4    0    0 -0.46756061494E-01 -0.75754406887E-01  0.36299991756E-02  0.89097123771E-01  0.51100000000E-03 0.  1.
         11    1    4    4    0    0 -0.22552854903E-01 -0.19202762807E-01  0.82682543013E-02  0.30757153865E-01  0.51100000000E-03 0. -1.
</event>
<event>
 8    1  0.1112171E+005  0.1043930E+01  0.7957747E-01            NaN
         13   -1    0    0    0    0  0.00000000000E+00  0.00000000000E+00  0.74505805969E-08  0.10566000000E+00  0.10566000000E+00 0.  1.
     999900   -1    0    0    0    0 -0.00000000000E+00 -0.00000000000E+00 -0.74505805969E-08  0.93827000000E+00  0.93827000000E+00 0.  1.
     999902    2    1    2    0    0 -0.28518640410E-02  0.14631114520E-01  0.17918563365E-01  0.10206216849E+01  0.10203554999E+01 0.  0.
     999903    2    3    3    0    0 -0.12102830743E+00 -0.42922234476E-01 -0.93228760939E-02  0.13044184026E+00  0.20928169009E-01 0.  0.
         14    1    1    2    0    0  0.28518640410E-02 -0.14631114520E-01 -0.17918563365E-01  0.23308315118E-01  0.00000000000E+00 0. -1.
     999901    1    3    3    0    0  0.11817644339E+00  0.57553348996E-01  0.27241439459E-01  0.89017984463E+00  0.88000000000E+00 0.  1.
        -11    1    4    4    0    0 -0.41590534790E-01 -0.16114330202E-01 -0.13179330600E-01  0.46512365002E-01  0.51100000000E-03 0.  1.
         11    1    4    4    0    0 -0.79437772644E-01 -0.26807904274E-01  0.38564545059E-02  0.83929475255E-01  0.51100000000E-03 0. -1.
</event>
<event>
 8    1  0.1112171E+005  0.1043930E+01  0.7957747E-01            NaN
         13   -1    0    0    0    0  0.00000000000E+00  0.00000000000E+00  0.74505805969E-08  0.10566000000E+00  0.10566000000E+00 0. -1.
     999900   -1    0    0    0    0 -0.00000000000E+00 -0.00000000000E+00 -0.74505805969E-08  0.93827000000E+00  0.93827000000E+00 0.  1.
     999902    2    1    2    0    0 -0.21283790517E-01 -0.94544781628E-02  0.24573468691E-02  0.10205115148E+01  0.10202427781E+01 0.  0.
     999903    2    3    3    0    0 -0.11467420211E+00  0.58956568008E-01 -0.23084714735E-01  0.13256205838E+00  0.20340740594E-01 0.  0.
         14    1    1    2    0    0  0.21283790517E-01  0.94544781628E-02 -0.24573468691E-02  0.23418485214E-01  0.00000000000E+00 0.  1.
     999901    1    3    3    0    0  0.93390411590E-01 -0.68411046171E-01  0.25542061604E-01  0.88794945640E+00  0.88000000000E+00 0.  1.
        -11    1    4    4    0    0 -0.65591640925E-02  0.70867909135E-02 -0.61433017257E-02  0.11456287188E-01  0.51100000000E-03 0.  1.
         11    1    4    4    0    0 -0.10811503801E+00  0.51869777095E-01 -0.16941413010E-01  0.12110577119E+00  0.51100000000E-03 0. -1.
</event>
<event>
 8    1  0.1112171E+005  0.1043930E+01  0.7957747E-01            NaN
         13   -1    0    0    0    0  0.00000000000E+00  0.00000000000E+00  0.74505805969E-08  0.10566000000E+00  0.10566000000E+00 0.  1.
     999900   -1    0    0    0    0 -0.00000000000E+00 -0.00000000000E+00 -0.74505805969E-08  0.93827000000E+00  0.93827000000E+00 0. -1.
     999902    2    1    2    0    0  0.23369590535E-01 -0.16285857361E-02  0.57063184268E-02  0.10198187553E+01  0.10195336882E+01 0.  0.
     999903    2    3    3    0    0  0.82936513091E-01 -0.10046067243E+00 -0.10011829650E-01  0.13214592149E+00  0.19786255955E-01 0.  0.
         14    1    1    2    0    0 -0.23369590535E-01  0.16285857361E-02 -0.57063184268E-02  0.24111244747E-01  0.00000000000E+00 0.  1.
     999901    1    3    3    0    0 -0.59566922556E-01  0.98832086693E-01  0.15718148077E-01  0.88767283376E+00  0.88000000000E+00 0.  1.
        -11    1    4    4    0    0  0.31411579203E-01 -0.23888865985E-01 -0.24942204627E-02  0.39545511538E-01  0.51100000000E-03 0. -1.
         11    1    4    4    0    0  0.51524933888E-01 -0.76571806444E-01 -0.75176091870E-02  0.92600409952E-01  0.51100000000E-03 0.  1.
</event>
<event>
 8    1  0.1112171E+005  0.1043930E+01  0.7957747E-01            NaN
         13   -1    0    0    0    0  0.00000000000E+00  0.00000000000E+00  0.74505805969E-08  0.10566000000E+00  0.10566000000E+00 0. -1.
     999900   -1    0    0    0    0 -0.00000000000E+00 -0.00000000000E+00 -0.74505805969E-08  0.93827000000E+00  0.93827000000E+00 0.  1.
     999902    2    1    2    0    0 -0.43683205735E-02 -0.11363503772E-01 -0.16920371344E-01  0.10230850867E+01  0.10228727117E+01 0.  0.
     999903    2    3    3    0    0  0.72282331707E-01 -0.92233264612E-01 -0.63689354517E-01  0.13482691565E+00  0.19754815278E-01 0.  0.
         14    1    1    2    0    0  0.43683205735E-02  0.11363503772E-01  0.16920371344E-01  0.20844913265E-01  0.00000000000E+00 0. -1.
     999901    1    3    3    0    0 -0.76650652280E-01  0.80869760841E-01  0.46768983173E-01  0.88825817109E+00  0.88000000000E+00 0. -1.
        -11    1    4    4    0    0  0.43455634168E-01 -0.39475920540E-01 -0.31972521894E-01  0.66852402505E-01  0.51100000000E-03 0. -1.
         11    1    4    4    0    0  0.28826697539E-01 -0.52757344073E-01 -0.31716832623E-01  0.67974513144E-01  0.51100000000E-03 0.  1.
</event>
<event>
 8    1  0.1112171E+005  0.1043930E+01  0.7957747E-01            NaN
         13   -1    0    0    0    0  0.00000000000E+00  0.00000000000E+00  0.74505805969E-08  0.10566000000E+00  0.10566000000E+00 0.  1.
     999900   -1    0    0    0    0 -0.00000000000E+00 -0.00000000000E+00 -0.74505805969E-08  0.93827000000E+00  0.93827000000E+00 0. -1.
     999902    2    1    2    0    0 -0.31638092110E-02 -0.23967909228E-01  0.97086132738E-04  0.10197539832E+01  0.10194673641E+01 0.  0.
     999903    2    3    3    0    0 -0.25895252356E-01  0.71805917270E-01  0.10126283077E+00  0.12850550371E+00  0.20805041184E-01 0.  0.
         14    1    1    2    0    0  0.31638092110E-02  0.23967909228E-01 -0.97086132738E-04  0.24176016777E-01  0.00000000000E+00 0. -1.
     999901    1    3    3    0    0  0.22731443145E-01 -0.95773826498E-01 -0.10116574463E+00  0.89124847951E+00  0.88000000000E+00 0.  1.
        -11    1    4    4    0    0 -0.20532760771E-01  0.36499111240E-01  0.66999151158E-01  0.79012193762E-01  0.51100000000E-03 0. -1.
         11    1    4    4    0    0 -0.53624915845E-02  0.35306806030E-01  0.34263679610E-01  0.49493309947E-01  0.51100000000E-03 0.  1.
</event>
<event>
 8    1  0.1112171E+005  0.1043930E+01  0.7957747E-01            NaN
         13   -1    0    0    0    0  0.00000000000E+00  0.00000000000E+00  0.74505805969E-08  0.10566000000E+00  0.10566000000E+00 0.  1.
     999900   -1    0    0    0    0 -0.00000000000E+00 -0.00000000000E+00 -0.74505805969E-08  0.93827000000E+00  0.93827000000E+00 0.  1.
     999902    2    1    2    0    0  0.80886762521E-02 -0.22037858204E-01 -0.36485779311E-02  0.10201727696E+01  0.10198961093E+01 0.  0.
     999903    2    3    3    0    0  0.11067020214E+00  0.38130648481E-01 -0.54422075030E-01  0.13072284591E+00  0.20612137166E-01 0.  0.
         14    1    1    2    0    0 -0.80886762521E-02  0.22037858204E-01  0.36485779311E-02  0.23757230450E-01  0.00000000000E+00 0.  1.
     999901    1    3    3    0    0 -0.10258152588E+00 -0.60168506685E-01  0.50773497099E-01  0.88944992364E+00  0.88000000000E+00 0. -1.
        -11    1    4    4    0    0  0.33513263718E-01  0.12384457480E-01 -0.27341502042E-01  0.44992582578E-01  0.51100000000E-03 0.  1.
         11    1    4    4    0    0  0.77156938419E-01  0.25746191001E-01 -0.27080572987E-01  0.85730263335E-01  0.51100000000E-03 0. -1.
</event>
<event>
 8    1  0.1112171E+005  0.1043930E+01  0.7957747E-01            NaN
         13   -1    0    0    0    0  0.00000000000E+00  0.00000000000E+00  0.74505805969E-08  0.10566000000E+00  0.10566000000E+00 0.  1.
     999900   -1    0    0    0    0 -0.00000000000E+00 -0.00000000000E+00 -0.74505805969E-08  0.93827000000E+00  0.93827000000E+00 0. -1.
     999902    2    1    2    0    0  0.73909385842E-02 -0.13400820681E-01 -0.18193679716E-01  0.10201556872E+01  0.10198786242E+01 0.  0.
     999903    2    3    3    0    0 -0.19206568008E-01  0.18484971360E-01  0.12338320838E+00  0.12787313870E+00  0.20433723860E-01 0.  0.
         14    1    1    2    0    0 -0.73909385842E-02  0.13400820681E-01  0.18193679716E-01  0.23774312812E-01  0.00000000000E+00 0.  1.
     999901    1    3    3    0    0  0.26597506592E-01 -0.31885792040E-01 -0.14157688809E+00  0.89228254849E+00  0.88000000000E+00 0. -1.
        -11    1    4    4    0    0 -0.73766784506E-02  0.16990784891E-01  0.46281605731E-01  0.49853287818E-01  0.51100000000E-03 0.  1.
         11    1    4    4    0    0 -0.11829889557E-01  0.14941864687E-02  0.77101602648E-01  0.78019850884E-01  0.51100000000E-03 0. -1.
</event>
<event>
 8    1  0.1112171E+005  0.1043930E+01  0.7957747E-01            NaN
         13   -1    0    0    0    0  0.00000000000E+00  0.00000000000E+00  0.74505805969E-08  0.10566000000E+00  0.10566000000E+00 0.  1.
     999900   -1    0    0    0    0 -0.00000000000E+00 -0.00000000000E+00 -0.74505805969E-08  0.93827000000E+00  0.93827000000E+00 0.  1.
     999902    2    1    2    0    0  0.42850689150E-02  0.20445680961E-02 -0.23282411901E-01  0.10201684180E+01  0.10198916552E+01 0.  0.
     999903    2    3    3    0    0  0.11098702947E+00 -0.21429699768E-01  0.59968533217E-01  0.12951300233E+00  0.20001001315E-01 0.  0.
         14    1    1    2    0    0 -0.42850689150E-02 -0.20445680961E-02  0.23282411901E-01  0.23761581981E-01  0.00000000000E+00 0.  1.
     999901    1    3    3    0    0 -0.10670196055E+00  0.23474267864E-01 -0.83250945118E-01  0.89065541569E+00  0.88000000000E+00 0.  1.
        -11    1    4    4    0    0  0.80916582042E-01 -0.21308483716E-01  0.36163896499E-01  0.91157189835E-01  0.51100000000E-03 0. -1.
         11    1    4    4    0    0  0.30070447425E-01 -0.12121605163E-03  0.23804636718E-01  0.38355812492E-01  0.51100000000E-03 0.  1.
</event>
<event>
 8    1  0.1112171E+005  0.1043930E+01  0.7957747E-01            NaN
         13   -1    0    0    0    0  0.00000000000E+00  0.00000000000E+00  0.74505805969E-08  0.10566000000E+00  0.10566000000E+00 0. -1.
     999900   -1    0    0    0    0 -0.00000000000E+00 -0.00000000000E+00 -0.74505805969E-08  0.93827000000E+00  0.93827000000E+00 0.  1.
     999902    2    1    2    0    0  0.74338660234E-02 -0.11203957674E-01  0.19654819641E-01  0.10201160762E+01  0.10198380783E+01 0.  0.
     999903    2    3    3    0    0 -0.28997443449E-01  0.12105990138E+00  0.33726236296E-01  0.12937538807E+00  0.10206888608E-01 0.  0.
         14    1    1    2    0    0 -0.74338660234E-02  0.11203957674E-01 -0.19654819641E-01  0.23813923800E-01  0.00000000000E+00 0.  1.
     999901    1    3    3    0    0  0.36431309472E-01 -0.13226385905E+00 -0.14071416655E-01  0.89074068813E+00  0.88000000000E+00 0.  1.
        -11    1    4    4    0    0 -0.16414025281E-01  0.47285226858E-01  0.12978280818E-01  0.51710828643E-01  0.51100000000E-03 0. -1.
         11    1    4    4    0    0 -0.12583418168E-01  0.73774674522E-01  0.20747955478E-01  0.77664559428E-01  0.51100000000E-03 0.  1.
</event>
<event>
 8    1  0.1112171E+005  0.1043930E+01  0.7957747E-01            NaN
         13   -1    0    0    0    0  0.00000000000E+00  0.00000000000E+00  0.74505805969E-08  0.10566000000E+00  0.10566000000E+00 0. -1.
     999900   -1    0    0    0    0 -0.00000000000E+00 -0.00000000000E+00 -0.74505805969E-08  0.93827000000E+00  0.93827000000E+00 0.  1.
     999902    2    1    2    0    0 -0.19194087299E-01  0.39967915042E-02  0.13569208117E-01  0.10200865368E+01  0.10198078406E+01 0.  0.
     999903    2    3    3    0    0  0.46687022794E-01 -0.85985847955E-01 -0.80534349896E-01  0.12807046310E+00  0.18520741309E-01 0.  0.
         14    1    1    2    0    0  0.19194087299E-01 -0.39967915042E-02 -0.13569208117E-01  0.23843463224E-01  0.00000000000E+00 0. -1.
     999901    1    3    3    0    0 -0.65881110094E-01  0.89982639460E-01  0.94103558013E-01  0.89201607368E+00  0.88000000000E+00 0. -1.
        -11    1    4    4    0    0  0.33816857004E-01 -0.52851953426E-01 -0.41262099161E-01  0.75098140768E-01  0.51100000000E-03 0.  1.
         11    1    4    4    0    0  0.12870165791E-01 -0.33133894529E-01 -0.39272250735E-01  0.52972322329E-01  0.51100000000E-03 0. -1.
</event>
<event>
 8    1  0.1112171E+005  0.1043930E+01  0.7957747E-01            NaN
         13   -1    0    0    0    0  0.00000000000E+00  0.00000000000E+00  0.74505805969E-08  0.10566000000E+00  0.10566000000E+00 0. -1.
     999900   -1    0    0    0    0 -0.00000000000E+00 -0.00000000000E+00 -0.74505805969E-08  0.93827000000E+00  0.93827000000E+00 0.  1.
     999902    2    1    2    0    0  0.13860686441E-01 -0.87104087385E-02  0.16972438223E-01  0.10203492132E+01  0.10200766948E+01 0.  0.
     999903    2    3    3    0    0  0.49328873091E-01 -0.11916971704E+00 -0.19448519225E-01  0.13198794813E+00  0.20194414395E-01 0.  0.
         14    1    1    2    0    0 -0.13860686441E-01  0.87104087385E-02 -0.16972438223E-01  0.23580786845E-01  0.00000000000E+00 0.  1.
     999901    1    3    3    0    0 -0.35468186650E-01  0.11045930830E+00  0.36420957448E-01  0.88836126502E+00  0.88000000000E+00 0. -1.
        -11    1    4    4    0    0  0.14665996020E-01 -0.19368194416E-01  0.12361216134E-02  0.24331204488E-01  0.51100000000E-03 0. -1.
         11    1    4    4    0    0  0.34662877072E-01 -0.99801522620E-01 -0.20684640839E-01  0.10765674364E+00  0.51100000000E-03 0.  1.
</event>
<event>
 8    1  0.1112171E+005  0.1043930E+01  0.7957747E-01            NaN
         13   -1    0    0    0    0  0.00000000000E+00  0.00000000000E+00  0.74505805969E-08  0.10566000000E+00  0.10566000000E+00 0. -1.
     999900   -1    0    0    0    0 -0.00000000000E+00 -0.00000000000E+00 -0.74505805969E-08  0.93827000000E+00  0.93827000000E+00 0.  1.
     999902    2    1    2    0    0  0.15831283950E-01  0.13014857290E-01  0.11581380505E-01  0.10203897274E+01  0.10201181555E+01 0.  0.
     999903    2    3    3    0    0 -0.89080499550E-01 -0.33404779583E-01 -0.83898710049E-01  0.12782168362E+00  0.15753556952E-01 0.  0.
         14    1    1    2    0    0 -0.15831283950E-01 -0.13014857290E-01 -0.11581380505E-01  0.23540272645E-01  0.00000000000E+00 0. -1.
     999901    1    3    3    0    0  0.10491178350E+00  0.46419636873E-01  0.95480090553E-01  0.89256804373E+00  0.88000000000E+00 0. -1.
        -11    1    4    4    0    0 -0.33077788856E-01 -0.12284089948E-01 -0.21333372677E-01  0.41236063006E-01  0.51100000000E-03 0. -1.
         11    1    4    4    0    0 -0.56002710694E-01 -0.21120689635E-01 -0.62565337372E-01  0.86585620614E-01  0.51100000000E-03 0.  1.
</event>
<event>
 8    1  0.1112171E+005  0.1043930E+01  0.7957747E-01            NaN
         13   -1    0    0    0    0  0.00000000000E+00  0.00000000000E+00  0.74505805969E-08  0.10566000000E+00  0.10566000000E+00 0. -1.
     999900   -1    0    0    0    0 -0.00000000000E+00 -0.00000000000E+00 -0.74505805969E-08  0.93827000000E+00  0.93827000000E+00 0. -1.
     999902    2    1    2    0    0  0.14589471445E-01 -0.13133809623E-01 -0.14520909336E-01  0.10195126611E+01  0.10192202214E+01 0.  0.
     999903    2    3    3    0    0 -0.52491841428E-01  0.49664478874E-01  0.10224074221E+00  0.12705716591E+00  0.21642554437E-01 0.  0.
         14    1    1    2    0    0 -0.14589471445E-01  0.13133809623E-01  0.14520909336E-01  0.24417338925E-01  0.00000000000E+00 0.  1.
     999901    1    3    3    0    0  0.67081312872E-01 -0.62798288498E-01 -0.11676165155E+00  0.89245549516E+00  0.88000000000E+00 0. -1.
        -11    1    4    4    0    0 -0.31792421879E-01  0.20578345696E-01  0.66556981317E-01  0.76578843577E-01  0.51100000000E-03 0. -1.
         11    1    4    4    0    0 -0.20699419548E-01  0.29086133179E-01  0.35683760897E-01  0.50478322334E-01  0.51100000000E-03 0.  1.
</event>
<event>
 8    1  0.1112171E+005  0.1043930E+01  0.7957747E-01            NaN
         13   -1    0    0    0    0  0.00000000000E+00  0.00000000000E+00  0.74505805969E-08  0.10566000000E+00  0.10566000000E+00 0.  1.
     999900   -1    0    0    0    0 -0.00000000000E+00 -0.00000000000E+00 -0.74505805969E-08  0.93827000000E+00  0.93827000000E+00 0. -1.
     999902    2    1    2    0    0  0.22161946108E-01 -0.12599221690E-02  0.41033021051E-02  0.10213562022E+01  0.10211067111E+01 0.  0.
     999903    2    3    3    0    0  0.75414294545E-01 -0.94290149377E-02  0.10808063057E+00  0.13359844722E+00  0.19771197495E-01 0.  0.
         14    1    1    2    0    0 -0.22161946108E-01  0.12599221690E-02 -0.41033021051E-02  0.22573797805E-01  0.00000000000E+00 0.  1.
     999901    1    3    3    0    0 -0.53252348438E-01  0.81690927687E-02 -0.10397732846E+00  0.88775775498E+00  0.88000000000E+00 0. -1.
        -11    1    4    4    0    0  0.20862747814E-01 -0.89335854892E-02  0.43428587610E-01  0.49003740049E-01  0.51100000000E-03 0. -1.
         11    1    4    4    0    0  0.54551546732E-01 -0.49542944847E-03  0.64652042958E-01  0.84594707167E-01  0.51100000000E-03 0.  1.
</event>
<event>
 7    1  0.1112171E+005  0.1043930E+01  0.7957747E-01            NaN
         13   -1    0    0    0    0  0.00000000000E+00  0.00000000000E+00  0.74505805969E-08  0.10566000000E+00  0.10566000000E+00 0.  1.
     999900   -1    0    0    0    0 -0.00000000000E+00 -0.00000000000E+00 -0.74505805969E-08  0.93827000000E+00  0.93827000000E+00 0.  1.
     999903    2    1    2    0    0  0.85434296391E-01  0.49462189533E-02  0.11217229537E-01  0.88529380348E-01  0.19701290940E-01 0.  0.
         14    1    1    2    0    0  0.33283641129E-02  0.67736049801E-01  0.21814230284E-02  0.67852848553E-01  0.00000000000E+00 0.  1.
     999901    1    1    2    0    0 -0.88762660503E-01 -0.72682268755E-01 -0.13398652566E-01  0.88754777110E+00  0.88000000000E+00 0. -1.
        -11    1    3    3    0    0  0.78631075184E-01  0.12055892351E-02  0.14701390792E-01  0.80004321398E-01  0.51100000000E-03 0. -1.
         11    1    3    3    0    0  0.68032212061E-02  0.37406297181E-02 -0.34841612547E-02  0.85250589508E-02  0.51100000000E-03 0.  1.
</event>
<event>
 8    1  0.1112171E+005  0.1043930E+01  0.7957747E-01            NaN
         13   -1    0    0    0    0  0.00000000000E+00  0.00000000000E+00  0.74505805969E-08  0.10566000000E+00  0.10566000000E+00 0. -1.
     999900   -1    0    0    0    0 -0.00000000000E+00 -0.00000000000E+00 -0.74505805969E-08  0.93827000000E+00  0.93827000000E+00 0. -1.
     999902    2    1    2    0    0  0.15814099006E-01 -0.11871902842E-02 -0.17228459307E-01  0.10205138740E+01  0.10202451921E+01 0.  0.
     999903    2    3    3    0    0 -0.18797223477E-01  0.13053653113E-01  0.12494191213E+00  0.12831817807E+00  0.18202745589E-01 0.  0.
         14    1    1    2    0    0 -0.15814099006E-01  0.11871902842E-02  0.17228459307E-01  0.23416126029E-01  0.00000000000E+00 0. -1.
     999901    1    3    3    0    0  0.34611322483E-01 -0.14240843397E-01 -0.14217037144E+00  0.89219569590E+00  0.88000000000E+00 0. -1.
        -11    1    4    4    0    0 -0.12944775274E-01  0.11176906828E-01  0.11709163169E+00  0.11833512490E+00  0.51100000000E-03 0. -1.
         11    1    4    4    0    0 -0.58524482029E-02  0.18767462848E-02  0.78502804428E-02  0.99830531710E-02  0.51100000000E-03 0.  1.
</event>
<event>
 8    1  0.1112171E+005  0.1043930E+01  0.7957747E-01            NaN
         13   -1    0    0    0    0  0.00000000000E+00  0.00000000000E+00  0.74505805969E-08  0.10566000000E+00  0.10566000000E+00 0.  1.
     999900   -1    0    0    0    0 -0.00000000000E+00 -0.00000000000E+00 -0.74505805969E-08  0.93827000000E+00  0.93827000000E+00 0.  1.
     999902    2    1    2    0    0  0.21048725913E-01 -0.53573777108E-02 -0.42847029451E-02  0.10217915936E+01  0.10215517372E+01 0.  0.
     999903    2    3    3    0    0  0.33878626235E-01 -0.12350865262E+00  0.30639321987E-01  0.13311616488E+00  0.19467837908E-01 0.  0.
         14    1    1    2    0    0 -0.21048725913E-01  0.53573777108E-02  0.42847029451E-02  0.22138406398E-01  0.00000000000E+00 0.  1.
     999901    1    3    3    0    0 -0.12829900322E-01  0.11815127491E+00 -0.34924024932E-01  0.88867542873E+00  0.88000000000E+00 0. -1.
        -11    1    4    4    0    0  0.86842571635E-02 -0.43237037858E-01  0.19593823598E-01  0.48260095415E-01  0.51100000000E-03 0.  1.
         11    1    4    4    0    0  0.25194369071E-01 -0.80271614759E-01  0.11045498389E-01  0.84856069462E-01  0.51100000000E-03 0. -1.
</event>
<event>
 8    1  0.1112171E+005  0.1043930E+01  0.7957747E-01            NaN
         13   -1    0    0    0    0  0.00000000000E+00  0.00000000000E+00  0.74505805969E-08  0.10566000000E+00  0.10566000000E+00 0.  1.
     999900   -1    0    0    0    0 -0.00000000000E+00 -0.00000000000E+00 -0.74505805969E-08  0.93827000000E+00  0.93827000000E+00 0. -1.
     999902    2    1    2    0    0  0.22662055634E-01 -0.17499501067E-02  0.79340691737E-02  0.10198555209E+01  0.10195713329E+01 0.  0.
     999903    2    3    3    0    0  0.88252705277E-01 -0.82850473337E-01  0.50034453651E-01  0.13269608169E+00  0.21261764314E-01 0.  0.
         14    1    1    2    0    0 -0.22662055634E-01  0.17499501067E-02 -0.79340691737E-02  0.24074479114E-01  0.00000000000E+00 0. -1.
     999901    1    3    3    0    0 -0.65590649643E-01  0.81100523230E-01 -0.42100384478E-01  0.88715943920E+00  0.88000000000E+00 0.  1.
        -11    1    4    4    0    0  0.46420275415E-01 -0.41352818078E-01  0.14341860228E-01  0.63803194343E-01  0.51100000000E-03 0. -1.
         11    1    4    4    0    0  0.41832429862E-01 -0.41497655259E-01  0.35692593423E-01  0.68892887343E-01  0.51100000000E-03 0.  1.
</event>
<event>
 8    1  0.1112171E+005  0.1043930E+01  0.7957747E-01            NaN
         13   -1    0    0    0    0  0.00000000000E+00  0.00000000000E+00  0.74505805969E-08  0.10566000000E+00  0.10566000000E+00 0. -1.
     999900   -1    0    0    0    0 -0.00000000000E+00 -0.00000000000E+00 -0.74505805969E-08  0.93827000000E+00  0.93827000000E+00 0.  1.
     999902    2    1    2    0    0 -0.16926060355E-01  0.17869059885E-02  0.16548343908E-01  0.10201911660E+01  0.10199149391E+01 0.  0.
     999903    2    3    3    0    0  0.10346775714E+00  0.71103414451E-01  0.23400636496E-01  0.12926670035E+00  0.20025426742E-01 0.  0.
         14    1    1    2    0    0  0.16926060355E-01 -0.17869059885E-02 -0.16548343908E-01  0.23738833970E-01  0.00000000000E+00 0.  1.
     999901    1    3    3    0    0 -0.12039381750E+00 -0.69316508462E-01 -0.68522925881E-02  0.89092446568E+00  0.88000000000E+00 0.  1.
        -11    1    4    4    0    0  0.67722916576E-01  0.57286025955E-01  0.13963316292E-01  0.89795977205E-01  0.51100000000E-03 0.  1.
         11    1    4    4    0    0  0.35744840565E-01  0.13817388496E-01  0.94373202033E-02  0.39470723143E-01  0.51100000000E-03 0. -1.
</event>
<event>
 8    1  0.1112171E+005  0.1043930E+01  0.7957747E-01            NaN
         13   -1    0    0    0    0  0.00000000000E+00  0.00000000000E+00  0.74505805969E-08  0.10566000000E+00  0.10566000000E+00 0.  1.
     999900   -1    0    0    0    0 -0.00000000000E+00 -0.00000000000E+00 -0.74505805969E-08  0.93827000000E+00  0.93827000000E+00 0. -1.
     999902    2    1    2    0    0 -0.59508860808E-02  0.22467475801E-01  0.13487058858E-02  0.10206486873E+01  0.10203831258E+01 0.  0.
     999903    2    3    3    0    0 -0.12034323168E+00  0.21838393411E-02  0.50063790557E-01  0.13167726249E+00  0.18581059337E-01 0.  0.
         14    1    1    2    0    0  0.59508860808E-02 -0.22467475801E-01 -0.13487058858E-02  0.23281312712E-01  0.00000000000E+00 0. -1.
     999901    1    3    3    0    0  0.11439234560E+00  0.20283636460E-01 -0.48715084671E-01  0.88897142480E+00  0.88000000000E+00 0.  1.
        -11    1    4    4    0    0 -0.64168745254E-02 -0.41938279960E-02  0.31095746017E-02  0.82882475312E-02  0.51100000000E-03 0.  1.
         11    1    4    4    0    0 -0.11392635715E+00  0.63776673371E-02  0.46954215955E-01  0.12338901496E+00  0.51100000000E-03 0. -1.
</event>
<event>
 8    1  0.1112171E+005  0.1043930E+01  0.7957747E-01            NaN
         13   -1    0    0    0    0  0.00000000000E+00  0.00000000000E+00  0.74505805969E-08  0.10566000000E+00  0.10566000000E+00 0.  1.
     999900   -1    0    0    0    0 -0.00000000000E+00 -0.00000000000E+00 -0.74505805969E-08  0.93827000000E+00  0.93827000000E+00 0.  1.
     999902    2    1    2    0    0  0.10262046021E-01 -0.13845158720E-01 -0.16723617012E-01  0.10199158922E+01  0.10196331447E+01 0.  0.
     999903    2    3    3    0    0 -0.10075465765E+00  0.10216003137E-02  0.76235416000E-01  0.12795899253E+00  0.20226725127E-01 0.  0.
         14    1    1    2    0    0 -0.10262046021E-01  0.13845158720E-01  0.16723617012E-01  0.24014107822E-01  0.00000000000E+00 0. -1.
     999901    1    3    3    0    0  0.11101670367E+00 -0.14866759034E-01 -0.92959033012E-01  0.89195689965E+00  0.88000000000E+00 0. -1.
        -11    1    4    4    0    0 -0.61660543701E-01 -0.35125841521E-02  0.57430665828E-01  0.84338030540E-01  0.51100000000E-03 0. -1.
         11    1    4    4    0    0 -0.39094113952E-01  0.45341844658E-02  0.18804750172E-01  0.43620961985E-01  0.51100000000E-03 0.  1.
</event>
<event>
 8    1  0.1112171E+005  0.1043930E+01  0.7957747E-01            NaN
         13   -1    0    0    0    0  0.00000000000E+00  0.00000000000E+00  0.74505805969E-08  0.10566000000E+00  0.10566000000E+00 0. -1.
     999900   -1    0    0    0    0 -0.00000000000E+00 -0.00000000000E+00 -0.74505805969E-08  0.93827000000E+00  0.93827000000E+00 0.  1.
     999902    2    1    2    0    0  0.28976965150E-02  0.40515819627E-02  0.23494541092E-01  0.10199132262E+01  0.10196304152E+01 0.  0.
     999903    2    3    3    0    0 -0.61129150707E-02 -0.14047398916E-01 -0.12481487008E+00  0.12727419186E+00  0.19628320691E-01 0.  0.
         14    1    1    2    0    0 -0.28976965150E-02 -0.40515819627E-02 -0.23494541092E-01  0.24016773776E-01  0.00000000000E+00 0.  1.
     999901    1    3    3    0    0  0.90106115856E-02  0.18098980879E-01  0.14830941117E+00  0.89263903437E+00  0.88000000000E+00 0. -1.
        -11    1    4    4    0    0 -0.56357205169E-02 -0.11306041493E-01 -0.12351560575E+00  0.12416099993E+00  0.51100000000E-03 0.  1.
         11    1    4    4    0    0 -0.47719455379E-03 -0.27413574230E-02 -0.12992643323E-02  0.31131919260E-02  0.51100000000E-03 0. -1.
</event>
<event>
 8    1  0.1112171E+005  0.1043930E+01  0.7957747E-01            NaN
         13   -1    0    0    0    0  0.00000000000E+00  0.00000000000E+00  0.74505805969E-08  0.10566000000E+00  0.10566000000E+00 0.  1.
     999900   -1    0    0    0    0 -0.00000000000E+00 -0.00000000000E+00 -0.74505805969E-08  0.93827000000E+00  0.93827000000E+00 0.  1.
     999902    2    1    2    0    0 -0.89020757472E-02 -0.13362396381E-01 -0.18622088206E-01  0.10193417353E+01  0.10190451367E+01 0.  0.
     999903    2    3    3    0    0 -0.10908206662E+00  0.59176789162E-01 -0.35172732217E-01  0.13053810809E+00  0.20057091954E-01 0.  0.
         14    1    1    2    0    0  0.89020757472E-02  0.13362396381E-01  0.18622088206E-01  0.24588264656E-01  0.00000000000E+00 0.  1.
     999901    1    3    3    0    0  0.10017999087E+00 -0.72539185543E-01  0.16550644011E-01  0.88880362726E+00  0.88000000000E+00 0. -1.
        -11    1    4    4    0    0 -0.57686723680E-01  0.26817236474E-01 -0.27545574514E-01  0.69324902144E-01  0.51100000000E-03 0.  1.
         11    1    4    4    0    0 -0.51395342939E-01  0.32359552688E-01 -0.76271577025E-02  0.61213205941E-01  0.51100000000E-03 0. -1.
</event>
<event>
 8    1  0.1112171E+005  0.1043930E+01  0.7957747E-01            NaN
         13   -1    0    0    0    0  0.00000000000E+00  0.00000000000E+00  0.74505805969E-08  0.10566000000E+00  0.10566000000E+00 0.  1.
     999900   -1    0    0    0    0 -0.00000000000E+00 -0.00000000000E+00 -0.74505805969E-08  0.93827000000E+00  0.93827000000E+00 0.  1.
     999902    2    1    2    0    0 -0.13697969066E-01  0.12170495209E-01 -0.13024788602E-01  0.10214488873E+01  0.10212014634E+01 0.  0.
     999903    2    3    3    0    0 -0.68716505802E-01  0.46512859602E-01 -0.10376990978E+00  0.13440823750E+00  0.20297188349E-01 0.  0.
         14    1    1    2    0    0  0.13697969066E-01 -0.12170495209E-01  0.13024788602E-01  0.22481112701E-01  0.00000000000E+00 0.  1.
     999901    1    3    3    0    0  0.55018536736E-01 -0.34342364393E-01  0.90745121175E-01  0.88704064980E+00  0.88000000000E+00 0. -1.
        -11    1    4    4    0    0 -0.10521447735E-01  0.16945944010E-01 -0.28258254085E-01  0.34592714923E-01  0.51100000000E-03 0. -1.
         11    1    4    4    0    0 -0.58195058067E-01  0.29566915593E-01 -0.75511655692E-01  0.99815522578E-01  0.51100000000E-03 0.  1.
</event>
<event>
 8    1  0.1112171E+005  0.1043930E+01  0.7957747E-01            NaN
         13   -1    0    0    0    0  0.00000000000E+00  0.00000000000E+00  0.74505805969E-08  0.10566000000E+00  0.10566000000E+00 0.  1.
     999900   -1    0    0    0    0 -0.00000000000E+00 -0.00000000000E+00 -0.74505805969E-08  0.93827000000E+00  0.93827000000E+00 0. -1.
     999902    2    1    2    0    0 -0.11659615313E-01  0.19525649733E-01  0.45725396724E-02  0.10207328936E+01  0.10204692716E+01 0.  0.
     999903    2    3    3    0    0 -0.14779166360E-01 -0.12263333666E+00 -0.28446079524E-01  0.12870759225E+00  0.22340676899E-01 0.  0.
         14    1    1    2    0    0  0.11659615313E-01 -0.19525649733E-01 -0.45725396724E-02  0.23197106410E-01  0.00000000000E+00 0. -1.
     999901    1    3    3    0    0  0.31195510463E-02  0.14215898639E+00  0.33018619196E-01  0.89202530134E+00  0.88000000000E+00 0.  1.
        -11    1    4    4    0    0 -0.75150734273E-03 -0.93220947613E-02  0.37321919561E-02  0.10082489366E-01  0.51100000000E-03 0. -1.
         11    1    4    4    0    0 -0.14027659017E-01 -0.11331124190E+00 -0.32178271480E-01  0.11862510289E+00  0.51100000000E-03 0.  1.
</event>
<event>
 8    1  0.1112171E+005  0.1043930E+01  0.7957747E-01            NaN
         13   -1    0    0    0    0  0.00000000000E+00  0.00000000000E+00  0.74505805969E-08  0.10566000000E+00  0.10566000000E+00 0. -1.
     999900   -1    0    0    0    0 -0.00000000000E+00 -0.00000000000E+00 -0.74505805969E-08  0.93827000000E+00  0.93827000000E+00 0.  1.
     999902    2    1    2    0    0 -0.16854585285E-01 -0.79282754322E-02 -0.64420858861E-02  0.10242212439E+01  0.10240316018E+01 0.  0.
     999903    2    3    3    0    0 -0.67772777090E-01 -0.80438439304E-01 -0.83895346566E-01  0.13638714132E+00  0.22350197063E-01 0.  0.
         14    1    1    2    0    0  0.16854585285E-01  0.79282754322E-02  0.64420858861E-02  0.19708756100E-01  0.00000000000E+00 0. -1.
     999901    1    3    3    0    0  0.50918191805E-01  0.72510163872E-01  0.77453260680E-01  0.88783410258E+00  0.88000000000E+00 0. -1.
        -11    1    4    4    0    0 -0.15247707676E-01 -0.72207897991E-02 -0.18530635771E-01  0.25065473819E-01  0.51100000000E-03 0. -1.
         11    1    4    4    0    0 -0.52525069414E-01 -0.73217649505E-01 -0.65364710794E-01  0.11132166750E+00  0.51100000000E-03 0.  1.
</event>
<event>
 8    1  0.1112171E+005  0.1043930E+01  0.7957747E-01            NaN
         13   -1    0    0    0    0  0.00000000000E+00  0.00000000000E+00  0.74505805969E-08  0.10566000000E+00  0.10566000000E+00 0.  1.
     999900   -1    0    0    0    0 -0.00000000000E+00 -0.00000000000E+00 -0.74505805969E-08  0.93827000000E+00  0.93827000000E+00 0.  1.
     999902    2    1    2    0    0  0.57222017909E-02 -0.18650222055E-01  0.12891765244E-01  0.10205468439E+01  0.10202789269E+01 0.  0.
     999903    2    3    3    0    0 -0.92171927723E-01 -0.85415506135E-01 -0.32944990406E-01  0.13142262770E+00  0.19876159819E-01 0.  0.
         14    1    1    2    0    0 -0.57222017909E-02  0.18650222055E-01 -0.12891765244E-01  0.23383156056E-01  0.00000000000E+00 0.  1.
     999901    1    3    3    0    0  0.97894129514E-01  0.66765284080E-01  0.45836755650E-01  0.88912421625E+00  0.88000000000E+00 0. -1.
        -11    1    4    4    0    0 -0.53976268085E-01 -0.44037338846E-01 -0.27316149728E-01  0.74827520913E-01  0.51100000000E-03 0. -1.
         11    1    4    4    0    0 -0.38195659638E-01 -0.41378167289E-01 -0.56288406781E-02  0.56595106782E-01  0.51100000000E-03 0.  1.
</event>
<event>
 8    1  0.1112171E+005  0.1043930E+01  0.7957747E-01            NaN
         13   -1    0    0    0    0  0.00000000000E+00  0.00000000000E+00  0.74505805969E-08  0.10566000000E+00  0.10566000000E+00 0. -1.
     999900   -1    0    0    0    0 -0.00000000000E+00 -0.00000000000E+00 -0.74505805969E-08  0.93827000000E+00  0.93827000000E+00 0. -1.
     999902    2    1    2    0    0  0.16051233272E-01  0.11840327199E-01 -0.13532511563E-01  0.10198267988E+01  0.10195419242E+01 0.  0.
     999903    2    3    3    0    0 -0.16134454765E-01  0.11028853482E+00  0.64782262483E-01  0.13029817538E+00  0.18894216874E-01 0.  0.
         14    1    1    2    0    0 -0.16051233272E-01 -0.11840327199E-01  0.13532511563E-01  0.24103201176E-01  0.00000000000E+00 0. -1.
     999901    1    3    3    0    0  0.32185688037E-01 -0.98448207620E-01 -0.78314774046E-01  0.88952862345E+00  0.88000000000E+00 0.  1.
        -11    1    4    4    0    0  0.14651184220E-03  0.62240753139E-01  0.33315407930E-01  0.70598231873E-01  0.51100000000E-03 0. -1.
         11    1    4    4    0    0 -0.16280966607E-01  0.48047781679E-01  0.31466854553E-01  0.59699943504E-01  0.51100000000E-03 0.  1.
</event>
<event>
 8    1  0.1112171E+005  0.1043930E+01  0.7957747E-01            NaN
         13   -1    0    0    0    0  0.00000000000E+00  0.00000000000E+00  0.74505805969E-08  0.10566000000E+00  0.10566000000E+00 0.  1.
     999900   -1    0    0    0    0 -0.00000000000E+00 -0.00000000000E+00 -0.74505805969E-08  0.93827000000E+00  0.93827000000E+00 0. -1.
     999902    2    1    2    0    0 -0.15395555124E-01  0.39790435185E-02 -0.26497155498E-01  0.10130276513E+01  0.10125562045E+01 0.  0.
     999903    2    3    3    0    0 -0.10693873258E-01 -0.10295509979E+00  0.61709481074E-01  0.12216434667E+00  0.20048841508E-01 0.  0.
         14    1    1    2    0    0  0.15395555124E-01 -0.39790435185E-02  0.26497155498E-01  0.30902348687E-01  0.00000000000E+00 0.  1.
     999901    1    3    3    0    0 -0.47016818662E-02  0.10693414331E+00 -0.88206636572E-01  0.89086330464E+00  0.88000000000E+00 0.  1.
        -11    1    4    4    0    0 -0.16525410838E-01 -0.67552568984E-01  0.40259652334E-01  0.80358817231E-01  0.51100000000E-03 0.  1.
         11    1    4    4    0    0  0.58315375808E-02 -0.35402530806E-01  0.21449828741E-01  0.41805529443E-01  0.51100000000E-03 0. -1.
</event>
<event>
 8    1  0.1112171E+005  0.1043930E+01  0.7957747E-01            NaN
         13   -1    0    0    0    0  0.00000000000E+00  0.00000000000E+00  0.74505805969E-08  0.10566000000E+00  0.10566000000E+00 0. -1.
     999900   -1    0    0    0    0 -0.00000000000E+00 -0.00000000000E+00 -0.74505805969E-08  0.93827000000E+00  0.93827000000E+00 0.  1.
     999902    2    1    2    0    0  0.20481610592E-01  0.14568700729E-01  0.47412377227E-02  0.10183522216E+01  0.10180309546E+01 0.  0.
     999903    2    3    3    0    0  0.42442115621E-01 -0.10318747748E+00  0.60489792397E-01  0.12848892724E+00  0.20034988158E-01 0.  0.
         14    1    1    2    0    0 -0.20481610592E-01 -0.14568700729E-01 -0.47412377227E-02  0.25577778412E-01  0.00000000000E+00 0.  1.
     999901    1    3    3    0    0 -0.21960505029E-01  0.11775617821E+00 -0.55748554674E-01  0.88986329435E+00  0.88000000000E+00 0.  1.
        -11    1    4    4    0    0  0.13914823910E-01 -0.53565005529E-01  0.22249181035E-01  0.59649973340E-01  0.51100000000E-03 0.  1.
         11    1    4    4    0    0  0.28527291711E-01 -0.49622471953E-01  0.38240611362E-01  0.68838953895E-01  0.51100000000E-03 0. -1.
</event>
<event>
 8    1  0.1112171E+005  0.1043930E+01  0.7957747E-01            NaN
         13   -1    0    0    0    0  0.00000000000E+00  0.00000000000E+00  0.74505805969E-08  0.10566000000E+00  0.10566000000E+00 0.  1.
     999900   -1    0    0    0    0 -0.00000000000E+00 -0.00000000000E+00 -0.74505805969E-08  0.93827000000E+00  0.93827000000E+00 0. -1.
     999902    2    1    2    0    0 -0.34532173896E-02 -0.22421989621E-01 -0.10455226464E-01  0.10189503665E+01  0.10186441318E+01 0.  0.
     999903    2    3    3    0    0  0.87758053155E-01 -0.76263820869E-02 -0.93830361768E-01  0.13019290856E+00  0.19657544407E-01 0.  0.
         14    1    1    2    0    0  0.34532173896E-02  0.22421989621E-01  0.10455226464E-01  0.24979633491E-01  0.00000000000E+00 0.  1.
     999901    1    3    3    0    0 -0.91211270545E-01 -0.14795607534E-01  0.83375135304E-01  0.88875745795E+00  0.88000000000E+00 0.  1.
        -11    1    4    4    0    0  0.48787111836E-01 -0.13821329365E-01 -0.49998722323E-01  0.71213375019E-01  0.51100000000E-03 0.  1.
         11    1    4    4    0    0  0.38970941319E-01  0.61949472780E-02 -0.43831639444E-01  0.58979533539E-01  0.51100000000E-03 0. -1.
</event>
<event>
 8    1  0.1112171E+005  0.1043930E+01  0.7957747E-01            NaN
         13   -1    0    0    0    0  0.00000000000E+00  0.00000000000E+00  0.74505805969E-08  0.10566000000E+00  0.10566000000E+00 0. -1.
     999900   -1    0    0    0    0 -0.00000000000E+00 -0.00000000000E+00 -0.74505805969E-08  0.93827000000E+00  0.93827000000E+00 0. -1.
     999902    2    1    2    0    0  0.52463115570E-02 -0.79683389123E-02  0.21642801051E-01  0.10202777475E+01  0.10200035554E+01 0.  0.
     999903    2    3    3    0    0  0.95837838052E-01  0.20615713664E-01 -0.81834003571E-01  0.12913728619E+00  0.19228512439E-01 0.  0.
         14    1    1    2    0    0 -0.52463115570E-02  0.79683389123E-02 -0.21642801051E-01  0.23652252478E-01  0.00000000000E+00 0.  1.
     999901    1    3    3    0    0 -0.90591526495E-01 -0.28584052576E-01  0.10347680462E+00  0.89114046134E+00  0.88000000000E+00 0.  1.
        -11    1    4    4    0    0  0.24991801573E-01  0.53945351097E-02 -0.33022274209E-01  0.41766288678E-01  0.51100000000E-03 0. -1.
         11    1    4    4    0    0  0.70846036479E-01  0.15221178554E-01 -0.48811729362E-01  0.87370997509E-01  0.51100000000E-03 0.  1.
</event>
<event>
 8    1  0.1112171E+005  0.1043930E+01  0.7957747E-01            NaN
         13   -1    0    0    0    0  0.00000000000E+00  0.00000000000E+00  0.74505805969E-08  0.10566000000E+00  0.10566000000E+00 0.  1.
     999900   -1    0    0    0    0 -0.00000000000E+00 -0.00000000000E+00 -0.74505805969E-08  0.93827000000E+00  0.93827000000E+00 0. -1.
     999902    2    1    2    0    0  0.12232750710E-01  0.80534380050E-02 -0.20964147031E-01  0.10183567031E+01  0.10180355501E+01 0.  0.
     999903    2    3    3    0    0 -0.11757084218E+00  0.39899101033E-01 -0.25222669795E-01  0.12825488084E+00  0.19957209033E-01 0.  0.
         14    1    1    2    0    0 -0.12232750710E-01 -0.80534380050E-02  0.20964147031E-01  0.25573296901E-01  0.00000000000E+00 0.  1.
     999901    1    3    3    0    0  0.12980359289E+00 -0.31845663028E-01  0.42585227631E-02  0.89010182226E+00  0.88000000000E+00 0.  1.
        -11    1    4    4    0    0 -0.86444330256E-01  0.32285587018E-01 -0.27031059587E-01  0.96155710522E-01  0.51100000000E-03 0.  1.
         11    1    4    4    0    0 -0.31126511924E-01  0.76135140150E-02  0.18083897921E-02  0.32099170314E-01  0.51100000000E-03 0. -1.
</event>
<event>
 8    1  0.1112171E+005  0.1043930E+01  0.7957747E-01            NaN
         13   -1    0    0    0    0  0.00000000000E+00  0.00000000000E+00  0.74505805969E-08  0.10566000000E+00  0.10566000000E+00 0. -1.
     999900   -1    0    0    0    0 -0.00000000000E+00 -0.00000000000E+00 -0.74505805969E-08  0.93827000000E+00  0.93827000000E+00 0.  1.
     999902    2    1    2    0    0  0.20095539722E-01  0.12385013325E-01  0.30348634542E-02  0.10201302171E+01  0.10198525531E+01 0.  0.
     999903    2    3    3    0    0 -0.20055492086E-01 -0.12484489412E+00 -0.13458652190E-01  0.12843733893E+00  0.18070538496E-01 0.  0.
         14    1    1    2    0    0 -0.20095539722E-01 -0.12385013325E-01 -0.30348634542E-02  0.23799782940E-01  0.00000000000E+00 0.  1.
     999901    1    3    3    0    0  0.40151031808E-01  0.13722990745E+00  0.16493515644E-01  0.89169287813E+00  0.88000000000E+00 0. -1.
        -11    1    4    4    0    0 -0.99435875802E-02 -0.40448216580E-01 -0.12277476412E-01  0.43427303698E-01  0.51100000000E-03 0. -1.
         11    1    4    4    0    0 -0.10111904505E-01 -0.84396677541E-01 -0.11811757773E-02  0.85010035230E-01  0.51100000000E-03 0.  1.
</event>
<event>
 8    1  0.1112171E+005  0.1043930E+01  0.7957747E-01            NaN
         13   -1    0    0    0    0  0.00000000000E+00  0.00000000000E+00  0.74505805969E-08  0.10566000000E+00  0.10566000000E+00 0.  1.
     999900   -1    0    0    0    0 -0.00000000000E+00 -0.00000000000E+00 -0.74505805969E-08  0.93827000000E+00  0.93827000000E+00 0.  1.
     999902    2    1    2    0    0 -0.18718631469E-01 -0.46631316693E-04 -0.13101885912E-01  0.10210816138E+01  0.10208259466E+01 0.  0.
     999903    2    3    3    0    0 -0.24747908475E-01  0.12234955233E+00 -0.38748356831E-01  0.13222002758E+00  0.19970693677E-01 0.  0.
         14    1    1    2    0    0  0.18718631469E-01  0.46631316693E-04  0.13101885912E-01  0.22848386223E-01  0.00000000000E+00 0.  1.
     999901    1    3    3    0    0  0.60292770062E-02 -0.12239618365E+00  0.25646470919E-01  0.88886158620E+00  0.88000000000E+00 0.  1.
        -11    1    4    4    0    0 -0.21341056050E-01  0.55610475580E-01 -0.17091321042E-01  0.61970477193E-01  0.51100000000E-03 0.  1.
         11    1    4    4    0    0 -0.34068524246E-02  0.66739076750E-01 -0.21657035790E-01  0.70249550384E-01  0.51100000000E-03 0. -1.
</event>
<event>
 8    1  0.1112171E+005  0.1043930E+01  0.7957747E-01            NaN
         13   -1    0    0    0    0  0.00000000000E+00  0.00000000000E+00  0.74505805969E-08  0.10566000000E+00  0.10566000000E+00 0.  1.
     999900   -1    0    0    0    0 -0.00000000000E+00 -0.00000000000E+00 -0.74505805969E-08  0.93827000000E+00  0.93827000000E+00 0. -1.
     999902    2    1    2    0    0  0.84576937681E-02 -0.52521153674E-02 -0.16163224005E-01  0.10249466623E+01  0.10247708492E+01 0.  0.
     999903    2    3    3    0    0 -0.77396059695E-01  0.10386746930E+00 -0.27836229359E-01  0.13398414357E+00  0.19957300133E-01 0.  0.
         14    1    1    2    0    0 -0.84576937681E-02  0.52521153674E-02  0.16163224005E-01  0.18983337692E-01  0.00000000000E+00 0.  1.
     999901    1    3    3    0    0  0.85853753463E-01 -0.10911958467E+00  0.11673005354E-01  0.89096251874E+00  0.88000000000E+00 0.  1.
        -11    1    4    4    0    0 -0.44322060873E-01  0.65020200305E-01 -0.26190791379E-01  0.82935458049E-01  0.51100000000E-03 0.  1.
         11    1    4    4    0    0 -0.33073998822E-01  0.38847268993E-01 -0.16454379800E-02  0.51048685521E-01  0.51100000000E-03 0. -1.
</event>
<event>
 8    1  0.1112171E+005  0.1043930E+01  0.7957747E-01            NaN
         13   -1    0    0    0    0  0.00000000000E+00  0.00000000000E+00  0.74505805969E-08  0.10566000000E+00  0.10566000000E+00 0. -1.
     999900   -1    0    0    0    0 -0.00000000000E+00 -0.00000000000E+00 -0.74505805969E-08  0.93827000000E+00  0.93827000000E+00 0. -1.
     999902    2    1    2    0    0 -0.15288284966E-01 -0.12148036290E-01  0.12753031560E-01  0.10206073446E+01  0.10203408281E+01 0.  0.
     999903    2    3    3    0    0  0.69146146976E-01 -0.60853096724E-01  0.91992938306E-01  0.13168647123E+00  0.19857919969E-01 0.  0.
         14    1    1    2    0    0  0.15288284966E-01  0.12148036290E-01 -0.12753031560E-01  0.23322655442E-01  0.00000000000E+00 0.  1.
     999901    1    3    3    0    0 -0.84434431942E-01  0.48705060434E-01 -0.79239906746E-01  0.88892087332E+00  0.88000000000E+00 0. -1.
        -11    1    4    4    0    0  0.26921437059E-01 -0.11673768271E-01  0.30817283347E-01  0.42555924533E-01  0.51100000000E-03 0.  1.
         11    1    4    4    0    0  0.42224709917E-01 -0.49179328453E-01  0.61175654959E-01  0.89130546702E-01  0.51100000000E-03 0. -1.
</event>
<event>
 8    1  0.1112171E+005  0.1043930E+01  0.7957747E-01            NaN
         13   -1    0    0    0    0  0.00000000000E+00  0.00000000000E+00  0.74505805969E-08  0.10566000000E+00  0.10566000000E+00 0.  1.
     999900   -1    0    0    0    0 -0.00000000000E+00 -0.00000000000E+00 -0.74505805969E-08  0.93827000000E+00  0.93827000000E+00 0. -1.
     999902    2    1    2    0    0  0.17910730832E-01  0.24548180876E-01  0.60028957561E-02  0.10129551357E+01  0.10124814392E+01 0.  0.
     999903    2    3    3    0    0  0.11808588848E+00 -0.28991172716E-01 -0.20013754051E-01  0.12527366652E+00  0.22542759802E-01 0.  0.
         14    1    1    2    0    0 -0.17910730832E-01 -0.24548180876E-01 -0.60028957561E-02  0.30974864337E-01  0.00000000000E+00 0.  1.
     999901    1    3    3    0    0 -0.10017515764E+00  0.53539353592E-01  0.26016649807E-01  0.88768146914E+00  0.88000000000E+00 0.  1.
        -11    1    4    4    0    0  0.11026785588E+00 -0.32664229656E-01 -0.18936959168E-01  0.11655394238E+00  0.51100000000E-03 0.  1.
         11    1    4    4    0    0  0.78180325933E-02  0.36730569399E-02 -0.10767948831E-02  0.87197241432E-02  0.51100000000E-03 0. -1.
</event>
<event>
 8    1  0.1112171E+005  0.1043930E+01  0.7957747E-01            NaN
         13   -1    0    0    0    0  0.00000000000E+00  0.00000000000E+00  0.74505805969E-08  0.10566000000E+00  0.10566000000E+00 0.  1.
     999900   -1    0    0    0    0 -0.00000000000E+00 -0.00000000000E+00 -0.74505805969E-08  0.93827000000E+00  0.93827000000E+00 0.  1.
     999902    2    1    2    0    0 -0.51896053483E-02 -0.22613081021E-01 -0.67469008011E-02  0.10197679614E+01  0.10194816777E+01 0.  0.
     999903    2    3    3    0    0  0.11707202475E+00  0.14483027450E-01  0.47704681358E-01  0.12887571080E+00  0.20435144878E-01 0.  0.
         14    1    1    2    0    0  0.51896053483E-02  0.22613081021E-01  0.67469008011E-02  0.24162038560E-01  0.00000000000E+00 0.  1.
     999901    1    3    3    0    0 -0.12226163010E+00 -0.37096108471E-01 -0.54451582159E-01  0.89089225064E+00  0.88000000000E+00 0.  1.
        -11    1    4    4    0    0  0.66976845880E-01  0.16881897467E-01  0.33372288850E-01  0.76712887640E-01  0.51100000000E-03 0. -1.
         11    1    4    4    0    0  0.50095178871E-01 -0.23988700170E-02  0.14332392509E-01  0.52162823155E-01  0.51100000000E-03 0.  1.
</event>
<event>
 8    1  0.1112171E+005  0.1043930E+01  0.7957747E-01            NaN
         13   -1    0    0    0    0  0.00000000000E+00  0.00000000000E+00  0.74505805969E-08  0.10566000000E+00  0.10566000000E+00 0. -1.
     999900   -1    0    0    0    0 -0.00000000000E+00 -0.00000000000E+00 -0.74505805969E-08  0.93827000000E+00  0.93827000000E+00 0.  1.
     999902    2    1    2    0    0  0.18172464803E-01  0.82140018402E-02 -0.12457933496E-01  0.10204159954E+01  0.10201450364E+01 0.  0.
     999903    2    3    3    0    0 -0.49686351631E-01  0.11795447906E+00  0.15916906092E-01  0.13055481367E+00  0.20229157278E-01 0.  0.
         14    1    1    2    0    0 -0.18172464803E-01 -0.82140018402E-02  0.12457933496E-01  0.23514004556E-01  0.00000000000E+00 0. -1.
     999901    1    3    3    0    0  0.67858816435E-01 -0.10974047722E+00 -0.28374839588E-01  0.88986118177E+00  0.88000000000E+00 0. -1.
        -11    1    4    4    0    0 -0.88979420076E-02  0.34681202785E-01 -0.29427134131E-02  0.35928816872E-01  0.51100000000E-03 0. -1.
         11    1    4    4    0    0 -0.40788409624E-01  0.83273276274E-01  0.18859619505E-01  0.94625996798E-01  0.51100000000E-03 0.  1.
</event>
<event>
 8    1  0.1112171E+005  0.1043930E+01  0.7957747E-01            NaN
         13   -1    0    0    0    0  0.00000000000E+00  0.00000000000E+00  0.74505805969E-08  0.10566000000E+00  0.10566000000E+00 0. -1.
     999900   -1    0    0    0    0 -0.00000000000E+00 -0.00000000000E+00 -0.74505805969E-08  0.93827000000E+00  0.93827000000E+00 0. -1.
     999902    2    1    2    0    0 -0.15199317164E-02 -0.21088523753E-01 -0.12004718651E-01  0.10196164380E+01  0.10193265087E+01 0.  0.
     999903    2    3    3    0    0 -0.29586414515E-01 -0.11529539761E+00  0.53148385361E-01  0.13174956201E+00  0.19100041615E-01 0.  0.
         14    1    1    2    0    0  0.15199317164E-02  0.21088523753E-01  0.12004718651E-01  0.24313561984E-01  0.00000000000E+00 0. -1.
     999901    1    3    3    0    0  0.28066482798E-01  0.94206873861E-01 -0.65153104012E-01  0.88786687600E+00  0.88000000000E+00 0. -1.
        -11    1    4    4    0    0 -0.11512926684E-01 -0.80690505649E-01  0.36145614090E-01  0.89164296227E-01  0.51100000000E-03 0.  1.
         11    1    4    4    0    0 -0.18073487831E-01 -0.34604891965E-01  0.17002771270E-01  0.42585265787E-01  0.51100000000E-03 0. -1.
</event>
<event>
 8    1  0.1112171E+005  0.1043930E+01  0.7957747E-01            NaN
         13   -1    0    0    0    0  0.00000000000E+00  0.00000000000E+00  0.74505805969E-08  0.10566000000E+00  0.10566000000E+00 0. -1.
     999900   -1    0    0    0    0 -0.00000000000E+00 -0.00000000000E+00 -0.74505805969E-08  0.93827000000E+00  0.93827000000E+00 0. -1.
     999902    2    1    2    0    0 -0.21866853401E-01 -0.42977549418E-02 -0.77668598590E-02  0.10203301253E+01  0.10200571604E+01 0.  0.
     999903    2    3    3    0    0  0.64557775793E-01 -0.74855926027E-01  0.80325126113E-01  0.12892232295E+00  0.19943003635E-01 0.  0.
         14    1    1    2    0    0  0.21866853401E-01  0.42977549418E-02  0.77668598590E-02  0.23599874730E-01  0.00000000000E+00 0.  1.
     999901    1    3    3    0    0 -0.86424629194E-01  0.70558171085E-01 -0.88091985972E-01  0.89140780232E+00  0.88000000000E+00 0.  1.
        -11    1    4    4    0    0  0.40243496799E-01 -0.35280676455E-01  0.34531187869E-01  0.63694028153E-01  0.51100000000E-03 0. -1.
         11    1    4    4    0    0  0.24314278994E-01 -0.39575249571E-01  0.45793938244E-01  0.65228294800E-01  0.51100000000E-03 0.  1.
</event>
<event>
 7    1  0.1112171E+005  0.1043930E+01  0.7957747E-01            NaN
         13   -1    0    0    0    0  0.00000000000E+00  0.00000000000E+00  0.74505805969E-08  0.10566000000E+00  0.10566000000E+00 0. -1.
     999900   -1    0    0    0    0 -0.00000000000E+00 -0.00000000000E+00 -0.74505805969E-08  0.93827000000E+00  0.93827000000E+00 0.  1.
     999902    2    1    2    0    0 -0.21596494949E-01  0.80190709379E-02  0.56633528025E-02  0.10202068540E+01  0.10199309963E+01 0.  0.
         14    1    1    2    0    0  0.21596494949E-01 -0.80190709379E-02 -0.56633528025E-02  0.23723146034E-01  0.00000000000E+00 0.  1.
     999901    1    3    3    0    0 -0.90863486462E-02  0.53324064855E-01 -0.10124967058E+00  0.88745564025E+00  0.88000000000E+00 0.  1.
        -11    1    3    3    0    0  0.19734864415E-01 -0.24196936210E-01  0.79615022961E-01  0.85520579965E-01  0.51100000000E-03 0.  1.
         11    1    3    3    0    0 -0.32245010717E-01 -0.21108057707E-01  0.27298000420E-01  0.47230633748E-01  0.51100000000E-03 0. -1.
</event>
<event>
 8    1  0.1112171E+005  0.1043930E+01  0.7957747E-01            NaN
         13   -1    0    0    0    0  0.00000000000E+00  0.00000000000E+00  0.74505805969E-08  0.10566000000E+00  0.10566000000E+00 0. -1.
     999900   -1    0    0    0    0 -0.00000000000E+00 -0.00000000000E+00 -0.74505805969E-08  0.93827000000E+00  0.93827000000E+00 0.  1.
     999902    2    1    2    0    0 -0.78824077307E-02  0.21299302652E-01 -0.42008144283E-02  0.10208336911E+01  0.10205723812E+01 0.  0.
     999903    2    3    3    0    0 -0.19466152877E-01  0.12821587597E+00  0.26281320573E-01  0.13376295128E+00  0.19585131232E-01 0.  0.
         14    1    1    2    0    0  0.78824077307E-02 -0.21299302652E-01  0.42008144283E-02  0.23096308946E-01  0.00000000000E+00 0.  1.
     999901    1    3    3    0    0  0.11583745146E-01 -0.10691657332E+00 -0.30482135001E-01  0.88707073977E+00  0.88000000000E+00 0.  1.
        -11    1    4    4    0    0 -0.19769024878E-01  0.74397369700E-01  0.20282184498E-01  0.79607858230E-01  0.51100000000E-03 0. -1.
         11    1    4    4    0    0  0.30287200069E-03  0.53818506274E-01  0.59991360745E-02  0.54155093054E-01  0.51100000000E-03 0.  1.
</event>
<event>
 8    1  0.1112171E+005  0.1043930E+01  0.7957747E-01            NaN
         13   -1    0    0    0    0  0.00000000000E+00  0.00000000000E+00  0.74505805969E-08  0.10566000000E+00  0.10566000000E+00 0.  1.
     999900   -1    0    0    0    0 -0.00000000000E+00 -0.00000000000E+00 -0.74505805969E-08  0.93827000000E+00  0.93827000000E+00 0. -1.
     999902    2    1    2    0    0 -0.14605441004E-01  0.13498080238E-01  0.14295873188E-01  0.10194373671E+01  0.10191430990E+01 0.  0.
     999903    2    3    3    0    0 -0.83773328906E-02 -0.11995350316E+00 -0.41517204335E-01  0.12760598500E+00  0.10029283396E-01 0.  0.
         14    1    1    2    0    0  0.14605441004E-01 -0.13498080238E-01 -0.14295873188E-01  0.24492632918E-01  0.00000000000E+00 0. -1.
     999901    1    3    3    0    0 -0.62281081132E-02  0.13345158340E+00  0.55813077523E-01  0.89183138208E+00  0.88000000000E+00 0. -1.
        -11    1    4    4    0    0 -0.75410475452E-02 -0.79310585037E-01 -0.22932322326E-01  0.82904697245E-01  0.51100000000E-03 0. -1.
         11    1    4    4    0    0 -0.83628534543E-03 -0.40642918123E-01 -0.18584882008E-01  0.44701287756E-01  0.51100000000E-03 0.  1.
</event>
<event>
 8    1  0.1112171E+005  0.1043930E+01  0.7957747E-01            NaN
         13   -1    0    0    0    0  0.00000000000E+00  0.00000000000E+00  0.74505805969E-08  0.10566000000E+00  0.10566000000E+00 0.  1.
     999900   -1    0    0    0    0 -0.00000000000E+00 -0.00000000000E+00 -0.74505805969E-08  0.93827000000E+00  0.93827000000E+00 0. -1.
     999902    2    1    2    0    0 -0.18770234777E-01 -0.16392576921E-01 -0.69550996264E-02  0.10180570082E+01  0.10177281859E+01 0.  0.
     999903    2    3    3    0    0  0.57268444160E-01 -0.10221248248E+00  0.50627477445E-01  0.12875239785E+00  0.16940254069E-01 0.  0.
         14    1    1    2    0    0  0.18770234777E-01  0.16392576921E-01  0.69550996264E-02  0.25872991758E-01  0.00000000000E+00 0.  1.
     999901    1    3    3    0    0 -0.76038678937E-01  0.85819905559E-01 -0.57582577072E-01  0.88930461039E+00  0.88000000000E+00 0. -1.
        -11    1    4    4    0    0 -0.13169106461E-04 -0.39445588689E-02  0.45101256357E-02  0.60134908619E-02  0.51100000000E-03 0.  1.
         11    1    4    4    0    0  0.57281613266E-01 -0.98267923611E-01  0.46117351809E-01  0.12273890699E+00  0.51100000000E-03 0. -1.
</event>
<event>
 8    1  0.1112171E+005  0.1043930E+01  0.7957747E-01            NaN
         13   -1    0    0    0    0  0.00000000000E+00  0.00000000000E+00  0.74505805969E-08  0.10566000000E+00  0.10566000000E+00 0.  1.
     999900   -1    0    0    0    0 -0.00000000000E+00 -0.00000000000E+00 -0.74505805969E-08  0.93827000000E+00  0.93827000000E+00 0. -1.
     999902    2    1    2    0    0 -0.20552321346E-01  0.52236861502E-02  0.10721085115E-01  0.10201681298E+01  0.10198913602E+01 0.  0.
     999903    2    3    3    0    0  0.40522194804E-01  0.77433221351E-01  0.95863245819E-01  0.13101488033E+00  0.18362595916E-01 0.  0.
         14    1    1    2    0    0  0.20552321346E-01 -0.52236861502E-02 -0.10721085115E-01  0.23761870208E-01  0.00000000000E+00 0. -1.
     999901    1    3    3    0    0 -0.61074516150E-01 -0.72209535201E-01 -0.85142160704E-01  0.88915324946E+00  0.88000000000E+00 0. -1.
        -11    1    4    4    0    0  0.35840560509E-01  0.63085098168E-01  0.68619684589E-01  0.99865898196E-01  0.51100000000E-03 0. -1.
         11    1    4    4    0    0  0.46816342944E-02  0.14348123183E-01  0.27243561230E-01  0.31148982135E-01  0.51100000000E-03 0.  1.
</event>
<event>
 8    1  0.1112171E+005  0.1043930E+01  0.7957747E-01            NaN
         13   -1    0    0    0    0  0.00000000000E+00  0.00000000000E+00  0.74505805969E-08  0.10566000000E+00  0.10566000000E+00 0.  1.
     999900   -1    0    0    0    0 -0.00000000000E+00 -0.00000000000E+00 -0.74505805969E-08  0.93827000000E+00  0.93827000000E+00 0. -1.
     999902    2    1    2    0    0 -0.35269082575E-02  0.13569065077E-01  0.18915043411E-01  0.10203856275E+01  0.10201139600E+01 0.  0.
     999903    2    3    3    0    0 -0.10411710620E+00  0.33205505493E-02 -0.74979311295E-01  0.12963337810E+00  0.18207628538E-01 0.  0.
         14    1    1    2    0    0  0.35269082575E-02 -0.13569065077E-01 -0.18915043411E-01  0.23544372495E-01  0.00000000000E+00 0. -1.
     999901    1    3    3    0    0  0.10059019794E+00  0.10248514528E-01  0.93894354706E-01  0.89075224940E+00  0.88000000000E+00 0.  1.
        -11    1    4    4    0    0 -0.22478690248E-01  0.10302630630E-02 -0.76060935865E-02  0.23758508747E-01  0.51100000000E-03 0. -1.
         11    1    4    4    0    0 -0.81638415949E-01  0.22902874863E-02 -0.67373217708E-01  0.10587486935E+00  0.51100000000E-03 0.  1.
</event>
<event>
 8    1  0.1112171E+005  0.1043930E+01  0.7957747E-01            NaN
         13   -1    0    0    0    0  0.00000000000E+00  0.00000000000E+00  0.74505805969E-08  0.10566000000E+00  0.10566000000E+00 0.  1.
     999900   -1    0    0    0    0 -0.00000000000E+00 -0.00000000000E+00 -0.74505805969E-08  0.93827000000E+00  0.93827000000E+00 0. -1.
     999902    2    1    2    0    0 -0.45055435681E-02  0.50237460000E-02  0.23723696908E-01  0.10192652125E+01  0.10189667422E+01 0.  0.
     999903    2    3    3    0    0 -0.12643638790E+00 -0.24973938477E-01  0.12156917148E-01  0.13027658364E+00  0.14640349136E-01 0.  0.
         14    1    1    2    0    0  0.45055435681E-02 -0.50237460000E-02 -0.23723696908E-01  0.24664787485E-01  0.00000000000E+00 0. -1.
     999901    1    3    3    0    0  0.12193084433E+00  0.29997684477E-01  0.11566779760E-01  0.88898862887E+00  0.88000000000E+00 0. -1.
        -11    1    4    4    0    0 -0.35220356315E-01 -0.40256120917E-03  0.24873120780E-02  0.35314067974E-01  0.51100000000E-03 0.  1.
         11    1    4    4    0    0 -0.91216031583E-01 -0.24571377268E-01  0.96696050698E-02  0.94962515667E-01  0.51100000000E-03 0. -1.
</event>
<event>
 8    1  0.1134431E+005  0.1043930E+01  0.7957747E-01            NaN
         13   -1    0    0    0    0  0.00000000000E+00  0.00000000000E+00  0.74505805969E-08  0.10566000000E+00  0.10566000000E+00 0. -1.
     999900   -1    0    0    0    0 -0.00000000000E+00 -0.00000000000E+00 -0.74505805969E-08  0.93827000000E+00  0.93827000000E+00 0.  1.
     999902    2    1    2    0    0 -0.90534378224E-02 -0.21740243715E-01 -0.24865887768E-02  0.10202490782E+01  0.10199742132E+01 0.  0.
     999903    2    3    3    0    0  0.21984593612E-01 -0.42115293520E-01 -0.12098607347E+00  0.13153054576E+00  0.20140362180E-01 0.  0.
         14    1    1    2    0    0  0.90534378224E-02  0.21740243715E-01  0.24865887768E-02  0.23680921792E-01  0.00000000000E+00 0.  1.
     999901    1    3    3    0    0 -0.31038031434E-01  0.20375049805E-01  0.11849948469E+00  0.88871853245E+00  0.88000000000E+00 0. -1.
        -11    1    4    4    0    0  0.23032507946E-01 -0.24537085938E-01 -0.72157239185E-01  0.79620935038E-01  0.51100000000E-03 0. -1.
         11    1    4    4    0    0 -0.10479143343E-02 -0.17578207581E-01 -0.48828834286E-01  0.51909610718E-01  0.51100000000E-03 0.  1.
</event>
<event>
 8    1  0.1112171E+005  0.1043930E+01  0.7957747E-01            NaN
         13   -1    0    0    0    0  0.00000000000E+00  0.00000000000E+00  0.74505805969E-08  0.10566000000E+00  0.10566000000E+00 0.  1.
     999900   -1    0    0    0    0 -0.00000000000E+00 -0.00000000000E+00 -0.74505805969E-08  0.93827000000E+00  0.93827000000E+00 0.  1.
     999902    2    1    2    0    0  0.21830456085E-01 -0.39206568290E-02  0.89608317479E-02  0.10200085270E+01  0.10197279825E+01 0.  0.
     999903    2    3    3    0    0  0.61956180261E-01 -0.10848043970E+00  0.38368233933E-01  0.13242325382E+00  0.21382766625E-01 0.  0.
         14    1    1    2    0    0 -0.21830456085E-01  0.39206568290E-02 -0.89608317479E-02  0.23921472958E-01  0.00000000000E+00 0. -1.
     999901    1    3    3    0    0 -0.40125724176E-01  0.10455978287E+00 -0.29407402185E-01  0.88758527322E+00  0.88000000000E+00 0.  1.
        -11    1    4    4    0    0  0.23059306289E-01 -0.38614519729E-01  0.24647807886E-01  0.51289261011E-01  0.51100000000E-03 0. -1.
         11    1    4    4    0    0  0.38896873972E-01 -0.69865919967E-01  0.13720426047E-01  0.81133992811E-01  0.51100000000E-03 0.  1.
</event>
<event>
 8    1  0.1112171E+005  0.1043930E+01  0.7957747E-01            NaN
         13   -1    0    0    0    0  0.00000000000E+00  0.00000000000E+00  0.74505805969E-08  0.10566000000E+00  0.10566000000E+00 0.  1.
     999900   -1    0    0    0    0 -0.00000000000E+00 -0.00000000000E+00 -0.74505805969E-08  0.93827000000E+00  0.93827000000E+00 0.  1.
     999902    2    1    2    0    0 -0.20948163522E-01 -0.90337480244E-02  0.66944456099E-02  0.10201550182E+01  0.10198779394E+01 0.  0.
     999903    2    3    3    0    0  0.10529791918E+00  0.51924009122E-01  0.46074853477E-01  0.12818823737E+00  0.22925478620E-01 0.  0.
         14    1    1    2    0    0  0.20948163522E-01  0.90337480244E-02 -0.66944456099E-02  0.23774981816E-01  0.00000000000E+00 0. -1.
     999901    1    3    3    0    0 -0.12624608270E+00 -0.60957757147E-01 -0.39380407867E-01  0.89196678082E+00  0.88000000000E+00 0. -1.
        -11    1    4    4    0    0  0.81026066311E-01  0.30078862008E-01  0.27951227607E-01  0.90837732289E-01  0.51100000000E-03 0.  1.
         11    1    4    4    0    0  0.24271852869E-01  0.21845147114E-01  0.18123625870E-01  0.37350505081E-01  0.51100000000E-03 0. -1.
</event>
<event>
 8    1  0.1112171E+005  0.1043930E+01  0.7957747E-01            NaN
         13   -1    0    0    0    0  0.00000000000E+00  0.00000000000E+00  0.74505805969E-08  0.10566000000E+00  0.10566000000E+00 0.  1.
     999900   -1    0    0    0    0 -0.00000000000E+00 -0.00000000000E+00 -0.74505805969E-08  0.93827000000E+00  0.93827000000E+00 0.  1.
     999902    2    1    2    0    0  0.12986668095E-02  0.21198565311E-01  0.16502030413E-01  0.10170342250E+01  0.10166785294E+01 0.  0.
     999903    2    3    3    0    0  0.12230732181E+00 -0.28239573682E-01  0.58939306315E-02  0.12731530534E+00  0.20442457378E-01 0.  0.
         14    1    1    2    0    0 -0.12986668095E-02 -0.21198565311E-01 -0.16502030413E-01  0.26895775031E-01  0.00000000000E+00 0. -1.
     999901    1    3    3    0    0 -0.12100865500E+00  0.49438138994E-01  0.10608099782E-01  0.88971891963E+00  0.88000000000E+00 0. -1.
        -11    1    4    4    0    0  0.12549387154E-01 -0.76366900147E-02  0.53361887986E-02  0.15637844616E-01  0.51100000000E-03 0. -1.
         11    1    4    4    0    0  0.10975793466E+00 -0.20602883668E-01  0.55774183284E-03  0.11167746072E+00  0.51100000000E-03 0.  1.
</event>
<event>
 8    1  0.1112171E+005  0.1043930E+01  0.7957747E-01            NaN
         13   -1    0    0    0    0  0.00000000000E+00  0.00000000000E+00  0.74505805969E-08  0.10566000000E+00  0.10566000000E+00 0. -1.
     999900   -1    0    0    0    0 -0.00000000000E+00 -0.00000000000E+00 -0.74505805969E-08  0.93827000000E+00  0.93827000000E+00 0. -1.
     999902    2    1    2    0    0 -0.18470800848E-01 -0.15108146298E-01 -0.24640561086E-02  0.10199404577E+01  0.10196582952E+01 0.  0.
     999903    2    3    3    0    0 -0.12973558888E+00 -0.15951957765E-01 -0.14811980013E-01  0.13284799558E+00  0.18531249296E-01 0.  0.
         14    1    1    2    0    0  0.18470800848E-01  0.15108146298E-01  0.24640561086E-02  0.23989542326E-01  0.00000000000E+00 0.  1.
     999901    1    3    3    0    0  0.11126478803E+00  0.84381146679E-03  0.12347923904E-01  0.88709246209E+00  0.88000000000E+00 0.  1.
        -11    1    4    4    0    0 -0.10309834130E+00 -0.52998660989E-02 -0.13622599829E-01  0.10413065306E+00  0.51100000000E-03 0.  1.
         11    1    4    4    0    0 -0.26637247577E-01 -0.10652091666E-01 -0.11893801838E-02  0.28717342522E-01  0.51100000000E-03 0. -1.
</event>
<event>
 8    1  0.1112171E+005  0.1043930E+01  0.7957747E-01            NaN
         13   -1    0    0    0    0  0.00000000000E+00  0.00000000000E+00  0.74505805969E-08  0.10566000000E+00  0.10566000000E+00 0.  1.
     999900   -1    0    0    0    0 -0.00000000000E+00 -0.00000000000E+00 -0.74505805969E-08  0.93827000000E+00  0.93827000000E+00 0.  1.
     999902    2    1    2    0    0 -0.64445450743E-02  0.28143228251E-02  0.23083069234E-01  0.10197995077E+01  0.10195139799E+01 0.  0.
     999903    2    3    3    0    0 -0.11227216763E-01 -0.11093103734E+00  0.66260880519E-01  0.13141602951E+00  0.21164193425E-01 0.  0.
         14    1    1    2    0    0  0.64445450743E-02 -0.28143228251E-02 -0.23083069234E-01  0.24130492316E-01  0.00000000000E+00 0.  1.
     999901    1    3    3    0    0  0.47826716884E-02  0.11374536016E+00 -0.43177811286E-01  0.88838347818E+00  0.88000000000E+00 0. -1.
        -11    1    4    4    0    0  0.48351627587E-02 -0.33422735323E-01  0.13986006432E-01  0.36555813932E-01  0.51100000000E-03 0.  1.
         11    1    4    4    0    0 -0.16062379521E-01 -0.77508302016E-01  0.52274874088E-01  0.94860215576E-01  0.51100000000E-03 0. -1.
</event>
<event>
 8    1  0.1112171E+005  0.1043930E+01  0.7957747E-01            NaN
         13   -1    0    0    0    0  0.00000000000E+00  0.00000000000E+00  0.74505805969E-08  0.10566000000E+00  0.10566000000E+00 0.  1.
     999900   -1    0    0    0    0 -0.00000000000E+00 -0.00000000000E+00 -0.74505805969E-08  0.93827000000E+00  0.93827000000E+00 0.  1.
     999902    2    1    2    0    0 -0.13544329197E-01  0.59922153292E-02 -0.18708456383E-01  0.10200686958E+01  0.10197895775E+01 0.  0.
     999903    2    3    3    0    0  0.10049417916E+00  0.23004053224E-01  0.73005405511E-01  0.12782118727E+00  0.19498722260E-01 0.  0.
         14    1    1    2    0    0  0.13544329197E-01 -0.59922153292E-02  0.18708456383E-01  0.23861304201E-01  0.00000000000E+00 0.  1.
     999901    1    3    3    0    0 -0.11403850836E+00 -0.17011837894E-01 -0.91713861894E-01  0.89224750853E+00  0.88000000000E+00 0. -1.
        -11    1    4    4    0    0  0.70678276347E-01  0.19474308971E-01  0.41273503232E-01  0.84133409817E-01  0.51100000000E-03 0.  1.
         11    1    4    4    0    0  0.29815902817E-01  0.35297442530E-02  0.31731902279E-01  0.43687777450E-01  0.51100000000E-03 0. -1.
</event>
<event>
 8    1  0.1112171E+005  0.1043930E+01  0.7957747E-01            NaN
         13   -1    0    0    0    0  0.00000000000E+00  0.00000000000E+00  0.74505805969E-08  0.10566000000E+00  0.10566000000E+00 0. -1.
     999900   -1    0    0    0    0 -0.00000000000E+00 -0.00000000000E+00 -0.74505805969E-08  0.93827000000E+00  0.93827000000E+00 0.  1.
     999902    2    1    2    0    0 -0.15142099753E-01  0.13838510591E-01 -0.75898648249E-02  0.10220577891E+01  0.10218237278E+01 0.  0.
     999903    2    3    3    0    0  0.28447863873E-01  0.68032827326E-01  0.10736714122E+00  0.13185993352E+00  0.20532717816E-01 0.  0.
         14    1    1    2    0    0  0.15142099753E-01 -0.13838510591E-01  0.75898648249E-02  0.21872210870E-01  0.00000000000E+00 0. -1.
     999901    1    3    3    0    0 -0.43589963626E-01 -0.54194316735E-01 -0.11495700605E+00  0.89019785561E+00  0.88000000000E+00 0.  1.
        -11    1    4    4    0    0 -0.10932972995E-02  0.19679366519E-01  0.24044611131E-01  0.31094649235E-01  0.51100000000E-03 0. -1.
         11    1    4    4    0    0  0.29541161173E-01  0.48353460806E-01  0.83322530089E-01  0.10076528428E+00  0.51100000000E-03 0.  1.
</event>
<event>
 8    1  0.1112171E+005  0.1043930E+01  0.7957747E-01            NaN
         13   -1    0    0    0    0  0.00000000000E+00  0.00000000000E+00  0.74505805969E-08  0.10566000000E+00  0.10566000000E+00 0.  1.
     999900   -1    0    0    0    0 -0.00000000000E+00 -0.00000000000E+00 -0.74505805969E-08  0.93827000000E+00  0.93827000000E+00 0. -1.
     999902    2    1    2    0    0  0.19142068362E-01 -0.82158572308E-03 -0.15323666241E-01  0.10193961758E+01  0.10191009050E+01 0.  0.
     999903    2    3    3    0    0  0.48737119820E-01 -0.24899833834E-01 -0.11891284816E+00  0.13249914245E+00  0.20504846259E-01 0.  0.
         14    1    1    2    0    0 -0.19142068362E-01  0.82158572308E-03  0.15323666241E-01  0.24533824230E-01  0.00000000000E+00 0.  1.
     999901    1    3    3    0    0 -0.29595051458E-01  0.24078248111E-01  0.10358918191E+00  0.88689703332E+00  0.88000000000E+00 0.  1.
        -11    1    4    4    0    0  0.28550875580E-01 -0.25235716759E-01 -0.73265532171E-01  0.82583855699E-01  0.51100000000E-03 0. -1.
         11    1    4    4    0    0  0.20186244240E-01  0.33588292459E-03 -0.45647315984E-01  0.49915286751E-01  0.51100000000E-03 0.  1.
</event>
<event>
 8    1  0.1112171E+005  0.1043930E+01  0.7957747E-01            NaN
         13   -1    0    0    0    0  0.00000000000E+00  0.00000000000E+00  0.74505805969E-08  0.10566000000E+00  0.10566000000E+00 0.  1.
     999900   -1    0    0    0    0 -0.00000000000E+00 -0.00000000000E+00 -0.74505805969E-08  0.93827000000E+00  0.93827000000E+00 0. -1.
     999902    2    1    2    0    0  0.14299053045E-01 -0.29099724987E-02  0.18848247231E-01  0.10200933207E+01  0.10198147849E+01 0.  0.
     999903    2    3    3    0    0 -0.65069295824E-01  0.33790668588E-01 -0.10242017090E+00  0.12748349488E+00  0.19655216042E-01 0.  0.
         14    1    1    2    0    0 -0.14299053045E-01  0.29099724987E-02 -0.18848247231E-01  0.23836679332E-01  0.00000000000E+00 0. -1.
     999901    1    3    3    0    0  0.79368348869E-01 -0.36700641087E-01  0.12126841813E+00  0.89260982579E+00  0.88000000000E+00 0.  1.
        -11    1    4    4    0    0 -0.55652548741E-01  0.25608003438E-01 -0.94747449687E-01  0.11282870364E+00  0.51100000000E-03 0. -1.
         11    1    4    4    0    0 -0.94167470829E-02  0.81826651499E-02 -0.76727212096E-02  0.14654791242E-01  0.51100000000E-03 0.  1.
</event>
<event>
 8    1  0.1112171E+005  0.1043930E+01  0.7957747E-01            NaN
         13   -1    0    0    0    0  0.00000000000E+00  0.00000000000E+00  0.74505805969E-08  0.10566000000E+00  0.10566000000E+00 0.  1.
     999900   -1    0    0    0    0 -0.00000000000E+00 -0.00000000000E+00 -0.74505805969E-08  0.93827000000E+00  0.93827000000E+00 0.  1.
     999902    2    1    2    0    0 -0.21823390693E-01 -0.80358949630E-02  0.42570157853E-02  0.10202877037E+01  0.10200137451E+01 0.  0.
     999903    2    3    3    0    0 -0.82102736184E-01 -0.95681445034E-01 -0.35847459932E-01  0.13297506948E+00  0.22394876799E-01 0.  0.
         14    1    1    2    0    0  0.21823390693E-01  0.80358949630E-02 -0.42570157853E-02  0.23642296263E-01  0.00000000000E+00 0. -1.
     999901    1    3    3    0    0  0.60279345491E-01  0.87645550071E-01  0.40104475717E-01  0.88731263426E+00  0.88000000000E+00 0. -1.
        -11    1    4    4    0    0 -0.22670091055E-01 -0.30925794394E-01 -0.21349952711E-01  0.43890994396E-01  0.51100000000E-03 0. -1.
         11    1    4    4    0    0 -0.59432645129E-01 -0.64755650640E-01 -0.14497507221E-01  0.89084075083E-01  0.51100000000E-03 0.  1.
</event>
<event>
 8    1  0.1112171E+005  0.1043930E+01  0.7957747E-01            NaN
         13   -1    0    0    0    0  0.00000000000E+00  0.00000000000E+00  0.74505805969E-08  0.10566000000E+00  0.10566000000E+00 0. -1.
     999900   -1    0    0    0    0 -0.00000000000E+00 -0.00000000000E+00 -0.74505805969E-08  0.93827000000E+00  0.93827000000E+00 0. -1.
     999902    2    1    2    0    0 -0.66750802303E-02  0.19590753424E-01  0.12390718877E-01  0.10198077234E+01  0.10195223923E+01 0.  0.
     999903    2    3    3    0    0 -0.66724739076E-01  0.43403947985E-01  0.10428305222E+00  0.13266780729E+00  0.19740785367E-01 0.  0.
         14    1    1    2    0    0  0.66750802303E-02 -0.19590753424E-01 -0.12390718877E-01  0.24122276636E-01  0.00000000000E+00 0. -1.
     999901    1    3    3    0    0  0.60049658845E-01 -0.23813194561E-01 -0.91892333338E-01  0.88713991607E+00  0.88000000000E+00 0. -1.
        -11    1    4    4    0    0 -0.44544028930E-01  0.35298500151E-01  0.61111449773E-01  0.83456725556E-01  0.51100000000E-03 0.  1.
         11    1    4    4    0    0 -0.22180710146E-01  0.81054478343E-02  0.43171602443E-01  0.49211081736E-01  0.51100000000E-03 0. -1.
</event>
<event>
 8    1  0.1112171E+005  0.1043930E+01  0.7957747E-01            NaN
         13   -1    0    0    0    0  0.00000000000E+00  0.00000000000E+00  0.74505805969E-08  0.10566000000E+00  0.10566000000E+00 0.  1.
     999900   -1    0    0    0    0 -0.00000000000E+00 -0.00000000000E+00 -0.74505805969E-08  0.93827000000E+00  0.93827000000E+00 0. -1.
     999902    2    1    2    0    0  0.74769607776E-02  0.22259789884E-01 -0.14904139302E-02  0.10204007730E+01  0.10201294590E+01 0.  0.
     999903    2    3    3    0    0  0.47746861257E-01 -0.47930605451E-01 -0.10941016751E+00  0.13012270990E+00  0.19601764644E-01 0.  0.
         14    1    1    2    0    0 -0.74769607776E-02 -0.22259789884E-01  0.14904139302E-02  0.23529226971E-01  0.00000000000E+00 0. -1.
     999901    1    3    3    0    0 -0.40269900479E-01  0.70190395335E-01  0.10791975358E+00  0.89027806313E+00  0.88000000000E+00 0.  1.
        -11    1    4    4    0    0  0.23165194708E-01 -0.35116450872E-01 -0.74306021682E-01  0.85389913614E-01  0.51100000000E-03 0. -1.
         11    1    4    4    0    0  0.24581666549E-01 -0.12814154579E-01 -0.35104145830E-01  0.44732796283E-01  0.51100000000E-03 0.  1.
</event>
<event>
 8    1  0.1112171E+005  0.1043930E+01  0.7957747E-01            NaN
         13   -1    0    0    0    0  0.00000000000E+00  0.00000000000E+00  0.74505805969E-08  0.10566000000E+00  0.10566000000E+00 0.  1.
     999900   -1    0    0    0    0 -0.00000000000E+00 -0.00000000000E+00 -0.74505805969E-08  0.93827000000E+00  0.93827000000E+00 0. -1.
     999902    2    1    2    0    0 -0.16446074345E-01 -0.16197230657E-01  0.74385714103E-02  0.10196780725E+01  0.10193896289E+01 0.  0.
     999903    2    3    3    0    0 -0.22744304242E-01 -0.11498834760E+00  0.59420703319E-01  0.13260338878E+00  0.17697888933E-01 0.  0.
         14    1    1    2    0    0  0.16446074345E-01  0.16197230657E-01 -0.74385714103E-02  0.24251927489E-01  0.00000000000E+00 0. -1.
     999901    1    3    3    0    0  0.62982298970E-02  0.98791116943E-01 -0.51982131908E-01  0.88707468374E+00  0.88000000000E+00 0.  1.
        -11    1    4    4    0    0 -0.97873815190E-03 -0.17314585258E-01  0.26502238226E-02  0.17550999924E-01  0.51100000000E-03 0. -1.
         11    1    4    4    0    0 -0.21765566090E-01 -0.97673762342E-01  0.56770479496E-01  0.11505238885E+00  0.51100000000E-03 0.  1.
</event>
<event>
 8    1  0.1209933E+005  0.1043930E+01  0.7957747E-01            NaN
         13   -1    0    0    0    0  0.00000000000E+00  0.00000000000E+00  0.74505805969E-08  0.10566000000E+00  0.10566000000E+00 0.  1.
     999900   -1    0    0    0    0 -0.00000000000E+00 -0.00000000000E+00 -0.74505805969E-08  0.93827000000E+00  0.93827000000E+00 0. -1.
     999902    2    1    2    0    0  0.42122063976E-02 -0.92424244540E-02 -0.20676924019E-01  0.10208930671E+01  0.10206331143E+01 0.  0.
     999903    2    3    3    0    0 -0.89079779575E-02  0.24845331207E-01  0.12393035400E+00  0.12834313614E+00  0.20410423753E-01 0.  0.
         14    1    1    2    0    0 -0.42122063976E-02  0.92424244540E-02  0.20676924019E-01  0.23036932943E-01  0.00000000000E+00 0.  1.
     999901    1    3    3    0    0  0.13120184355E-01 -0.34087755661E-01 -0.14460727802E+00  0.89254993092E+00  0.88000000000E+00 0. -1.
        -11    1    4    4    0    0 -0.15220216585E-01  0.13976839979E-01  0.71761107298E-01  0.74678810183E-01  0.51100000000E-03 0.  1.
         11    1    4    4    0    0  0.63122386272E-02  0.10868491228E-01  0.52169246702E-01  0.53664325958E-01  0.51100000000E-03 0. -1.
</event>
<event>
 8    1  0.1112171E+005  0.1043930E+01  0.7957747E-01            NaN
         13   -1    0    0    0    0  0.00000000000E+00  0.00000000000E+00  0.74505805969E-08  0.10566000000E+00  0.10566000000E+00 0.  1.
     999900   -1    0    0    0    0 -0.00000000000E+00 -0.00000000000E+00 -0.74505805969E-08  0.93827000000E+00  0.93827000000E+00 0.  1.
     999902    2    1    2    0    0  0.17492993623E-02  0.55928530153E-02 -0.22718445277E-01  0.10204679496E+01  0.10201982005E+01 0.  0.
     999903    2    3    3    0    0  0.10018166096E+00 -0.71004755929E-01  0.36176767057E-01  0.12972400798E+00  0.21012358599E-01 0.  0.
         14    1    1    2    0    0 -0.17492993623E-02 -0.55928530153E-02  0.22718445277E-01  0.23462050399E-01  0.00000000000E+00 0.  1.
     999901    1    3    3    0    0 -0.98432361596E-01  0.76597608944E-01 -0.58895212334E-01  0.89074394162E+00  0.88000000000E+00 0. -1.
        -11    1    4    4    0    0  0.54298925944E-01 -0.40122146441E-01  0.30620937134E-01  0.74135436235E-01  0.51100000000E-03 0. -1.
         11    1    4    4    0    0  0.45882735014E-01 -0.30882609487E-01  0.55558299225E-02  0.55588571741E-01  0.51100000000E-03 0.  1.
</event>
<event>
 8    1  0.1418272E+005  0.1043930E+01  0.7957747E-01            NaN
         13   -1    0    0    0    0  0.00000000000E+00  0.00000000000E+00  0.74505805969E-08  0.10566000000E+00  0.10566000000E+00 0.  1.
     999900   -1    0    0    0    0 -0.00000000000E+00 -0.00000000000E+00 -0.74505805969E-08  0.93827000000E+00  0.93827000000E+00 0.  1.
     999902    2    1    2    0    0  0.21219140118E-01 -0.10016072708E-01 -0.59661066221E-02  0.10197190924E+01  0.10194316354E+01 0.  0.
     999903    2    3    3    0    0  0.17898097932E-01 -0.27071359954E-01 -0.12582359335E+00  0.13142424872E+00  0.19686443770E-01 0.  0.
         14    1    1    2    0    0 -0.21219140118E-01  0.10016072708E-01  0.59661066221E-02  0.24210907626E-01  0.00000000000E+00 0. -1.
     999901    1    3    3    0    0  0.33210421857E-02  0.17055287246E-01  0.11985748673E+00  0.88829484366E+00  0.88000000000E+00 0. -1.
        -11    1    4    4    0    0  0.40888816523E-02 -0.21669487318E-01 -0.59387736576E-01  0.63351795637E-01  0.51100000000E-03 0.  1.
         11    1    4    4    0    0  0.13809216280E-01 -0.54018726362E-02 -0.66435856773E-01  0.68072453080E-01  0.51100000000E-03 0. -1.
</event>
<event>
 8    1  0.1112171E+005  0.1043930E+01  0.7957747E-01            NaN
         13   -1    0    0    0    0  0.00000000000E+00  0.00000000000E+00  0.74505805969E-08  0.10566000000E+00  0.10566000000E+00 0. -1.
     999900   -1    0    0    0    0 -0.00000000000E+00 -0.00000000000E+00 -0.74505805969E-08  0.93827000000E+00  0.93827000000E+00 0.  1.
     999902    2    1    2    0    0 -0.42981369888E-02 -0.83311559207E-02 -0.21554610213E-01  0.10204250354E+01  0.10201542871E+01 0.  0.
     999903    2    3    3    0    0 -0.12107161835E+00  0.41177731463E-01  0.21462957216E-01  0.13029151338E+00  0.12699511250E-01 0.  0.
         14    1    1    2    0    0  0.42981369888E-02  0.83311559207E-02  0.21554610213E-01  0.23504964624E-01  0.00000000000E+00 0. -1.
     999901    1    3    3    0    0  0.11677348137E+00 -0.49508887383E-01 -0.43017567428E-01  0.89013352200E+00  0.88000000000E+00 0.  1.
        -11    1    4    4    0    0 -0.66779589748E-01  0.29312302353E-01  0.12711153257E-01  0.74030799093E-01  0.51100000000E-03 0.  1.
         11    1    4    4    0    0 -0.54292028607E-01  0.11865429109E-01  0.87518039586E-02  0.56260714284E-01  0.51100000000E-03 0. -1.
</event>
<event>
 8    1  0.1112171E+005  0.1043930E+01  0.7957747E-01            NaN
         13   -1    0    0    0    0  0.00000000000E+00  0.00000000000E+00  0.74505805969E-08  0.10566000000E+00  0.10566000000E+00 0.  1.
     999900   -1    0    0    0    0 -0.00000000000E+00 -0.00000000000E+00 -0.74505805969E-08  0.93827000000E+00  0.93827000000E+00 0. -1.
     999902    2    1    2    0    0  0.57715131306E-02 -0.13588502186E-01 -0.18565133491E-01  0.10202103470E+01  0.10199345716E+01 0.  0.
     999903    2    3    3    0    0 -0.71017944545E-03  0.12688869540E+00 -0.12888301718E-01  0.12902681834E+00  0.19508104863E-01 0.  0.
         14    1    1    2    0    0 -0.57715131306E-02  0.13588502186E-01  0.18565133491E-01  0.23719652970E-01  0.00000000000E+00 0. -1.
     999901    1    3    3    0    0  0.64816925761E-02 -0.14047719759E+00 -0.56768317734E-02  0.89118352869E+00  0.88000000000E+00 0.  1.
        -11    1    4    4    0    0  0.59785619062E-02  0.30101254448E-01  0.24969229054E-02  0.30794877282E-01  0.51100000000E-03 0.  1.
         11    1    4    4    0    0 -0.66887413516E-02  0.96787440954E-01 -0.15385224623E-01  0.98231941063E-01  0.51100000000E-03 0. -1.
</event>
<event>
 8    1  0.1112171E+005  0.1043930E+01  0.7957747E-01            NaN
         13   -1    0    0    0    0  0.00000000000E+00  0.00000000000E+00  0.74505805969E-08  0.10566000000E+00  0.10566000000E+00 0.  1.
     999900   -1    0    0    0    0 -0.00000000000E+00 -0.00000000000E+00 -0.74505805969E-08  0.93827000000E+00  0.93827000000E+00 0.  1.
     999902    2    1    2    0    0  0.89434032637E-02  0.20998243212E-01  0.15845700798E-02  0.10210515922E+01  0.10207952451E+01 0.  0.
     999903    2    3    3    0    0 -0.12656566488E+00 -0.18891262054E-01  0.82762038534E-02  0.12976114678E+00  0.19842186223E-01 0.  0.
         14    1    1    2    0    0 -0.89434032637E-02 -0.20998243212E-01 -0.15845700798E-02  0.22878407774E-01  0.00000000000E+00 0. -1.
     999901    1    3    3    0    0  0.13550906815E+00  0.39889505266E-01 -0.66916337736E-02  0.89129044545E+00  0.88000000000E+00 0. -1.
        -11    1    4    4    0    0 -0.72564027368E-01 -0.16940362938E-01 -0.29202769558E-02  0.74574145002E-01  0.51100000000E-03 0.  1.
         11    1    4    4    0    0 -0.54001637516E-01 -0.19508991159E-02  0.11196480809E-01  0.55187001778E-01  0.51100000000E-03 0. -1.
</event>
<event>
 8    1  0.1112171E+005  0.1043930E+01  0.7957747E-01            NaN
         13   -1    0    0    0    0  0.00000000000E+00  0.00000000000E+00  0.74505805969E-08  0.10566000000E+00  0.10566000000E+00 0.  1.
     999900   -1    0    0    0    0 -0.00000000000E+00 -0.00000000000E+00 -0.74505805969E-08  0.93827000000E+00  0.93827000000E+00 0.  1.
     999902    2    1    2    0    0 -0.32853555856E-02 -0.27801353585E-02 -0.24266550200E-01  0.10192847536E+01  0.10189867618E+01 0.  0.
     999903    2    3    3    0    0  0.12281160199E+00 -0.35307827598E-01 -0.57478447104E-02  0.12950869413E+00  0.20251712599E-01 0.  0.
         14    1    1    2    0    0  0.32853555856E-02  0.27801353585E-02  0.24266550200E-01  0.24645246449E-01  0.00000000000E+00 0.  1.
     999901    1    3    3    0    0 -0.12609695757E+00  0.32527692240E-01 -0.18518705490E-01  0.88977605942E+00  0.88000000000E+00 0.  1.
        -11    1    4    4    0    0  0.65629845263E-01 -0.19730689046E-01 -0.13139950261E-01  0.69781774793E-01  0.51100000000E-03 0.  1.
         11    1    4    4    0    0  0.57181756724E-01 -0.15577138552E-01  0.73921055505E-02  0.59726919333E-01  0.51100000000E-03 0. -1.
</event>
<event>
 8    1  0.1112171E+005  0.1043930E+01  0.7957747E-01            NaN
         13   -1    0    0    0    0  0.00000000000E+00  0.00000000000E+00  0.74505805969E-08  0.10566000000E+00  0.10566000000E+00 0. -1.
     999900   -1    0    0    0    0 -0.00000000000E+00 -0.00000000000E+00 -0.74505805969E-08  0.93827000000E+00  0.93827000000E+00 0.  1.
     999902    2    1    2    0    0 -0.20919608317E-01 -0.11668010231E-01  0.14326408832E-02  0.10199336475E+01  0.10196513229E+01 0.  0.
     999903    2    3    3    0    0  0.11773201459E+00 -0.29424165476E-01 -0.35820406712E-01  0.12812237644E+00  0.20140333531E-01 0.  0.
         14    1    1    2    0    0  0.20919608317E-01  0.11668010231E-01 -0.14326408832E-02  0.23996352531E-01  0.00000000000E+00 0. -1.
     999901    1    3    3    0    0 -0.13865162290E+00  0.17756155245E-01  0.37253047595E-01  0.89181127103E+00  0.88000000000E+00 0. -1.
        -11    1    4    4    0    0  0.37625199711E-01 -0.51052312584E-02 -0.26287751520E-02  0.38064295859E-01  0.51100000000E-03 0.  1.
         11    1    4    4    0    0  0.80106814875E-01 -0.24318934218E-01 -0.33191631560E-01  0.90058080579E-01  0.51100000000E-03 0. -1.
</event>
<event>
 8    1  0.1112171E+005  0.1043930E+01  0.7957747E-01            NaN
         13   -1    0    0    0    0  0.00000000000E+00  0.00000000000E+00  0.74505805969E-08  0.10566000000E+00  0.10566000000E+00 0. -1.
     999900   -1    0    0    0    0 -0.00000000000E+00 -0.00000000000E+00 -0.74505805969E-08  0.93827000000E+00  0.93827000000E+00 0.  1.
     999902    2    1    2    0    0  0.21413207014E-01  0.83959426906E-02  0.39779225373E-02  0.10205881673E+01  0.10203212073E+01 0.  0.
     999903    2    3    3    0    0 -0.87113249861E-01  0.16257722255E-01  0.92248963103E-01  0.12950367293E+00  0.20206391924E-01 0.  0.
         14    1    1    2    0    0 -0.21413207014E-01 -0.83959426906E-02 -0.39779225373E-02  0.23341832747E-01  0.00000000000E+00 0.  1.
     999901    1    3    3    0    0  0.10852645687E+00 -0.78617795642E-02 -0.88271040566E-01  0.89108449432E+00  0.88000000000E+00 0.  1.
        -11    1    4    4    0    0 -0.54999876542E-01  0.10556582440E-01  0.43811205563E-01  0.71106333799E-01  0.51100000000E-03 0.  1.
         11    1    4    4    0    0 -0.32113373319E-01  0.57011398154E-02  0.48437757540E-01  0.58397339131E-01  0.51100000000E-03 0. -1.
</event>
<event>
 8    1  0.1112171E+005  0.1043930E+01  0.7957747E-01            NaN
         13   -1    0    0    0    0  0.00000000000E+00  0.00000000000E+00  0.74505805969E-08  0.10566000000E+00  0.10566000000E+00 0. -1.
     999900   -1    0    0    0    0 -0.00000000000E+00 -0.00000000000E+00 -0.74505805969E-08  0.93827000000E+00  0.93827000000E+00 0.  1.
     999902    2    1    2    0    0 -0.11017107863E-01  0.18137296658E-01  0.11067340441E-01  0.10199962535E+01  0.10197154176E+01 0.  0.
     999903    2    3    3    0    0 -0.10503491130E+00  0.40963701272E-01  0.67417629100E-01  0.13290226350E+00  0.20187063113E-01 0.  0.
         14    1    1    2    0    0  0.11017107863E-01 -0.18137296658E-01 -0.11067340441E-01  0.23933746472E-01  0.00000000000E+00 0.  1.
     999901    1    3    3    0    0  0.94017803434E-01 -0.22826404615E-01 -0.56350288658E-01  0.88709399003E+00  0.88000000000E+00 0.  1.
        -11    1    4    4    0    0 -0.40948430624E-01  0.12905152416E-01  0.36740162354E-01  0.56510331624E-01  0.51100000000E-03 0.  1.
         11    1    4    4    0    0 -0.64086480673E-01  0.28058548856E-01  0.30677466746E-01  0.76391931877E-01  0.51100000000E-03 0. -1.
</event>
<event>
 8    1  0.1112171E+005  0.1043930E+01  0.7957747E-01            NaN
         13   -1    0    0    0    0  0.00000000000E+00  0.00000000000E+00  0.74505805969E-08  0.10566000000E+00  0.10566000000E+00 0.  1.
     999900   -1    0    0    0    0 -0.00000000000E+00 -0.00000000000E+00 -0.74505805969E-08  0.93827000000E+00  0.93827000000E+00 0.  1.
     999902    2    1    2    0    0  0.18696400203E-01  0.48013956102E-02  0.14446015465E-01  0.10198199162E+01  0.10195348769E+01 0.  0.
     999903    2    3    3    0    0  0.99686572503E-01 -0.81560622652E-01 -0.15483706207E-01  0.13138669162E+00  0.20812728626E-01 0.  0.
         14    1    1    2    0    0 -0.18696400203E-01 -0.48013956102E-02 -0.14446015465E-01  0.24110083848E-01  0.00000000000E+00 0. -1.
     999901    1    3    3    0    0 -0.80990172300E-01  0.86362018262E-01  0.29929721673E-01  0.88843322453E+00  0.88000000000E+00 0. -1.
        -11    1    4    4    0    0  0.34678506105E-01 -0.39099063813E-01 -0.12194931543E-01  0.53668548081E-01  0.51100000000E-03 0. -1.
         11    1    4    4    0    0  0.65008066398E-01 -0.42461558839E-01 -0.32887746642E-02  0.77718143542E-01  0.51100000000E-03 0.  1.
</event>
<event>
 8    1  0.1112171E+005  0.1043930E+01  0.7957747E-01            NaN
         13   -1    0    0    0    0  0.00000000000E+00  0.00000000000E+00  0.74505805969E-08  0.10566000000E+00  0.10566000000E+00 0.  1.
     999900   -1    0    0    0    0 -0.00000000000E+00 -0.00000000000E+00 -0.74505805969E-08  0.93827000000E+00  0.93827000000E+00 0. -1.
     999902    2    1    2    0    0 -0.16841564448E-01  0.43656974666E-02 -0.16176812321E-01  0.10201731723E+01  0.10198965215E+01 0.  0.
     999903    2    3    3    0    0  0.87951043860E-01  0.87556986393E-01  0.28609825980E-01  0.12893351634E+00  0.20092722852E-01 0.  0.
         14    1    1    2    0    0  0.16841564448E-01 -0.43656974666E-02  0.16176812321E-01  0.23756827740E-01  0.00000000000E+00 0.  1.
     999901    1    3    3    0    0 -0.10479260831E+00 -0.83191288926E-01 -0.44786638301E-01  0.89123965592E+00  0.88000000000E+00 0. -1.
        -11    1    4    4    0    0  0.17889348742E-01  0.23991999428E-01  0.14592458160E-01  0.33299336196E-01  0.51100000000E-03 0. -1.
         11    1    4    4    0    0  0.70061695118E-01  0.63564986965E-01  0.14017367820E-01  0.95634180146E-01  0.51100000000E-03 0.  1.
</event>
<event>
 7    1  0.1112171E+005  0.1043930E+01  0.7957747E-01            NaN
         13   -1    0    0    0    0  0.00000000000E+00  0.00000000000E+00  0.74505805969E-08  0.10566000000E+00  0.10566000000E+00 0. -1.
     999900   -1    0    0    0    0 -0.00000000000E+00 -0.00000000000E+00 -0.74505805969E-08  0.93827000000E+00  0.93827000000E+00 0. -1.
     999903    2    1    2    0    0 -0.31829541157E-01  0.11001887367E+00  0.69420455640E-02  0.11645471574E+00  0.19905691836E-01 0.  0.
         14    1    1    2    0    0 -0.28475176815E-01 -0.86122266303E-02  0.25246960591E-01  0.39018138875E-01  0.00000000000E+00 0. -1.
     999901    1    1    2    0    0  0.60304717972E-01 -0.10140664704E+00 -0.32189006155E-01  0.88845714539E+00  0.88000000000E+00 0.  1.
        -11    1    3    3    0    0 -0.53888289631E-02  0.36988551460E-02  0.16842901712E-02  0.67689704805E-02  0.51100000000E-03 0. -1.
         11    1    3    3    0    0 -0.26440712194E-01  0.10632001852E+00  0.52577553927E-02  0.10968574526E+00  0.51100000000E-03 0.  1.
</event>
<event>
 8    1  0.1112171E+005  0.1043930E+01  0.7957747E-01            NaN
         13   -1    0    0    0    0  0.00000000000E+00  0.00000000000E+00  0.74505805969E-08  0.10566000000E+00  0.10566000000E+00 0. -1.
     999900   -1    0    0    0    0 -0.00000000000E+00 -0.00000000000E+00 -0.74505805969E-08  0.93827000000E+00  0.93827000000E+00 0.  1.
     999902    2    1    2    0    0 -0.48063100514E-02 -0.18572739349E-01  0.13855619671E-01  0.10202651429E+01  0.10199906551E+01 0.  0.
     999903    2    3    3    0    0 -0.91965189592E-01  0.85271767503E-01 -0.22201583424E-01  0.12915321182E+00  0.21418949264E-01 0.  0.
         14    1    1    2    0    0  0.48063100514E-02  0.18572739349E-01 -0.13855619671E-01  0.23664857060E-01  0.00000000000E+00 0.  1.
     999901    1    3    3    0    0  0.87158879540E-01 -0.10384450685E+00  0.36057203095E-01  0.89111193112E+00  0.88000000000E+00 0. -1.
        -11    1    4    4    0    0 -0.74624022139E-01  0.56464480433E-01 -0.15257141061E-01  0.94815735536E-01  0.51100000000E-03 0. -1.
         11    1    4    4    0    0 -0.17341167452E-01  0.28807287070E-01 -0.69444423636E-02  0.34337476286E-01  0.51100000000E-03 0.  1.
</event>
<event>
 8    1  0.1112171E+005  0.1043930E+01  0.7957747E-01            NaN
         13   -1    0    0    0    0  0.00000000000E+00  0.00000000000E+00  0.74505805969E-08  0.10566000000E+00  0.10566000000E+00 0.  1.
     999900   -1    0    0    0    0 -0.00000000000E+00 -0.00000000000E+00 -0.74505805969E-08  0.93827000000E+00  0.93827000000E+00 0.  1.
     999902    2    1    2    0    0  0.88299532456E-02  0.22526293664E-01  0.34948162008E-02  0.10194838199E+01  0.10191906806E+01 0.  0.
     999903    2    3    3    0    0  0.85347472366E-01  0.94991057205E-01 -0.28966602524E-01  0.13260174410E+00  0.20896566445E-01 0.  0.
         14    1    1    2    0    0 -0.88299532456E-02 -0.22526293664E-01 -0.34948162008E-02  0.24446180087E-01  0.00000000000E+00 0.  1.
     999901    1    3    3    0    0 -0.76517519120E-01 -0.72464763541E-01  0.32461418725E-01  0.88688207581E+00  0.88000000000E+00 0. -1.
        -11    1    4    4    0    0  0.18960038072E-01  0.30415518524E-01 -0.15341236867E-01  0.38989761225E-01  0.51100000000E-03 0. -1.
         11    1    4    4    0    0  0.66387434294E-01  0.64575538682E-01 -0.13625365657E-01  0.93611982878E-01  0.51100000000E-03 0.  1.
</event>
<event>
 8    1  0.1112171E+005  0.1043930E+01  0.7957747E-01            NaN
         13   -1    0    0    0    0  0.00000000000E+00  0.00000000000E+00  0.74505805969E-08  0.10566000000E+00  0.10566000000E+00 0.  1.
     999900   -1    0    0    0    0 -0.00000000000E+00 -0.00000000000E+00 -0.74505805969E-08  0.93827000000E+00  0.93827000000E+00 0.  1.
     999902    2    1    2    0    0 -0.95916590701E-03 -0.24194256378E-01 -0.80358965959E-03  0.10197034072E+01  0.10194155732E+01 0.  0.
     999903    2    3    3    0    0  0.65923566433E-01  0.89080266572E-01 -0.60702517256E-01  0.12791178417E+00  0.19885130732E-01 0.  0.
         14    1    1    2    0    0  0.95916590701E-03  0.24194256378E-01  0.80358965959E-03  0.24226592770E-01  0.00000000000E+00 0. -1.
     999901    1    3    3    0    0 -0.66882732340E-01 -0.11327452295E+00  0.59898927596E-01  0.89179162306E+00  0.88000000000E+00 0. -1.
        -11    1    4    4    0    0  0.25637823944E-01  0.39882126974E-01 -0.36638914630E-01  0.59921225411E-01  0.51100000000E-03 0. -1.
         11    1    4    4    0    0  0.40285742488E-01  0.49198139599E-01 -0.24063602626E-01  0.67990558758E-01  0.51100000000E-03 0.  1.
</event>
<event>
 8    1  0.1112171E+005  0.1043930E+01  0.7957747E-01            NaN
         13   -1    0    0    0    0  0.00000000000E+00  0.00000000000E+00  0.74505805969E-08  0.10566000000E+00  0.10566000000E+00 0.  1.
     999900   -1    0    0    0    0 -0.00000000000E+00 -0.00000000000E+00 -0.74505805969E-08  0.93827000000E+00  0.93827000000E+00 0.  1.
     999902    2    1    2    0    0  0.87449263713E-02 -0.21015709321E-02  0.22000028584E-01  0.10201625518E+01  0.10198856507E+01 0.  0.
     999903    2    3    3    0    0 -0.32771997414E-01  0.31386847802E-02  0.12762637868E+00  0.13285874750E+00  0.16706259199E-01 0.  0.
         14    1    1    2    0    0 -0.87449263713E-02  0.21015709321E-02 -0.22000028584E-01  0.23767448229E-01  0.00000000000E+00 0. -1.
     999901    1    3    3    0    0  0.41516923785E-01 -0.52402557123E-02 -0.10562635009E+00  0.88730380427E+00  0.88000000000E+00 0.  1.
        -11    1    4    4    0    0 -0.15175958443E-02  0.28167825327E-02  0.33947977851E-01  0.34102253329E-01  0.51100000000E-03 0.  1.
         11    1    4    4    0    0 -0.31254401569E-01  0.32190224751E-03  0.93678400826E-01  0.98756494171E-01  0.51100000000E-03 0. -1.
</event>
<event>
 8    1  0.1112171E+005  0.1043930E+01  0.7957747E-01            NaN
         13   -1    0    0    0    0  0.00000000000E+00  0.00000000000E+00  0.74505805969E-08  0.10566000000E+00  0.10566000000E+00 0.  1.
     999900   -1    0    0    0    0 -0.00000000000E+00 -0.00000000000E+00 -0.74505805969E-08  0.93827000000E+00  0.93827000000E+00 0.  1.
     999902    2    1    2    0    0 -0.15601605332E-04  0.14729000465E-01 -0.32821595288E-01  0.10079549974E+01  0.10073127994E+01 0.  0.
     999903    2    3    3    0    0 -0.54552279203E-01  0.77282405525E-01 -0.76046743091E-01  0.12299421230E+00  0.19898435962E-01 0.  0.
         14    1    1    2    0    0  0.15601605332E-04 -0.14729000465E-01  0.32821595288E-01  0.35975002646E-01  0.00000000000E+00 0.  1.
     999901    1    3    3    0    0  0.54536677598E-01 -0.62553405060E-01  0.43225147803E-01  0.88496078506E+00  0.88000000000E+00 0.  1.
        -11    1    4    4    0    0 -0.90321816972E-02  0.12560307522E-01 -0.40177443561E-02  0.15992029952E-01  0.51100000000E-03 0.  1.
         11    1    4    4    0    0 -0.45520097506E-01  0.64722098002E-01 -0.72028998734E-01  0.10700218234E+00  0.51100000000E-03 0. -1.
</event>
<event>
 8    1  0.1112171E+005  0.1043930E+01  0.7957747E-01            NaN
         13   -1    0    0    0    0  0.00000000000E+00  0.00000000000E+00  0.74505805969E-08  0.10566000000E+00  0.10566000000E+00 0.  1.
     999900   -1    0    0    0    0 -0.00000000000E+00 -0.00000000000E+00 -0.74505805969E-08  0.93827000000E+00  0.93827000000E+00 0.  1.
     999902    2    1    2    0    0  0.15242347136E-01 -0.94588016663E-02  0.15877703603E-01  0.10199737994E+01  0.10196924301E+01 0.  0.
     999903    2    3    3    0    0 -0.16350400611E-01  0.10569303823E+00  0.71177107954E-01  0.13018951540E+00  0.21089696391E-01 0.  0.
         14    1    1    2    0    0 -0.15242347136E-01  0.94588016663E-02 -0.15877703603E-01  0.23956200594E-01  0.00000000000E+00 0. -1.
     999901    1    3    3    0    0  0.31592747747E-01 -0.11515183989E+00 -0.55299404351E-01  0.88978428401E+00  0.88000000000E+00 0.  1.
        -11    1    4    4    0    0 -0.17151121785E-01  0.60915683025E-01  0.49965188240E-01  0.80632887669E-01  0.51100000000E-03 0.  1.
         11    1    4    4    0    0  0.80072117400E-03  0.44777355201E-01  0.21211919714E-01  0.49556627732E-01  0.51100000000E-03 0. -1.
</event>
<event>
 8    1  0.1112171E+005  0.1043930E+01  0.7957747E-01            NaN
         13   -1    0    0    0    0  0.00000000000E+00  0.00000000000E+00  0.74505805969E-08  0.10566000000E+00  0.10566000000E+00 0. -1.
     999900   -1    0    0    0    0 -0.00000000000E+00 -0.00000000000E+00 -0.74505805969E-08  0.93827000000E+00  0.93827000000E+00 0. -1.
     999902    2    1    2    0    0  0.16747045111E-01 -0.42559294213E-02 -0.53725208785E-02  0.10258346847E+01  0.10256750752E+01 0.  0.
     999903    2    3    3    0    0 -0.55213347106E-01 -0.12142574966E+00 -0.82291654489E-02  0.13515223554E+00  0.20141529934E-01 0.  0.
         14    1    1    2    0    0 -0.16747045111E-01  0.42559294213E-02  0.53725208785E-02  0.18095315299E-01  0.00000000000E+00 0. -1.
     999901    1    3    3    0    0  0.71960392217E-01  0.11716982024E+00  0.28566445704E-02  0.89068244916E+00  0.88000000000E+00 0.  1.
        -11    1    4    4    0    0 -0.46285113498E-01 -0.11322176503E+00 -0.42912960500E-02  0.12239344815E+00  0.51100000000E-03 0.  1.
         11    1    4    4    0    0 -0.89282336073E-02 -0.82039846312E-02 -0.39378693989E-02  0.12758787387E-01  0.51100000000E-03 0. -1.
</event>
<event>
 8    1  0.1112171E+005  0.1043930E+01  0.7957747E-01            NaN
         13   -1    0    0    0    0  0.00000000000E+00  0.00000000000E+00  0.74505805969E-08  0.10566000000E+00  0.10566000000E+00 0. -1.
     999900   -1    0    0    0    0 -0.00000000000E+00 -0.00000000000E+00 -0.74505805969E-08  0.93827000000E+00  0.93827000000E+00 0.  1.
     999902    2    1    2    0    0  0.36430405942E-03  0.24176567160E-01  0.94485605991E-04  0.10197505036E+01  0.10194638010E+01 0.  0.
     999903    2    3    3    0    0 -0.88179649142E-02 -0.93463590597E-01  0.84491883169E-01  0.12787246180E+00  0.19982214434E-01 0.  0.
         14    1    1    2    0    0 -0.36430405942E-03 -0.24176567160E-01 -0.94485605991E-04  0.24179496368E-01  0.00000000000E+00 0.  1.
     999901    1    3    3    0    0  0.91822689736E-02  0.11764015776E+00 -0.84397397563E-01  0.89187804183E+00  0.88000000000E+00 0. -1.
        -11    1    4    4    0    0  0.12744393464E-02 -0.68356326415E-02  0.14338733399E-01  0.15943978981E-01  0.51100000000E-03 0.  1.
         11    1    4    4    0    0 -0.10092404261E-01 -0.86627957955E-01  0.70153149770E-01  0.11192848282E+00  0.51100000000E-03 0. -1.
</event>
<event>
 8    1  0.1112171E+005  0.1043930E+01  0.7957747E-01            NaN
         13   -1    0    0    0    0  0.00000000000E+00  0.00000000000E+00  0.74505805969E-08  0.10566000000E+00  0.10566000000E+00 0.  1.
     999900   -1    0    0    0    0 -0.00000000000E+00 -0.00000000000E+00 -0.74505805969E-08  0.93827000000E+00  0.93827000000E+00 0. -1.
     999902    2    1    2    0    0 -0.18884059562E-01  0.12896456921E-02 -0.16698901837E-01  0.10186886804E+01  0.10183759146E+01 0.  0.
     999903    2    3    3    0    0  0.95057154200E-01  0.82572653335E-01 -0.57683969467E-02  0.12756074153E+00  0.19605171110E-01 0.  0.
         14    1    1    2    0    0  0.18884059562E-01 -0.12896456921E-02  0.16698901837E-01  0.25241319580E-01  0.00000000000E+00 0.  1.
     999901    1    3    3    0    0 -0.11394121376E+00 -0.81283007643E-01 -0.10930504891E-01  0.89112793889E+00  0.88000000000E+00 0. -1.
        -11    1    4    4    0    0  0.27412333276E-01  0.30296643393E-01 -0.96360999693E-02  0.41981402551E-01  0.51100000000E-03 0.  1.
         11    1    4    4    0    0  0.67644820924E-01  0.52276009942E-01  0.38677030226E-02  0.85579338984E-01  0.51100000000E-03 0. -1.
</event>
<event>
 8    1  0.1112171E+005  0.1043930E+01  0.7957747E-01            NaN
         13   -1    0    0    0    0  0.00000000000E+00  0.00000000000E+00  0.74505805969E-08  0.10566000000E+00  0.10566000000E+00 0. -1.
     999900   -1    0    0    0    0 -0.00000000000E+00 -0.00000000000E+00 -0.74505805969E-08  0.93827000000E+00  0.93827000000E+00 0.  1.
     999902    2    1    2    0    0 -0.13894820507E-01 -0.15042770981E-01 -0.10628871540E-01  0.10208578543E+01  0.10205970972E+01 0.  0.
     999903    2    3    3    0    0 -0.12465017653E+00 -0.15578890623E-01  0.37184240867E-01  0.13262751819E+00  0.20664522023E-01 0.  0.
         14    1    1    2    0    0  0.13894820507E-01  0.15042770981E-01  0.10628871540E-01  0.23072145672E-01  0.00000000000E+00 0.  1.
     999901    1    3    3    0    0  0.11075535603E+00  0.53611964201E-03 -0.47813112407E-01  0.88823033614E+00  0.88000000000E+00 0.  1.
        -11    1    4    4    0    0 -0.53126527584E-01 -0.59465233073E-02  0.26505194131E-01  0.59670558146E-01  0.51100000000E-03 0.  1.
         11    1    4    4    0    0 -0.71523648949E-01 -0.96323673162E-02  0.10679046737E-01  0.72956960047E-01  0.51100000000E-03 0. -1.
</event>
<event>
 8    1  0.1112171E+005  0.1043930E+01  0.7957747E-01            NaN
         13   -1    0    0    0    0  0.00000000000E+00  0.00000000000E+00  0.74505805969E-08  0.10566000000E+00  0.10566000000E+00 0.  1.
     999900   -1    0    0    0    0 -0.00000000000E+00 -0.00000000000E+00 -0.74505805969E-08  0.93827000000E+00  0.93827000000E+00 0.  1.
     999902    2    1    2    0    0  0.15789352164E-01 -0.17431073002E-01  0.42241075915E-02  0.10200346232E+01  0.10197546977E+01 0.  0.
     999903    2    3    3    0    0  0.74057219342E-01 -0.46683117427E-01 -0.96571705248E-01  0.13188451069E+00  0.20090911304E-01 0.  0.
         14    1    1    2    0    0 -0.15789352164E-01  0.17431073002E-01 -0.42241075915E-02  0.23895376806E-01  0.00000000000E+00 0.  1.
     999901    1    3    3    0    0 -0.58267867178E-01  0.29252044425E-01  0.10079581284E+00  0.88815011250E+00  0.88000000000E+00 0. -1.
        -11    1    4    4    0    0  0.38868932065E-01 -0.19894525552E-01 -0.34417318897E-01  0.55600350609E-01  0.51100000000E-03 0. -1.
         11    1    4    4    0    0  0.35188287277E-01 -0.26788591875E-01 -0.62154386351E-01  0.76284160084E-01  0.51100000000E-03 0.  1.
</event>
<event>
 8    1  0.1112171E+005  0.1043930E+01  0.7957747E-01            NaN
         13   -1    0    0    0    0  0.00000000000E+00  0.00000000000E+00  0.74505805969E-08  0.10566000000E+00  0.10566000000E+00 0. -1.
     999900   -1    0    0    0    0 -0.00000000000E+00 -0.00000000000E+00 -0.74505805969E-08  0.93827000000E+00  0.93827000000E+00 0. -1.
     999902    2    1    2    0    0 -0.18201807500E-01 -0.14097226508E-01 -0.44153469475E-02  0.10204878823E+01  0.10202185967E+01 0.  0.
     999903    2    3    3    0    0  0.12404792113E+00 -0.21660946583E-01  0.17479263388E-01  0.12876395135E+00  0.20433971100E-01 0.  0.
         14    1    1    2    0    0  0.18201807500E-01  0.14097226508E-01  0.44153469475E-02  0.23442117655E-01  0.00000000000E+00 0.  1.
     999901    1    3    3    0    0 -0.14224972863E+00  0.75637200749E-02 -0.21894610336E-01  0.89172393100E+00  0.88000000000E+00 0.  1.
        -11    1    4    4    0    0  0.95108781985E-01 -0.83054128967E-02  0.97860843626E-02  0.95972333837E-01  0.51100000000E-03 0.  1.
         11    1    4    4    0    0  0.28939139141E-01 -0.13355533686E-01  0.76931790259E-02  0.32791617508E-01  0.51100000000E-03 0. -1.
</event>
<event>
 8    1  0.1112171E+005  0.1043930E+01  0.7957747E-01            NaN
         13   -1    0    0    0    0  0.00000000000E+00  0.00000000000E+00  0.74505805969E-08  0.10566000000E+00  0.10566000000E+00 0.  1.
     999900   -1    0    0    0    0 -0.00000000000E+00 -0.00000000000E+00 -0.74505805969E-08  0.93827000000E+00  0.93827000000E+00 0.  1.
     999902    2    1    2    0    0 -0.25190069842E-02  0.16539532095E-01 -0.16253626266E-01  0.10206044371E+01  0.10203378534E+01 0.  0.
     999903    2    3    3    0    0 -0.78234588844E-01 -0.10129816993E+00  0.75176401906E-02  0.12921022213E+00  0.16024870288E-01 0.  0.
         14    1    1    2    0    0  0.25190069842E-02 -0.16539532095E-01  0.16253626266E-01  0.23325562907E-01  0.00000000000E+00 0.  1.
     999901    1    3    3    0    0  0.75715581859E-01  0.11783770202E+00 -0.23771266457E-01  0.89139421496E+00  0.88000000000E+00 0. -1.
        -11    1    4    4    0    0 -0.41591443178E-01 -0.66432850789E-01  0.32318592912E-02  0.78446656047E-01  0.51100000000E-03 0. -1.
         11    1    4    4    0    0 -0.36643145666E-01 -0.34865319139E-01  0.42857808994E-02  0.50763566087E-01  0.51100000000E-03 0.  1.
</event>
<event>
 8    1  0.1112171E+005  0.1043930E+01  0.7957747E-01            NaN
         13   -1    0    0    0    0  0.00000000000E+00  0.00000000000E+00  0.74505805969E-08  0.10566000000E+00  0.10566000000E+00 0.  1.
     999900   -1    0    0    0    0 -0.00000000000E+00 -0.00000000000E+00 -0.74505805969E-08  0.93827000000E+00  0.93827000000E+00 0.  1.
     999902    2    1    2    0    0 -0.16610042189E-01  0.14729769412E-01  0.68646156036E-02  0.10206924753E+01  0.10204279232E+01 0.  0.
     999903    2    3    3    0    0  0.63178257460E-02 -0.12247484704E+00  0.35629297758E-01  0.12930131486E+00  0.20233143245E-01 0.  0.
         14    1    1    2    0    0  0.16610042189E-01 -0.14729769412E-01 -0.68646156036E-02  0.23237524736E-01  0.00000000000E+00 0.  1.
     999901    1    3    3    0    0 -0.22927867935E-01  0.13720461646E+00 -0.28764682154E-01  0.89139116040E+00  0.88000000000E+00 0. -1.
        -11    1    4    4    0    0  0.60057229477E-02 -0.89158293431E-01  0.16479234964E-01  0.90868566082E-01  0.51100000000E-03 0.  1.
         11    1    4    4    0    0  0.31210279831E-03 -0.33316553613E-01  0.19150062794E-01  0.38432748780E-01  0.51100000000E-03 0. -1.
</event>
<event>
 8    1  0.1112171E+005  0.1043930E+01  0.7957747E-01            NaN
         13   -1    0    0    0    0  0.00000000000E+00  0.00000000000E+00  0.74505805969E-08  0.10566000000E+00  0.10566000000E+00 0. -1.
     999900   -1    0    0    0    0 -0.00000000000E+00 -0.00000000000E+00 -0.74505805969E-08  0.93827000000E+00  0.93827000000E+00 0.  1.
     999902    2    1    2    0    0 -0.10449348582E-01  0.16005393934E-01 -0.14028323780E-01  0.10202201837E+01  0.10199446396E+01 0.  0.
     999903    2    3    3    0    0 -0.15487930875E-02 -0.28273275660E-01  0.12362149339E+00  0.12837530221E+00  0.19903962257E-01 0.  0.
         14    1    1    2    0    0  0.10449348582E-01 -0.16005393934E-01  0.14028323780E-01  0.23709816297E-01  0.00000000000E+00 0.  1.
     999901    1    3    3    0    0 -0.89005554944E-02  0.44278669594E-01 -0.13764981717E+00  0.89184488149E+00  0.88000000000E+00 0.  1.
        -11    1    4    4    0    0 -0.73936773809E-02 -0.12878165046E-01  0.31961805647E-01  0.35246726676E-01  0.51100000000E-03 0.  1.
         11    1    4    4    0    0  0.58448842934E-02 -0.15395110614E-01  0.91659687746E-01  0.93128575539E-01  0.51100000000E-03 0. -1.
</event>
<event>
 8    1  0.1112171E+005  0.1043930E+01  0.7957747E-01            NaN
         13   -1    0    0    0    0  0.00000000000E+00  0.00000000000E+00  0.74505805969E-08  0.10566000000E+00  0.10566000000E+00 0. -1.
     999900   -1    0    0    0    0 -0.00000000000E+00 -0.00000000000E+00 -0.74505805969E-08  0.93827000000E+00  0.93827000000E+00 0. -1.
     999902    2    1    2    0    0  0.19311969128E-01 -0.14996209462E-01  0.12229930182E-02  0.10194486977E+01  0.10191547052E+01 0.  0.
     999903    2    3    3    0    0 -0.16624112269E-01  0.74619809090E-01 -0.10095251148E+00  0.12829087418E+00  0.20558740374E-01 0.  0.
         14    1    1    2    0    0 -0.19311969128E-01  0.14996209462E-01 -0.12229930182E-02  0.24481302288E-01  0.00000000000E+00 0.  1.
     999901    1    3    3    0    0  0.35936081397E-01 -0.89616018552E-01  0.10217550450E+00  0.89115782353E+00  0.88000000000E+00 0.  1.
        -11    1    4    4    0    0 -0.13972914442E-01  0.21990986121E-01 -0.27457540240E-01  0.37855296136E-01  0.51100000000E-03 0.  1.
         11    1    4    4    0    0 -0.26511978276E-02  0.52628822970E-01 -0.73494971240E-01  0.90435578041E-01  0.51100000000E-03 0. -1.
</event>
<event>
 8    1  0.1112171E+005  0.1043930E+01  0.7957747E-01            NaN
         13   -1    0    0    0    0  0.00000000000E+00  0.00000000000E+00  0.74505805969E-08  0.10566000000E+00  0.10566000000E+00 0.  1.
     999900   -1    0    0    0    0 -0.00000000000E+00 -0.00000000000E+00 -0.74505805969E-08  0.93827000000E+00  0.93827000000E+00 0. -1.
     999902    2    1    2    0    0  0.13749972762E-01  0.13287260608E-01  0.13784764598E-01  0.10203581358E+01  0.10200858261E+01 0.  0.
     999903    2    3    3    0    0  0.17601706860E-01 -0.43460007132E-01  0.12174181161E+00  0.13193829575E+00  0.19699058038E-01 0.  0.
         14    1    1    2    0    0 -0.13749972762E-01 -0.13287260608E-01 -0.13784764598E-01  0.23571864170E-01  0.00000000000E+00 0. -1.
     999901    1    3    3    0    0 -0.38517340979E-02  0.56747267740E-01 -0.10795704701E+00  0.88841984008E+00  0.88000000000E+00 0. -1.
        -11    1    4    4    0    0  0.41604550720E-02 -0.32943207995E-01  0.89351539028E-01  0.95323255227E-01  0.51100000000E-03 0. -1.
         11    1    4    4    0    0  0.13441251788E-01 -0.10516799137E-01  0.32390272579E-01  0.36615040522E-01  0.51100000000E-03 0.  1.
</event>
<event>
 8    1  0.1112171E+005  0.1043930E+01  0.7957747E-01            NaN
         13   -1    0    0    0    0  0.00000000000E+00  0.00000000000E+00  0.74505805969E-08  0.10566000000E+00  0.10566000000E+00 0. -1.
     999900   -1    0    0    0    0 -0.00000000000E+00 -0.00000000000E+00 -0.74505805969E-08  0.93827000000E+00  0.93827000000E+00 0.  1.
     999902    2    1    2    0    0  0.23918887470E-01  0.13965534695E-02  0.34671216299E-02  0.10197208184E+01  0.10194334030E+01 0.  0.
     999903    2    3    3    0    0 -0.39079209526E-01 -0.12073929087E+00  0.11306816489E-01  0.12902031574E+00  0.20328226616E-01 0.  0.
         14    1    1    2    0    0 -0.23918887470E-01 -0.13965534695E-02 -0.34671216299E-02  0.24209181560E-01  0.00000000000E+00 0. -1.
     999901    1    3    3    0    0  0.62998096996E-01  0.12213584434E+00 -0.78396948593E-02  0.89070050270E+00  0.88000000000E+00 0.  1.
        -11    1    4    4    0    0 -0.10786282079E-01 -0.21239033141E-01  0.92352200404E-02  0.25553685058E-01  0.51100000000E-03 0. -1.
         11    1    4    4    0    0 -0.28292927447E-01 -0.99500257728E-01  0.20715964487E-02  0.10346663068E+00  0.51100000000E-03 0.  1.
</event>
<event>
 8    1  0.1112171E+005  0.1043930E+01  0.7957747E-01            NaN
         13   -1    0    0    0    0  0.00000000000E+00  0.00000000000E+00  0.74505805969E-08  0.10566000000E+00  0.10566000000E+00 0. -1.
     999900   -1    0    0    0    0 -0.00000000000E+00 -0.00000000000E+00 -0.74505805969E-08  0.93827000000E+00  0.93827000000E+00 0. -1.
     999902    2    1    2    0    0 -0.15275649054E-01  0.53362963865E-02 -0.17770938113E-01  0.10198961124E+01  0.10196128933E+01 0.  0.
     999903    2    3    3    0    0  0.64068055640E-01 -0.87297814102E-01  0.64728601866E-01  0.12766145938E+00  0.19545644302E-01 0.  0.
         14    1    1    2    0    0  0.15275649054E-01 -0.53362963865E-02  0.17770938113E-01  0.24033887629E-01  0.00000000000E+00 0. -1.
     999901    1    3    3    0    0 -0.79343704694E-01  0.92634110488E-01 -0.82499539979E-01  0.89223465299E+00  0.88000000000E+00 0. -1.
        -11    1    4    4    0    0  0.56224557851E-01 -0.83002268123E-01  0.54664866381E-01  0.11418881800E+00  0.51100000000E-03 0.  1.
         11    1    4    4    0    0  0.78434977893E-02 -0.42955459790E-02  0.10063735485E-01  0.13472641379E-01  0.51100000000E-03 0. -1.
</event>
<event>
 8    1  0.1112171E+005  0.1043930E+01  0.7957747E-01            NaN
         13   -1    0    0    0    0  0.00000000000E+00  0.00000000000E+00  0.74505805969E-08  0.10566000000E+00  0.10566000000E+00 0.  1.
     999900   -1    0    0    0    0 -0.00000000000E+00 -0.00000000000E+00 -0.74505805969E-08  0.93827000000E+00  0.93827000000E+00 0. -1.
     999902    2    1    2    0    0  0.37130944694E-02 -0.40485781641E-02  0.24749005407E-01  0.10185786426E+01  0.10182631093E+01 0.  0.
     999903    2    3    3    0    0 -0.90289473328E-01  0.71216130125E-01 -0.50163820352E-01  0.12722394855E+00  0.21109192965E-01 0.  0.
         14    1    1    2    0    0 -0.37130944694E-02  0.40485781641E-02 -0.24749005407E-01  0.25351357445E-01  0.00000000000E+00 0. -1.
     999901    1    3    3    0    0  0.94002567797E-01 -0.75264708289E-01  0.74912825759E-01  0.89135469401E+00  0.88000000000E+00 0.  1.
        -11    1    4    4    0    0 -0.37721392783E-01  0.41287287462E-01 -0.29961063363E-01  0.63446591857E-01  0.51100000000E-03 0.  1.
         11    1    4    4    0    0 -0.52568080545E-01  0.29928842663E-01 -0.20202756989E-01  0.63777356689E-01  0.51100000000E-03 0. -1.
</event>
<event>
 8    1  0.1112171E+005  0.1043930E+01  0.7957747E-01            NaN
         13   -1    0    0    0    0  0.00000000000E+00  0.00000000000E+00  0.74505805969E-08  0.10566000000E+00  0.10566000000E+00 0. -1.
     999900   -1    0    0    0    0 -0.00000000000E+00 -0.00000000000E+00 -0.74505805969E-08  0.93827000000E+00  0.93827000000E+00 0.  1.
     999902    2    1    2    0    0  0.11742296761E-01  0.11495734349E-01 -0.16933054489E-01  0.10203342000E+01  0.10200613305E+01 0.  0.
     999903    2    3    3    0    0 -0.85757651868E-01 -0.69974029803E-01  0.60777794994E-01  0.12781947266E+00  0.19827695962E-01 0.  0.
         14    1    1    2    0    0 -0.11742296761E-01 -0.11495734349E-01  0.16933054489E-01  0.23595799960E-01  0.00000000000E+00 0.  1.
     999901    1    3    3    0    0  0.97499948629E-01  0.81469764152E-01 -0.77710849483E-01  0.89251472737E+00  0.88000000000E+00 0.  1.
        -11    1    4    4    0    0 -0.49324087225E-01 -0.29058425987E-01  0.36483935993E-01  0.67886643811E-01  0.51100000000E-03 0. -1.
         11    1    4    4    0    0 -0.36433564644E-01 -0.40915603816E-01  0.24293859001E-01  0.59932828853E-01  0.51100000000E-03 0.  1.
</event>
<event>
 8    1  0.1112171E+005  0.1043930E+01  0.7957747E-01            NaN
         13   -1    0    0    0    0  0.00000000000E+00  0.00000000000E+00  0.74505805969E-08  0.10566000000E+00  0.10566000000E+00 0.  1.
     999900   -1    0    0    0    0 -0.00000000000E+00 -0.00000000000E+00 -0.74505805969E-08  0.93827000000E+00  0.93827000000E+00 0. -1.
     999902    2    1    2    0    0 -0.21019379752E-01 -0.63169348623E-02  0.64655729366E-02  0.10210494051E+01  0.10207930084E+01 0.  0.
     999903    2    3    3    0    0 -0.10014505929E+00  0.32662993849E-01  0.79791843094E-01  0.13360529421E+00  0.19690920466E-01 0.  0.
         14    1    1    2    0    0  0.21019379752E-01  0.63169348623E-02 -0.64655729366E-02  0.22880594935E-01  0.00000000000E+00 0. -1.
     999901    1    3    3    0    0  0.79125679534E-01 -0.38979928711E-01 -0.73326270157E-01  0.88744411086E+00  0.88000000000E+00 0. -1.
        -11    1    4    4    0    0 -0.10540577578E-01  0.50238478153E-02  0.17445666471E-01  0.20998933834E-01  0.51100000000E-03 0.  1.
         11    1    4    4    0    0 -0.89604481707E-01  0.27639146033E-01  0.62346176623E-01  0.11260636037E+00  0.51100000000E-03 0. -1.
</event>
<event>
 8    1  0.1112171E+005  0.1043930E+01  0.7957747E-01            NaN
         13   -1    0    0    0    0  0.00000000000E+00  0.00000000000E+00  0.74505805969E-08  0.10566000000E+00  0.10566000000E+00 0.  1.
     999900   -1    0    0    0    0 -0.00000000000E+00 -0.00000000000E+00 -0.74505805969E-08  0.93827000000E+00  0.93827000000E+00 0.  1.
     999902    2    1    2    0    0  0.43077648357E-02 -0.22629504236E-01 -0.10515510572E-01  0.10186075344E+01  0.10182927290E+01 0.  0.
     999903    2    3    3    0    0  0.12487659958E+00 -0.29011414415E-01 -0.13923535941E-01  0.13035690126E+00  0.19058582475E-01 0.  0.
         14    1    1    2    0    0 -0.43077648357E-02  0.22629504236E-01  0.10515510572E-01  0.25322465568E-01  0.00000000000E+00 0. -1.
     999901    1    3    3    0    0 -0.12056883474E+00  0.63819101788E-02  0.34080253684E-02  0.88825063317E+00  0.88000000000E+00 0.  1.
        -11    1    4    4    0    0  0.39342337307E-01 -0.10996462951E-01 -0.13228721375E-01  0.42941843142E-01  0.51100000000E-03 0. -1.
         11    1    4    4    0    0  0.85534262268E-01 -0.18014951464E-01 -0.69481456564E-03  0.87415058121E-01  0.51100000000E-03 0.  1.
</event>
<event>
 7    1  0.1112171E+005  0.1043930E+01  0.7957747E-01            NaN
         13   -1    0    0    0    0  0.00000000000E+00  0.00000000000E+00  0.74505805969E-08  0.10566000000E+00  0.10566000000E+00 0. -1.
     999900   -1    0    0    0    0 -0.00000000000E+00 -0.00000000000E+00 -0.74505805969E-08  0.93827000000E+00  0.93827000000E+00 0. -1.
     999902    2    1    2    0    0  0.20769577747E-01  0.10473397274E-01  0.84839419805E-02  0.10191702609E+01  0.10188694597E+01 0.  0.
         14    1    1    2    0    0 -0.20769577747E-01 -0.10473397274E-01 -0.84839419805E-02  0.24759739130E-01  0.00000000000E+00 0.  1.
     999901    1    3    3    0    0  0.94576636879E-01  0.62614190089E-01 -0.72636218948E-01  0.89024788534E+00  0.88000000000E+00 0. -1.
        -11    1    3    3    0    0 -0.74130184420E-01 -0.34321939803E-01  0.72017928574E-01  0.10890419161E+00  0.51100000000E-03 0. -1.
         11    1    3    3    0    0  0.32312528837E-03 -0.17818853011E-01  0.91022323543E-02  0.20018183919E-01  0.51100000000E-03 0.  1.
</event>
<event>
 8    1  0.1112171E+005  0.1043930E+01  0.7957747E-01            NaN
         13   -1    0    0    0    0  0.00000000000E+00  0.00000000000E+00  0.74505805969E-08  0.10566000000E+00  0.10566000000E+00 0.  1.
     999900   -1    0    0    0    0 -0.00000000000E+00 -0.00000000000E+00 -0.74505805969E-08  0.93827000000E+00  0.93827000000E+00 0.  1.
     999902    2    1    2    0    0 -0.21058974867E-01  0.12224608130E-02  0.63579584384E-02  0.10218982396E+01  0.10216607135E+01 0.  0.
     999903    2    3    3    0    0  0.18826997371E-01  0.17274023637E-01 -0.12678082455E+00  0.13084578375E+00  0.19859353725E-01 0.  0.
         14    1    1    2    0    0  0.21058974867E-01 -0.12224608130E-02 -0.63579584384E-02  0.22031760447E-01  0.00000000000E+00 0.  1.
     999901    1    3    3    0    0 -0.39885972237E-01 -0.16051562824E-01  0.13313878299E+00  0.89105245580E+00  0.88000000000E+00 0. -1.
        -11    1    4    4    0    0 -0.14054103521E-02  0.11093550455E-01 -0.42699685768E-01  0.44142568181E-01  0.51100000000E-03 0.  1.
         11    1    4    4    0    0  0.20232407723E-01  0.61804731820E-02 -0.84081138781E-01  0.86703215573E-01  0.51100000000E-03 0. -1.
</event>
<event>
 8    1  0.1112171E+005  0.1043930E+01  0.7957747E-01            NaN
         13   -1    0    0    0    0  0.00000000000E+00  0.00000000000E+00  0.74505805969E-08  0.10566000000E+00  0.10566000000E+00 0.  1.
     999900   -1    0    0    0    0 -0.00000000000E+00 -0.00000000000E+00 -0.74505805969E-08  0.93827000000E+00  0.93827000000E+00 0. -1.
     999902    2    1    2    0    0  0.10687909434E-01 -0.17119705099E-01  0.83066580020E-02  0.10221053287E+01  0.10218722947E+01 0.  0.
     999903    2    3    3    0    0  0.12605607000E-01 -0.12970062850E+00  0.25936323757E-01  0.13475593471E+00  0.22479205695E-01 0.  0.
         14    1    1    2    0    0 -0.10687909434E-01  0.17119705099E-01 -0.83066580020E-02  0.21824671313E-01  0.00000000000E+00 0. -1.
     999901    1    3    3    0    0 -0.19176975665E-02  0.11258092340E+00 -0.17629665755E-01  0.88734939398E+00  0.88000000000E+00 0.  1.
        -11    1    4    4    0    0 -0.49098098271E-03 -0.66008076110E-01  0.40172358938E-02  0.66134003956E-01  0.51100000000E-03 0.  1.
         11    1    4    4    0    0  0.13096587983E-01 -0.63692552388E-01  0.21919087863E-01  0.68621930753E-01  0.51100000000E-03 0. -1.
</event>
<event>
 8    1  0.1112171E+005  0.1043930E+01  0.7957747E-01            NaN
         13   -1    0    0    0    0  0.00000000000E+00  0.00000000000E+00  0.74505805969E-08  0.10566000000E+00  0.10566000000E+00 0.  1.
     999900   -1    0    0    0    0 -0.00000000000E+00 -0.00000000000E+00 -0.74505805969E-08  0.93827000000E+00  0.93827000000E+00 0. -1.
     999902    2    1    2    0    0 -0.18017470337E-01 -0.10072042872E-01 -0.14457776433E-01  0.10187287583E+01  0.10184169973E+01 0.  0.
     999903    2    3    3    0    0  0.26391402743E-01  0.12312828010E+00 -0.38071820138E-02  0.12753410546E+00  0.19833656306E-01 0.  0.
         14    1    1    2    0    0  0.18017470337E-01  0.10072042872E-01  0.14457776433E-01  0.25201241722E-01  0.00000000000E+00 0.  1.
     999901    1    3    3    0    0 -0.44408873080E-01 -0.13320032297E+00 -0.10650594419E-01  0.89119465282E+00  0.88000000000E+00 0.  1.
        -11    1    4    4    0    0  0.12179682391E-01  0.56187826687E-01 -0.11612739606E-01  0.58656059987E-01  0.51100000000E-03 0.  1.
         11    1    4    4    0    0  0.14211720352E-01  0.66940453410E-01  0.78055575921E-02  0.68878045474E-01  0.51100000000E-03 0. -1.
</event>
<event>
 8    1  0.1112171E+005  0.1043930E+01  0.7957747E-01            NaN
         13   -1    0    0    0    0  0.00000000000E+00  0.00000000000E+00  0.74505805969E-08  0.10566000000E+00  0.10566000000E+00 0. -1.
     999900   -1    0    0    0    0 -0.00000000000E+00 -0.00000000000E+00 -0.74505805969E-08  0.93827000000E+00  0.93827000000E+00 0.  1.
     999902    2    1    2    0    0  0.11394785417E-01  0.99329121057E-02 -0.18965837253E-01  0.10196770237E+01  0.10193885549E+01 0.  0.
     999903    2    3    3    0    0  0.11555074262E+00 -0.50447300846E-01  0.25951933014E-01  0.13034478002E+00  0.20478148552E-01 0.  0.
         14    1    1    2    0    0 -0.11394785417E-01 -0.99329121057E-02  0.18965837253E-01  0.24252976319E-01  0.00000000000E+00 0. -1.
     999901    1    3    3    0    0 -0.10415595720E+00  0.60380212952E-01 -0.44917770267E-01  0.88933224367E+00  0.88000000000E+00 0. -1.
        -11    1    4    4    0    0  0.70845020809E-01 -0.38039688467E-01  0.88664526383E-02  0.80900617893E-01  0.51100000000E-03 0.  1.
         11    1    4    4    0    0  0.44705721809E-01 -0.12407612380E-01  0.17085480376E-01  0.49444162124E-01  0.51100000000E-03 0. -1.
</event>
<event>
 8    1  0.1122327E+005  0.1043930E+01  0.7957747E-01            NaN
         13   -1    0    0    0    0  0.00000000000E+00  0.00000000000E+00  0.74505805969E-08  0.10566000000E+00  0.10566000000E+00 0.  1.
     999900   -1    0    0    0    0 -0.00000000000E+00 -0.00000000000E+00 -0.74505805969E-08  0.93827000000E+00  0.93827000000E+00 0.  1.
     999902    2    1    2    0    0  0.20065740316E-01 -0.54665111188E-02  0.11373665802E-01  0.10202260562E+01  0.10199506502E+01 0.  0.
     999903    2    3    3    0    0  0.12761901657E+00  0.41021044898E-02 -0.29607339292E-01  0.13267960196E+00  0.20587413312E-01 0.  0.
         14    1    1    2    0    0 -0.20065740316E-01  0.54665111188E-02 -0.11373665802E-01  0.23703943807E-01  0.00000000000E+00 0. -1.
     999901    1    3    3    0    0 -0.10755327625E+00 -0.95686156086E-02  0.40981005094E-01  0.88754645423E+00  0.88000000000E+00 0.  1.
        -11    1    4    4    0    0  0.33372291085E-01 -0.75640894810E-02 -0.10621454398E-01  0.35832969127E-01  0.51100000000E-03 0. -1.
         11    1    4    4    0    0  0.94246725480E-01  0.11666193971E-01 -0.18985884894E-01  0.96846632836E-01  0.51100000000E-03 0.  1.
</event>
<event>
 8    1  0.1112171E+005  0.1043930E+01  0.7957747E-01            NaN
         13   -1    0    0    0    0  0.00000000000E+00  0.00000000000E+00  0.74505805969E-08  0.10566000000E+00  0.10566000000E+00 0. -1.
     999900   -1    0    0    0    0 -0.00000000000E+00 -0.00000000000E+00 -0.74505805969E-08  0.93827000000E+00  0.93827000000E+00 0.  1.
     999902    2    1    2    0    0  0.16159371261E-02  0.19200468660E-01 -0.12310647653E-01  0.10210647142E+01  0.10208086644E+01 0.  0.
     999903    2    3    3    0    0 -0.54190009898E-01  0.56084640461E-01 -0.10659676982E+00  0.13350366351E+00  0.19450263904E-01 0.  0.
         14    1    1    2    0    0 -0.16159371261E-02 -0.19200468660E-01  0.12310647653E-01  0.22865285810E-01  0.00000000000E+00 0. -1.
     999901    1    3    3    0    0  0.55805947024E-01 -0.36884171801E-01  0.94286122167E-01  0.88756105068E+00  0.88000000000E+00 0. -1.
        -11    1    4    4    0    0 -0.42313321454E-01  0.36203984163E-01 -0.62634385681E-01  0.83812129387E-01  0.51100000000E-03 0.  1.
         11    1    4    4    0    0 -0.11876688444E-01  0.19880656298E-01 -0.43962384139E-01  0.49691534122E-01  0.51100000000E-03 0. -1.
</event>
<event>
 8    1  0.1112171E+005  0.1043930E+01  0.7957747E-01            NaN
         13   -1    0    0    0    0  0.00000000000E+00  0.00000000000E+00  0.74505805969E-08  0.10566000000E+00  0.10566000000E+00 0. -1.
     999900   -1    0    0    0    0 -0.00000000000E+00 -0.00000000000E+00 -0.74505805969E-08  0.93827000000E+00  0.93827000000E+00 0.  1.
     999902    2    1    2    0    0  0.14441796565E-02  0.15070864650E-01 -0.17962152175E-01  0.10204383945E+01  0.10201679575E+01 0.  0.
     999903    2    3    3    0    0  0.12262970626E+00  0.42453050909E-01  0.47137657254E-02  0.13142213303E+00  0.20229954887E-01 0.  0.
         14    1    1    2    0    0 -0.14441796565E-02 -0.15070864650E-01  0.17962152175E-01  0.23491605457E-01  0.00000000000E+00 0. -1.
     999901    1    3    3    0    0 -0.12118552660E+00 -0.27382186259E-01 -0.22675917901E-01  0.88901626151E+00  0.88000000000E+00 0. -1.
        -11    1    4    4    0    0  0.59447288491E-01  0.10924887087E-01  0.64415181838E-02  0.60787231754E-01  0.51100000000E-03 0.  1.
         11    1    4    4    0    0  0.63182417766E-01  0.31528163822E-01 -0.17277524584E-02  0.70634901276E-01  0.51100000000E-03 0. -1.
</event>
<event>
 8    1  0.1112171E+005  0.1043930E+01  0.7957747E-01            NaN
         13   -1    0    0    0    0  0.00000000000E+00  0.00000000000E+00  0.74505805969E-08  0.10566000000E+00  0.10566000000E+00 0. -1.
     999900   -1    0    0    0    0 -0.00000000000E+00 -0.00000000000E+00 -0.74505805969E-08  0.93827000000E+00  0.93827000000E+00 0. -1.
     999902    2    1    2    0    0  0.22851885483E-01  0.63554184048E-02  0.50962067562E-02  0.10196695108E+01  0.10193808611E+01 0.  0.
     999903    2    3    3    0    0  0.51731340339E-01  0.88979973816E-01 -0.79107335594E-01  0.13132775414E+00  0.19885702124E-01 0.  0.
         14    1    1    2    0    0 -0.22851885483E-01 -0.63554184048E-02 -0.50962067562E-02  0.24260489206E-01  0.00000000000E+00 0. -1.
     999901    1    3    3    0    0 -0.28879454856E-01 -0.82624555412E-01  0.84203542351E-01  0.88834175665E+00  0.88000000000E+00 0.  1.
        -11    1    4    4    0    0  0.10015202630E-01  0.18832335598E-01 -0.70970222860E-02  0.22485328419E-01  0.51100000000E-03 0. -1.
         11    1    4    4    0    0  0.41716137709E-01  0.70147638219E-01 -0.72010313308E-01  0.10884242572E+00  0.51100000000E-03 0.  1.
</event>
<event>
 8    1  0.1112171E+005  0.1043930E+01  0.7957747E-01            NaN
         13   -1    0    0    0    0  0.00000000000E+00  0.00000000000E+00  0.74505805969E-08  0.10566000000E+00  0.10566000000E+00 0. -1.
     999900   -1    0    0    0    0 -0.00000000000E+00 -0.00000000000E+00 -0.74505805969E-08  0.93827000000E+00  0.93827000000E+00 0.  1.
     999902    2    1    2    0    0  0.10834384545E-01 -0.11485512371E-01 -0.16495524382E-01  0.10210957449E+01  0.10208403974E+01 0.  0.
     999903    2    3    3    0    0 -0.95638426641E-01  0.45352357017E-01  0.70643087138E-01  0.12859356530E+00  0.18501738785E-01 0.  0.
         14    1    1    2    0    0 -0.10834384545E-01  0.11485512371E-01  0.16495524382E-01  0.22834255134E-01  0.00000000000E+00 0. -1.
     999901    1    3    3    0    0  0.10647281119E+00 -0.56837869388E-01 -0.87138611519E-01  0.89250217957E+00  0.88000000000E+00 0.  1.
        -11    1    4    4    0    0 -0.42576288911E-01  0.17012947076E-01  0.20279570248E-01  0.50136841106E-01  0.51100000000E-03 0. -1.
         11    1    4    4    0    0 -0.53062137730E-01  0.28339409941E-01  0.50363516890E-01  0.78456724191E-01  0.51100000000E-03 0.  1.
</event>
<event>
 8    1  0.1112171E+005  0.1043930E+01  0.7957747E-01            NaN
         13   -1    0    0    0    0  0.00000000000E+00  0.00000000000E+00  0.74505805969E-08  0.10566000000E+00  0.10566000000E+00 0. -1.
     999900   -1    0    0    0    0 -0.00000000000E+00 -0.00000000000E+00 -0.74505805969E-08  0.93827000000E+00  0.93827000000E+00 0.  1.
     999902    2    1    2    0    0  0.33231979611E-02  0.19278344732E-02  0.24107954224E-01  0.10195178381E+01  0.10192255239E+01 0.  0.
     999903    2    3    3    0    0  0.10478902671E+00  0.51918003995E-01  0.59131602904E-01  0.13158710467E+00  0.11933163735E-01 0.  0.
         14    1    1    2    0    0 -0.33231979611E-02 -0.19278344732E-02 -0.24107954224E-01  0.24412161873E-01  0.00000000000E+00 0.  1.
     999901    1    3    3    0    0 -0.10146582874E+00 -0.49990169522E-01 -0.35023648680E-01  0.88793073346E+00  0.88000000000E+00 0. -1.
        -11    1    4    4    0    0  0.34309286928E-01  0.19236181475E-01  0.25835438764E-01  0.47062605797E-01  0.51100000000E-03 0.  1.
         11    1    4    4    0    0  0.70479739777E-01  0.32681822520E-01  0.33296164139E-01  0.84524498873E-01  0.51100000000E-03 0. -1.
</event>
<event>
 8    1  0.1112171E+005  0.1043930E+01  0.7957747E-01            NaN
         13   -1    0    0    0    0  0.00000000000E+00  0.00000000000E+00  0.74505805969E-08  0.10566000000E+00  0.10566000000E+00 0.  1.
     999900   -1    0    0    0    0 -0.00000000000E+00 -0.00000000000E+00 -0.74505805969E-08  0.93827000000E+00  0.93827000000E+00 0. -1.
     999902    2    1    2    0    0 -0.10308845260E-01 -0.20234299669E-01  0.82976584683E-02  0.10197525247E+01  0.10194658706E+01 0.  0.
     999903    2    3    3    0    0 -0.14990868880E-01  0.11640234363E+00 -0.45969139266E-01  0.12754381655E+00  0.19494399770E-01 0.  0.
         14    1    1    2    0    0  0.10308845260E-01  0.20234299669E-01 -0.82976584683E-02  0.24177475255E-01  0.00000000000E+00 0. -1.
     999901    1    3    3    0    0  0.46820236205E-02 -0.13663664330E+00  0.54266797734E-01  0.89220870819E+00  0.88000000000E+00 0.  1.
        -11    1    4    4    0    0 -0.19701450927E-01  0.98396278352E-01 -0.38500621804E-01  0.10748271378E+00  0.51100000000E-03 0. -1.
         11    1    4    4    0    0  0.47105820465E-02  0.18006065283E-01 -0.74685174618E-02  0.20061102768E-01  0.51100000000E-03 0.  1.
</event>
<event>
 8    1  0.1112171E+005  0.1043930E+01  0.7957747E-01            NaN
         13   -1    0    0    0    0  0.00000000000E+00  0.00000000000E+00  0.74505805969E-08  0.10566000000E+00  0.10566000000E+00 0.  1.
     999900   -1    0    0    0    0 -0.00000000000E+00 -0.00000000000E+00 -0.74505805969E-08  0.93827000000E+00  0.93827000000E+00 0.  1.
     999902    2    1    2    0    0  0.21606286243E-01 -0.33910040597E-02  0.53662972966E-02  0.10214105049E+01  0.10211622260E+01 0.  0.
     999903    2    3    3    0    0  0.72064860220E-01 -0.39914772405E-01  0.10324431512E+00  0.13379563360E+00  0.21338927632E-01 0.  0.
         14    1    1    2    0    0 -0.21606286243E-01  0.33910040597E-02 -0.53662972966E-02  0.22519495119E-01  0.00000000000E+00 0. -1.
     999901    1    3    3    0    0 -0.50458573977E-01  0.36523768345E-01 -0.97878017821E-01  0.88761487128E+00  0.88000000000E+00 0.  1.
        -11    1    4    4    0    0  0.42610832686E-01 -0.34127165349E-01  0.59631980977E-01  0.80849123392E-01  0.51100000000E-03 0. -1.
         11    1    4    4    0    0  0.29454027534E-01 -0.57876070563E-02  0.43612334140E-01  0.52946510211E-01  0.51100000000E-03 0.  1.
</event>
<event>
 8    1  0.1112171E+005  0.1043930E+01  0.7957747E-01            NaN
         13   -1    0    0    0    0  0.00000000000E+00  0.00000000000E+00  0.74505805969E-08  0.10566000000E+00  0.10566000000E+00 0.  1.
     999900   -1    0    0    0    0 -0.00000000000E+00 -0.00000000000E+00 -0.74505805969E-08  0.93827000000E+00  0.93827000000E+00 0.  1.
     999902    2    1    2    0    0  0.69290290293E-03 -0.10493383141E-02 -0.24812814802E-01  0.10190853426E+01  0.10187824490E+01 0.  0.
     999903    2    3    3    0    0 -0.46959307528E-01  0.36551361973E-02 -0.12196731902E+00  0.13244456810E+00  0.21142377484E-01 0.  0.
         14    1    1    2    0    0 -0.69290290293E-03  0.10493383141E-02  0.24812814802E-01  0.24844657448E-01  0.00000000000E+00 0.  1.
     999901    1    3    3    0    0  0.47652210431E-01 -0.47044745114E-02  0.97154504215E-01  0.88664077446E+00  0.88000000000E+00 0. -1.
        -11    1    4    4    0    0 -0.26525192754E-01  0.40827125873E-02 -0.41529235964E-01  0.49448892338E-01  0.51100000000E-03 0.  1.
         11    1    4    4    0    0 -0.20434114774E-01 -0.42757639003E-03 -0.80438083053E-01  0.82995675757E-01  0.51100000000E-03 0. -1.
</event>
<event>
 8    1  0.1112171E+005  0.1043930E+01  0.7957747E-01            NaN
         13   -1    0    0    0    0  0.00000000000E+00  0.00000000000E+00  0.74505805969E-08  0.10566000000E+00  0.10566000000E+00 0.  1.
     999900   -1    0    0    0    0 -0.00000000000E+00 -0.00000000000E+00 -0.74505805969E-08  0.93827000000E+00  0.93827000000E+00 0. -1.
     999902    2    1    2    0    0 -0.82342363889E-02  0.20798387478E-01  0.75928847904E-02  0.10203073949E+01  0.10200338978E+01 0.  0.
     999903    2    3    3    0    0 -0.92346239958E-01  0.92153324285E-01 -0.16131530903E-01  0.13310437192E+00  0.20892207236E-01 0.  0.
         14    1    1    2    0    0  0.82342363889E-02 -0.20798387478E-01 -0.75928847904E-02  0.23622605065E-01  0.00000000000E+00 0. -1.
     999901    1    3    3    0    0  0.84112003570E-01 -0.71354936807E-01  0.23724415693E-01  0.88720302302E+00  0.88000000000E+00 0.  1.
        -11    1    4    4    0    0 -0.63510939648E-01  0.71022393401E-01 -0.40478620072E-02  0.95364910356E-01  0.51100000000E-03 0.  1.
         11    1    4    4    0    0 -0.28835300310E-01  0.21130930884E-01 -0.12083668895E-01  0.37739461562E-01  0.51100000000E-03 0. -1.
</event>
<event>
 8    1  0.1112171E+005  0.1043930E+01  0.7957747E-01            NaN
         13   -1    0    0    0    0  0.00000000000E+00  0.00000000000E+00  0.74505805969E-08  0.10566000000E+00  0.10566000000E+00 0. -1.
     999900   -1    0    0    0    0 -0.00000000000E+00 -0.00000000000E+00 -0.74505805969E-08  0.93827000000E+00  0.93827000000E+00 0.  1.
     999902    2    1    2    0    0  0.22422181860E-02 -0.16853978451E-01  0.23408739669E-01  0.10149981279E+01  0.10145857018E+01 0.  0.
     999903    2    3    3    0    0 -0.58805724744E-01  0.88889470102E-01 -0.57881662456E-01  0.12285651483E+00  0.19595541046E-01 0.  0.
         14    1    1    2    0    0 -0.22422181860E-02  0.16853978451E-01 -0.23408739669E-01  0.28931872129E-01  0.00000000000E+00 0.  1.
     999901    1    3    3    0    0  0.61047942930E-01 -0.10574344855E+00  0.81290402125E-01  0.89214161304E+00  0.88000000000E+00 0. -1.
        -11    1    4    4    0    0 -0.42470963438E-01  0.66211994339E-01 -0.51982437412E-01  0.94288100256E-01  0.51100000000E-03 0.  1.
         11    1    4    4    0    0 -0.16334761306E-01  0.22677475763E-01 -0.58992250444E-02  0.28568414570E-01  0.51100000000E-03 0. -1.
</event>
<event>
 8    1  0.1112171E+005  0.1043930E+01  0.7957747E-01            NaN
         13   -1    0    0    0    0  0.00000000000E+00  0.00000000000E+00  0.74505805969E-08  0.10566000000E+00  0.10566000000E+00 0.  1.
     999900   -1    0    0    0    0 -0.00000000000E+00 -0.00000000000E+00 -0.74505805969E-08  0.93827000000E+00  0.93827000000E+00 0.  1.
     999902    2    1    2    0    0 -0.13167511307E-01 -0.94158867398E-02  0.17659070133E-01  0.10199741023E+01  0.10196927401E+01 0.  0.
     999903    2    3    3    0    0 -0.12588038062E+00 -0.33442358644E-01  0.14402213038E-01  0.13245392259E+00  0.19296535762E-01 0.  0.
         14    1    1    2    0    0  0.13167511307E-01  0.94158867398E-02 -0.17659070133E-01  0.23955897710E-01  0.00000000000E+00 0. -1.
     999901    1    3    3    0    0  0.11271286931E+00  0.24026471904E-01  0.32568570957E-02  0.88752017970E+00  0.88000000000E+00 0. -1.
        -11    1    4    4    0    0 -0.48037549594E-01 -0.15851600561E-01 -0.33406079819E-02  0.50698128112E-01  0.51100000000E-03 0.  1.
         11    1    4    4    0    0 -0.77842831023E-01 -0.17590758083E-01  0.17742821020E-01  0.81755794476E-01  0.51100000000E-03 0. -1.
</event>
<event>
 8    1  0.1112171E+005  0.1043930E+01  0.7957747E-01            NaN
         13   -1    0    0    0    0  0.00000000000E+00  0.00000000000E+00  0.74505805969E-08  0.10566000000E+00  0.10566000000E+00 0.  1.
     999900   -1    0    0    0    0 -0.00000000000E+00 -0.00000000000E+00 -0.74505805969E-08  0.93827000000E+00  0.93827000000E+00 0. -1.
     999902    2    1    2    0    0 -0.51626566092E-02  0.85329159778E-02  0.22187230438E-01  0.10196043577E+01  0.10193141368E+01 0.  0.
     999903    2    3    3    0    0  0.10438693578E+00 -0.27341815242E-01  0.70933205104E-01  0.13074875663E+00  0.20481956703E-01 0.  0.
         14    1    1    2    0    0  0.51626566092E-02 -0.85329159778E-02 -0.22187230438E-01  0.24325642291E-01  0.00000000000E+00 0. -1.
     999901    1    3    3    0    0 -0.10954959239E+00  0.35874731220E-01 -0.48745974666E-01  0.88885560108E+00  0.88000000000E+00 0. -1.
        -11    1    4    4    0    0  0.75149692140E-01 -0.27721960166E-01  0.57279066973E-01  0.98474036875E-01  0.51100000000E-03 0. -1.
         11    1    4    4    0    0  0.29237243640E-01  0.38014492413E-03  0.13654138131E-01  0.32274719750E-01  0.51100000000E-03 0.  1.
</event>
<event>
 8    1  0.1112171E+005  0.1043930E+01  0.7957747E-01            NaN
         13   -1    0    0    0    0  0.00000000000E+00  0.00000000000E+00  0.74505805969E-08  0.10566000000E+00  0.10566000000E+00 0.  1.
     999900   -1    0    0    0    0 -0.00000000000E+00 -0.00000000000E+00 -0.74505805969E-08  0.93827000000E+00  0.93827000000E+00 0.  1.
     999902    2    1    2    0    0  0.20379710816E-01  0.36322425349E-02  0.11948493716E-01  0.10200282783E+01  0.10197482024E+01 0.  0.
     999903    2    3    3    0    0  0.98137829444E-01 -0.58756487928E-02 -0.84576007461E-01  0.13129113811E+00  0.20462284581E-01 0.  0.
         14    1    1    2    0    0 -0.20379710816E-01 -0.36322425349E-02 -0.11948493716E-01  0.23901721713E-01  0.00000000000E+00 0. -1.
     999901    1    3    3    0    0 -0.77758118628E-01  0.95078913277E-02  0.96524501177E-01  0.88873714018E+00  0.88000000000E+00 0. -1.
        -11    1    4    4    0    0  0.66040960669E-01  0.54580172430E-02 -0.52942281533E-01  0.84819483217E-01  0.51100000000E-03 0.  1.
         11    1    4    4    0    0  0.32096868775E-01 -0.11333666036E-01 -0.31633725928E-01  0.46471654888E-01  0.51100000000E-03 0. -1.
</event>
<event>
 8    1  0.1112171E+005  0.1043930E+01  0.7957747E-01            NaN
         13   -1    0    0    0    0  0.00000000000E+00  0.00000000000E+00  0.74505805969E-08  0.10566000000E+00  0.10566000000E+00 0. -1.
     999900   -1    0    0    0    0 -0.00000000000E+00 -0.00000000000E+00 -0.74505805969E-08  0.93827000000E+00  0.93827000000E+00 0. -1.
     999902    2    1    2    0    0 -0.58915117630E-02  0.73694274986E-02 -0.20711373967E-01  0.10211708396E+01  0.10209171877E+01 0.  0.
     999903    2    3    3    0    0 -0.68535731452E-01  0.10815529923E+00  0.25656799391E-01  0.13199588619E+00  0.19233496266E-01 0.  0.
         14    1    1    2    0    0  0.58915117630E-02 -0.73694274986E-02  0.20711373967E-01  0.22759160444E-01  0.00000000000E+00 0. -1.
     999901    1    3    3    0    0  0.62644219689E-01 -0.10078587173E+00 -0.46368173358E-01  0.88917495337E+00  0.88000000000E+00 0. -1.
        -11    1    4    4    0    0 -0.56907987215E-01  0.95033547842E-01  0.28119178308E-01  0.11428404759E+00  0.51100000000E-03 0.  1.
         11    1    4    4    0    0 -0.11627744238E-01  0.13121751383E-01 -0.24623789176E-02  0.17711838593E-01  0.51100000000E-03 0. -1.
</event>
<event>
 8    1  0.1112171E+005  0.1043930E+01  0.7957747E-01            NaN
         13   -1    0    0    0    0  0.00000000000E+00  0.00000000000E+00  0.74505805969E-08  0.10566000000E+00  0.10566000000E+00 0.  1.
     999900   -1    0    0    0    0 -0.00000000000E+00 -0.00000000000E+00 -0.74505805969E-08  0.93827000000E+00  0.93827000000E+00 0. -1.
     999902    2    1    2    0    0  0.12629056017E-01 -0.96276182737E-02 -0.12558143326E-01  0.10236842337E+01  0.10234840103E+01 0.  0.
     999903    2    3    3    0    0 -0.47477067480E-01  0.12712505181E-01 -0.12352136052E+00  0.13440100391E+00  0.19759140285E-01 0.  0.
         14    1    1    2    0    0 -0.12629056017E-01  0.96276182737E-02  0.12558143326E-01  0.20245766306E-01  0.00000000000E+00 0.  1.
     999901    1    3    3    0    0  0.60106123497E-01 -0.22340123455E-01  0.11096321719E+00  0.88928322978E+00  0.88000000000E+00 0.  1.
        -11    1    4    4    0    0 -0.12656090146E-01  0.42063236443E-02 -0.59958387126E-01  0.61425882852E-01  0.51100000000E-03 0.  1.
         11    1    4    4    0    0 -0.34820977333E-01  0.85061815371E-02 -0.63562973392E-01  0.72975121063E-01  0.51100000000E-03 0. -1.
</event>
<event>
 8    1  0.1112171E+005  0.1043930E+01  0.7957747E-01            NaN
         13   -1    0    0    0    0  0.00000000000E+00  0.00000000000E+00  0.74505805969E-08  0.10566000000E+00  0.10566000000E+00 0. -1.
     999900   -1    0    0    0    0 -0.00000000000E+00 -0.00000000000E+00 -0.74505805969E-08  0.93827000000E+00  0.93827000000E+00 0.  1.
     999902    2    1    2    0    0  0.33702516072E-03 -0.22083826614E-01  0.66900593540E-02  0.10208526111E+01  0.10205917341E+01 0.  0.
     999903    2    3    3    0    0 -0.10860237946E+00  0.67800135630E-01 -0.78771923111E-03  0.12955982099E+00  0.19844180413E-01 0.  0.
         14    1    1    2    0    0 -0.33702516072E-03  0.22083826614E-01 -0.66900593540E-02  0.23077388892E-01  0.00000000000E+00 0.  1.
     999901    1    3    3    0    0  0.10893940462E+00 -0.89883962244E-01  0.74777785851E-02  0.89129279012E+00  0.88000000000E+00 0. -1.
        -11    1    4    4    0    0 -0.68782600128E-01  0.34011711088E-01  0.56348461622E-02  0.76940595161E-01  0.51100000000E-03 0.  1.
         11    1    4    4    0    0 -0.39819779335E-01  0.33788424542E-01 -0.64225653933E-02  0.52619225826E-01  0.51100000000E-03 0. -1.
</event>
<event>
 8    1  0.1112171E+005  0.1043930E+01  0.7957747E-01            NaN
         13   -1    0    0    0    0  0.00000000000E+00  0.00000000000E+00  0.74505805969E-08  0.10566000000E+00  0.10566000000E+00 0. -1.
     999900   -1    0    0    0    0 -0.00000000000E+00 -0.00000000000E+00 -0.74505805969E-08  0.93827000000E+00  0.93827000000E+00 0. -1.
     999902    2    1    2    0    0 -0.24755701664E-01 -0.12896294821E-02  0.47862822860E-02  0.10186828931E+01  0.10183699820E+01 0.  0.
     999903    2    3    3    0    0 -0.11053077337E+00 -0.23307515455E-01  0.65704280371E-01  0.13214290374E+00  0.19606182977E-01 0.  0.
         14    1    1    2    0    0  0.24755701664E-01  0.12896294821E-02 -0.47862822860E-02  0.25247106907E-01  0.00000000000E+00 0. -1.
     999901    1    3    3    0    0  0.85775071709E-01  0.22017885973E-01 -0.60917998085E-01  0.88653998935E+00  0.88000000000E+00 0. -1.
        -11    1    4    4    0    0 -0.34264676505E-01  0.15077234361E-02  0.22763686722E-01  0.41167801012E-01  0.51100000000E-03 0.  1.
         11    1    4    4    0    0 -0.76266096868E-01 -0.24815238891E-01  0.42940593649E-01  0.90975102729E-01  0.51100000000E-03 0. -1.
</event>
<event>
 8    1  0.1112171E+005  0.1043930E+01  0.7957747E-01            NaN
         13   -1    0    0    0    0  0.00000000000E+00  0.00000000000E+00  0.74505805969E-08  0.10566000000E+00  0.10566000000E+00 0. -1.
     999900   -1    0    0    0    0 -0.00000000000E+00 -0.00000000000E+00 -0.74505805969E-08  0.93827000000E+00  0.93827000000E+00 0.  1.
     999902    2    1    2    0    0  0.25801209477E-01  0.45812084014E-02 -0.72150613415E-02  0.10167500995E+01  0.10163867462E+01 0.  0.
     999903    2    3    3    0    0 -0.23864003707E-01 -0.90909282499E-01  0.81248450541E-01  0.12578946054E+00  0.19689828575E-01 0.  0.
         14    1    1    2    0    0 -0.25801209477E-01 -0.45812084014E-02  0.72150613415E-02  0.27179900497E-01  0.00000000000E+00 0. -1.
     999901    1    3    3    0    0  0.49665213184E-01  0.95490490900E-01 -0.88463511883E-01  0.89096063897E+00  0.88000000000E+00 0.  1.
        -11    1    4    4    0    0  0.25586935560E-02 -0.21301491749E-01  0.20776259788E-01  0.29869960750E-01  0.51100000000E-03 0. -1.
         11    1    4    4    0    0 -0.26422697263E-01 -0.69607790750E-01  0.60472190753E-01  0.95919499786E-01  0.51100000000E-03 0.  1.
</event>
<event>
 8    1  0.1112171E+005  0.1043930E+01  0.7957747E-01            NaN
         13   -1    0    0    0    0  0.00000000000E+00  0.00000000000E+00  0.74505805969E-08  0.10566000000E+00  0.10566000000E+00 0. -1.
     999900   -1    0    0    0    0 -0.00000000000E+00 -0.00000000000E+00 -0.74505805969E-08  0.93827000000E+00  0.93827000000E+00 0.  1.
     999902    2    1    2    0    0 -0.19473940606E-01  0.12362902081E-01  0.67020892786E-02  0.10199093066E+01  0.10196264022E+01 0.  0.
     999903    2    3    3    0    0  0.11890204803E+00  0.53588612192E-02 -0.42641829553E-01  0.12770316834E+00  0.17982190001E-01 0.  0.
         14    1    1    2    0    0  0.19473940606E-01 -0.12362902081E-01 -0.67020892786E-02  0.24020693397E-01  0.00000000000E+00 0. -1.
     999901    1    3    3    0    0 -0.13837598864E+00  0.70040408615E-02  0.49343918832E-01  0.89220613826E+00  0.88000000000E+00 0. -1.
        -11    1    4    4    0    0  0.79679550742E-01 -0.39933345759E-02 -0.32309554847E-01  0.86075234434E-01  0.51100000000E-03 0. -1.
         11    1    4    4    0    0  0.39222497292E-01  0.93521957950E-02 -0.10332274707E-01  0.41627933910E-01  0.51100000000E-03 0.  1.
</event>
<event>
 8    1  0.1112171E+005  0.1043930E+01  0.7957747E-01            NaN
         13   -1    0    0    0    0  0.00000000000E+00  0.00000000000E+00  0.74505805969E-08  0.10566000000E+00  0.10566000000E+00 0.  1.
     999900   -1    0    0    0    0 -0.00000000000E+00 -0.00000000000E+00 -0.74505805969E-08  0.93827000000E+00  0.93827000000E+00 0.  1.
     999902    2    1    2    0    0 -0.10233407209E-02  0.22988393679E-01  0.32471848586E-02  0.10206908589E+01  0.10204262696E+01 0.  0.
     999903    2    3    3    0    0  0.82940306365E-02  0.50040806602E-01 -0.11967775478E+00  0.13168625415E+00  0.21109980451E-01 0.  0.
         14    1    1    2    0    0  0.10233407209E-02 -0.22988393679E-01 -0.32471848586E-02  0.23239141113E-01  0.00000000000E+00 0.  1.
     999901    1    3    3    0    0 -0.93173713574E-02 -0.27052412923E-01  0.12292493964E+00  0.88900460473E+00  0.88000000000E+00 0. -1.
        -11    1    4    4    0    0  0.14083722305E-01  0.28778098502E-01 -0.81936355611E-01  0.87979302562E-01  0.51100000000E-03 0.  1.
         11    1    4    4    0    0 -0.57896916689E-02  0.21262708100E-01 -0.37741399166E-01  0.43706951591E-01  0.51100000000E-03 0. -1.
</event>
<event>
 8    1  0.1112171E+005  0.1043930E+01  0.7957747E-01            NaN
         13   -1    0    0    0    0  0.00000000000E+00  0.00000000000E+00  0.74505805969E-08  0.10566000000E+00  0.10566000000E+00 0. -1.
     999900   -1    0    0    0    0 -0.00000000000E+00 -0.00000000000E+00 -0.74505805969E-08  0.93827000000E+00  0.93827000000E+00 0. -1.
     999902    2    1    2    0    0  0.13839285321E-01 -0.58397074456E-04 -0.18896483006E-01  0.10205076539E+01  0.10202388276E+01 0.  0.
     999903    2    3    3    0    0 -0.30572863477E-01  0.11212806445E+00  0.53471235384E-01  0.12933128088E+00  0.18973781420E-01 0.  0.
         14    1    1    2    0    0 -0.13839285321E-01  0.58397074456E-04  0.18896483006E-01  0.23422346134E-01  0.00000000000E+00 0. -1.
     999901    1    3    3    0    0  0.44412148797E-01 -0.11218646152E+00 -0.72367718390E-01  0.89117637299E+00  0.88000000000E+00 0. -1.
        -11    1    4    4    0    0 -0.15959334724E-01  0.70161720753E-01  0.23370262281E-01  0.75655784339E-01  0.51100000000E-03 0.  1.
         11    1    4    4    0    0 -0.14613528752E-01  0.41966343697E-01  0.30100973102E-01  0.53675496538E-01  0.51100000000E-03 0. -1.
</event>
<event>
 8    1  0.1112171E+005  0.1043930E+01  0.7957747E-01            NaN
         13   -1    0    0    0    0  0.00000000000E+00  0.00000000000E+00  0.74505805969E-08  0.10566000000E+00  0.10566000000E+00 0. -1.
     999900   -1    0    0    0    0 -0.00000000000E+00 -0.00000000000E+00 -0.74505805969E-08  0.93827000000E+00  0.93827000000E+00 0.  1.
     999902    2    1    2    0    0 -0.69756025236E-02  0.17058859829E-01 -0.17097644307E-01  0.10187905257E+01  0.10184803101E+01 0.  0.
     999903    2    3    3    0    0  0.10867105253E+00  0.50592372320E-01 -0.46344921801E-01  0.13010945321E+00  0.20288722104E-01 0.  0.
         14    1    1    2    0    0  0.69756025236E-02 -0.17058859829E-01  0.17097644307E-01  0.25139474340E-01  0.00000000000E+00 0. -1.
     999901    1    3    3    0    0 -0.11564665505E+00 -0.33533512491E-01  0.29247277494E-01  0.88868107245E+00  0.88000000000E+00 0. -1.
        -11    1    4    4    0    0  0.68242305185E-01  0.25851617753E-01 -0.19092673462E-01  0.75432815527E-01  0.51100000000E-03 0. -1.
         11    1    4    4    0    0  0.40428747341E-01  0.24740754568E-01 -0.27252248340E-01  0.54676637686E-01  0.51100000000E-03 0.  1.
</event>
<event>
 8    1  0.1112171E+005  0.1043930E+01  0.7957747E-01            NaN
         13   -1    0    0    0    0  0.00000000000E+00  0.00000000000E+00  0.74505805969E-08  0.10566000000E+00  0.10566000000E+00 0. -1.
     999900   -1    0    0    0    0 -0.00000000000E+00 -0.00000000000E+00 -0.74505805969E-08  0.93827000000E+00  0.93827000000E+00 0. -1.
     999902    2    1    2    0    0 -0.57599744974E-02  0.21561717209E-01 -0.66484496176E-02  0.10206429470E+01  0.10203772530E+01 0.  0.
     999903    2    3    3    0    0 -0.26997571653E-01  0.13094043183E-02 -0.12758276560E+00  0.13188746854E+00  0.19656013414E-01 0.  0.
         14    1    1    2    0    0  0.57599744974E-02 -0.21561717209E-01  0.66484496176E-02  0.23287053002E-01  0.00000000000E+00 0.  1.
     999901    1    3    3    0    0  0.21237597155E-01  0.20252312890E-01  0.12093431599E+00  0.88875547846E+00  0.88000000000E+00 0.  1.
        -11    1    4    4    0    0 -0.84913251326E-02 -0.80618542552E-02 -0.32009496467E-01  0.34087608916E-01  0.51100000000E-03 0.  1.
         11    1    4    4    0    0 -0.18506246520E-01  0.93712585735E-02 -0.95573269136E-01  0.97799859621E-01  0.51100000000E-03 0. -1.
</event>
<event>
 8    1  0.1112171E+005  0.1043930E+01  0.7957747E-01            NaN
         13   -1    0    0    0    0  0.00000000000E+00  0.00000000000E+00  0.74505805969E-08  0.10566000000E+00  0.10566000000E+00 0. -1.
     999900   -1    0    0    0    0 -0.00000000000E+00 -0.00000000000E+00 -0.74505805969E-08  0.93827000000E+00  0.93827000000E+00 0. -1.
     999902    2    1    2    0    0 -0.43667231327E-02  0.17988255693E-01 -0.15362430478E-01  0.10198748574E+01  0.10195911313E+01 0.  0.
     999903    2    3    3    0    0  0.68709478444E-01  0.59897750743E-01  0.90232542894E-01  0.12956769953E+00  0.18361481198E-01 0.  0.
         14    1    1    2    0    0  0.43667231327E-02 -0.17988255693E-01  0.15362430478E-01  0.24055142568E-01  0.00000000000E+00 0.  1.
     999901    1    3    3    0    0 -0.73076201577E-01 -0.41909495050E-01 -0.10559497337E+00  0.89030715790E+00  0.88000000000E+00 0. -1.
        -11    1    4    4    0    0  0.53353826223E-01  0.37152974085E-01  0.69491422726E-01  0.95164558579E-01  0.51100000000E-03 0.  1.
         11    1    4    4    0    0  0.15355652221E-01  0.22744776659E-01  0.20741120168E-01  0.34403140950E-01  0.51100000000E-03 0. -1.
</event>
<event>
 8    1  0.1112171E+005  0.1043930E+01  0.7957747E-01            NaN
         13   -1    0    0    0    0  0.00000000000E+00  0.00000000000E+00  0.74505805969E-08  0.10566000000E+00  0.10566000000E+00 0. -1.
     999900   -1    0    0    0    0 -0.00000000000E+00 -0.00000000000E+00 -0.74505805969E-08  0.93827000000E+00  0.93827000000E+00 0.  1.
     999902    2    1    2    0    0  0.15594924748E-01  0.17521593839E-01 -0.95027529763E-03  0.10204542476E+01  0.10201841797E+01 0.  0.
     999903    2    3    3    0    0 -0.94308133026E-01 -0.67550747325E-01 -0.49860401380E-01  0.12820529926E+00  0.22212872712E-01 0.  0.
         14    1    1    2    0    0 -0.15594924748E-01 -0.17521593839E-01  0.95027529763E-03  0.23475752421E-01  0.00000000000E+00 0.  1.
     999901    1    3    3    0    0  0.10990305777E+00  0.85072341164E-01  0.48910126083E-01  0.89224894832E+00  0.88000000000E+00 0. -1.
        -11    1    4    4    0    0 -0.68987482891E-01 -0.36601193565E-01 -0.34201291849E-01  0.85257900813E-01  0.51100000000E-03 0.  1.
         11    1    4    4    0    0 -0.25320650136E-01 -0.30949553760E-01 -0.15659109531E-01  0.42947398449E-01  0.51100000000E-03 0. -1.
</event>
<event>
 8    1  0.1112171E+005  0.1043930E+01  0.7957747E-01            NaN
         13   -1    0    0    0    0  0.00000000000E+00  0.00000000000E+00  0.74505805969E-08  0.10566000000E+00  0.10566000000E+00 0. -1.
     999900   -1    0    0    0    0 -0.00000000000E+00 -0.00000000000E+00 -0.74505805969E-08  0.93827000000E+00  0.93827000000E+00 0.  1.
     999902    2    1    2    0    0 -0.23013225280E-01 -0.29566488008E-02 -0.98912026040E-03  0.10207065492E+01  0.10204423212E+01 0.  0.
     999903    2    3    3    0    0  0.15859975612E-01 -0.11294867015E+00  0.60725244088E-01  0.13086497153E+00  0.20715805316E-01 0.  0.
         14    1    1    2    0    0  0.23013225280E-01  0.29566488008E-02  0.98912026040E-03  0.23223450837E-01  0.00000000000E+00 0. -1.
     999901    1    3    3    0    0 -0.38873200892E-01  0.10999202135E+00 -0.61714364349E-01  0.88984157763E+00  0.88000000000E+00 0.  1.
        -11    1    4    4    0    0  0.13861159236E-02 -0.68066739378E-01  0.42766899899E-01  0.80400691383E-01  0.51100000000E-03 0. -1.
         11    1    4    4    0    0  0.14473859689E-01 -0.44881930773E-01  0.17958344189E-01  0.50464280152E-01  0.51100000000E-03 0.  1.
</event>
<event>
 8    1  0.1112171E+005  0.1043930E+01  0.7957747E-01            NaN
         13   -1    0    0    0    0  0.00000000000E+00  0.00000000000E+00  0.74505805969E-08  0.10566000000E+00  0.10566000000E+00 0. -1.
     999900   -1    0    0    0    0 -0.00000000000E+00 -0.00000000000E+00 -0.74505805969E-08  0.93827000000E+00  0.93827000000E+00 0. -1.
     999902    2    1    2    0    0  0.91835756716E-02 -0.16207353877E-01 -0.16617229816E-01  0.10189670533E+01  0.10186612327E+01 0.  0.
     999903    2    3    3    0    0 -0.51780221828E-01 -0.10421822786E+00 -0.57904916624E-01  0.13151723971E+00  0.20029342953E-01 0.  0.
         14    1    1    2    0    0 -0.91835756716E-02  0.16207353877E-01  0.16617229816E-01  0.24962946712E-01  0.00000000000E+00 0. -1.
     999901    1    3    3    0    0  0.60963797499E-01  0.88010873987E-01  0.41287686808E-01  0.88744981358E+00  0.88000000000E+00 0. -1.
        -11    1    4    4    0    0 -0.38770256268E-01 -0.82036140735E-01 -0.35597891583E-01  0.97470673353E-01  0.51100000000E-03 0. -1.
         11    1    4    4    0    0 -0.13009965560E-01 -0.22182087128E-01 -0.22307025041E-01  0.34046566353E-01  0.51100000000E-03 0.  1.
</event>
<event>
 8    1  0.1112171E+005  0.1043930E+01  0.7957747E-01            NaN
         13   -1    0    0    0    0  0.00000000000E+00  0.00000000000E+00  0.74505805969E-08  0.10566000000E+00  0.10566000000E+00 0. -1.
     999900   -1    0    0    0    0 -0.00000000000E+00 -0.00000000000E+00 -0.74505805969E-08  0.93827000000E+00  0.93827000000E+00 0.  1.
     999902    2    1    2    0    0 -0.17058491007E-02 -0.13346111312E-01 -0.20503164894E-01  0.10194063710E+01  0.10191113486E+01 0.  0.
     999903    2    3    3    0    0 -0.12702708116E-01 -0.97197210772E-01  0.82131199297E-01  0.12941437638E+00  0.19846670760E-01 0.  0.
         14    1    1    2    0    0  0.17058491007E-02  0.13346111312E-01  0.20503164894E-01  0.24523628993E-01  0.00000000000E+00 0. -1.
     999901    1    3    3    0    0  0.10996859016E-01  0.83851099459E-01 -0.10263436419E+00  0.88999199463E+00  0.88000000000E+00 0.  1.
        -11    1    4    4    0    0 -0.14166654071E-01 -0.34593347427E-01  0.31293840788E-01  0.48754070251E-01  0.51100000000E-03 0. -1.
         11    1    4    4    0    0  0.14639459551E-02 -0.62603863344E-01  0.50837358510E-01  0.80660306128E-01  0.51100000000E-03 0.  1.
</event>
<event>
 7    1  0.1112171E+005  0.1043930E+01  0.7957747E-01            NaN
         13   -1    0    0    0    0  0.00000000000E+00  0.00000000000E+00  0.74505805969E-08  0.10566000000E+00  0.10566000000E+00 0. -1.
     999900   -1    0    0    0    0 -0.00000000000E+00 -0.00000000000E+00 -0.74505805969E-08  0.93827000000E+00  0.93827000000E+00 0.  1.
     999903    2    1    2    0    0 -0.12990340926E-01  0.75558543826E-01  0.61606948800E-01  0.10032356170E+00  0.19787834370E-01 0.  0.
         14    1    1    2    0    0 -0.44738330266E-01 -0.12237210574E-01 -0.36613170483E-01  0.59091384909E-01  0.00000000000E+00 0.  1.
     999901    1    1    2    0    0  0.57728671192E-01 -0.63321333251E-01 -0.24993778317E-01  0.88451505339E+00  0.88000000000E+00 0. -1.
        -11    1    3    3    0    0 -0.16211213540E-01  0.61398398304E-01  0.42904048738E-01  0.76639319398E-01  0.51100000000E-03 0. -1.
         11    1    3    3    0    0  0.32208726149E-02  0.14160145522E-01  0.18702900063E-01  0.23684242300E-01  0.51100000000E-03 0.  1.
</event>
<event>
 8    1  0.1112171E+005  0.1043930E+01  0.7957747E-01            NaN
         13   -1    0    0    0    0  0.00000000000E+00  0.00000000000E+00  0.74505805969E-08  0.10566000000E+00  0.10566000000E+00 0. -1.
     999900   -1    0    0    0    0 -0.00000000000E+00 -0.00000000000E+00 -0.74505805969E-08  0.93827000000E+00  0.93827000000E+00 0. -1.
     999902    2    1    2    0    0  0.15297751315E-02  0.62488224671E-02  0.23654729044E-01  0.10194160407E+01  0.10191212538E+01 0.  0.
     999903    2    3    3    0    0 -0.21793009177E-01 -0.47618363301E-01 -0.11376981321E+00  0.12681807365E+00  0.19920081192E-01 0.  0.
         14    1    1    2    0    0 -0.15297751315E-02 -0.62488224671E-02 -0.23654729044E-01  0.24513959295E-01  0.00000000000E+00 0.  1.
     999901    1    3    3    0    0  0.23322784308E-01  0.53867185768E-01  0.13742454225E+00  0.89259796705E+00  0.88000000000E+00 0.  1.
        -11    1    4    4    0    0 -0.15251899903E-01 -0.11298638569E-01 -0.34589297669E-01  0.39458336488E-01  0.51100000000E-03 0. -1.
         11    1    4    4    0    0 -0.65411092734E-02 -0.36319724733E-01 -0.79180515541E-01  0.87359737165E-01  0.51100000000E-03 0.  1.
</event>
<event>
 8    1  0.1112171E+005  0.1043930E+01  0.7957747E-01            NaN
         13   -1    0    0    0    0  0.00000000000E+00  0.00000000000E+00  0.74505805969E-08  0.10566000000E+00  0.10566000000E+00 0. -1.
     999900   -1    0    0    0    0 -0.00000000000E+00 -0.00000000000E+00 -0.74505805969E-08  0.93827000000E+00  0.93827000000E+00 0. -1.
     999902    2    1    2    0    0  0.96931677156E-02  0.16999457765E-01 -0.12323056430E-01  0.10208043263E+01  0.10205423439E+01 0.  0.
     999903    2    3    3    0    0  0.10304978796E+00  0.44632980925E-01 -0.69767811233E-01  0.13357325718E+00  0.19050085691E-01 0.  0.
         14    1    1    2    0    0 -0.96931677156E-02 -0.16999457765E-01  0.12323056430E-01  0.23125673708E-01  0.00000000000E+00 0. -1.
     999901    1    3    3    0    0 -0.93356620242E-01 -0.27633523160E-01  0.57444754803E-01  0.88723106911E+00  0.88000000000E+00 0.  1.
        -11    1    4    4    0    0  0.49470104813E-01  0.27054536567E-01 -0.44248745614E-01  0.71676019899E-01  0.51100000000E-03 0.  1.
         11    1    4    4    0    0  0.53579683144E-01  0.17578444358E-01 -0.25519065618E-01  0.61897237280E-01  0.51100000000E-03 0. -1.
</event>
<event>
 8    1  0.1144282E+005  0.1043930E+01  0.7957747E-01            NaN
         13   -1    0    0    0    0  0.00000000000E+00  0.00000000000E+00  0.74505805969E-08  0.10566000000E+00  0.10566000000E+00 0.  1.
     999900   -1    0    0    0    0 -0.00000000000E+00 -0.00000000000E+00 -0.74505805969E-08  0.93827000000E+00  0.93827000000E+00 0.  1.
     999902    2    1    2    0    0 -0.11590251138E-01  0.22817329941E-02  0.20418394937E-01  0.10203407847E+01  0.10200680692E+01 0.  0.
     999903    2    3    3    0    0  0.50818958910E-01 -0.11784338070E-01  0.11997304437E+00  0.13241967780E+00  0.20493962132E-01 0.  0.
         14    1    1    2    0    0  0.11590251138E-01 -0.22817329941E-02 -0.20418394937E-01  0.23589215305E-01  0.00000000000E+00 0. -1.
     999901    1    3    3    0    0 -0.62409210048E-01  0.14066071064E-01 -0.99554649431E-01  0.88792110690E+00  0.88000000000E+00 0.  1.
        -11    1    4    4    0    0  0.13427861680E-01 -0.12827675045E-01  0.42787700116E-01  0.46646598146E-01  0.51100000000E-03 0.  1.
         11    1    4    4    0    0  0.37391097231E-01  0.10433369756E-02  0.77185344252E-01  0.85773079649E-01  0.51100000000E-03 0. -1.
</event>
<event>
 8    1  0.1112171E+005  0.1043930E+01  0.7957747E-01            NaN
         13   -1    0    0    0    0  0.00000000000E+00  0.00000000000E+00  0.74505805969E-08  0.10566000000E+00  0.10566000000E+00 0. -1.
     999900   -1    0    0    0    0 -0.00000000000E+00 -0.00000000000E+00 -0.74505805969E-08  0.93827000000E+00  0.93827000000E+00 0.  1.
     999902    2    1    2    0    0  0.56851045767E-02  0.91104765116E-02 -0.21322417506E-01  0.10200560250E+01  0.10197766066E+01 0.  0.
     999903    2    3    3    0    0  0.24915430292E-01  0.12276335396E+00  0.31717665487E-01  0.13095533752E+00  0.21252538180E-01 0.  0.
         14    1    1    2    0    0 -0.56851045767E-02 -0.91104765116E-02  0.21322417506E-01  0.23873975048E-01  0.00000000000E+00 0. -1.
     999901    1    3    3    0    0 -0.19230325715E-01 -0.11365287745E+00 -0.53040082993E-01  0.88910068743E+00  0.88000000000E+00 0.  1.
        -11    1    4    4    0    0  0.63137773893E-02  0.81849371592E-01  0.21459785492E-01  0.84852618871E-01  0.51100000000E-03 0.  1.
         11    1    4    4    0    0  0.18601652902E-01  0.40913982372E-01  0.10257879995E-01  0.46102718653E-01  0.51100000000E-03 0. -1.
</event>
<event>
 8    1  0.1112171E+005  0.1043930E+01  0.7957747E-01            NaN
         13   -1    0    0    0    0  0.00000000000E+00  0.00000000000E+00  0.74505805969E-08  0.10566000000E+00  0.10566000000E+00 0.  1.
     999900   -1    0    0    0    0 -0.00000000000E+00 -0.00000000000E+00 -0.74505805969E-08  0.93827000000E+00  0.93827000000E+00 0. -1.
     999902    2    1    2    0    0  0.24054920085E-01  0.38525207335E-02  0.47351811555E-02  0.10191126062E+01  0.10188103852E+01 0.  0.
     999903    2    3    3    0    0 -0.11213090846E+00 -0.33234337207E-01 -0.43684765147E-01  0.12655084016E+00  0.20709771586E-01 0.  0.
         14    1    1    2    0    0 -0.24054920085E-01 -0.38525207335E-02 -0.47351811555E-02  0.24817393837E-01  0.00000000000E+00 0. -1.
     999901    1    3    3    0    0  0.13618582854E+00  0.37086857941E-01  0.48419946302E-01  0.89256176600E+00  0.88000000000E+00 0.  1.
        -11    1    4    4    0    0 -0.16305020023E-01 -0.83829929181E-02  0.65967288311E-05  0.18340921807E-01  0.51100000000E-03 0.  1.
         11    1    4    4    0    0 -0.95825888432E-01 -0.24851344289E-01 -0.43691361876E-01  0.10820991835E+00  0.51100000000E-03 0. -1.
</event>
<event>
 8    1  0.1112171E+005  0.1043930E+01  0.7957747E-01            NaN
         13   -1    0    0    0    0  0.00000000000E+00  0.00000000000E+00  0.74505805969E-08  0.10566000000E+00  0.10566000000E+00 0.  1.
     999900   -1    0    0    0    0 -0.00000000000E+00 -0.00000000000E+00 -0.74505805969E-08  0.93827000000E+00  0.93827000000E+00 0.  1.
     999902    2    1    2    0    0 -0.13849908346E-01  0.11577161542E-01 -0.16492477153E-01  0.10194789789E+01  0.10191857220E+01 0.  0.
     999903    2    3    3    0    0 -0.18298260009E-01 -0.99839589433E-01 -0.79087651353E-01  0.13023680937E+00  0.20099750742E-01 0.  0.
         14    1    1    2    0    0  0.13849908346E-01 -0.11577161542E-01  0.16492477153E-01  0.24451021107E-01  0.00000000000E+00 0. -1.
     999901    1    3    3    0    0  0.44483516634E-02  0.11141675097E+00  0.62595174200E-01  0.88924216953E+00  0.88000000000E+00 0.  1.
        -11    1    4    4    0    0 -0.13780940207E-01 -0.89877576366E-01 -0.62414390027E-01  0.11028921185E+00  0.51100000000E-03 0. -1.
         11    1    4    4    0    0 -0.45173198023E-02 -0.99620130668E-02 -0.16673261326E-01  0.19947597519E-01  0.51100000000E-03 0.  1.
</event>
<event>
 8    1  0.1112171E+005  0.1043930E+01  0.7957747E-01            NaN
         13   -1    0    0    0    0  0.00000000000E+00  0.00000000000E+00  0.74505805969E-08  0.10566000000E+00  0.10566000000E+00 0. -1.
     999900   -1    0    0    0    0 -0.00000000000E+00 -0.00000000000E+00 -0.74505805969E-08  0.93827000000E+00  0.93827000000E+00 0. -1.
     999902    2    1    2    0    0  0.67664749105E-02 -0.18250071921E-01 -0.12449355899E-01  0.10208250921E+01  0.10205635854E+01 0.  0.
     999903    2    3    3    0    0  0.65361490082E-01 -0.97091243441E-01  0.58329640265E-01  0.13253517745E+00  0.21549765418E-01 0.  0.
         14    1    1    2    0    0 -0.67664749105E-02  0.18250071921E-01  0.12449355899E-01  0.23104907923E-01  0.00000000000E+00 0. -1.
     999901    1    3    3    0    0 -0.58595015171E-01  0.78841171521E-01 -0.70778996164E-01  0.88828991463E+00  0.88000000000E+00 0. -1.
        -11    1    4    4    0    0  0.35305315845E-01 -0.42460039228E-01  0.37664661143E-01  0.66844656317E-01  0.51100000000E-03 0.  1.
         11    1    4    4    0    0  0.30056174237E-01 -0.54631204214E-01  0.20664979121E-01  0.65690521133E-01  0.51100000000E-03 0. -1.
</event>
<event>
 8    1  0.1112171E+005  0.1043930E+01  0.7957747E-01            NaN
         13   -1    0    0    0    0  0.00000000000E+00  0.00000000000E+00  0.74505805969E-08  0.10566000000E+00  0.10566000000E+00 0.  1.
     999900   -1    0    0    0    0 -0.00000000000E+00 -0.00000000000E+00 -0.74505805969E-08  0.93827000000E+00  0.93827000000E+00 0. -1.
     999902    2    1    2    0    0 -0.16528407759E-02 -0.45501397497E-02  0.23050594070E-01  0.10203765387E+01  0.10201046589E+01 0.  0.
     999903    2    3    3    0    0  0.46737620530E-01  0.66125694372E-01 -0.97167245943E-01  0.12808228263E+00  0.20163948298E-01 0.  0.
         14    1    1    2    0    0  0.16528407759E-02  0.45501397497E-02 -0.23050594070E-01  0.23553461345E-01  0.00000000000E+00 0. -1.
     999901    1    3    3    0    0 -0.48390461306E-01 -0.70675834122E-01  0.12021784001E+00  0.89229425602E+00  0.88000000000E+00 0.  1.
        -11    1    4    4    0    0  0.12616598102E-01  0.32424945247E-01 -0.32864395595E-01  0.47863192965E-01  0.51100000000E-03 0.  1.
         11    1    4    4    0    0  0.34121022428E-01  0.33700749125E-01 -0.64302850348E-01  0.80219089667E-01  0.51100000000E-03 0. -1.
</event>
<event>
 8    1  0.1112171E+005  0.1043930E+01  0.7957747E-01            NaN
         13   -1    0    0    0    0  0.00000000000E+00  0.00000000000E+00  0.74505805969E-08  0.10566000000E+00  0.10566000000E+00 0. -1.
     999900   -1    0    0    0    0 -0.00000000000E+00 -0.00000000000E+00 -0.74505805969E-08  0.93827000000E+00  0.93827000000E+00 0. -1.
     999902    2    1    2    0    0  0.12412366082E-03 -0.59704478660E-02  0.22392640064E-01  0.10207547549E+01  0.10204916353E+01 0.  0.
     999903    2    3    3    0    0  0.49127516839E-01 -0.11688705275E+00  0.31714099988E-01  0.13239068802E+00  0.21104836576E-01 0.  0.
         14    1    1    2    0    0 -0.12412366082E-03  0.59704478660E-02 -0.22392640064E-01  0.23175245056E-01  0.00000000000E+00 0.  1.
     999901    1    3    3    0    0 -0.49003393178E-01  0.11091660488E+00 -0.93214599244E-02  0.88836406692E+00  0.88000000000E+00 0.  1.
        -11    1    4    4    0    0  0.18164879574E-01 -0.41397083551E-01  0.10433441571E-02  0.45222019686E-01  0.51100000000E-03 0. -1.
         11    1    4    4    0    0  0.30962637265E-01 -0.75489969194E-01  0.30670755831E-01  0.87168668337E-01  0.51100000000E-03 0.  1.
</event>
<event>
 8    1  0.1112171E+005  0.1043930E+01  0.7957747E-01            NaN
         13   -1    0    0    0    0  0.00000000000E+00  0.00000000000E+00  0.74505805969E-08  0.10566000000E+00  0.10566000000E+00 0.  1.
     999900   -1    0    0    0    0 -0.00000000000E+00 -0.00000000000E+00 -0.74505805969E-08  0.93827000000E+00  0.93827000000E+00 0. -1.
     999902    2    1    2    0    0  0.10543700859E-01  0.21199503617E-01 -0.52259624719E-02  0.10196833659E+01  0.10193950497E+01 0.  0.
     999903    2    3    3    0    0  0.83604357294E-01  0.74209249560E-01 -0.68553067681E-01  0.13280219295E+00  0.20980898088E-01 0.  0.
         14    1    1    2    0    0 -0.10543700859E-01 -0.21199503617E-01  0.52259624719E-02  0.24246634099E-01  0.00000000000E+00 0.  1.
     999901    1    3    3    0    0 -0.73060656434E-01 -0.53009745944E-01  0.63327105209E-01  0.88688117295E+00  0.88000000000E+00 0.  1.
        -11    1    4    4    0    0  0.59292332645E-01  0.44432207660E-01 -0.35768782578E-01  0.82276781148E-01  0.51100000000E-03 0. -1.
         11    1    4    4    0    0  0.24312024649E-01  0.29777041901E-01 -0.32784285102E-01  0.50525411800E-01  0.51100000000E-03 0.  1.
</event>
<event>
 8    1  0.1112171E+005  0.1043930E+01  0.7957747E-01            NaN
         13   -1    0    0    0    0  0.00000000000E+00  0.00000000000E+00  0.74505805969E-08  0.10566000000E+00  0.10566000000E+00 0. -1.
     999900   -1    0    0    0    0 -0.00000000000E+00 -0.00000000000E+00 -0.74505805969E-08  0.93827000000E+00  0.93827000000E+00 0. -1.
     999902    2    1    2    0    0  0.21729667287E-01  0.14985249338E-03  0.16360800545E-01  0.10167293255E+01  0.10163654091E+01 0.  0.
     999903    2    3    3    0    0  0.11044617891E-01  0.46052046156E-01  0.11880670786E+00  0.12953354919E+00  0.20521500775E-01 0.  0.
         14    1    1    2    0    0 -0.21729667287E-01 -0.14985249338E-03 -0.16360800545E-01  0.27200674452E-01  0.00000000000E+00 0.  1.
     999901    1    3    3    0    0  0.10685049395E-01 -0.45902193662E-01 -0.10244590731E+00  0.88719577636E+00  0.88000000000E+00 0. -1.
        -11    1    4    4    0    0 -0.46382359510E-02  0.24105068368E-01  0.52987791960E-01  0.58399784003E-01  0.51100000000E-03 0.  1.
         11    1    4    4    0    0  0.15682853842E-01  0.21946977788E-01  0.65818915898E-01  0.71133765186E-01  0.51100000000E-03 0. -1.
</event>
<event>
 8    1  0.1112171E+005  0.1043930E+01  0.7957747E-01            NaN
         13   -1    0    0    0    0  0.00000000000E+00  0.00000000000E+00  0.74505805969E-08  0.10566000000E+00  0.10566000000E+00 0. -1.
     999900   -1    0    0    0    0 -0.00000000000E+00 -0.00000000000E+00 -0.74505805969E-08  0.93827000000E+00  0.93827000000E+00 0.  1.
     999902    2    1    2    0    0  0.28093800795E-02 -0.89458568657E-02 -0.23379966079E-01  0.10187398475E+01  0.10184283642E+01 0.  0.
     999903    2    3    3    0    0 -0.12331054171E+00 -0.57315235413E-02 -0.34140369528E-01  0.12967722149E+00  0.20304602476E-01 0.  0.
         14    1    1    2    0    0 -0.28093800795E-02  0.89458568657E-02  0.23379966079E-01  0.25190152547E-01  0.00000000000E+00 0. -1.
     999901    1    3    3    0    0  0.12611992179E+00 -0.32143333244E-02  0.10760403449E-01  0.88906262597E+00  0.88000000000E+00 0.  1.
        -11    1    4    4    0    0 -0.98334704103E-01 -0.69965092607E-02 -0.18879105045E-01  0.10037602752E+00  0.51100000000E-03 0.  1.
         11    1    4    4    0    0 -0.24975837607E-01  0.12649857194E-02 -0.15261264483E-01  0.29301193962E-01  0.51100000000E-03 0. -1.
</event>
<event>
 8    1  0.1112171E+005  0.1043930E+01  0.7957747E-01            NaN
         13   -1    0    0    0    0  0.00000000000E+00  0.00000000000E+00  0.74505805969E-08  0.10566000000E+00  0.10566000000E+00 0. -1.
     999900   -1    0    0    0    0 -0.00000000000E+00 -0.00000000000E+00 -0.74505805969E-08  0.93827000000E+00  0.93827000000E+00 0. -1.
     999902    2    1    2    0    0 -0.92004173189E-02 -0.21351412315E-01  0.41029799440E-02  0.10203214225E+01  0.10200482539E+01 0.  0.
     999903    2    3    3    0    0 -0.12310394222E+00 -0.47391099180E-02 -0.41316996530E-01  0.13166347040E+00  0.21239950172E-01 0.  0.
         14    1    1    2    0    0  0.92004173189E-02  0.21351412315E-01 -0.41029799440E-02  0.23608577490E-01  0.00000000000E+00 0. -1.
     999901    1    3    3    0    0  0.11390352490E+00 -0.16612302397E-01  0.45419976474E-01  0.88865795210E+00  0.88000000000E+00 0.  1.
        -11    1    4    4    0    0 -0.58429605949E-01 -0.11536594016E-01 -0.25145645716E-01  0.64650417419E-01  0.51100000000E-03 0. -1.
         11    1    4    4    0    0 -0.64674336273E-01  0.67974840981E-02 -0.16171350814E-01  0.67013052986E-01  0.51100000000E-03 0.  1.
</event>
<event>
 8    1  0.1112171E+005  0.1043930E+01  0.7957747E-01            NaN
         13   -1    0    0    0    0  0.00000000000E+00  0.00000000000E+00  0.74505805969E-08  0.10566000000E+00  0.10566000000E+00 0.  1.
     999900   -1    0    0    0    0 -0.00000000000E+00 -0.00000000000E+00 -0.74505805969E-08  0.93827000000E+00  0.93827000000E+00 0. -1.
     999902    2    1    2    0    0 -0.19728336276E-01 -0.96964830078E-02 -0.99518157241E-02  0.10197997768E+01  0.10195142555E+01 0.  0.
     999903    2    3    3    0    0  0.49461931527E-01  0.77181489752E-01 -0.88948224065E-01  0.12930805431E+00  0.20132593341E-01 0.  0.
         14    1    1    2    0    0  0.19728336276E-01  0.96964830078E-02  0.99518157241E-02  0.24130223189E-01  0.00000000000E+00 0. -1.
     999901    1    3    3    0    0 -0.69190267804E-01 -0.86877972760E-01  0.78996408341E-01  0.89049172250E+00  0.88000000000E+00 0.  1.
        -11    1    4    4    0    0  0.10059399832E-01  0.10409278299E-01 -0.57522445820E-02  0.15585058178E-01  0.51100000000E-03 0.  1.
         11    1    4    4    0    0  0.39402531696E-01  0.66772211453E-01 -0.83195979483E-01  0.11372299613E+00  0.51100000000E-03 0. -1.
</event>
<event>
 8    1  0.1112171E+005  0.1043930E+01  0.7957747E-01            NaN
         13   -1    0    0    0    0  0.00000000000E+00  0.00000000000E+00  0.74505805969E-08  0.10566000000E+00  0.10566000000E+00 0. -1.
     999900   -1    0    0    0    0 -0.00000000000E+00 -0.00000000000E+00 -0.74505805969E-08  0.93827000000E+00  0.93827000000E+00 0.  1.
     999902    2    1    2    0    0  0.35816855120E-02  0.68090658943E-02 -0.22167492380E-01  0.10204653549E+01  0.10201955455E+01 0.  0.
     999903    2    3    3    0    0  0.35425308024E-01  0.77027466665E-01 -0.10123975982E+00  0.13356228043E+00  0.20030244972E-01 0.  0.
         14    1    1    2    0    0 -0.35816855120E-02 -0.68090658943E-02  0.22167492380E-01  0.23464645062E-01  0.00000000000E+00 0. -1.
     999901    1    3    3    0    0 -0.31843622512E-01 -0.70218400771E-01  0.79072267443E-01  0.88690307451E+00  0.88000000000E+00 0.  1.
        -11    1    4    4    0    0  0.16737730779E-01  0.15523627462E-01 -0.26288634285E-01  0.34820799169E-01  0.51100000000E-03 0.  1.
         11    1    4    4    0    0  0.18687577245E-01  0.61503839204E-01 -0.74951125538E-01  0.98741481256E-01  0.51100000000E-03 0. -1.
</event>
<event>
 8    1  0.1112171E+005  0.1043930E+01  0.7957747E-01            NaN
         13   -1    0    0    0    0  0.00000000000E+00  0.00000000000E+00  0.74505805969E-08  0.10566000000E+00  0.10566000000E+00 0.  1.
     999900   -1    0    0    0    0 -0.00000000000E+00 -0.00000000000E+00 -0.74505805969E-08  0.93827000000E+00  0.93827000000E+00 0. -1.
     999902    2    1    2    0    0 -0.21674408215E-01  0.19389658529E-02 -0.27238565190E-02  0.10219992236E+01  0.10217638935E+01 0.  0.
     999903    2    3    3    0    0  0.54208423183E-01 -0.25747998966E-01  0.11421587656E+00  0.13059601891E+00  0.20212399701E-01 0.  0.
         14    1    1    2    0    0  0.21674408215E-01 -0.19389658529E-02  0.27238565190E-02  0.21930776420E-01  0.00000000000E+00 0.  1.
     999901    1    3    3    0    0 -0.75882831398E-01  0.27686964818E-01 -0.11693973308E+00  0.89140320467E+00  0.88000000000E+00 0. -1.
        -11    1    4    4    0    0  0.39480927222E-01 -0.19564344151E-01  0.62537263932E-01  0.76502795227E-01  0.51100000000E-03 0.  1.
         11    1    4    4    0    0  0.14727495961E-01 -0.61836548149E-02  0.51678612630E-01  0.54093223684E-01  0.51100000000E-03 0. -1.
</event>
<event>
 8    1  0.1112171E+005  0.1043930E+01  0.7957747E-01            NaN
         13   -1    0    0    0    0  0.00000000000E+00  0.00000000000E+00  0.74505805969E-08  0.10566000000E+00  0.10566000000E+00 0.  1.
     999900   -1    0    0    0    0 -0.00000000000E+00 -0.00000000000E+00 -0.74505805969E-08  0.93827000000E+00  0.93827000000E+00 0.  1.
     999902    2    1    2    0    0 -0.53423955683E-02  0.11614225560E-01 -0.19526638515E-01  0.10205907404E+01  0.10203238400E+01 0.  0.
     999903    2    3    3    0    0  0.17162056151E-01  0.12052224629E+00  0.43832741004E-01  0.13133160030E+00  0.22506266475E-01 0.  0.
         14    1    1    2    0    0  0.53423955683E-02 -0.11614225560E-01  0.19526638515E-01  0.23339259574E-01  0.00000000000E+00 0.  1.
     999901    1    3    3    0    0 -0.22504451719E-01 -0.10890802073E+00 -0.63359379518E-01  0.88925914013E+00  0.88000000000E+00 0.  1.
        -11    1    4    4    0    0  0.70214046609E-02  0.69186013433E-01  0.13487341314E-01  0.70839071668E-01  0.51100000000E-03 0.  1.
         11    1    4    4    0    0  0.10140651490E-01  0.51336232859E-01  0.30345399689E-01  0.60492528630E-01  0.51100000000E-03 0. -1.
</event>
<event>
 8    1  0.1112171E+005  0.1043930E+01  0.7957747E-01            NaN
         13   -1    0    0    0    0  0.00000000000E+00  0.00000000000E+00  0.74505805969E-08  0.10566000000E+00  0.10566000000E+00 0. -1.
     999900   -1    0    0    0    0 -0.00000000000E+00 -0.00000000000E+00 -0.74505805969E-08  0.93827000000E+00  0.93827000000E+00 0. -1.
     999902    2    1    2    0    0  0.22708812772E-01 -0.21215426408E-02  0.44792650717E-02  0.10206866152E+01  0.10204219282E+01 0.  0.
     999903    2    3    3    0    0 -0.66410553436E-01  0.10873493580E+00  0.68711182311E-02  0.12926239454E+00  0.20685901129E-01 0.  0.
         14    1    1    2    0    0 -0.22708812772E-01  0.21215426408E-02 -0.44792650717E-02  0.23243384785E-01  0.00000000000E+00 0.  1.
     999901    1    3    3    0    0  0.89119366208E-01 -0.11085647844E+00 -0.23918531594E-02  0.89142422068E+00  0.88000000000E+00 0. -1.
        -11    1    4    4    0    0 -0.33456346097E-01  0.63848801521E-01  0.12970467554E-01  0.73242683590E-01  0.51100000000E-03 0.  1.
         11    1    4    4    0    0 -0.32954207339E-01  0.44886134277E-01 -0.60993493232E-02  0.56019710950E-01  0.51100000000E-03 0. -1.
</event>
<event>
 8    1  0.1112171E+005  0.1043930E+01  0.7957747E-01            NaN
         13   -1    0    0    0    0  0.00000000000E+00  0.00000000000E+00  0.74505805969E-08  0.10566000000E+00  0.10566000000E+00 0.  1.
     999900   -1    0    0    0    0 -0.00000000000E+00 -0.00000000000E+00 -0.74505805969E-08  0.93827000000E+00  0.93827000000E+00 0.  1.
     999902    2    1    2    0    0  0.13572568063E-01  0.11987467862E-01  0.15181451705E-01  0.10202997130E+01  0.10200260358E+01 0.  0.
     999903    2    3    3    0    0 -0.68049897776E-02  0.96650955589E-01  0.89072296901E-01  0.13291985742E+00  0.18603744769E-01 0.  0.
         14    1    1    2    0    0 -0.13572568063E-01 -0.11987467862E-01 -0.15181451705E-01  0.23630287037E-01  0.00000000000E+00 0. -1.
     999901    1    3    3    0    0  0.20377557841E-01 -0.84663487727E-01 -0.73890845197E-01  0.88737985554E+00  0.88000000000E+00 0.  1.
        -11    1    4    4    0    0 -0.99102885923E-02  0.72919791775E-01  0.75357695051E-01  0.10533068488E+00  0.51100000000E-03 0. -1.
         11    1    4    4    0    0  0.31052988146E-02  0.23731163814E-01  0.13714601850E-01  0.27589172543E-01  0.51100000000E-03 0.  1.
</event>
<event>
 8    1  0.1112171E+005  0.1043930E+01  0.7957747E-01            NaN
         13   -1    0    0    0    0  0.00000000000E+00  0.00000000000E+00  0.74505805969E-08  0.10566000000E+00  0.10566000000E+00 0. -1.
     999900   -1    0    0    0    0 -0.00000000000E+00 -0.00000000000E+00 -0.74505805969E-08  0.93827000000E+00  0.93827000000E+00 0.  1.
     999902    2    1    2    0    0  0.74984148801E-02 -0.12466645843E-01 -0.23249397952E-01  0.10165041365E+01  0.10161340864E+01 0.  0.
     999903    2    3    3    0    0  0.78633262950E-02  0.46443956839E-01 -0.11876192254E+00  0.12937774492E+00  0.20379735183E-01 0.  0.
         14    1    1    2    0    0 -0.74984148801E-02  0.12466645843E-01  0.23249397952E-01  0.27425863513E-01  0.00000000000E+00 0.  1.
     999901    1    3    3    0    0 -0.36491141489E-03 -0.58910602683E-01  0.95512524591E-01  0.88712639157E+00  0.88000000000E+00 0. -1.
        -11    1    4    4    0    0  0.14060827254E-01  0.24437820790E-01 -0.71958151188E-01  0.77286160413E-01  0.51100000000E-03 0. -1.
         11    1    4    4    0    0 -0.61975009591E-02  0.22006136049E-01 -0.46803771355E-01  0.52091584503E-01  0.51100000000E-03 0.  1.
</event>
<event>
 8    1  0.1112171E+005  0.1043930E+01  0.7957747E-01            NaN
         13   -1    0    0    0    0  0.00000000000E+00  0.00000000000E+00  0.74505805969E-08  0.10566000000E+00  0.10566000000E+00 0.  1.
     999900   -1    0    0    0    0 -0.00000000000E+00 -0.00000000000E+00 -0.74505805969E-08  0.93827000000E+00  0.93827000000E+00 0.  1.
     999902    2    1    2    0    0  0.22897750099E-01  0.73484016606E-02 -0.92049428531E-02  0.10181804963E+01  0.10178548453E+01 0.  0.
     999903    2    3    3    0    0 -0.88091087219E-01  0.49217616712E-01 -0.74809944742E-01  0.12780104382E+00  0.23540720589E-01 0.  0.
         14    1    1    2    0    0 -0.22897750099E-01 -0.73484016606E-02  0.92049428531E-02  0.25749503675E-01  0.00000000000E+00 0. -1.
     999901    1    3    3    0    0  0.11098883732E+00 -0.41869215052E-01  0.65605001889E-01  0.89037945251E+00  0.88000000000E+00 0. -1.
        -11    1    4    4    0    0 -0.68570749591E-01  0.36689422854E-01 -0.44403835050E-01  0.89554581887E-01  0.51100000000E-03 0. -1.
         11    1    4    4    0    0 -0.19520337628E-01  0.12528193859E-01 -0.30406109692E-01  0.38246461929E-01  0.51100000000E-03 0.  1.
</event>
<event>
 8    1  0.1112171E+005  0.1043930E+01  0.7957747E-01            NaN
         13   -1    0    0    0    0  0.00000000000E+00  0.00000000000E+00  0.74505805969E-08  0.10566000000E+00  0.10566000000E+00 0.  1.
     999900   -1    0    0    0    0 -0.00000000000E+00 -0.00000000000E+00 -0.74505805969E-08  0.93827000000E+00  0.93827000000E+00 0.  1.
     999902    2    1    2    0    0 -0.47362521636E-02  0.18482203802E-01 -0.14348770053E-01  0.10200571882E+01  0.10197777974E+01 0.  0.
     999903    2    3    3    0    0 -0.35939051795E-01  0.67905018335E-01  0.10385656910E+00  0.13023207531E+00  0.16477242925E-01 0.  0.
         14    1    1    2    0    0  0.47362521636E-02 -0.18482203802E-01  0.14348770053E-01  0.23872811815E-01  0.00000000000E+00 0.  1.
     999901    1    3    3    0    0  0.31202799631E-01 -0.49422814533E-01 -0.11820533916E+00  0.88982511288E+00  0.88000000000E+00 0.  1.
        -11    1    4    4    0    0 -0.18622975407E-01  0.33836628121E-01  0.38603016987E-01  0.54609400812E-01  0.51100000000E-03 0. -1.
         11    1    4    4    0    0 -0.17316076388E-01  0.34068390214E-01  0.65253552115E-01  0.75622674496E-01  0.51100000000E-03 0.  1.
</event>
<event>
 8    1  0.1112171E+005  0.1043930E+01  0.7957747E-01            NaN
         13   -1    0    0    0    0  0.00000000000E+00  0.00000000000E+00  0.74505805969E-08  0.10566000000E+00  0.10566000000E+00 0. -1.
     999900   -1    0    0    0    0 -0.00000000000E+00 -0.00000000000E+00 -0.74505805969E-08  0.93827000000E+00  0.93827000000E+00 0. -1.
     999902    2    1    2    0    0  0.77543477747E-02 -0.13220900054E-02  0.22589880659E-01  0.10200097044E+01  0.10197291879E+01 0.  0.
     999903    2    3    3    0    0 -0.43908937710E-01  0.28482822524E-01  0.12014818395E+00  0.13261179458E+00  0.20274021985E-01 0.  0.
         14    1    1    2    0    0 -0.77543477747E-02  0.13220900054E-02 -0.22589880659E-01  0.23920295558E-01  0.00000000000E+00 0.  1.
     999901    1    3    3    0    0  0.51663285485E-01 -0.29804912530E-01 -0.97558303288E-01  0.88739790986E+00  0.88000000000E+00 0. -1.
        -11    1    4    4    0    0 -0.21530152097E-01  0.36386615979E-02  0.36630637304E-01  0.42648001335E-01  0.51100000000E-03 0. -1.
         11    1    4    4    0    0 -0.22378785613E-01  0.24844160926E-01  0.83517546643E-01  0.89963793250E-01  0.51100000000E-03 0.  1.
</event>
<event>
 8    1  0.1112171E+005  0.1043930E+01  0.7957747E-01            NaN
         13   -1    0    0    0    0  0.00000000000E+00  0.00000000000E+00  0.74505805969E-08  0.10566000000E+00  0.10566000000E+00 0.  1.
     999900   -1    0    0    0    0 -0.00000000000E+00 -0.00000000000E+00 -0.74505805969E-08  0.93827000000E+00  0.93827000000E+00 0.  1.
     999902    2    1    2    0    0  0.15711666262E-01 -0.15568214200E-01 -0.63299845810E-02  0.10209235997E+01  0.10206643434E+01 0.  0.
     999903    2    3    3    0    0 -0.95982306587E-01 -0.86882131620E-01  0.30115197899E-02  0.13095254281E+00  0.19452281229E-01 0.  0.
         14    1    1    2    0    0 -0.15711666262E-01  0.15568214200E-01  0.63299845810E-02  0.23006400303E-01  0.00000000000E+00 0. -1.
     999901    1    3    3    0    0  0.11169397285E+00  0.71313917420E-01 -0.93415043710E-02  0.88997105688E+00  0.88000000000E+00 0.  1.
        -11    1    4    4    0    0 -0.15430984350E-01 -0.21713297652E-01  0.59427045833E-02  0.27297608534E-01  0.51100000000E-03 0.  1.
         11    1    4    4    0    0 -0.80551322237E-01 -0.65168833968E-01 -0.29311847933E-02  0.10365493428E+00  0.51100000000E-03 0. -1.
</event>
<event>
 8    1  0.1112171E+005  0.1043930E+01  0.7957747E-01            NaN
         13   -1    0    0    0    0  0.00000000000E+00  0.00000000000E+00  0.74505805969E-08  0.10566000000E+00  0.10566000000E+00 0. -1.
     999900   -1    0    0    0    0 -0.00000000000E+00 -0.00000000000E+00 -0.74505805969E-08  0.93827000000E+00  0.93827000000E+00 0. -1.
     999902    2    1    2    0    0  0.23393949895E-01 -0.49307737409E-03  0.39489990151E-02  0.10201999640E+01  0.10199239442E+01 0.  0.
     999903    2    3    3    0    0  0.46622584351E-02 -0.27220305944E-01 -0.12557131919E+00  0.13012090352E+00  0.20015284694E-01 0.  0.
         14    1    1    2    0    0 -0.23393949895E-01  0.49307737409E-03 -0.39489990151E-02  0.23730036035E-01  0.00000000000E+00 0. -1.
     999901    1    3    3    0    0  0.18731691460E-01  0.26727228570E-01  0.12952031820E+00  0.89007906044E+00  0.88000000000E+00 0.  1.
        -11    1    4    4    0    0  0.99046801244E-02 -0.18338182482E-01 -0.10559418395E+00  0.10763263646E+00  0.51100000000E-03 0. -1.
         11    1    4    4    0    0 -0.52424216893E-02 -0.88821234619E-02 -0.19977135233E-01  0.22488267063E-01  0.51100000000E-03 0.  1.
</event>
<event>
 8    1  0.1112171E+005  0.1043930E+01  0.7957747E-01            NaN
         13   -1    0    0    0    0  0.00000000000E+00  0.00000000000E+00  0.74505805969E-08  0.10566000000E+00  0.10566000000E+00 0.  1.
     999900   -1    0    0    0    0 -0.00000000000E+00 -0.00000000000E+00 -0.74505805969E-08  0.93827000000E+00  0.93827000000E+00 0.  1.
     999902    2    1    2    0    0 -0.11119196848E-01  0.49873844666E-02 -0.18764461924E-01  0.10215555598E+01  0.10213105043E+01 0.  0.
     999903    2    3    3    0    0 -0.23296298729E-01 -0.36489107596E-01  0.12044426173E+00  0.12956472469E+00  0.20150066786E-01 0.  0.
         14    1    1    2    0    0  0.11119196848E-01 -0.49873844666E-02  0.18764461924E-01  0.22374440187E-01  0.00000000000E+00 0.  1.
     999901    1    3    3    0    0  0.12177101881E-01  0.41476492062E-01 -0.13920872366E+00  0.89199083512E+00  0.88000000000E+00 0.  1.
        -11    1    4    4    0    0 -0.20103955765E-01 -0.16268204124E-01  0.82328591429E-01  0.86296474960E-01  0.51100000000E-03 0.  1.
         11    1    4    4    0    0 -0.31923429643E-02 -0.20220903472E-01  0.38115670305E-01  0.43268249729E-01  0.51100000000E-03 0. -1.
</event>
<event>
 8    1  0.1112171E+005  0.1043930E+01  0.7957747E-01            NaN
         13   -1    0    0    0    0  0.00000000000E+00  0.00000000000E+00  0.74505805969E-08  0.10566000000E+00  0.10566000000E+00 0.  1.
     999900   -1    0    0    0    0 -0.00000000000E+00 -0.00000000000E+00 -0.74505805969E-08  0.93827000000E+00  0.93827000000E+00 0.  1.
     999902    2    1    2    0    0 -0.10800161229E-01 -0.15987850769E-01 -0.13816706770E-01  0.10201990868E+01  0.10199230464E+01 0.  0.
     999903    2    3    3    0    0 -0.26745128105E-01 -0.59075009747E-01 -0.11468487307E+00  0.13324636417E+00  0.19920210819E-01 0.  0.
         14    1    1    2    0    0  0.10800161229E-01  0.15987850769E-01  0.13816706770E-01  0.23730913188E-01  0.00000000000E+00 0. -1.
     999901    1    3    3    0    0  0.15944966876E-01  0.43087158978E-01  0.10086816630E+00  0.88695272265E+00  0.88000000000E+00 0. -1.
        -11    1    4    4    0    0 -0.12888958786E-01 -0.31151404036E-01 -0.39993347495E-01  0.52309312716E-01  0.51100000000E-03 0.  1.
         11    1    4    4    0    0 -0.13856169320E-01 -0.27923605711E-01 -0.74691525571E-01  0.80937051449E-01  0.51100000000E-03 0. -1.
</event>
<event>
 8    1  0.1112171E+005  0.1043930E+01  0.7957747E-01            NaN
         13   -1    0    0    0    0  0.00000000000E+00  0.00000000000E+00  0.74505805969E-08  0.10566000000E+00  0.10566000000E+00 0. -1.
     999900   -1    0    0    0    0 -0.00000000000E+00 -0.00000000000E+00 -0.74505805969E-08  0.93827000000E+00  0.93827000000E+00 0. -1.
     999902    2    1    2    0    0  0.10178623895E-01 -0.17161413591E-01 -0.15240369514E-01  0.10188224839E+01  0.10185130664E+01 0.  0.
     999903    2    3    3    0    0  0.26882307033E-01 -0.12393114360E+00 -0.31003213181E-01  0.13207152930E+00  0.20002570773E-01 0.  0.
         14    1    1    2    0    0 -0.10178623895E-01  0.17161413591E-01  0.15240369514E-01  0.25107516082E-01  0.00000000000E+00 0.  1.
     999901    1    3    3    0    0 -0.16703683138E-01  0.10676973001E+00  0.15762843666E-01  0.88675095462E+00  0.88000000000E+00 0.  1.
        -11    1    4    4    0    0  0.16019831265E-01 -0.47402893483E-01 -0.40213939075E-02  0.50200617868E-01  0.51100000000E-03 0.  1.
         11    1    4    4    0    0  0.10862475768E-01 -0.76528250121E-01 -0.26981819273E-01  0.81870911432E-01  0.51100000000E-03 0. -1.
</event>
<event>
 8    1  0.1112171E+005  0.1043930E+01  0.7957747E-01            NaN
         13   -1    0    0    0    0  0.00000000000E+00  0.00000000000E+00  0.74505805969E-08  0.10566000000E+00  0.10566000000E+00 0.  1.
     999900   -1    0    0    0    0 -0.00000000000E+00 -0.00000000000E+00 -0.74505805969E-08  0.93827000000E+00  0.93827000000E+00 0. -1.
     999902    2    1    2    0    0  0.11059938676E-01 -0.19629566817E-01 -0.52329528764E-02  0.10207993724E+01  0.10205372765E+01 0.  0.
     999903    2    3    3    0    0 -0.28950581004E-01  0.10908816316E+00 -0.59302136613E-01  0.12889546933E+00  0.18945583241E-01 0.  0.
         14    1    1    2    0    0 -0.11059938676E-01  0.19629566817E-01  0.52329528764E-02  0.23130627591E-01  0.00000000000E+00 0. -1.
     999901    1    3    3    0    0  0.40010519680E-01 -0.12871772998E+00  0.54069183736E-01  0.89190390308E+00  0.88000000000E+00 0.  1.
        -11    1    4    4    0    0 -0.25613904373E-02  0.17824818856E-01 -0.17453744292E-01  0.25083444720E-01  0.51100000000E-03 0.  1.
         11    1    4    4    0    0 -0.26389190566E-01  0.91263344307E-01 -0.41848392321E-01  0.10381202461E+00  0.51100000000E-03 0. -1.
</event>
<event>
 8    1  0.1112171E+005  0.1043930E+01  0.7957747E-01            NaN
         13   -1    0    0    0    0  0.00000000000E+00  0.00000000000E+00  0.74505805969E-08  0.10566000000E+00  0.10566000000E+00 0.  1.
     999900   -1    0    0    0    0 -0.00000000000E+00 -0.00000000000E+00 -0.74505805969E-08  0.93827000000E+00  0.93827000000E+00 0. -1.
     999902    2    1    2    0    0  0.72506418510E-02 -0.47568290949E-02  0.21954949379E-01  0.10203245127E+01  0.10200514164E+01 0.  0.
     999903    2    3    3    0    0 -0.11051192597E+00 -0.74784569549E-02  0.64401576122E-01  0.13146167411E+00  0.29424405737E-01 0.  0.
         14    1    1    2    0    0 -0.72506418510E-02  0.47568290949E-02 -0.21954949379E-01  0.23605487339E-01  0.00000000000E+00 0. -1.
     999901    1    3    3    0    0  0.11776256782E+00  0.27216278600E-02 -0.42446626743E-01  0.88886283855E+00  0.88000000000E+00 0. -1.
        -11    1    4    4    0    0 -0.83447310871E-01 -0.13163589397E-01  0.36045229951E-01  0.91849080021E-01  0.51100000000E-03 0.  1.
         11    1    4    4    0    0 -0.27064615096E-01  0.56851324422E-02  0.28356346171E-01  0.39612594088E-01  0.51100000000E-03 0. -1.
</event>
<event>
 8    1  0.1112171E+005  0.1043930E+01  0.7957747E-01            NaN
         13   -1    0    0    0    0  0.00000000000E+00  0.00000000000E+00  0.74505805969E-08  0.10566000000E+00  0.10566000000E+00 0. -1.
     999900   -1    0    0    0    0 -0.00000000000E+00 -0.00000000000E+00 -0.74505805969E-08  0.93827000000E+00  0.93827000000E+00 0.  1.
     999902    2    1    2    0    0  0.14840590293E-01 -0.55338969165E-02 -0.16860544659E-01  0.10207967966E+01  0.10205346416E+01 0.  0.
     999903    2    3    3    0    0 -0.55539511463E-01 -0.11117211431E+00 -0.37474748638E-01  0.13144999294E+00  0.20757348716E-01 0.  0.
         14    1    1    2    0    0 -0.14840590293E-01  0.55338969165E-02  0.16860544659E-01  0.23133203443E-01  0.00000000000E+00 0. -1.
     999901    1    3    3    0    0  0.70380101756E-01  0.10563821739E+00  0.20614203979E-01  0.88934680362E+00  0.88000000000E+00 0. -1.
        -11    1    4    4    0    0 -0.17585786676E-01 -0.46374891408E-01 -0.57660948189E-02  0.49933950541E-01  0.51100000000E-03 0.  1.
         11    1    4    4    0    0 -0.37953724787E-01 -0.64797222898E-01 -0.31708653820E-01  0.81516042400E-01  0.51100000000E-03 0. -1.
</event>
<event>
 8    1  0.1112171E+005  0.1043930E+01  0.7957747E-01            NaN
         13   -1    0    0    0    0  0.00000000000E+00  0.00000000000E+00  0.74505805969E-08  0.10566000000E+00  0.10566000000E+00 0. -1.
     999900   -1    0    0    0    0 -0.00000000000E+00 -0.00000000000E+00 -0.74505805969E-08  0.93827000000E+00  0.93827000000E+00 0. -1.
     999902    2    1    2    0    0  0.20786188295E-01  0.10634641504E-01  0.90988690995E-02  0.10188710566E+01  0.10185628500E+01 0.  0.
     999903    2    3    3    0    0  0.21706857071E-01  0.10956572391E+00  0.66411924714E-01  0.13147430600E+00  0.19977835035E-01 0.  0.
         14    1    1    2    0    0 -0.20786188295E-01 -0.10634641504E-01 -0.90988690995E-02  0.25058943366E-01  0.00000000000E+00 0. -1.
     999901    1    3    3    0    0 -0.92066877678E-03 -0.98931082408E-01 -0.57313055614E-01  0.88739675064E+00  0.88000000000E+00 0. -1.
        -11    1    4    4    0    0  0.11963885769E-01  0.43994405800E-01  0.37980541513E-01  0.59341595521E-01  0.51100000000E-03 0.  1.
         11    1    4    4    0    0  0.97429713027E-02  0.65571318112E-01  0.28431383201E-01  0.72132710476E-01  0.51100000000E-03 0. -1.
</event>
<event>
 8    1  0.1112171E+005  0.1043930E+01  0.7957747E-01            NaN
         13   -1    0    0    0    0  0.00000000000E+00  0.00000000000E+00  0.74505805969E-08  0.10566000000E+00  0.10566000000E+00 0.  1.
     999900   -1    0    0    0    0 -0.00000000000E+00 -0.00000000000E+00 -0.74505805969E-08  0.93827000000E+00  0.93827000000E+00 0.  1.
     999902    2    1    2    0    0 -0.10479427530E-02 -0.24155755086E-01 -0.33117870770E-02  0.10195257663E+01  0.10192336443E+01 0.  0.
     999903    2    3    3    0    0 -0.66865963118E-01  0.99296390040E-01  0.38501737345E-01  0.12749392005E+00  0.21011562818E-01 0.  0.
         14    1    1    2    0    0  0.10479427530E-02  0.24155755086E-01  0.33117870770E-02  0.24404233678E-01  0.00000000000E+00 0.  1.
     999901    1    3    3    0    0  0.65818020365E-01 -0.12345214513E+00 -0.41813524422E-01  0.89203184627E+00  0.88000000000E+00 0. -1.
        -11    1    4    4    0    0 -0.42231731841E-02  0.18502344793E-01  0.27262336640E-02  0.19179818184E-01  0.51100000000E-03 0. -1.
         11    1    4    4    0    0 -0.62642789933E-01  0.80794045247E-01  0.35775503680E-01  0.10831410186E+00  0.51100000000E-03 0.  1.
</event>
<event>
 8    1  0.1112171E+005  0.1043930E+01  0.7957747E-01            NaN
         13   -1    0    0    0    0  0.00000000000E+00  0.00000000000E+00  0.74505805969E-08  0.10566000000E+00  0.10566000000E+00 0. -1.
     999900   -1    0    0    0    0 -0.00000000000E+00 -0.00000000000E+00 -0.74505805969E-08  0.93827000000E+00  0.93827000000E+00 0. -1.
     999902    2    1    2    0    0  0.18674565292E-01  0.45438261166E-02 -0.14576097958E-01  0.10198084665E+01  0.10195231533E+01 0.  0.
     999903    2    3    3    0    0 -0.40033493486E-01  0.10039210265E-01 -0.12300575987E+00  0.13119503710E+00  0.19448764873E-01 0.  0.
         14    1    1    2    0    0 -0.18674565292E-01 -0.45438261166E-02  0.14576097958E-01  0.24121533457E-01  0.00000000000E+00 0. -1.
     999901    1    3    3    0    0  0.58708058778E-01 -0.54953841487E-02  0.10842966191E+00  0.88861342945E+00  0.88000000000E+00 0.  1.
        -11    1    4    4    0    0 -0.41426597552E-01  0.67396908113E-02 -0.11180392687E+00  0.11942347174E+00  0.51100000000E-03 0. -1.
         11    1    4    4    0    0  0.13931040657E-02  0.32995194540E-02 -0.11201832991E-01  0.11771565356E-01  0.51100000000E-03 0.  1.
</event>
<event>
 8    1  0.1112171E+005  0.1043930E+01  0.7957747E-01            NaN
         13   -1    0    0    0    0  0.00000000000E+00  0.00000000000E+00  0.74505805969E-08  0.10566000000E+00  0.10566000000E+00 0.  1.
     999900   -1    0    0    0    0 -0.00000000000E+00 -0.00000000000E+00 -0.74505805969E-08  0.93827000000E+00  0.93827000000E+00 0.  1.
     999902    2    1    2    0    0 -0.30998394081E-02  0.21513863895E-01  0.69516165689E-02  0.10211093883E+01  0.10208543494E+01 0.  0.
     999903    2    3    3    0    0 -0.80531890403E-01 -0.81765608717E-01  0.58130683246E-01  0.13022125346E+00  0.20184112012E-01 0.  0.
         14    1    1    2    0    0  0.30998394081E-02 -0.21513863895E-01 -0.69516165689E-02  0.22820611670E-01  0.00000000000E+00 0. -1.
     999901    1    3    3    0    0  0.77432050994E-01  0.10327947261E+00 -0.51179066677E-01  0.89088813487E+00  0.88000000000E+00 0. -1.
        -11    1    4    4    0    0 -0.26767602937E-01 -0.17207576722E-01  0.22428672720E-01  0.38934711308E-01  0.51100000000E-03 0.  1.
         11    1    4    4    0    0 -0.53764287465E-01 -0.64558031996E-01  0.35702010526E-01  0.91286542154E-01  0.51100000000E-03 0. -1.
</event>
<event>
 8    1  0.1112171E+005  0.1043930E+01  0.7957747E-01            NaN
         13   -1    0    0    0    0  0.00000000000E+00  0.00000000000E+00  0.74505805969E-08  0.10566000000E+00  0.10566000000E+00 0. -1.
     999900   -1    0    0    0    0 -0.00000000000E+00 -0.00000000000E+00 -0.74505805969E-08  0.93827000000E+00  0.93827000000E+00 0.  1.
     999902    2    1    2    0    0  0.70157196222E-02 -0.20184491821E-01 -0.93148568609E-02  0.10206190457E+01  0.10203527997E+01 0.  0.
     999903    2    3    3    0    0 -0.96066655033E-01  0.41345035523E-01  0.72551604738E-01  0.12870314371E+00  0.19040737335E-01 0.  0.
         14    1    1    2    0    0 -0.70157196222E-02  0.20184491821E-01  0.93148568609E-02  0.23310954297E-01  0.00000000000E+00 0.  1.
     999901    1    3    3    0    0  0.10308237466E+00 -0.61529527344E-01 -0.81866461599E-01  0.89191590200E+00  0.88000000000E+00 0. -1.
        -11    1    4    4    0    0 -0.64231652407E-01  0.27041321740E-01  0.37103525466E-01  0.78954866698E-01  0.51100000000E-03 0.  1.
         11    1    4    4    0    0 -0.31835002627E-01  0.14303713783E-01  0.35448079272E-01  0.49748277008E-01  0.51100000000E-03 0. -1.
</event>
<event>
 8    1  0.1112171E+005  0.1043930E+01  0.7957747E-01            NaN
         13   -1    0    0    0    0  0.00000000000E+00  0.00000000000E+00  0.74505805969E-08  0.10566000000E+00  0.10566000000E+00 0.  1.
     999900   -1    0    0    0    0 -0.00000000000E+00 -0.00000000000E+00 -0.74505805969E-08  0.93827000000E+00  0.93827000000E+00 0. -1.
     999902    2    1    2    0    0  0.19309241309E-01  0.97976826679E-02 -0.11906009711E-01  0.10192197905E+01  0.10189202064E+01 0.  0.
     999903    2    3    3    0    0  0.11672747185E+00 -0.55980832822E-01 -0.20705673873E-02  0.13134938293E+00  0.22118246278E-01 0.  0.
         14    1    1    2    0    0 -0.19309241309E-01 -0.97976826679E-02  0.11906009711E-01  0.24710209486E-01  0.00000000000E+00 0.  1.
     999901    1    3    3    0    0 -0.97418230541E-01  0.65778515490E-01 -0.98354423234E-02  0.88787040759E+00  0.88000000000E+00 0. -1.
        -11    1    4    4    0    0  0.33025869668E-01 -0.23239690430E-01 -0.83903973721E-02  0.41248650495E-01  0.51100000000E-03 0. -1.
         11    1    4    4    0    0  0.83701602182E-01 -0.32741142392E-01  0.63198299848E-02  0.90100732433E-01  0.51100000000E-03 0.  1.
</event>
<event>
 8    1  0.1112171E+005  0.1043930E+01  0.7957747E-01            NaN
         13   -1    0    0    0    0  0.00000000000E+00  0.00000000000E+00  0.74505805969E-08  0.10566000000E+00  0.10566000000E+00 0. -1.
     999900   -1    0    0    0    0 -0.00000000000E+00 -0.00000000000E+00 -0.74505805969E-08  0.93827000000E+00  0.93827000000E+00 0. -1.
     999902    2    1    2    0    0  0.82019477131E-03  0.41046475570E-02  0.17061314471E-01  0.10263627207E+01  0.10262123684E+01 0.  0.
     999903    2    3    3    0    0 -0.63786757778E-01  0.69145282155E-01 -0.94245079553E-01  0.13462651764E+00  0.19807668225E-01 0.  0.
         14    1    1    2    0    0 -0.82019477131E-03 -0.41046475570E-02 -0.17061314471E-01  0.17567279314E-01  0.00000000000E+00 0.  1.
     999901    1    3    3    0    0  0.64606952550E-01 -0.65040634598E-01  0.11130639402E+00  0.89173620304E+00  0.88000000000E+00 0.  1.
        -11    1    4    4    0    0 -0.21713286938E-01  0.26127092046E-01 -0.21450797790E-01  0.40180711981E-01  0.51100000000E-03 0.  1.
         11    1    4    4    0    0 -0.42073470840E-01  0.43018190109E-01 -0.72794281763E-01  0.94445805662E-01  0.51100000000E-03 0. -1.
</event>
<event>
 8    1  0.1112171E+005  0.1043930E+01  0.7957747E-01            NaN
         13   -1    0    0    0    0  0.00000000000E+00  0.00000000000E+00  0.74505805969E-08  0.10566000000E+00  0.10566000000E+00 0.  1.
     999900   -1    0    0    0    0 -0.00000000000E+00 -0.00000000000E+00 -0.74505805969E-08  0.93827000000E+00  0.93827000000E+00 0. -1.
     999902    2    1    2    0    0  0.14402040510E-01  0.17359683554E-01 -0.72588034978E-02  0.10202346922E+01  0.10199594892E+01 0.  0.
     999903    2    3    3    0    0  0.42047091876E-01  0.10704828965E+00 -0.64509950857E-01  0.13339423935E+00  0.20129457998E-01 0.  0.
         14    1    1    2    0    0 -0.14402040510E-01 -0.17359683554E-01  0.72588034978E-02  0.23695307809E-01  0.00000000000E+00 0. -1.
     999901    1    3    3    0    0 -0.27645051366E-01 -0.89688606094E-01  0.57251147359E-01  0.88684045284E+00  0.88000000000E+00 0.  1.
        -11    1    4    4    0    0  0.26840163677E-01  0.80511222933E-01 -0.38296147535E-01  0.93109115780E-01  0.51100000000E-03 0.  1.
         11    1    4    4    0    0  0.15206928198E-01  0.26537066715E-01 -0.26213803322E-01  0.40285123566E-01  0.51100000000E-03 0. -1.
</event>
<event>
 8    1  0.1112171E+005  0.1043930E+01  0.7957747E-01            NaN
         13   -1    0    0    0    0  0.00000000000E+00  0.00000000000E+00  0.74505805969E-08  0.10566000000E+00  0.10566000000E+00 0. -1.
     999900   -1    0    0    0    0 -0.00000000000E+00 -0.00000000000E+00 -0.74505805969E-08  0.93827000000E+00  0.93827000000E+00 0. -1.
     999902    2    1    2    0    0 -0.20791054095E-01 -0.79200419379E-02 -0.12789400164E-01  0.10182675030E+01  0.10179440770E+01 0.  0.
     999903    2    3    3    0    0 -0.59164173307E-01  0.85989833454E-01 -0.75490146388E-01  0.13022305337E+00  0.19095302229E-01 0.  0.
         14    1    1    2    0    0  0.20791054095E-01  0.79200419379E-02  0.12789400164E-01  0.25662496980E-01  0.00000000000E+00 0. -1.
     999901    1    3    3    0    0  0.38373119212E-01 -0.93909875392E-01  0.62700746225E-01  0.88804444965E+00  0.88000000000E+00 0. -1.
        -11    1    4    4    0    0 -0.44121790258E-01  0.53939714994E-01 -0.41328431553E-01  0.81021760069E-01  0.51100000000E-03 0. -1.
         11    1    4    4    0    0 -0.15042383050E-01  0.32050118460E-01 -0.34161714836E-01  0.49201293302E-01  0.51100000000E-03 0.  1.
</event>
<event>
 8    1  0.1112171E+005  0.1043930E+01  0.7957747E-01            NaN
         13   -1    0    0    0    0  0.00000000000E+00  0.00000000000E+00  0.74505805969E-08  0.10566000000E+00  0.10566000000E+00 0.  1.
     999900   -1    0    0    0    0 -0.00000000000E+00 -0.00000000000E+00 -0.74505805969E-08  0.93827000000E+00  0.93827000000E+00 0.  1.
     999902    2    1    2    0    0 -0.28903686442E-02 -0.15398625703E-03  0.23707077665E-01  0.10200468789E+01  0.10197672439E+01 0.  0.
     999903    2    3    3    0    0 -0.11007084085E+00 -0.15845565501E-01 -0.62992489528E-01  0.12917612831E+00  0.18754904322E-01 0.  0.
         14    1    1    2    0    0  0.28903686442E-02  0.15398625703E-03 -0.23707077665E-01  0.23883121113E-01  0.00000000000E+00 0. -1.
     999901    1    3    3    0    0  0.10718047221E+00  0.15691579244E-01  0.86699567194E-01  0.89087075058E+00  0.88000000000E+00 0. -1.
        -11    1    4    4    0    0 -0.92538475923E-01 -0.98095282264E-02 -0.45129072547E-01  0.10342384000E+00  0.51100000000E-03 0.  1.
         11    1    4    4    0    0 -0.17532364929E-01 -0.60360372748E-02 -0.17863416981E-01  0.25752288311E-01  0.51100000000E-03 0. -1.
</event>
<event>
 8    1  0.1112171E+005  0.1043930E+01  0.7957747E-01            NaN
         13   -1    0    0    0    0  0.00000000000E+00  0.00000000000E+00  0.74505805969E-08  0.10566000000E+00  0.10566000000E+00 0.  1.
     999900   -1    0    0    0    0 -0.00000000000E+00 -0.00000000000E+00 -0.74505805969E-08  0.93827000000E+00  0.93827000000E+00 0.  1.
     999902    2    1    2    0    0  0.19360094733E-01 -0.79092286310E-02 -0.89771759416E-02  0.10211712906E+01  0.10209176489E+01 0.  0.
     999903    2    3    3    0    0 -0.52720755176E-01 -0.14593694120E-01  0.11540883823E+00  0.12948064272E+00  0.21297487235E-01 0.  0.
         14    1    1    2    0    0 -0.19360094733E-01  0.79092286310E-02  0.89771759416E-02  0.22758709399E-01  0.00000000000E+00 0.  1.
     999901    1    3    3    0    0  0.72080849908E-01  0.66844654889E-02 -0.12438601417E+00  0.89169064788E+00  0.88000000000E+00 0. -1.
        -11    1    4    4    0    0 -0.28762559539E-01 -0.95662819501E-02  0.39961393117E-01  0.50159472111E-01  0.51100000000E-03 0. -1.
         11    1    4    4    0    0 -0.23958195637E-01 -0.50274121697E-02  0.75447445113E-01  0.79321170607E-01  0.51100000000E-03 0.  1.
</event>
<event>
 8    1  0.1112171E+005  0.1043930E+01  0.7957747E-01            NaN
         13   -1    0    0    0    0  0.00000000000E+00  0.00000000000E+00  0.74505805969E-08  0.10566000000E+00  0.10566000000E+00 0. -1.
     999900   -1    0    0    0    0 -0.00000000000E+00 -0.00000000000E+00 -0.74505805969E-08  0.93827000000E+00  0.93827000000E+00 0.  1.
     999902    2    1    2    0    0  0.12307056597E-01  0.82052234833E-02 -0.19199671447E-01  0.10196933187E+01  0.10194052421E+01 0.  0.
     999903    2    3    3    0    0 -0.25905158950E-01 -0.11094785339E+00 -0.59372762274E-01  0.12993407807E+00  0.19422572228E-01 0.  0.
         14    1    1    2    0    0 -0.12307056597E-01 -0.82052234833E-02  0.19199671447E-01  0.24236681253E-01  0.00000000000E+00 0. -1.
     999901    1    3    3    0    0  0.38212215547E-01  0.11915307687E+00  0.40173090827E-01  0.88975924068E+00  0.88000000000E+00 0.  1.
        -11    1    4    4    0    0 -0.12864430703E-01 -0.41272184528E-01 -0.32649366896E-01  0.54176831513E-01  0.51100000000E-03 0. -1.
         11    1    4    4    0    0 -0.13040728248E-01 -0.69675668859E-01 -0.26723395378E-01  0.75757246556E-01  0.51100000000E-03 0.  1.
</event>
<event>
 8    1  0.1112171E+005  0.1043930E+01  0.7957747E-01            NaN
         13   -1    0    0    0    0  0.00000000000E+00  0.00000000000E+00  0.74505805969E-08  0.10566000000E+00  0.10566000000E+00 0.  1.
     999900   -1    0    0    0    0 -0.00000000000E+00 -0.00000000000E+00 -0.74505805969E-08  0.93827000000E+00  0.93827000000E+00 0. -1.
     999902    2    1    2    0    0 -0.22299883986E-01 -0.66763388049E-02  0.50002115709E-02  0.10201211688E+01  0.10198432912E+01 0.  0.
     999903    2    3    3    0    0 -0.88502714036E-01  0.93874974362E-01  0.18043876421E-01  0.13182869533E+00  0.20198570101E-01 0.  0.
         14    1    1    2    0    0  0.22299883986E-01  0.66763388049E-02 -0.50002115709E-02  0.23808831164E-01  0.00000000000E+00 0. -1.
     999901    1    3    3    0    0  0.66202830049E-01 -0.10055131317E+00 -0.13043664850E-01  0.88829247350E+00  0.88000000000E+00 0. -1.
        -11    1    4    4    0    0 -0.18119803895E-01  0.10216547868E-01 -0.10988774457E-02  0.20836837481E-01  0.51100000000E-03 0. -1.
         11    1    4    4    0    0 -0.70382910140E-01  0.83658426494E-01  0.19142753867E-01  0.11099185785E+00  0.51100000000E-03 0.  1.
</event>
<event>
 8    1  0.1112171E+005  0.1043930E+01  0.7957747E-01            NaN
         13   -1    0    0    0    0  0.00000000000E+00  0.00000000000E+00  0.74505805969E-08  0.10566000000E+00  0.10566000000E+00 0.  1.
     999900   -1    0    0    0    0 -0.00000000000E+00 -0.00000000000E+00 -0.74505805969E-08  0.93827000000E+00  0.93827000000E+00 0. -1.
     999902    2    1    2    0    0 -0.23544860763E-01 -0.21263409095E-03 -0.17038946961E-02  0.10203226084E+01  0.10200494675E+01 0.  0.
     999903    2    3    3    0    0 -0.28044491933E-01  0.66405423002E-01  0.10815140839E+00  0.13098217873E+00  0.16230535319E-01 0.  0.
         14    1    1    2    0    0  0.23544860763E-01  0.21263409095E-03  0.17038946961E-02  0.23607391612E-01  0.00000000000E+00 0.  1.
     999901    1    3    3    0    0  0.44996311699E-02 -0.66618057093E-01 -0.10985530308E+00  0.88934042966E+00  0.88000000000E+00 0. -1.
        -11    1    4    4    0    0 -0.29992206854E-01  0.64061265173E-01  0.10245760381E+00  0.12450381467E+00  0.51100000000E-03 0. -1.
         11    1    4    4    0    0  0.19477149216E-02  0.23441578285E-02  0.56938045719E-02  0.64783640561E-02  0.51100000000E-03 0.  1.
</event>
<event>
 8    1  0.1112171E+005  0.1043930E+01  0.7957747E-01            NaN
         13   -1    0    0    0    0  0.00000000000E+00  0.00000000000E+00  0.74505805969E-08  0.10566000000E+00  0.10566000000E+00 0. -1.
     999900   -1    0    0    0    0 -0.00000000000E+00 -0.00000000000E+00 -0.74505805969E-08  0.93827000000E+00  0.93827000000E+00 0. -1.
     999902    2    1    2    0    0 -0.19532390294E-01 -0.13704506916E-01  0.30889705894E-02  0.10198702926E+01  0.10195864575E+01 0.  0.
     999903    2    3    3    0    0  0.97363023639E-01 -0.47241413977E-01  0.67550033047E-01  0.12917141504E+00  0.20271604072E-01 0.  0.
         14    1    1    2    0    0  0.19532390294E-01  0.13704506916E-01 -0.30889705894E-02  0.24059707390E-01  0.00000000000E+00 0.  1.
     999901    1    3    3    0    0 -0.11689541393E+00  0.33536907061E-01 -0.64461062457E-01  0.89069887757E+00  0.88000000000E+00 0. -1.
        -11    1    4    4    0    0  0.68831015571E-01 -0.27471767834E-01  0.36576678603E-01  0.82646967706E-01  0.51100000000E-03 0. -1.
         11    1    4    4    0    0  0.28532008068E-01 -0.19769646143E-01  0.30973354444E-01  0.46524447332E-01  0.51100000000E-03 0.  1.
</event>
<event>
 8    1  0.1112171E+005  0.1043930E+01  0.7957747E-01            NaN
         13   -1    0    0    0    0  0.00000000000E+00  0.00000000000E+00  0.74505805969E-08  0.10566000000E+00  0.10566000000E+00 0. -1.
     999900   -1    0    0    0    0 -0.00000000000E+00 -0.00000000000E+00 -0.74505805969E-08  0.93827000000E+00  0.93827000000E+00 0.  1.
     999902    2    1    2    0    0  0.11563682467E-01 -0.51692913584E-02 -0.20406382675E-01  0.10199120738E+01  0.10196292353E+01 0.  0.
     999903    2    3    3    0    0 -0.33721196783E-01  0.44239211030E-01  0.11301495013E+00  0.12733536984E+00  0.18646462217E-01 0.  0.
         14    1    1    2    0    0 -0.11563682467E-01  0.51692913584E-02  0.20406382675E-01  0.24017926206E-01  0.00000000000E+00 0. -1.
     999901    1    3    3    0    0  0.45284879250E-01 -0.49408502388E-01 -0.13342133281E+00  0.89257670396E+00  0.88000000000E+00 0.  1.
        -11    1    4    4    0    0 -0.10234767704E-01  0.36401563840E-02  0.31033166653E-01  0.32883426859E-01  0.51100000000E-03 0.  1.
         11    1    4    4    0    0 -0.23486429079E-01  0.40599054646E-01  0.81981783480E-01  0.94451942979E-01  0.51100000000E-03 0. -1.
</event>
<event>
 8    1  0.1112171E+005  0.1043930E+01  0.7957747E-01            NaN
         13   -1    0    0    0    0  0.00000000000E+00  0.00000000000E+00  0.74505805969E-08  0.10566000000E+00  0.10566000000E+00 0. -1.
     999900   -1    0    0    0    0 -0.00000000000E+00 -0.00000000000E+00 -0.74505805969E-08  0.93827000000E+00  0.93827000000E+00 0. -1.
     999902    2    1    2    0    0  0.52474191435E-02 -0.27763091651E-01  0.22134287703E-01  0.10080377814E+01  0.10073985891E+01 0.  0.
     999903    2    3    3    0    0  0.10481246883E+00  0.47730637593E-01  0.21095268390E-01  0.11921069930E+00  0.22412342401E-01 0.  0.
         14    1    1    2    0    0 -0.52474191435E-02  0.27763091651E-01 -0.22134287703E-01  0.35892218625E-01  0.00000000000E+00 0.  1.
     999901    1    3    3    0    0 -0.99565049684E-01 -0.75493729244E-01  0.10390193128E-02  0.88882708208E+00  0.88000000000E+00 0.  1.
        -11    1    4    4    0    0  0.35571476575E-02  0.15433889887E-02 -0.34815808795E-02  0.52362081173E-02  0.51100000000E-03 0. -1.
         11    1    4    4    0    0  0.10125532117E+00  0.46187248604E-01  0.24576849269E-01  0.11397449118E+00  0.51100000000E-03 0.  1.
</event>
<event>
 8    1  0.1112171E+005  0.1043930E+01  0.7957747E-01            NaN
         13   -1    0    0    0    0  0.00000000000E+00  0.00000000000E+00  0.74505805969E-08  0.10566000000E+00  0.10566000000E+00 0. -1.
     999900   -1    0    0    0    0 -0.00000000000E+00 -0.00000000000E+00 -0.74505805969E-08  0.93827000000E+00  0.93827000000E+00 0. -1.
     999902    2    1    2    0    0 -0.89026675976E-02 -0.20128859421E-01  0.60943971958E-02  0.10210920897E+01  0.10208366595E+01 0.  0.
     999903    2    3    3    0    0  0.95979227320E-01  0.60453848863E-01  0.59088400647E-01  0.12963140675E+00  0.21123034952E-01 0.  0.
         14    1    1    2    0    0  0.89026675976E-02  0.20128859421E-01 -0.60943971958E-02  0.22837910350E-01  0.00000000000E+00 0.  1.
     999901    1    3    3    0    0 -0.10488189492E+00 -0.80582708284E-01 -0.52994003451E-01  0.89146068290E+00  0.88000000000E+00 0.  1.
        -11    1    4    4    0    0  0.39326329035E-01  0.17784595224E-01  0.31902483439E-01  0.53673844219E-01  0.51100000000E-03 0.  1.
         11    1    4    4    0    0  0.56652898285E-01  0.42669253639E-01  0.27185917208E-01  0.75957562531E-01  0.51100000000E-03 0. -1.
</event>
<event>
 8    1  0.1112171E+005  0.1043930E+01  0.7957747E-01            NaN
         13   -1    0    0    0    0  0.00000000000E+00  0.00000000000E+00  0.74505805969E-08  0.10566000000E+00  0.10566000000E+00 0.  1.
     999900   -1    0    0    0    0 -0.00000000000E+00 -0.00000000000E+00 -0.74505805969E-08  0.93827000000E+00  0.93827000000E+00 0. -1.
     999902    2    1    2    0    0  0.27758112140E-02  0.17908390844E-01 -0.15799904914E-01  0.10198872758E+01  0.10196038460E+01 0.  0.
     999903    2    3    3    0    0 -0.73813568517E-01 -0.91353674114E-01 -0.49821038362E-01  0.12917881092E+00  0.20275420008E-01 0.  0.
         14    1    1    2    0    0 -0.27758112140E-02 -0.17908390844E-01  0.15799904914E-01  0.24042724176E-01  0.00000000000E+00 0.  1.
     999901    1    3    3    0    0  0.76589379731E-01  0.10926206496E+00  0.34021133448E-01  0.89070846490E+00  0.88000000000E+00 0.  1.
        -11    1    4    4    0    0 -0.51084766263E-01 -0.75321737131E-01 -0.42294507026E-01  0.10035987183E+00  0.51100000000E-03 0. -1.
         11    1    4    4    0    0 -0.22728802255E-01 -0.16031936983E-01 -0.75265313362E-02  0.28818939091E-01  0.51100000000E-03 0.  1.
</event>
<event>
 8    1  0.1112171E+005  0.1043930E+01  0.7957747E-01            NaN
         13   -1    0    0    0    0  0.00000000000E+00  0.00000000000E+00  0.74505805969E-08  0.10566000000E+00  0.10566000000E+00 0. -1.
     999900   -1    0    0    0    0 -0.00000000000E+00 -0.00000000000E+00 -0.74505805969E-08  0.93827000000E+00  0.93827000000E+00 0. -1.
     999902    2    1    2    0    0  0.90288618932E-02 -0.15622889198E-01 -0.15926280827E-01  0.10198625648E+01  0.10195785452E+01 0.  0.
     999903    2    3    3    0    0 -0.47352740996E-01 -0.10919325401E+00 -0.54479770480E-01  0.13226993876E+00  0.19022158315E-01 0.  0.
         14    1    1    2    0    0 -0.90288618932E-02  0.15622889198E-01  0.15926280827E-01  0.24067435155E-01  0.00000000000E+00 0. -1.
     999901    1    3    3    0    0  0.56381602889E-01  0.93570364812E-01  0.38553489654E-01  0.88759262608E+00  0.88000000000E+00 0. -1.
        -11    1    4    4    0    0 -0.77548576030E-02 -0.40238180035E-01 -0.19924891956E-01  0.45568754530E-01  0.51100000000E-03 0.  1.
         11    1    4    4    0    0 -0.39597883393E-01 -0.68955073975E-01 -0.34554878524E-01  0.86701184230E-01  0.51100000000E-03 0. -1.
</event>
<event>
 8    1  0.1112171E+005  0.1043930E+01  0.7957747E-01            NaN
         13   -1    0    0    0    0  0.00000000000E+00  0.00000000000E+00  0.74505805969E-08  0.10566000000E+00  0.10566000000E+00 0. -1.
     999900   -1    0    0    0    0 -0.00000000000E+00 -0.00000000000E+00 -0.74505805969E-08  0.93827000000E+00  0.93827000000E+00 0.  1.
     999902    2    1    2    0    0 -0.17429216916E-02 -0.19856027012E-02 -0.25290756080E-01  0.10185016155E+01  0.10181841376E+01 0.  0.
     999903    2    3    3    0    0  0.11164881229E+00  0.47753543402E-01 -0.33283212446E-01  0.12979719483E+00  0.31522711839E-01 0.  0.
         14    1    1    2    0    0  0.17429216916E-02  0.19856027012E-02  0.25290756080E-01  0.25428384479E-01  0.00000000000E+00 0. -1.
     999901    1    3    3    0    0 -0.11339173399E+00 -0.49739146103E-01  0.79924563654E-02  0.88870442069E+00  0.88000000000E+00 0. -1.
        -11    1    4    4    0    0  0.64420662869E-01  0.10441730913E-01 -0.16856626334E-01  0.67405181709E-01  0.51100000000E-03 0.  1.
         11    1    4    4    0    0  0.47228149426E-01  0.37311812488E-01 -0.16426586111E-01  0.62392013124E-01  0.51100000000E-03 0. -1.
</event>
<event>
 8    1  0.1112171E+005  0.1043930E+01  0.7957747E-01            NaN
         13   -1    0    0    0    0  0.00000000000E+00  0.00000000000E+00  0.74505805969E-08  0.10566000000E+00  0.10566000000E+00 0. -1.
     999900   -1    0    0    0    0 -0.00000000000E+00 -0.00000000000E+00 -0.74505805969E-08  0.93827000000E+00  0.93827000000E+00 0.  1.
     999902    2    1    2    0    0  0.13548969399E-01 -0.14762773293E-01  0.12307513015E-01  0.10204142835E+01  0.10201432845E+01 0.  0.
     999903    2    3    3    0    0  0.13057912636E+00  0.68089269976E-02 -0.43033976201E-03  0.13231313564E+00  0.20231434501E-01 0.  0.
         14    1    1    2    0    0 -0.13548969399E-01  0.14762773293E-01 -0.12307513015E-01  0.23515716525E-01  0.00000000000E+00 0.  1.
     999901    1    3    3    0    0 -0.11703015696E+00 -0.21571700291E-01  0.12737852777E-01  0.88810114784E+00  0.88000000000E+00 0.  1.
        -11    1    4    4    0    0  0.79161948101E-01  0.14000349492E-01 -0.14992771796E-03  0.80392209899E-01  0.51100000000E-03 0. -1.
         11    1    4    4    0    0  0.51417178262E-01 -0.71914224945E-02 -0.28041204406E-03  0.51920925741E-01  0.51100000000E-03 0.  1.
</event>
<event>
 8    1  0.1112171E+005  0.1043930E+01  0.7957747E-01            NaN
         13   -1    0    0    0    0  0.00000000000E+00  0.00000000000E+00  0.74505805969E-08  0.10566000000E+00  0.10566000000E+00 0. -1.
     999900   -1    0    0    0    0 -0.00000000000E+00 -0.00000000000E+00 -0.74505805969E-08  0.93827000000E+00  0.93827000000E+00 0. -1.
     999902    2    1    2    0    0 -0.31692543888E-02  0.23647843681E-01 -0.41007926624E-04  0.10200706965E+01  0.10197916255E+01 0.  0.
     999903    2    3    3    0    0  0.74429261679E-01 -0.99596060540E-01 -0.21974413344E-01  0.12783100674E+00  0.19970006843E-01 0.  0.
         14    1    1    2    0    0  0.31692543888E-02 -0.23647843681E-01  0.41007926624E-04  0.23859303548E-01  0.00000000000E+00 0.  1.
     999901    1    3    3    0    0 -0.77598516068E-01  0.12324390422E+00  0.21933405417E-01  0.89223968971E+00  0.88000000000E+00 0.  1.
        -11    1    4    4    0    0  0.61032258459E-01 -0.76418989263E-01 -0.24829975061E-01  0.10090385164E+00  0.51100000000E-03 0. -1.
         11    1    4    4    0    0  0.13397003220E-01 -0.23177071278E-01  0.28555617177E-02  0.26927155104E-01  0.51100000000E-03 0.  1.
</event>
<event>
 8    1  0.1112171E+005  0.1043930E+01  0.7957747E-01            NaN
         13   -1    0    0    0    0  0.00000000000E+00  0.00000000000E+00  0.74505805969E-08  0.10566000000E+00  0.10566000000E+00 0. -1.
     999900   -1    0    0    0    0 -0.00000000000E+00 -0.00000000000E+00 -0.74505805969E-08  0.93827000000E+00  0.93827000000E+00 0.  1.
     999902    2    1    2    0    0 -0.11795389856E-01  0.90044526965E-02 -0.18082348466E-01  0.10205380630E+01  0.10202699424E+01 0.  0.
     999903    2    3    3    0    0  0.11135662769E+00  0.12512939307E-01  0.59681157880E-01  0.12855942435E+00  0.20219119751E-01 0.  0.
         14    1    1    2    0    0  0.11795389856E-01 -0.90044526965E-02  0.18082348466E-01  0.23391936993E-01  0.00000000000E+00 0. -1.
     999901    1    3    3    0    0 -0.12315201754E+00 -0.35084866110E-02 -0.77763506346E-01  0.89197863866E+00  0.88000000000E+00 0.  1.
        -11    1    4    4    0    0  0.20424371331E-01  0.89313614267E-02  0.17024897478E-01  0.28054098031E-01  0.51100000000E-03 0. -1.
         11    1    4    4    0    0  0.90932256355E-01  0.35815778808E-02  0.42656260402E-01  0.10050532632E+00  0.51100000000E-03 0.  1.
</event>
<event>
 8    1  0.1112171E+005  0.1043930E+01  0.7957747E-01            NaN
         13   -1    0    0    0    0  0.00000000000E+00  0.00000000000E+00  0.74505805969E-08  0.10566000000E+00  0.10566000000E+00 0. -1.
     999900   -1    0    0    0    0 -0.00000000000E+00 -0.00000000000E+00 -0.74505805969E-08  0.93827000000E+00  0.93827000000E+00 0.  1.
     999902    2    1    2    0    0  0.13318290374E-01 -0.18580200327E-01  0.49513456356E-02  0.10205394779E+01  0.10202713900E+01 0.  0.
     999903    2    3    3    0    0  0.43265762870E-01  0.72789431113E-01 -0.95810990042E-01  0.12958588257E+00  0.21036340699E-01 0.  0.
         14    1    1    2    0    0 -0.13318290374E-01  0.18580200327E-01 -0.49513456356E-02  0.23390522146E-01  0.00000000000E+00 0.  1.
     999901    1    3    3    0    0 -0.29947472495E-01 -0.91369631440E-01  0.10076233568E+00  0.89095359528E+00  0.88000000000E+00 0. -1.
        -11    1    4    4    0    0  0.42589277087E-01  0.62792425308E-01 -0.90931193947E-01  0.11842921241E+00  0.51100000000E-03 0. -1.
         11    1    4    4    0    0  0.67648578284E-03  0.99970058052E-02 -0.48797960954E-02  0.11156670158E-01  0.51100000000E-03 0.  1.
</event>
<event>
 8    1  0.1112171E+005  0.1043930E+01  0.7957747E-01            NaN
         13   -1    0    0    0    0  0.00000000000E+00  0.00000000000E+00  0.74505805969E-08  0.10566000000E+00  0.10566000000E+00 0. -1.
     999900   -1    0    0    0    0 -0.00000000000E+00 -0.00000000000E+00 -0.74505805969E-08  0.93827000000E+00  0.93827000000E+00 0.  1.
     999902    2    1    2    0    0  0.82673250772E-02 -0.14719620505E-01 -0.14469578938E-01  0.10216952388E+01  0.10214532668E+01 0.  0.
     999903    2    3    3    0    0 -0.54048679891E-01  0.10228407575E+00  0.53073491358E-01  0.12920702275E+00  0.22234371875E-01 0.  0.
         14    1    1    2    0    0 -0.82673250772E-02  0.14719620505E-01  0.14469578938E-01  0.22234761217E-01  0.00000000000E+00 0. -1.
     999901    1    3    3    0    0  0.62316004968E-01 -0.11700369626E+00 -0.67543070297E-01  0.89248821603E+00  0.88000000000E+00 0.  1.
        -11    1    4    4    0    0 -0.29835917291E-01  0.33566361283E-01  0.18816680946E-01  0.48695083666E-01  0.51100000000E-03 0.  1.
         11    1    4    4    0    0 -0.24212762600E-01  0.68717714468E-01  0.34256810413E-01  0.80511939084E-01  0.51100000000E-03 0. -1.
</event>
<event>
 8    1  0.1112171E+005  0.1043930E+01  0.7957747E-01            NaN
         13   -1    0    0    0    0  0.00000000000E+00  0.00000000000E+00  0.74505805969E-08  0.10566000000E+00  0.10566000000E+00 0. -1.
     999900   -1    0    0    0    0 -0.00000000000E+00 -0.00000000000E+00 -0.74505805969E-08  0.93827000000E+00  0.93827000000E+00 0. -1.
     999902    2    1    2    0    0 -0.11925900830E-01  0.13374339923E-01  0.15488267467E-01  0.10202448463E+01  0.10199698818E+01 0.  0.
     999903    2    3    3    0    0  0.59337886237E-01 -0.88866231062E-01  0.70762679043E-01  0.12974671471E+00  0.20215376978E-01 0.  0.
         14    1    1    2    0    0  0.11925900830E-01 -0.13374339923E-01 -0.15488267467E-01  0.23685153749E-01  0.00000000000E+00 0.  1.
     999901    1    3    3    0    0 -0.71263787067E-01  0.10224057099E+00 -0.55274411576E-01  0.89049813154E+00  0.88000000000E+00 0. -1.
        -11    1    4    4    0    0  0.10703506386E-01 -0.20302441313E-01  0.25356141161E-01  0.34204519991E-01  0.51100000000E-03 0.  1.
         11    1    4    4    0    0  0.48634379852E-01 -0.68563789749E-01  0.45406537882E-01  0.95542194719E-01  0.51100000000E-03 0. -1.
</event>
<event>
 8    1  0.1112171E+005  0.1043930E+01  0.7957747E-01            NaN
         13   -1    0    0    0    0  0.00000000000E+00  0.00000000000E+00  0.74505805969E-08  0.10566000000E+00  0.10566000000E+00 0. -1.
     999900   -1    0    0    0    0 -0.00000000000E+00 -0.00000000000E+00 -0.74505805969E-08  0.93827000000E+00  0.93827000000E+00 0. -1.
     999902    2    1    2    0    0  0.27450873583E-02 -0.19500037204E-02 -0.25675975355E-01  0.10180341754E+01  0.10177047650E+01 0.  0.
     999903    2    3    3    0    0 -0.10155218609E-01 -0.10482102076E+00  0.68023845013E-01  0.12700750896E+00  0.20324590622E-01 0.  0.
         14    1    1    2    0    0 -0.27450873583E-02  0.19500037204E-02  0.25675975355E-01  0.25895824558E-01  0.00000000000E+00 0. -1.
     999901    1    3    3    0    0  0.12900305967E-01  0.10287101704E+00 -0.93699820367E-01  0.89102666648E+00  0.88000000000E+00 0. -1.
        -11    1    4    4    0    0 -0.43399742064E-02 -0.91548041316E-01  0.51916437288E-01  0.10533497438E+00  0.51100000000E-03 0.  1.
         11    1    4    4    0    0 -0.58152444021E-02 -0.13272979446E-01  0.16107407725E-01  0.21672534588E-01  0.51100000000E-03 0. -1.
</event>
<event>
 8    1  0.1112171E+005  0.1043930E+01  0.7957747E-01            NaN
         13   -1    0    0    0    0  0.00000000000E+00  0.00000000000E+00  0.74505805969E-08  0.10566000000E+00  0.10566000000E+00 0. -1.
     999900   -1    0    0    0    0 -0.00000000000E+00 -0.00000000000E+00 -0.74505805969E-08  0.93827000000E+00  0.93827000000E+00 0.  1.
     999902    2    1    2    0    0  0.26434130887E-01 -0.18620437155E-04  0.83867042398E-02  0.10161973400E+01  0.10158188487E+01 0.  0.
     999903    2    3    3    0    0 -0.12170297231E+00  0.25448690827E-02  0.88374787597E-02  0.12381212272E+00  0.20814679301E-01 0.  0.
         14    1    1    2    0    0 -0.26434130887E-01  0.18620437155E-04 -0.83867042398E-02  0.27732659996E-01  0.00000000000E+00 0. -1.
     999901    1    3    3    0    0  0.14813710320E+00 -0.25634895199E-02 -0.45077451985E-03  0.89238521728E+00  0.88000000000E+00 0.  1.
        -11    1    4    4    0    0 -0.59812182448E-01  0.10371230113E-01  0.93599515829E-02  0.61424176005E-01  0.51100000000E-03 0. -1.
         11    1    4    4    0    0 -0.61890789863E-01 -0.78263610307E-02 -0.52247282320E-03  0.62387946718E-01  0.51100000000E-03 0.  1.
</event>
<event>
 8    1  0.1112171E+005  0.1043930E+01  0.7957747E-01            NaN
         13   -1    0    0    0    0  0.00000000000E+00  0.00000000000E+00  0.74505805969E-08  0.10566000000E+00  0.10566000000E+00 0. -1.
     999900   -1    0    0    0    0 -0.00000000000E+00 -0.00000000000E+00 -0.74505805969E-08  0.93827000000E+00  0.93827000000E+00 0.  1.
     999902    2    1    2    0    0  0.19631219689E-01 -0.15432468415E-01  0.71258232047E-02  0.10179622657E+01  0.10176309995E+01 0.  0.
     999903    2    3    3    0    0  0.10542442129E+00  0.68758531751E-01  0.23894307304E-01  0.12963249586E+00  0.19788930408E-01 0.  0.
         14    1    1    2    0    0 -0.19631219689E-01  0.15432468415E-01 -0.71258232047E-02  0.25967734291E-01  0.00000000000E+00 0.  1.
     999901    1    3    3    0    0 -0.85793201604E-01 -0.84191000165E-01 -0.16768484099E-01  0.88832976985E+00  0.88000000000E+00 0. -1.
        -11    1    4    4    0    0  0.62099771535E-01  0.28826478830E-01  0.14063575276E-01  0.69895584818E-01  0.51100000000E-03 0.  1.
         11    1    4    4    0    0  0.43324649757E-01  0.39932052921E-01  0.98307320273E-02  0.59736911037E-01  0.51100000000E-03 0. -1.
</event>
<event>
 8    1  0.1112171E+005  0.1043930E+01  0.7957747E-01            NaN
         13   -1    0    0    0    0  0.00000000000E+00  0.00000000000E+00  0.74505805969E-08  0.10566000000E+00  0.10566000000E+00 0.  1.
     999900   -1    0    0    0    0 -0.00000000000E+00 -0.00000000000E+00 -0.74505805969E-08  0.93827000000E+00  0.93827000000E+00 0.  1.
     999902    2    1    2    0    0 -0.25438963313E-02 -0.13085359605E-02 -0.22086988354E-01  0.10216585221E+01  0.10214157415E+01 0.  0.
     999903    2    3    3    0    0  0.70447724215E-01  0.10849763177E+00 -0.15019729067E-01  0.13180734501E+00  0.20321564690E-01 0.  0.
         14    1    1    2    0    0  0.25438963313E-02  0.13085359605E-02  0.22086988354E-01  0.22271477936E-01  0.00000000000E+00 0.  1.
     999901    1    3    3    0    0 -0.72991620546E-01 -0.10980616773E+00 -0.70672592873E-02  0.88985117705E+00  0.88000000000E+00 0. -1.
        -11    1    4    4    0    0  0.34854254624E-01  0.55257088968E-01  0.25944167538E-02  0.65384685255E-01  0.51100000000E-03 0.  1.
         11    1    4    4    0    0  0.35593469590E-01  0.53240542804E-01 -0.17614145821E-01  0.66422659759E-01  0.51100000000E-03 0. -1.
</event>
<event>
 8    1  0.1112171E+005  0.1043930E+01  0.7957747E-01            NaN
         13   -1    0    0    0    0  0.00000000000E+00  0.00000000000E+00  0.74505805969E-08  0.10566000000E+00  0.10566000000E+00 0.  1.
     999900   -1    0    0    0    0 -0.00000000000E+00 -0.00000000000E+00 -0.74505805969E-08  0.93827000000E+00  0.93827000000E+00 0.  1.
     999902    2    1    2    0    0 -0.21363369839E-01  0.46412253337E-02  0.52425815639E-02  0.10214484697E+01  0.10212010365E+01 0.  0.
     999903    2    3    3    0    0  0.85938363590E-02 -0.48983804166E-01 -0.11903756320E+00  0.13059571397E+00  0.20298570431E-01 0.  0.
         14    1    1    2    0    0  0.21363369839E-01 -0.46412253337E-02 -0.52425815639E-02  0.22481530307E-01  0.00000000000E+00 0. -1.
     999901    1    3    3    0    0 -0.29957206198E-01  0.53625029500E-01  0.12428014476E+00  0.89085275572E+00  0.88000000000E+00 0. -1.
        -11    1    4    4    0    0 -0.36944464523E-02 -0.11661297357E-01 -0.46646136302E-01  0.48226112672E-01  0.51100000000E-03 0.  1.
         11    1    4    4    0    0  0.12288282811E-01 -0.37322506810E-01 -0.72391426898E-01  0.82369601300E-01  0.51100000000E-03 0. -1.
</event>
<event>
 8    1  0.1112171E+005  0.1043930E+01  0.7957747E-01            NaN
         13   -1    0    0    0    0  0.00000000000E+00  0.00000000000E+00  0.74505805969E-08  0.10566000000E+00  0.10566000000E+00 0.  1.
     999900   -1    0    0    0    0 -0.00000000000E+00 -0.00000000000E+00 -0.74505805969E-08  0.93827000000E+00  0.93827000000E+00 0.  1.
     999902    2    1    2    0    0 -0.20805100475E-01  0.68257557581E-02 -0.98016834908E-02  0.10199400824E+01  0.10196579110E+01 0.  0.
     999903    2    3    3    0    0  0.82435449777E-01  0.88544075093E-01  0.38986373694E-01  0.12880778612E+00  0.20877064413E-01 0.  0.
         14    1    1    2    0    0  0.20805100475E-01 -0.68257557581E-02  0.98016834908E-02  0.23989917605E-01  0.00000000000E+00 0.  1.
     999901    1    3    3    0    0 -0.10324055025E+00 -0.81718319335E-01 -0.48788057185E-01  0.89113229627E+00  0.88000000000E+00 0.  1.
        -11    1    4    4    0    0  0.47327959940E-01  0.56398948140E-01  0.33494803577E-01  0.80888442506E-01  0.51100000000E-03 0. -1.
         11    1    4    4    0    0  0.35107489838E-01  0.32145126953E-01  0.54915701166E-02  0.47919343619E-01  0.51100000000E-03 0.  1.
</event>
<event>
 8    1  0.1112171E+005  0.1043930E+01  0.7957747E-01            NaN
         13   -1    0    0    0    0  0.00000000000E+00  0.00000000000E+00  0.74505805969E-08  0.10566000000E+00  0.10566000000E+00 0.  1.
     999900   -1    0    0    0    0 -0.00000000000E+00 -0.00000000000E+00 -0.74505805969E-08  0.93827000000E+00  0.93827000000E+00 0.  1.
     999902    2    1    2    0    0  0.26773577779E-02 -0.20569181515E-01 -0.82752293315E-02  0.10215975372E+01  0.10213534105E+01 0.  0.
     999903    2    3    3    0    0 -0.10902145050E+00 -0.56073178892E-01  0.45481453242E-01  0.13220058506E+00  0.19456465304E-01 0.  0.
         14    1    1    2    0    0 -0.26773577779E-02  0.20569181515E-01  0.82752293315E-02  0.22332462770E-01  0.00000000000E+00 0. -1.
     999901    1    3    3    0    0  0.11169880828E+00  0.35503997377E-01 -0.53756682574E-01  0.88939695217E+00  0.88000000000E+00 0. -1.
        -11    1    4    4    0    0 -0.44247907704E-01 -0.32777730532E-01  0.24178745351E-01  0.60142578950E-01  0.51100000000E-03 0.  1.
         11    1    4    4    0    0 -0.64773542797E-01 -0.23295448360E-01  0.21302707891E-01  0.72058006115E-01  0.51100000000E-03 0. -1.
</event>
<event>
 8    1  0.1112171E+005  0.1043930E+01  0.7957747E-01            NaN
         13   -1    0    0    0    0  0.00000000000E+00  0.00000000000E+00  0.74505805969E-08  0.10566000000E+00  0.10566000000E+00 0. -1.
     999900   -1    0    0    0    0 -0.00000000000E+00 -0.00000000000E+00 -0.74505805969E-08  0.93827000000E+00  0.93827000000E+00 0.  1.
     999902    2    1    2    0    0  0.19467221263E-02 -0.10401870567E-01 -0.23690806647E-01  0.10179830742E+01  0.10176523456E+01 0.  0.
     999903    2    3    3    0    0  0.43593830658E-01 -0.10505818764E+00 -0.61993886402E-01  0.13110009099E+00  0.20158051623E-01 0.  0.
         14    1    1    2    0    0 -0.19467221263E-02  0.10401870567E-01  0.23690806647E-01  0.25946925790E-01  0.00000000000E+00 0. -1.
     999901    1    3    3    0    0 -0.41647108532E-01  0.94656317068E-01  0.38303079754E-01  0.88688298322E+00  0.88000000000E+00 0. -1.
        -11    1    4    4    0    0  0.10754752984E-01 -0.51066430893E-01 -0.24943184002E-01  0.57843483860E-01  0.51100000000E-03 0.  1.
         11    1    4    4    0    0  0.32839077675E-01 -0.53991756743E-01 -0.37050702399E-01  0.73256607128E-01  0.51100000000E-03 0. -1.
</event>
<event>
 8    1  0.1112171E+005  0.1043930E+01  0.7957747E-01            NaN
         13   -1    0    0    0    0  0.00000000000E+00  0.00000000000E+00  0.74505805969E-08  0.10566000000E+00  0.10566000000E+00 0.  1.
     999900   -1    0    0    0    0 -0.00000000000E+00 -0.00000000000E+00 -0.74505805969E-08  0.93827000000E+00  0.93827000000E+00 0. -1.
     999902    2    1    2    0    0  0.11921767638E-01  0.18085752748E-01  0.97252878757E-02  0.10201854381E+01  0.10199090763E+01 0.  0.
     999903    2    3    3    0    0 -0.25555555813E-01  0.39301943891E-01  0.12174878212E+00  0.13203908765E+00  0.20342701231E-01 0.  0.
         14    1    1    2    0    0 -0.11921767638E-01 -0.18085752748E-01 -0.97252878757E-02  0.23744561911E-01  0.00000000000E+00 0. -1.
     999901    1    3    3    0    0  0.37477323452E-01 -0.21216191144E-01 -0.11202349424E+00  0.88814635044E+00  0.88000000000E+00 0. -1.
        -11    1    4    4    0    0 -0.17526048577E-01  0.33053102289E-01  0.70766204931E-01  0.80048652900E-01  0.51100000000E-03 0.  1.
         11    1    4    4    0    0 -0.80295072364E-02  0.62488416019E-02  0.50982577186E-01  0.51990434748E-01  0.51100000000E-03 0. -1.
</event>
<event>
 8    1  0.1112171E+005  0.1043930E+01  0.7957747E-01            NaN
         13   -1    0    0    0    0  0.00000000000E+00  0.00000000000E+00  0.74505805969E-08  0.10566000000E+00  0.10566000000E+00 0. -1.
     999900   -1    0    0    0    0 -0.00000000000E+00 -0.00000000000E+00 -0.74505805969E-08  0.93827000000E+00  0.93827000000E+00 0. -1.
     999902    2    1    2    0    0 -0.70986252064E-02 -0.69265084323E-02  0.22443492293E-01  0.10193927356E+01  0.10190973810E+01 0.  0.
     999903    2    3    3    0    0 -0.19315916140E-01 -0.72446688199E-01 -0.10235358628E+00  0.12809229971E+00  0.17599811781E-01 0.  0.
         14    1    1    2    0    0  0.70986252064E-02  0.69265084323E-02 -0.22443492293E-01  0.24537264420E-01  0.00000000000E+00 0. -1.
     999901    1    3    3    0    0  0.12217290933E-01  0.65520179767E-01  0.12479707857E+00  0.89130043587E+00  0.88000000000E+00 0.  1.
        -11    1    4    4    0    0 -0.52777175246E-02 -0.22102690547E-01 -0.45516854896E-01  0.50876600046E-01  0.51100000000E-03 0. -1.
         11    1    4    4    0    0 -0.14038198615E-01 -0.50343997652E-01 -0.56836731383E-01  0.77215699668E-01  0.51100000000E-03 0.  1.
</event>
<event>
 8    1  0.1112171E+005  0.1043930E+01  0.7957747E-01            NaN
         13   -1    0    0    0    0  0.00000000000E+00  0.00000000000E+00  0.74505805969E-08  0.10566000000E+00  0.10566000000E+00 0. -1.
     999900   -1    0    0    0    0 -0.00000000000E+00 -0.00000000000E+00 -0.74505805969E-08  0.93827000000E+00  0.93827000000E+00 0. -1.
     999902    2    1    2    0    0  0.68969549597E-02 -0.22119521095E-01 -0.21375789614E-02  0.10206617718E+01  0.10203965121E+01 0.  0.
     999903    2    3    3    0    0  0.24786363499E-01  0.92797398879E-01 -0.84050740300E-01  0.12923836203E+00  0.20305324930E-01 0.  0.
         14    1    1    2    0    0 -0.68969549597E-02  0.22119521095E-01  0.21375789614E-02  0.23268228231E-01  0.00000000000E+00 0.  1.
     999901    1    3    3    0    0 -0.17889408539E-01 -0.11491691997E+00  0.81913161339E-01  0.89142340974E+00  0.88000000000E+00 0.  1.
        -11    1    4    4    0    0  0.16476373350E-01  0.40254765148E-01 -0.26827040810E-01  0.51106440255E-01  0.51100000000E-03 0. -1.
         11    1    4    4    0    0  0.83099901494E-02  0.52542633730E-01 -0.57223699490E-01  0.78131921773E-01  0.51100000000E-03 0.  1.
</event>
<event>
 8    1  0.1112171E+005  0.1043930E+01  0.7957747E-01            NaN
         13   -1    0    0    0    0  0.00000000000E+00  0.00000000000E+00  0.74505805969E-08  0.10566000000E+00  0.10566000000E+00 0.  1.
     999900   -1    0    0    0    0 -0.00000000000E+00 -0.00000000000E+00 -0.74505805969E-08  0.93827000000E+00  0.93827000000E+00 0. -1.
     999902    2    1    2    0    0  0.20528069333E-01  0.18843441790E-02 -0.12177682210E-01  0.10199873951E+01  0.10197063489E+01 0.  0.
     999903    2    3    3    0    0 -0.11908307271E+00  0.42359085320E-01 -0.23097949320E-02  0.12800821889E+00  0.20141962079E-01 0.  0.
         14    1    1    2    0    0 -0.20528069333E-01 -0.18843441790E-02  0.12177682210E-01  0.23942604861E-01  0.00000000000E+00 0. -1.
     999901    1    3    3    0    0  0.13961114204E+00 -0.40474741141E-01 -0.98678872782E-02  0.89197917624E+00  0.88000000000E+00 0.  1.
        -11    1    4    4    0    0 -0.80368188709E-01  0.32724528425E-01 -0.10078221241E-01  0.87360014775E-01  0.51100000000E-03 0. -1.
         11    1    4    4    0    0 -0.38714884002E-01  0.96345568953E-02  0.77684263090E-02  0.40648204120E-01  0.51100000000E-03 0.  1.
</event>
<event>
 8    1  0.1112171E+005  0.1043930E+01  0.7957747E-01            NaN
         13   -1    0    0    0    0  0.00000000000E+00  0.00000000000E+00  0.74505805969E-08  0.10566000000E+00  0.10566000000E+00 0.  1.
     999900   -1    0    0    0    0 -0.00000000000E+00 -0.00000000000E+00 -0.74505805969E-08  0.93827000000E+00  0.93827000000E+00 0. -1.
     999902    2    1    2    0    0 -0.11014700578E-01  0.11553127181E-01 -0.18318539659E-01  0.10196325254E+01  0.10193429843E+01 0.  0.
     999903    2    3    3    0    0  0.44319392939E-02 -0.12465766761E+00 -0.26301736085E-01  0.12898348637E+00  0.19641340468E-01 0.  0.
         14    1    1    2    0    0  0.11014700578E-01 -0.11553127181E-01  0.18318539659E-01  0.24297474596E-01  0.00000000000E+00 0.  1.
     999901    1    3    3    0    0 -0.15446639872E-01  0.13621079479E+00  0.79831964263E-02  0.89064903903E+00  0.88000000000E+00 0. -1.
        -11    1    4    4    0    0  0.52810762885E-02 -0.97119171524E-01 -0.28461398093E-01  0.10134266400E+00  0.51100000000E-03 0. -1.
         11    1    4    4    0    0 -0.84913699463E-03 -0.27538496089E-01  0.21596620079E-02  0.27640822373E-01  0.51100000000E-03 0.  1.
</event>
<event>
 8    1  0.1112171E+005  0.1043930E+01  0.7957747E-01            NaN
         13   -1    0    0    0    0  0.00000000000E+00  0.00000000000E+00  0.74505805969E-08  0.10566000000E+00  0.10566000000E+00 0.  1.
     999900   -1    0    0    0    0 -0.00000000000E+00 -0.00000000000E+00 -0.74505805969E-08  0.93827000000E+00  0.93827000000E+00 0.  1.
     999902    2    1    2    0    0  0.65570322331E-02 -0.36224399343E-03  0.24705339530E-01  0.10183667511E+01  0.10180458536E+01 0.  0.
     999903    2    3    3    0    0 -0.86410904607E-01  0.92151443093E-01  0.14536637242E-01  0.12858856410E+00  0.19104242868E-01 0.  0.
         14    1    1    2    0    0 -0.65570322331E-02  0.36224399343E-03 -0.24705339530E-01  0.25563248888E-01  0.00000000000E+00 0. -1.
     999901    1    3    3    0    0  0.92967936840E-01 -0.92513687086E-01  0.10168702289E-01  0.88977818701E+00  0.88000000000E+00 0.  1.
        -11    1    4    4    0    0 -0.37440290066E-01  0.27460449546E-01  0.18997604198E-02  0.46472807319E-01  0.51100000000E-03 0.  1.
         11    1    4    4    0    0 -0.48970614541E-01  0.64690993547E-01  0.12636876822E-01  0.82115756780E-01  0.51100000000E-03 0. -1.
</event>
<event>
 8    1  0.1112171E+005  0.1043930E+01  0.7957747E-01            NaN
         13   -1    0    0    0    0  0.00000000000E+00  0.00000000000E+00  0.74505805969E-08  0.10566000000E+00  0.10566000000E+00 0. -1.
     999900   -1    0    0    0    0 -0.00000000000E+00 -0.00000000000E+00 -0.74505805969E-08  0.93827000000E+00  0.93827000000E+00 0. -1.
     999902    2    1    2    0    0 -0.18197865935E-01  0.14889435595E-01 -0.38480318067E-02  0.10201042793E+01  0.10198260027E+01 0.  0.
     999903    2    3    3    0    0  0.79465684467E-01 -0.63054832443E-01  0.75057169442E-01  0.12778174303E+00  0.20096971528E-01 0.  0.
         14    1    1    2    0    0  0.18197865935E-01 -0.14889435595E-01  0.38480318067E-02  0.23825720675E-01  0.00000000000E+00 0. -1.
     999901    1    3    3    0    0 -0.97663550402E-01  0.77944268038E-01 -0.78905201249E-01  0.89232253630E+00  0.88000000000E+00 0. -1.
        -11    1    4    4    0    0  0.58608564492E-01 -0.37528609490E-01  0.43062776438E-01  0.81841457695E-01  0.51100000000E-03 0.  1.
         11    1    4    4    0    0  0.20857119976E-01 -0.25526222953E-01  0.31994393003E-01  0.45940285334E-01  0.51100000000E-03 0. -1.
</event>
<event>
 8    1  0.1112171E+005  0.1043930E+01  0.7957747E-01            NaN
         13   -1    0    0    0    0  0.00000000000E+00  0.00000000000E+00  0.74505805969E-08  0.10566000000E+00  0.10566000000E+00 0.  1.
     999900   -1    0    0    0    0 -0.00000000000E+00 -0.00000000000E+00 -0.74505805969E-08  0.93827000000E+00  0.93827000000E+00 0. -1.
     999902    2    1    2    0    0 -0.14785795651E-01 -0.16518714877E-01  0.55839524926E-02  0.10210680618E+01  0.10208120878E+01 0.  0.
     999903    2    3    3    0    0 -0.30476644693E-01  0.10732064058E+00 -0.62863258843E-01  0.12962686380E+00  0.20119362318E-01 0.  0.
         14    1    1    2    0    0  0.14785795651E-01  0.16518714877E-01 -0.55839524926E-02  0.22861938231E-01  0.00000000000E+00 0.  1.
     999901    1    3    3    0    0  0.15690849042E-01 -0.12383935545E+00  0.68447211336E-01  0.89144119797E+00  0.88000000000E+00 0.  1.
        -11    1    4    4    0    0 -0.12357937409E-01  0.54937733384E-01 -0.42592527552E-01  0.70606357296E-01  0.51100000000E-03 0.  1.
         11    1    4    4    0    0 -0.18118707285E-01  0.52382907192E-01 -0.20270731291E-01  0.59020506501E-01  0.51100000000E-03 0. -1.
</event>
<event>
 8    1  0.1112171E+005  0.1043930E+01  0.7957747E-01            NaN
         13   -1    0    0    0    0  0.00000000000E+00  0.00000000000E+00  0.74505805969E-08  0.10566000000E+00  0.10566000000E+00 0. -1.
     999900   -1    0    0    0    0 -0.00000000000E+00 -0.00000000000E+00 -0.74505805969E-08  0.93827000000E+00  0.93827000000E+00 0. -1.
     999902    2    1    2    0    0 -0.29626843868E-02  0.58968453214E-02  0.22979841990E-01  0.10200213526E+01  0.10197411124E+01 0.  0.
     999903    2    3    3    0    0  0.11546157211E-01  0.11059624485E+00  0.69120917498E-01  0.13249587712E+00  0.20312880069E-01 0.  0.
         14    1    1    2    0    0  0.29626843868E-02 -0.58968453214E-02 -0.22979841990E-01  0.23908647419E-01  0.00000000000E+00 0.  1.
     999901    1    3    3    0    0 -0.14508841598E-01 -0.10469939953E+00 -0.46141075508E-01  0.88752547546E+00  0.88000000000E+00 0.  1.
        -11    1    4    4    0    0 -0.34606112773E-02  0.16994612420E-01  0.17104638975E-01  0.24364369009E-01  0.51100000000E-03 0. -1.
         11    1    4    4    0    0  0.15006768489E-01  0.93601632428E-01  0.52016278523E-01  0.10813150811E+00  0.51100000000E-03 0.  1.
</event>
<event>
 8    1  0.1112171E+005  0.1043930E+01  0.7957747E-01            NaN
         13   -1    0    0    0    0  0.00000000000E+00  0.00000000000E+00  0.74505805969E-08  0.10566000000E+00  0.10566000000E+00 0. -1.
     999900   -1    0    0    0    0 -0.00000000000E+00 -0.00000000000E+00 -0.74505805969E-08  0.93827000000E+00  0.93827000000E+00 0. -1.
     999902    2    1    2    0    0  0.62342971535E-02 -0.17204314051E-01  0.17597823334E-01  0.10185422417E+01  0.10182257903E+01 0.  0.
     999903    2    3    3    0    0  0.11672007142E+00 -0.21087090626E-01 -0.47027273455E-01  0.12927367410E+00  0.20781672275E-01 0.  0.
         14    1    1    2    0    0 -0.62342971535E-02  0.17204314051E-01 -0.17597823334E-01  0.25387758252E-01  0.00000000000E+00 0.  1.
     999901    1    3    3    0    0 -0.11048577427E+00  0.38827765752E-02  0.64625096789E-01  0.88926856765E+00  0.88000000000E+00 0.  1.
        -11    1    4    4    0    0  0.22314755489E-01 -0.12381490154E-01 -0.80142914658E-02  0.26753310069E-01  0.51100000000E-03 0. -1.
         11    1    4    4    0    0  0.94405315935E-01 -0.87056004717E-02 -0.39012981989E-01  0.10252036403E+00  0.51100000000E-03 0.  1.
</event>
<event>
 8    1  0.1112171E+005  0.1043930E+01  0.7957747E-01            NaN
         13   -1    0    0    0    0  0.00000000000E+00  0.00000000000E+00  0.74505805969E-08  0.10566000000E+00  0.10566000000E+00 0.  1.
     999900   -1    0    0    0    0 -0.00000000000E+00 -0.00000000000E+00 -0.74505805969E-08  0.93827000000E+00  0.93827000000E+00 0.  1.
     999902    2    1    2    0    0 -0.12284968943E-01 -0.20277263088E-01 -0.61009038334E-03  0.10202137594E+01  0.10199380641E+01 0.  0.
     999903    2    3    3    0    0  0.56132236515E-02  0.11083713874E+00 -0.61020454102E-01  0.12827164032E+00  0.20340557674E-01 0.  0.
         14    1    1    2    0    0  0.12284968943E-01  0.20277263088E-01  0.61009038334E-03  0.23716240650E-01  0.00000000000E+00 0. -1.
     999901    1    3    3    0    0 -0.17898192594E-01 -0.13111440183E+00  0.60410363719E-01  0.89194211904E+00  0.88000000000E+00 0. -1.
        -11    1    4    4    0    0  0.10375207886E-01  0.30241006660E-01 -0.14736473544E-01  0.35207786013E-01  0.51100000000E-03 0.  1.
         11    1    4    4    0    0 -0.47619842345E-02  0.80596132080E-01 -0.46283980559E-01  0.93063854302E-01  0.51100000000E-03 0. -1.
</event>
<event>
 8    1  0.1112171E+005  0.1043930E+01  0.7957747E-01            NaN
         13   -1    0    0    0    0  0.00000000000E+00  0.00000000000E+00  0.74505805969E-08  0.10566000000E+00  0.10566000000E+00 0. -1.
     999900   -1    0    0    0    0 -0.00000000000E+00 -0.00000000000E+00 -0.74505805969E-08  0.93827000000E+00  0.93827000000E+00 0. -1.
     999902    2    1    2    0    0 -0.19951651110E-01 -0.33301170300E-02  0.12190786235E-01  0.10203127747E+01  0.10200394036E+01 0.  0.
     999903    2    3    3    0    0  0.90711741821E-01 -0.79898965076E-01  0.43109884199E-01  0.12954615789E+00  0.17643134160E-01 0.  0.
         14    1    1    2    0    0  0.19951651110E-01  0.33301170300E-02 -0.12190786235E-01  0.23617225292E-01  0.00000000000E+00 0.  1.
     999901    1    3    3    0    0 -0.11066339293E+00  0.76568848046E-01 -0.30919097964E-01  0.89076661682E+00  0.88000000000E+00 0.  1.
        -11    1    4    4    0    0  0.75335999922E-01 -0.61476085907E-01  0.40743259934E-01  0.10542815740E+00  0.51100000000E-03 0. -1.
         11    1    4    4    0    0  0.15375741899E-01 -0.18422879168E-01  0.23666242652E-02  0.24118000481E-01  0.51100000000E-03 0.  1.
</event>
<event>
 8    1  0.1112171E+005  0.1043930E+01  0.7957747E-01            NaN
         13   -1    0    0    0    0  0.00000000000E+00  0.00000000000E+00  0.74505805969E-08  0.10566000000E+00  0.10566000000E+00 0.  1.
     999900   -1    0    0    0    0 -0.00000000000E+00 -0.00000000000E+00 -0.74505805969E-08  0.93827000000E+00  0.93827000000E+00 0. -1.
     999902    2    1    2    0    0  0.46495971258E-03  0.23564997542E-01 -0.41099314537E-02  0.10200047658E+01  0.10197241320E+01 0.  0.
     999903    2    3    3    0    0 -0.39758567847E-01 -0.10188194443E+00  0.62664349024E-01  0.12769670688E+00  0.20468365585E-01 0.  0.
         14    1    1    2    0    0 -0.46495971258E-03 -0.23564997542E-01  0.41099314537E-02  0.23925234236E-01  0.00000000000E+00 0.  1.
     999901    1    3    3    0    0  0.40223527560E-01  0.12544694198E+00 -0.66774280478E-01  0.89230805889E+00  0.88000000000E+00 0. -1.
        -11    1    4    4    0    0 -0.26692085476E-01 -0.86661988885E-01  0.46374385428E-01  0.10185093269E+00  0.51100000000E-03 0.  1.
         11    1    4    4    0    0 -0.13066482372E-01 -0.15219955549E-01  0.16289963596E-01  0.25845774189E-01  0.51100000000E-03 0. -1.
</event>
<event>
 8    1  0.1112171E+005  0.1043930E+01  0.7957747E-01            NaN
         13   -1    0    0    0    0  0.00000000000E+00  0.00000000000E+00  0.74505805969E-08  0.10566000000E+00  0.10566000000E+00 0. -1.
     999900   -1    0    0    0    0 -0.00000000000E+00 -0.00000000000E+00 -0.74505805969E-08  0.93827000000E+00  0.93827000000E+00 0. -1.
     999902    2    1    2    0    0 -0.28184070444E-02 -0.17168808460E-01  0.14580553511E-01  0.10212296929E+01  0.10209773659E+01 0.  0.
     999903    2    3    3    0    0  0.41906592020E-01  0.61091260700E-01 -0.10339456564E+00  0.12879308858E+00  0.20221742596E-01 0.  0.
         14    1    1    2    0    0  0.28184070444E-02  0.17168808460E-01 -0.14580553511E-01  0.22700307110E-01  0.00000000000E+00 0.  1.
     999901    1    3    3    0    0 -0.44724999064E-01 -0.78260069160E-01  0.11797511915E+00  0.89243660431E+00  0.88000000000E+00 0.  1.
        -11    1    4    4    0    0  0.26971879034E-01  0.38593819122E-01 -0.81070003422E-01  0.93752715742E-01  0.51100000000E-03 0.  1.
         11    1    4    4    0    0  0.14934712986E-01  0.22497441578E-01 -0.22324562222E-01  0.35040372842E-01  0.51100000000E-03 0. -1.
</event>
<event>
 8    1  0.1112171E+005  0.1043930E+01  0.7957747E-01            NaN
         13   -1    0    0    0    0  0.00000000000E+00  0.00000000000E+00  0.74505805969E-08  0.10566000000E+00  0.10566000000E+00 0.  1.
     999900   -1    0    0    0    0 -0.00000000000E+00 -0.00000000000E+00 -0.74505805969E-08  0.93827000000E+00  0.93827000000E+00 0.  1.
     999902    2    1    2    0    0  0.63482508112E-02  0.13425453688E-01  0.18954621553E-01  0.10198505321E+01  0.10195662250E+01 0.  0.
     999903    2    3    3    0    0 -0.66319573807E-01  0.10021486928E+00  0.50840311405E-01  0.13202751338E+00  0.20130105060E-01 0.  0.
         14    1    1    2    0    0 -0.63482508112E-02 -0.13425453688E-01 -0.18954621553E-01  0.24079467878E-01  0.00000000000E+00 0.  1.
     999901    1    3    3    0    0  0.72667824618E-01 -0.86789415595E-01 -0.31885689852E-01  0.88782301874E+00  0.88000000000E+00 0.  1.
        -11    1    4    4    0    0 -0.37539063140E-01  0.62126627889E-01  0.20378553036E-01  0.75395263108E-01  0.51100000000E-03 0.  1.
         11    1    4    4    0    0 -0.28780510667E-01  0.38088241394E-01  0.30461758369E-01  0.56632250270E-01  0.51100000000E-03 0. -1.
</event>
<event>
 8    1  0.1112171E+005  0.1043930E+01  0.7957747E-01            NaN
         13   -1    0    0    0    0  0.00000000000E+00  0.00000000000E+00  0.74505805969E-08  0.10566000000E+00  0.10566000000E+00 0.  1.
     999900   -1    0    0    0    0 -0.00000000000E+00 -0.00000000000E+00 -0.74505805969E-08  0.93827000000E+00  0.93827000000E+00 0.  1.
     999902    2    1    2    0    0 -0.19477239933E-01 -0.11508825531E-01 -0.65323155376E-02  0.10203824505E+01  0.10201107088E+01 0.  0.
     999903    2    3    3    0    0 -0.85818752921E-01  0.96120457625E-01  0.15327390878E-01  0.13107760644E+00  0.18504304114E-01 0.  0.
         14    1    1    2    0    0  0.19477239933E-01  0.11508825531E-01  0.65323155376E-02  0.23547549485E-01  0.00000000000E+00 0. -1.
     999901    1    3    3    0    0  0.66341512988E-01 -0.10762928316E+00 -0.21859706416E-01  0.88930484408E+00  0.88000000000E+00 0.  1.
        -11    1    4    4    0    0 -0.67889676672E-01  0.66616066170E-01  0.59658595220E-02  0.95302471486E-01  0.51100000000E-03 0.  1.
         11    1    4    4    0    0 -0.17929076248E-01  0.29504391456E-01  0.93615313562E-02  0.35775134949E-01  0.51100000000E-03 0. -1.
</event>
<event>
 8    1  0.1133175E+005  0.1043930E+01  0.7957747E-01            NaN
         13   -1    0    0    0    0  0.00000000000E+00  0.00000000000E+00  0.74505805969E-08  0.10566000000E+00  0.10566000000E+00 0. -1.
     999900   -1    0    0    0    0 -0.00000000000E+00 -0.00000000000E+00 -0.74505805969E-08  0.93827000000E+00  0.93827000000E+00 0.  1.
     999902    2    1    2    0    0 -0.21747793147E-01  0.77406786384E-02  0.18632397836E-02  0.10207706331E+01  0.10205078780E+01 0.  0.
     999903    2    3    3    0    0 -0.11875356137E+00 -0.60826229446E-02  0.57547802702E-01  0.13358295663E+00  0.19830533673E-01 0.  0.
         14    1    1    2    0    0  0.21747793147E-01 -0.77406786384E-02 -0.18632397836E-02  0.23159366897E-01  0.00000000000E+00 0. -1.
     999901    1    3    3    0    0  0.97005768226E-01  0.13823301583E-01 -0.55684562918E-01  0.88718767647E+00  0.88000000000E+00 0. -1.
        -11    1    4    4    0    0 -0.87984386207E-01 -0.85714078923E-02  0.50874582028E-01  0.10199610516E+00  0.51100000000E-03 0. -1.
         11    1    4    4    0    0 -0.30769175167E-01  0.24887849477E-02  0.66732206735E-02  0.31586851475E-01  0.51100000000E-03 0.  1.
</event>
<event>
 8    1  0.1112171E+005  0.1043930E+01  0.7957747E-01            NaN
         13   -1    0    0    0    0  0.00000000000E+00  0.00000000000E+00  0.74505805969E-08  0.10566000000E+00  0.10566000000E+00 0.  1.
     999900   -1    0    0    0    0 -0.00000000000E+00 -0.00000000000E+00 -0.74505805969E-08  0.93827000000E+00  0.93827000000E+00 0. -1.
     999902    2    1    2    0    0  0.11003115641E-01  0.21088657126E-01  0.25352481079E-02  0.10200087229E+01  0.10197281831E+01 0.  0.
     999903    2    3    3    0    0 -0.67417294924E-01 -0.75117878066E-01 -0.76205180886E-01  0.12781731222E+00  0.18499958085E-01 0.  0.
         14    1    1    2    0    0 -0.11003115641E-01 -0.21088657126E-01 -0.25352481079E-02  0.23921277059E-01  0.00000000000E+00 0. -1.
     999901    1    3    3    0    0  0.78420410565E-01  0.96206535192E-01  0.78740428994E-01  0.89219141072E+00  0.88000000000E+00 0.  1.
        -11    1    4    4    0    0 -0.21396575529E-01 -0.37094788938E-01 -0.29189164832E-01  0.51827649718E-01  0.51100000000E-03 0. -1.
         11    1    4    4    0    0 -0.46020719395E-01 -0.38023089128E-01 -0.47016016054E-01  0.75989662502E-01  0.51100000000E-03 0.  1.
</event>
<event>
 8    1  0.1112171E+005  0.1043930E+01  0.7957747E-01            NaN
         13   -1    0    0    0    0  0.00000000000E+00  0.00000000000E+00  0.74505805969E-08  0.10566000000E+00  0.10566000000E+00 0.  1.
     999900   -1    0    0    0    0 -0.00000000000E+00 -0.00000000000E+00 -0.74505805969E-08  0.93827000000E+00  0.93827000000E+00 0.  1.
     999902    2    1    2    0    0 -0.14429755419E-02  0.23033935100E-01 -0.54379318988E-02  0.10202189172E+01  0.10199433433E+01 0.  0.
     999903    2    3    3    0    0  0.32052730698E-01  0.91294441177E-01 -0.89336031136E-01  0.13296452860E+00  0.18346304009E-01 0.  0.
         14    1    1    2    0    0  0.14429755419E-02 -0.23033935100E-01  0.54379318988E-02  0.23711082808E-01  0.00000000000E+00 0.  1.
     999901    1    3    3    0    0 -0.33495706240E-01 -0.68260506077E-01  0.83898099237E-01  0.88725438860E+00  0.88000000000E+00 0. -1.
        -11    1    4    4    0    0  0.28227177362E-01  0.74383617039E-01 -0.63255652647E-01  0.10164268168E+00  0.51100000000E-03 0.  1.
         11    1    4    4    0    0  0.38255533356E-02  0.16910824138E-01 -0.26080378488E-01  0.31321846920E-01  0.51100000000E-03 0. -1.
</event>
<event>
 8    1  0.1112171E+005  0.1043930E+01  0.7957747E-01            NaN
         13   -1    0    0    0    0  0.00000000000E+00  0.00000000000E+00  0.74505805969E-08  0.10566000000E+00  0.10566000000E+00 0. -1.
     999900   -1    0    0    0    0 -0.00000000000E+00 -0.00000000000E+00 -0.74505805969E-08  0.93827000000E+00  0.93827000000E+00 0.  1.
     999902    2    1    2    0    0 -0.98747815830E-02  0.10192654241E-01 -0.19414687129E-01  0.10198814743E+01  0.10195979061E+01 0.  0.
     999903    2    3    3    0    0  0.37387895137E-01 -0.52004544790E-01  0.10831345328E+00  0.12723555904E+00  0.18834965965E-01 0.  0.
         14    1    1    2    0    0  0.98747815830E-02 -0.10192654241E-01  0.19414687129E-01  0.24048525695E-01  0.00000000000E+00 0.  1.
     999901    1    3    3    0    0 -0.47262676720E-01  0.62197199030E-01 -0.12772814041E+00  0.89264591526E+00  0.88000000000E+00 0.  1.
        -11    1    4    4    0    0  0.31672879125E-01 -0.29978366140E-01  0.77468966370E-01  0.88902056107E-01  0.51100000000E-03 0. -1.
         11    1    4    4    0    0  0.57150160114E-02 -0.22026178649E-01  0.30844486908E-01  0.38333502938E-01  0.51100000000E-03 0.  1.
</event>
<event>
 8    1  0.1112171E+005  0.1043930E+01  0.7957747E-01            NaN
         13   -1    0    0    0    0  0.00000000000E+00  0.00000000000E+00  0.74505805969E-08  0.10566000000E+00  0.10566000000E+00 0. -1.
     999900   -1    0    0    0    0 -0.00000000000E+00 -0.00000000000E+00 -0.74505805969E-08  0.93827000000E+00  0.93827000000E+00 0. -1.
     999902    2    1    2    0    0  0.46371109145E-02 -0.10026329495E-01  0.21259766528E-01  0.10199715411E+01  0.10196901181E+01 0.  0.
     999903    2    3    3    0    0  0.21313512666E-01 -0.60748735028E-01  0.11495614457E+00  0.13338828157E+00  0.20804899791E-01 0.  0.
         14    1    1    2    0    0 -0.46371109145E-02  0.10026329495E-01 -0.21259766528E-01  0.23958458915E-01  0.00000000000E+00 0.  1.
     999901    1    3    3    0    0 -0.16676401751E-01  0.50722405533E-01 -0.93696378042E-01  0.88658325952E+00  0.88000000000E+00 0. -1.
        -11    1    4    4    0    0  0.24259546641E-01 -0.41043875899E-01  0.83300674016E-01  0.95981189639E-01  0.51100000000E-03 0. -1.
         11    1    4    4    0    0 -0.29460339755E-02 -0.19704859129E-01  0.31655470554E-01  0.37407091928E-01  0.51100000000E-03 0.  1.
</event>
<event>
 8    1  0.1112171E+005  0.1043930E+01  0.7957747E-01            NaN
         13   -1    0    0    0    0  0.00000000000E+00  0.00000000000E+00  0.74505805969E-08  0.10566000000E+00  0.10566000000E+00 0.  1.
     999900   -1    0    0    0    0 -0.00000000000E+00 -0.00000000000E+00 -0.74505805969E-08  0.93827000000E+00  0.93827000000E+00 0.  1.
     999902    2    1    2    0    0  0.14747857799E-02  0.16640093893E-01  0.16289109707E-01  0.10205975588E+01  0.10203308161E+01 0.  0.
     999903    2    3    3    0    0  0.90477188949E-01  0.91809685781E-01 -0.21018998716E-01  0.13213608508E+00  0.20075023012E-01 0.  0.
         14    1    1    2    0    0 -0.14747857799E-02 -0.16640093893E-01 -0.16289109707E-01  0.23332441212E-01  0.00000000000E+00 0. -1.
     999901    1    3    3    0    0 -0.89002403169E-01 -0.75169591888E-01  0.37308108424E-01  0.88846147371E+00  0.88000000000E+00 0. -1.
        -11    1    4    4    0    0  0.31273782195E-01  0.19336862248E-01 -0.36211043273E-02  0.36950469712E-01  0.51100000000E-03 0. -1.
         11    1    4    4    0    0  0.59203406754E-01  0.72472823533E-01 -0.17397894389E-01  0.95185615364E-01  0.51100000000E-03 0.  1.
</event>
<event>
 8    1  0.1136665E+005  0.1043930E+01  0.7957747E-01            NaN
         13   -1    0    0    0    0  0.00000000000E+00  0.00000000000E+00  0.74505805969E-08  0.10566000000E+00  0.10566000000E+00 0.  1.
     999900   -1    0    0    0    0 -0.00000000000E+00 -0.00000000000E+00 -0.74505805969E-08  0.93827000000E+00  0.93827000000E+00 0. -1.
     999902    2    1    2    0    0 -0.45430439772E-04  0.71306655098E-02  0.22273886768E-01  0.10205425143E+01  0.10202744969E+01 0.  0.
     999903    2    3    3    0    0  0.45195830111E-01  0.84612843764E-02 -0.11806227466E+00  0.12827418001E+00  0.20032677471E-01 0.  0.
         14    1    1    2    0    0  0.45430439772E-04 -0.71306655098E-02 -0.22273886768E-01  0.23387485677E-01  0.00000000000E+00 0. -1.
     999901    1    3    3    0    0 -0.45241260551E-01 -0.13306188666E-02  0.14033616143E+00  0.89226833431E+00  0.88000000000E+00 0.  1.
        -11    1    4    4    0    0  0.22324578520E-01 -0.45542908035E-02 -0.41971253703E-01  0.47759560606E-01  0.51100000000E-03 0. -1.
         11    1    4    4    0    0  0.22871251591E-01  0.13015575180E-01 -0.76091020962E-01  0.80514619409E-01  0.51100000000E-03 0.  1.
</event>
<event>
 8    1  0.1112171E+005  0.1043930E+01  0.7957747E-01            NaN
         13   -1    0    0    0    0  0.00000000000E+00  0.00000000000E+00  0.74505805969E-08  0.10566000000E+00  0.10566000000E+00 0.  1.
     999900   -1    0    0    0    0 -0.00000000000E+00 -0.00000000000E+00 -0.74505805969E-08  0.93827000000E+00  0.93827000000E+00 0. -1.
     999902    2    1    2    0    0  0.48954122750E-02 -0.74823031346E-02  0.21677178379E-01  0.10204811198E+01  0.10202116770E+01 0.  0.
     999903    2    3    3    0    0  0.52195026865E-01 -0.33421812008E-01 -0.11138027908E+00  0.12884532044E+00  0.18820512300E-01 0.  0.
         14    1    1    2    0    0 -0.48954122750E-02  0.74823031346E-02 -0.21677178379E-01  0.23448880230E-01  0.00000000000E+00 0. -1.
     999901    1    3    3    0    0 -0.47299614590E-01  0.25939508873E-01  0.13305745746E+00  0.89163579933E+00  0.88000000000E+00 0.  1.
        -11    1    4    4    0    0  0.24903825349E-01 -0.17757778203E-01 -0.36523558320E-01  0.47642109914E-01  0.51100000000E-03 0. -1.
         11    1    4    4    0    0  0.27291201516E-01 -0.15664033805E-01 -0.74856720764E-01  0.81203210526E-01  0.51100000000E-03 0.  1.
</event>
<event>
 8    1  0.1112171E+005  0.1043930E+01  0.7957747E-01            NaN
         13   -1    0    0    0    0  0.00000000000E+00  0.00000000000E+00  0.74505805969E-08  0.10566000000E+00  0.10566000000E+00 0. -1.
     999900   -1    0    0    0    0 -0.00000000000E+00 -0.00000000000E+00 -0.74505805969E-08  0.93827000000E+00  0.93827000000E+00 0. -1.
     999902    2    1    2    0    0 -0.64553412745E-02 -0.81942541866E-02 -0.24701877711E-01  0.10171158247E+01  0.10167623129E+01 0.  0.
     999903    2    3    3    0    0  0.10060917203E+00  0.11701039026E-01  0.70996448089E-01  0.12525439925E+00  0.19724327126E-01 0.  0.
         14    1    1    2    0    0  0.64553412745E-02  0.81942541866E-02  0.24701877711E-01  0.26814175264E-01  0.00000000000E+00 0. -1.
     999901    1    3    3    0    0 -0.10706451330E+00 -0.19895293213E-01 -0.95698325800E-01  0.89186142548E+00  0.88000000000E+00 0.  1.
        -11    1    4    4    0    0  0.45788342817E-01  0.93806480936E-02  0.21876007547E-01  0.51608039333E-01  0.51100000000E-03 0.  1.
         11    1    4    4    0    0  0.54820829213E-01  0.23203909324E-02  0.49120440543E-01  0.73646359922E-01  0.51100000000E-03 0. -1.
</event>
<event>
 8    1  0.1112171E+005  0.1043930E+01  0.7957747E-01            NaN
         13   -1    0    0    0    0  0.00000000000E+00  0.00000000000E+00  0.74505805969E-08  0.10566000000E+00  0.10566000000E+00 0. -1.
     999900   -1    0    0    0    0 -0.00000000000E+00 -0.00000000000E+00 -0.74505805969E-08  0.93827000000E+00  0.93827000000E+00 0. -1.
     999902    2    1    2    0    0  0.12431752761E-01 -0.22966304980E-02  0.21927225191E-01  0.10186194055E+01  0.10183048989E+01 0.  0.
     999903    2    3    3    0    0 -0.29644817965E-01 -0.10640992894E+00  0.66372037119E-01  0.13037092788E+00  0.19734318269E-01 0.  0.
         14    1    1    2    0    0 -0.12431752761E-01  0.22966304980E-02 -0.21927225191E-01  0.25310594479E-01  0.00000000000E+00 0.  1.
     999901    1    3    3    0    0  0.42076570726E-01  0.10411329844E+00 -0.44444811928E-01  0.88824847764E+00  0.88000000000E+00 0.  1.
        -11    1    4    4    0    0 -0.25972053011E-01 -0.72129837671E-01  0.37237139111E-01  0.85229846123E-01  0.51100000000E-03 0.  1.
         11    1    4    4    0    0 -0.36727649543E-02 -0.34280091266E-01  0.29134898008E-01  0.45141081761E-01  0.51100000000E-03 0. -1.
</event>
<event>
 8    1  0.1112171E+005  0.1043930E+01  0.7957747E-01            NaN
         13   -1    0    0    0    0  0.00000000000E+00  0.00000000000E+00  0.74505805969E-08  0.10566000000E+00  0.10566000000E+00 0. -1.
     999900   -1    0    0    0    0 -0.00000000000E+00 -0.00000000000E+00 -0.74505805969E-08  0.93827000000E+00  0.93827000000E+00 0.  1.
     999902    2    1    2    0    0 -0.16009772819E-01 -0.15663500414E-01  0.96502159792E-02  0.10195417910E+01  0.10192500571E+01 0.  0.
     999903    2    3    3    0    0 -0.70097453780E-01 -0.88799260870E-01  0.67088152277E-01  0.13299036369E+00  0.19663542464E-01 0.  0.
         14    1    1    2    0    0  0.16009772819E-01  0.15663500414E-01 -0.96502159792E-02  0.24388209024E-01  0.00000000000E+00 0.  1.
     999901    1    3    3    0    0  0.54087680961E-01  0.73135760455E-01 -0.57437936298E-01  0.88655142728E+00  0.88000000000E+00 0.  1.
        -11    1    4    4    0    0 -0.29794661639E-01 -0.48916835581E-01  0.25647589802E-01  0.62758574308E-01  0.51100000000E-03 0. -1.
         11    1    4    4    0    0 -0.40302792141E-01 -0.39882425288E-01  0.41440562475E-01  0.70231789387E-01  0.51100000000E-03 0.  1.
</event>
<event>
 8    1  0.1126231E+005  0.1043930E+01  0.7957747E-01            NaN
         13   -1    0    0    0    0  0.00000000000E+00  0.00000000000E+00  0.74505805969E-08  0.10566000000E+00  0.10566000000E+00 0. -1.
     999900   -1    0    0    0    0 -0.00000000000E+00 -0.00000000000E+00 -0.74505805969E-08  0.93827000000E+00  0.93827000000E+00 0.  1.
     999902    2    1    2    0    0 -0.78694365794E-02 -0.28644734746E-02 -0.22873904218E-01  0.10195712493E+01  0.10192802283E+01 0.  0.
     999903    2    3    3    0    0  0.24116820901E-01  0.72002743502E-02 -0.12866417542E+00  0.13260112508E+00  0.19877709511E-01 0.  0.
         14    1    1    2    0    0  0.78694365794E-02  0.28644734746E-02  0.22873904218E-01  0.24358750677E-01  0.00000000000E+00 0. -1.
     999901    1    3    3    0    0 -0.31986257481E-01 -0.10064747825E-01  0.10579027120E+00  0.88697012424E+00  0.88000000000E+00 0. -1.
        -11    1    4    4    0    0  0.12495517083E-01 -0.65028315479E-02 -0.55962366182E-01  0.57710244454E-01  0.51100000000E-03 0.  1.
         11    1    4    4    0    0  0.11621303818E-01  0.13703105898E-01 -0.72701809238E-01  0.74890880627E-01  0.51100000000E-03 0. -1.
</event>
<event>
 8    1  0.1112171E+005  0.1043930E+01  0.7957747E-01            NaN
         13   -1    0    0    0    0  0.00000000000E+00  0.00000000000E+00  0.74505805969E-08  0.10566000000E+00  0.10566000000E+00 0. -1.
     999900   -1    0    0    0    0 -0.00000000000E+00 -0.00000000000E+00 -0.74505805969E-08  0.93827000000E+00  0.93827000000E+00 0.  1.
     999902    2    1    2    0    0  0.23135720366E-01 -0.76732791971E-02  0.28394122947E-02  0.10193901746E+01  0.10190947576E+01 0.  0.
     999903    2    3    3    0    0 -0.72095744118E-01 -0.54140803970E-01  0.89805083594E-01  0.12877730093E+00  0.19738723909E-01 0.  0.
         14    1    1    2    0    0 -0.23135720366E-01  0.76732791971E-02 -0.28394122947E-02  0.24539825441E-01  0.00000000000E+00 0.  1.
     999901    1    3    3    0    0  0.95231464484E-01  0.46467524773E-01 -0.86965671299E-01  0.89061287363E+00  0.88000000000E+00 0. -1.
        -11    1    4    4    0    0 -0.46097040952E-01 -0.27174679446E-01  0.63292410049E-01  0.82882993903E-01  0.51100000000E-03 0. -1.
         11    1    4    4    0    0 -0.25998703166E-01 -0.26966124524E-01  0.26512673545E-01  0.45894307029E-01  0.51100000000E-03 0.  1.
</event>
<event>
 8    1  0.1112171E+005  0.1043930E+01  0.7957747E-01            NaN
         13   -1    0    0    0    0  0.00000000000E+00  0.00000000000E+00  0.74505805969E-08  0.10566000000E+00  0.10566000000E+00 0. -1.
     999900   -1    0    0    0    0 -0.00000000000E+00 -0.00000000000E+00 -0.74505805969E-08  0.93827000000E+00  0.93827000000E+00 0.  1.
     999902    2    1    2    0    0 -0.14333237771E-01 -0.12591149359E-01 -0.12488330587E-01  0.10211278697E+01  0.10208732483E+01 0.  0.
     999903    2    3    3    0    0 -0.44283907192E-01  0.26166224382E-01  0.11797760092E+00  0.13016180078E+00  0.19433073038E-01 0.  0.
         14    1    1    2    0    0  0.14333237771E-01  0.12591149359E-01  0.12488330587E-01  0.22802130340E-01  0.00000000000E+00 0. -1.
     999901    1    3    3    0    0  0.29950669421E-01 -0.38757373741E-01 -0.13046593151E+00  0.89096606888E+00  0.88000000000E+00 0.  1.
        -11    1    4    4    0    0 -0.41786715333E-01  0.17498793222E-01  0.10491540007E+00  0.11427965539E+00  0.51100000000E-03 0. -1.
         11    1    4    4    0    0 -0.24971918593E-02  0.86674311596E-02  0.13062200847E-01  0.15882145386E-01  0.51100000000E-03 0.  1.
</event>
<event>
 8    1  0.1112171E+005  0.1043930E+01  0.7957747E-01            NaN
         13   -1    0    0    0    0  0.00000000000E+00  0.00000000000E+00  0.74505805969E-08  0.10566000000E+00  0.10566000000E+00 0. -1.
     999900   -1    0    0    0    0 -0.00000000000E+00 -0.00000000000E+00 -0.74505805969E-08  0.93827000000E+00  0.93827000000E+00 0. -1.
     999902    2    1    2    0    0 -0.16604945223E-01 -0.15022904880E-01 -0.79170440886E-02  0.10201793902E+01  0.10199028860E+01 0.  0.
     999903    2    3    3    0    0 -0.93267735606E-01 -0.53089744560E-01 -0.76785455843E-01  0.13334844477E+00  0.19194009737E-01 0.  0.
         14    1    1    2    0    0  0.16604945223E-01  0.15022904880E-01  0.79170440886E-02  0.23750609761E-01  0.00000000000E+00 0.  1.
     999901    1    3    3    0    0  0.76662790383E-01  0.38066839680E-01  0.68868411755E-01  0.88683094547E+00  0.88000000000E+00 0.  1.
        -11    1    4    4    0    0 -0.64857278428E-01 -0.45287934829E-01 -0.50415813776E-01  0.93805538247E-01  0.51100000000E-03 0. -1.
         11    1    4    4    0    0 -0.28410457178E-01 -0.78018097309E-02 -0.26369642067E-01  0.39542906518E-01  0.51100000000E-03 0.  1.
</event>
<event>
 8    1  0.1112171E+005  0.1043930E+01  0.7957747E-01            NaN
         13   -1    0    0    0    0  0.00000000000E+00  0.00000000000E+00  0.74505805969E-08  0.10566000000E+00  0.10566000000E+00 0.  1.
     999900   -1    0    0    0    0 -0.00000000000E+00 -0.00000000000E+00 -0.74505805969E-08  0.93827000000E+00  0.93827000000E+00 0. -1.
     999902    2    1    2    0    0  0.12722889634E-01  0.19011448434E-01 -0.35139648149E-02  0.10207857774E+01  0.10205233698E+01 0.  0.
     999903    2    3    3    0    0 -0.10363744607E+00 -0.62944655233E-02 -0.73171100792E-01  0.13003764597E+00  0.27846702773E-01 0.  0.
         14    1    1    2    0    0 -0.12722889634E-01 -0.19011448434E-01  0.35139648149E-02  0.23144222625E-01  0.00000000000E+00 0. -1.
     999901    1    3    3    0    0  0.11636033570E+00  0.25305913957E-01  0.69657135978E-01  0.89074813140E+00  0.88000000000E+00 0. -1.
        -11    1    4    4    0    0 -0.37732076293E-01 -0.15637654465E-01 -0.25342028474E-01  0.48070004646E-01  0.51100000000E-03 0. -1.
         11    1    4    4    0    0 -0.65905369774E-01  0.93431889418E-02 -0.47829072319E-01  0.81967641326E-01  0.51100000000E-03 0.  1.
</event>
<event>
 8    1  0.1112171E+005  0.1043930E+01  0.7957747E-01            NaN
         13   -1    0    0    0    0  0.00000000000E+00  0.00000000000E+00  0.74505805969E-08  0.10566000000E+00  0.10566000000E+00 0.  1.
     999900   -1    0    0    0    0 -0.00000000000E+00 -0.00000000000E+00 -0.74505805969E-08  0.93827000000E+00  0.93827000000E+00 0. -1.
     999902    2    1    2    0    0 -0.25045877737E-01 -0.11100893728E-01 -0.14772177309E-01  0.10128053626E+01  0.10123270022E+01 0.  0.
     999903    2    3    3    0    0  0.21302358927E-01  0.78825015505E-01 -0.90964050572E-01  0.12373841922E+00  0.19224056005E-01 0.  0.
         14    1    1    2    0    0  0.25045877737E-01  0.11100893728E-01  0.14772177309E-01  0.31124637437E-01  0.00000000000E+00 0.  1.
     999901    1    3    3    0    0 -0.46348236664E-01 -0.89925909234E-01  0.76191873263E-01  0.88906694334E+00  0.88000000000E+00 0.  1.
        -11    1    4    4    0    0  0.22489377269E-01  0.47785075452E-01 -0.57797162437E-01  0.78294052345E-01  0.51100000000E-03 0. -1.
         11    1    4    4    0    0 -0.11870183416E-02  0.31039940054E-01 -0.33166888135E-01  0.45444366875E-01  0.51100000000E-03 0.  1.
</event>
<event>
 8    1  0.1112171E+005  0.1043930E+01  0.7957747E-01            NaN
         13   -1    0    0    0    0  0.00000000000E+00  0.00000000000E+00  0.74505805969E-08  0.10566000000E+00  0.10566000000E+00 0. -1.
     999900   -1    0    0    0    0 -0.00000000000E+00 -0.00000000000E+00 -0.74505805969E-08  0.93827000000E+00  0.93827000000E+00 0.  1.
     999902    2    1    2    0    0 -0.11069518812E-01  0.11229315370E-01 -0.17909476062E-01  0.10200682921E+01  0.10197891642E+01 0.  0.
     999903    2    3    3    0    0 -0.12629728474E+00  0.32777543562E-01  0.64108765713E-02  0.13196174235E+00  0.18639490641E-01 0.  0.
         14    1    1    2    0    0  0.11069518812E-01 -0.11229315370E-01  0.17909476062E-01  0.23861707886E-01  0.00000000000E+00 0. -1.
     999901    1    3    3    0    0  0.11522776593E+00 -0.21548228191E-01 -0.24320352633E-01  0.88810654976E+00  0.88000000000E+00 0. -1.
        -11    1    4    4    0    0 -0.45416442647E-01  0.18658224506E-01 -0.36713796016E-02  0.49239443067E-01  0.51100000000E-03 0.  1.
         11    1    4    4    0    0 -0.80880842094E-01  0.14119319056E-01  0.10082256173E-01  0.82722299285E-01  0.51100000000E-03 0. -1.
</event>
<event>
 8    1  0.1112171E+005  0.1043930E+01  0.7957747E-01            NaN
         13   -1    0    0    0    0  0.00000000000E+00  0.00000000000E+00  0.74505805969E-08  0.10566000000E+00  0.10566000000E+00 0.  1.
     999900   -1    0    0    0    0 -0.00000000000E+00 -0.00000000000E+00 -0.74505805969E-08  0.93827000000E+00  0.93827000000E+00 0. -1.
     999902    2    1    2    0    0 -0.45070761429E-02 -0.15565254761E-02  0.23333493200E-01  0.10201142823E+01  0.10198362420E+01 0.  0.
     999903    2    3    3    0    0 -0.85189803260E-01  0.63191910524E-01  0.76749333515E-01  0.13244581125E+00  0.20022801678E-01 0.  0.
         14    1    1    2    0    0  0.45070761429E-02  0.15565254761E-02 -0.23333493200E-01  0.23815717747E-01  0.00000000000E+00 0. -1.
     999901    1    3    3    0    0  0.80682727117E-01 -0.64748436000E-01 -0.53415840315E-01  0.88766847100E+00  0.88000000000E+00 0.  1.
        -11    1    4    4    0    0 -0.21949303433E-01  0.89278372829E-02  0.10205581765E-01  0.25804906896E-01  0.51100000000E-03 0. -1.
         11    1    4    4    0    0 -0.63240499827E-01  0.54264073241E-01  0.66543751750E-01  0.10664090435E+00  0.51100000000E-03 0.  1.
</event>
<event>
 8    1  0.1112171E+005  0.1043930E+01  0.7957747E-01            NaN
         13   -1    0    0    0    0  0.00000000000E+00  0.00000000000E+00  0.74505805969E-08  0.10566000000E+00  0.10566000000E+00 0.  1.
     999900   -1    0    0    0    0 -0.00000000000E+00 -0.00000000000E+00 -0.74505805969E-08  0.93827000000E+00  0.93827000000E+00 0. -1.
     999902    2    1    2    0    0 -0.11343084579E-01 -0.18096894152E-01  0.14883125771E-01  0.10178978933E+01  0.10175649614E+01 0.  0.
     999903    2    3    3    0    0 -0.68515914132E-01 -0.99843741116E-01  0.47956269951E-01  0.13164448018E+00  0.19164086332E-01 0.  0.
         14    1    1    2    0    0  0.11343084579E-01  0.18096894152E-01 -0.14883125771E-01  0.26032106684E-01  0.00000000000E+00 0. -1.
     999901    1    3    3    0    0  0.57172829554E-01  0.81746846964E-01 -0.33073144180E-01  0.88625341314E+00  0.88000000000E+00 0. -1.
        -11    1    4    4    0    0 -0.16565724482E-01 -0.27180132172E-01  0.39863288385E-02  0.32083247204E-01  0.51100000000E-03 0. -1.
         11    1    4    4    0    0 -0.51950189650E-01 -0.72663608944E-01  0.43969941113E-01  0.99561232977E-01  0.51100000000E-03 0.  1.
</event>
<event>
 8    1  0.1112171E+005  0.1043930E+01  0.7957747E-01            NaN
         13   -1    0    0    0    0  0.00000000000E+00  0.00000000000E+00  0.74505805969E-08  0.10566000000E+00  0.10566000000E+00 0.  1.
     999900   -1    0    0    0    0 -0.00000000000E+00 -0.00000000000E+00 -0.74505805969E-08  0.93827000000E+00  0.93827000000E+00 0. -1.
     999902    2    1    2    0    0  0.12629346059E-01  0.67814063997E-03 -0.20714253257E-01  0.10196598425E+01  0.10193709599E+01 0.  0.
     999903    2    3    3    0    0 -0.43668126736E-01 -0.93751254660E-01 -0.77885097081E-01  0.13097833515E+00  0.19825057081E-01 0.  0.
         14    1    1    2    0    0 -0.12629346059E-01 -0.67814063997E-03  0.20714253257E-01  0.24270157490E-01  0.00000000000E+00 0.  1.
     999901    1    3    3    0    0  0.56297472795E-01  0.94429395300E-01  0.57170843825E-01  0.88868150736E+00  0.88000000000E+00 0.  1.
        -11    1    4    4    0    0 -0.24251158682E-01 -0.29811760097E-01 -0.30340441759E-01  0.48965939842E-01  0.51100000000E-03 0.  1.
         11    1    4    4    0    0 -0.19416968054E-01 -0.63939494563E-01 -0.47544655323E-01  0.82012395308E-01  0.51100000000E-03 0. -1.
</event>
<event>
 8    1  0.1112171E+005  0.1043930E+01  0.7957747E-01            NaN
         13   -1    0    0    0    0  0.00000000000E+00  0.00000000000E+00  0.74505805969E-08  0.10566000000E+00  0.10566000000E+00 0. -1.
     999900   -1    0    0    0    0 -0.00000000000E+00 -0.00000000000E+00 -0.74505805969E-08  0.93827000000E+00  0.93827000000E+00 0.  1.
     999902    2    1    2    0    0 -0.19594350135E-01 -0.92117042439E-02 -0.96812175426E-02  0.10202124954E+01  0.10199367704E+01 0.  0.
     999903    2    3    3    0    0  0.30449034328E-01 -0.12211974058E+00 -0.31902932195E-01  0.13131071813E+00  0.19604409774E-01 0.  0.
         14    1    1    2    0    0  0.19594350135E-01  0.92117042439E-02  0.96812175426E-02  0.23717504620E-01  0.00000000000E+00 0. -1.
     999901    1    3    3    0    0 -0.50043384463E-01  0.11290803633E+00  0.22221714653E-01  0.88890177725E+00  0.88000000000E+00 0. -1.
        -11    1    4    4    0    0  0.10367325848E-01 -0.53047931714E-01 -0.41641121426E-02  0.54214070640E-01  0.51100000000E-03 0.  1.
         11    1    4    4    0    0  0.20081708480E-01 -0.69071808864E-01 -0.27738820053E-01  0.77096647490E-01  0.51100000000E-03 0. -1.
</event>
<event>
 8    1  0.1112171E+005  0.1043930E+01  0.7957747E-01            NaN
         13   -1    0    0    0    0  0.00000000000E+00  0.00000000000E+00  0.74505805969E-08  0.10566000000E+00  0.10566000000E+00 0.  1.
     999900   -1    0    0    0    0 -0.00000000000E+00 -0.00000000000E+00 -0.74505805969E-08  0.93827000000E+00  0.93827000000E+00 0.  1.
     999902    2    1    2    0    0 -0.17921628926E-01  0.15181936708E-01  0.16677004374E-02  0.10203830849E+01  0.10201113580E+01 0.  0.
     999903    2    3    3    0    0  0.94312884996E-01 -0.29813761597E-01 -0.79385548330E-01  0.12842410148E+00  0.20171859126E-01 0.  0.
         14    1    1    2    0    0  0.17921628926E-01 -0.15181936708E-01 -0.16677004374E-02  0.23546915091E-01  0.00000000000E+00 0.  1.
     999901    1    3    3    0    0 -0.11223451392E+00  0.44995698306E-01  0.81053248768E-01  0.89195898343E+00  0.88000000000E+00 0. -1.
        -11    1    4    4    0    0  0.41777142273E-01 -0.37630536552E-02 -0.38476310303E-01  0.56922559367E-01  0.51100000000E-03 0. -1.
         11    1    4    4    0    0  0.52535742723E-01 -0.26050707942E-01 -0.40909238028E-01  0.71501542114E-01  0.51100000000E-03 0.  1.
</event>
<event>
 8    1  0.1112171E+005  0.1043930E+01  0.7957747E-01            NaN
         13   -1    0    0    0    0  0.00000000000E+00  0.00000000000E+00  0.74505805969E-08  0.10566000000E+00  0.10566000000E+00 0. -1.
     999900   -1    0    0    0    0 -0.00000000000E+00 -0.00000000000E+00 -0.74505805969E-08  0.93827000000E+00  0.93827000000E+00 0.  1.
     999902    2    1    2    0    0 -0.21803313800E-01 -0.14089532964E-04  0.90490651305E-02  0.10203234274E+01  0.10200503057E+01 0.  0.
     999903    2    3    3    0    0  0.18046414843E-01 -0.12015732740E+00  0.43342226145E-01  0.13060525887E+00  0.20389425252E-01 0.  0.
         14    1    1    2    0    0  0.21803313800E-01  0.14089532964E-04 -0.90490651305E-02  0.23606572621E-01  0.00000000000E+00 0.  1.
     999901    1    3    3    0    0 -0.39849728642E-01  0.12014323786E+00 -0.34293161015E-01  0.88971816851E+00  0.88000000000E+00 0.  1.
        -11    1    4    4    0    0  0.21720219455E-01 -0.10789919132E+00  0.35791398561E-01  0.11573801775E+00  0.51100000000E-03 0. -1.
         11    1    4    4    0    0 -0.36738046124E-02 -0.12258136081E-01  0.75508275847E-02  0.14867241127E-01  0.51100000000E-03 0.  1.
</event>
<event>
 8    1  0.1112171E+005  0.1043930E+01  0.7957747E-01            NaN
         13   -1    0    0    0    0  0.00000000000E+00  0.00000000000E+00  0.74505805969E-08  0.10566000000E+00  0.10566000000E+00 0. -1.
     999900   -1    0    0    0    0 -0.00000000000E+00 -0.00000000000E+00 -0.74505805969E-08  0.93827000000E+00  0.93827000000E+00 0.  1.
     999902    2    1    2    0    0  0.28726723802E-02 -0.20265214336E-01 -0.93487616747E-02  0.10214282111E+01  0.10211803268E+01 0.  0.
     999903    2    3    3    0    0 -0.36813325414E-01  0.99954617526E-01 -0.72291787140E-01  0.13014284106E+00  0.19102620216E-01 0.  0.
         14    1    1    2    0    0 -0.28726723802E-02  0.20265214336E-01  0.93487616747E-02  0.22501788897E-01  0.00000000000E+00 0. -1.
     999901    1    3    3    0    0  0.39685997794E-01 -0.12021983186E+00  0.62943025465E-01  0.89128537004E+00  0.88000000000E+00 0. -1.
        -11    1    4    4    0    0 -0.11521387221E-01  0.12056644937E-01 -0.95225622342E-02  0.19210553431E-01  0.51100000000E-03 0.  1.
         11    1    4    4    0    0 -0.25291938193E-01  0.87897972590E-01 -0.62769224906E-01  0.11093228763E+00  0.51100000000E-03 0. -1.
</event>
<event>
 8    1  0.1112171E+005  0.1043930E+01  0.7957747E-01            NaN
         13   -1    0    0    0    0  0.00000000000E+00  0.00000000000E+00  0.74505805969E-08  0.10566000000E+00  0.10566000000E+00 0.  1.
     999900   -1    0    0    0    0 -0.00000000000E+00 -0.00000000000E+00 -0.74505805969E-08  0.93827000000E+00  0.93827000000E+00 0.  1.
     999902    2    1    2    0    0  0.32327516545E-02 -0.12703290657E-01  0.20913105157E-01  0.10192483825E+01  0.10189494997E+01 0.  0.
     999903    2    3    3    0    0 -0.53142906755E-01 -0.89561142443E-01 -0.73608356475E-01  0.12906882139E+00  0.19879731860E-01 0.  0.
         14    1    1    2    0    0 -0.32327516545E-02  0.12703290657E-01 -0.20913105157E-01  0.24681617533E-01  0.00000000000E+00 0. -1.
     999901    1    3    3    0    0  0.56375658410E-01  0.76857851787E-01  0.94521461632E-01  0.89017956107E+00  0.88000000000E+00 0. -1.
        -11    1    4    4    0    0 -0.36611938192E-01 -0.46611552854E-01 -0.33900816091E-01  0.68283214118E-01  0.51100000000E-03 0. -1.
         11    1    4    4    0    0 -0.16530968564E-01 -0.42949589589E-01 -0.39707540385E-01  0.60785607276E-01  0.51100000000E-03 0.  1.
</event>
<event>
 8    1  0.1112171E+005  0.1043930E+01  0.7957747E-01            NaN
         13   -1    0    0    0    0  0.00000000000E+00  0.00000000000E+00  0.74505805969E-08  0.10566000000E+00  0.10566000000E+00 0.  1.
     999900   -1    0    0    0    0 -0.00000000000E+00 -0.00000000000E+00 -0.74505805969E-08  0.93827000000E+00  0.93827000000E+00 0. -1.
     999902    2    1    2    0    0  0.79934971363E-02 -0.18609852712E-01  0.12539441554E-01  0.10201085767E+01  0.10198304016E+01 0.  0.
     999903    2    3    3    0    0  0.94576176544E-01 -0.17514009618E-01  0.89075179842E-01  0.13255267395E+00  0.19606886641E-01 0.  0.
         14    1    1    2    0    0 -0.79934971363E-02  0.18609852712E-01 -0.12539441554E-01  0.23821423318E-01  0.00000000000E+00 0. -1.
     999901    1    3    3    0    0 -0.86582679408E-01 -0.10958430935E-02 -0.76535738289E-01  0.88755590274E+00  0.88000000000E+00 0. -1.
        -11    1    4    4    0    0  0.31823864557E-01 -0.93175869597E-02  0.19382221208E-01  0.38412333984E-01  0.51100000000E-03 0. -1.
         11    1    4    4    0    0  0.62752311987E-01 -0.81964226583E-02  0.69692958634E-01  0.94140339963E-01  0.51100000000E-03 0.  1.
</event>
<event>
 8    1  0.1112171E+005  0.1043930E+01  0.7957747E-01            NaN
         13   -1    0    0    0    0  0.00000000000E+00  0.00000000000E+00  0.74505805969E-08  0.10566000000E+00  0.10566000000E+00 0.  1.
     999900   -1    0    0    0    0 -0.00000000000E+00 -0.00000000000E+00 -0.74505805969E-08  0.93827000000E+00  0.93827000000E+00 0. -1.
     999902    2    1    2    0    0  0.18264930366E-01  0.12516862101E-01 -0.87067682891E-02  0.10201374101E+01  0.10198599160E+01 0.  0.
     999903    2    3    3    0    0 -0.85660187828E-01  0.85631577969E-01  0.41649673945E-01  0.12958591632E+00  0.19681957355E-01 0.  0.
         14    1    1    2    0    0 -0.18264930366E-01 -0.12516862101E-01  0.87067682891E-02  0.23792589858E-01  0.00000000000E+00 0.  1.
     999901    1    3    3    0    0  0.10392511819E+00 -0.73114715868E-01 -0.50356442234E-01  0.89055149382E+00  0.88000000000E+00 0.  1.
        -11    1    4    4    0    0 -0.28369614846E-01  0.40985708005E-01  0.20836673787E-01  0.54028616517E-01  0.51100000000E-03 0. -1.
         11    1    4    4    0    0 -0.57290572982E-01  0.44645869964E-01  0.20813000157E-01  0.75557299806E-01  0.51100000000E-03 0.  1.
</event>
<event>
 8    1  0.1112171E+005  0.1043930E+01  0.7957747E-01            NaN
         13   -1    0    0    0    0  0.00000000000E+00  0.00000000000E+00  0.74505805969E-08  0.10566000000E+00  0.10566000000E+00 0.  1.
     999900   -1    0    0    0    0 -0.00000000000E+00 -0.00000000000E+00 -0.74505805969E-08  0.93827000000E+00  0.93827000000E+00 0.  1.
     999902    2    1    2    0    0  0.22990456875E-01 -0.44285098574E-02  0.28606507003E-02  0.10203427973E+01  0.10200701289E+01 0.  0.
     999903    2    3    3    0    0 -0.11115289159E+00 -0.28783771579E-01  0.53849517095E-01  0.12838569007E+00  0.19991100734E-01 0.  0.
         14    1    1    2    0    0 -0.22990456875E-01  0.44285098574E-02 -0.28606507003E-02  0.23587202660E-01  0.00000000000E+00 0. -1.
     999901    1    3    3    0    0  0.13414334847E+00  0.24355261722E-01 -0.50988866395E-01  0.89195710727E+00  0.88000000000E+00 0.  1.
        -11    1    4    4    0    0 -0.27285809348E-01 -0.73600629500E-02  0.41433353098E-02  0.28567713715E-01  0.51100000000E-03 0. -1.
         11    1    4    4    0    0 -0.83867082242E-01 -0.21423708629E-01  0.49706181785E-01  0.99817976356E-01  0.51100000000E-03 0.  1.
</event>
<event>
 8    1  0.1112171E+005  0.1043930E+01  0.7957747E-01            NaN
         13   -1    0    0    0    0  0.00000000000E+00  0.00000000000E+00  0.74505805969E-08  0.10566000000E+00  0.10566000000E+00 0. -1.
     999900   -1    0    0    0    0 -0.00000000000E+00 -0.00000000000E+00 -0.74505805969E-08  0.93827000000E+00  0.93827000000E+00 0. -1.
     999902    2    1    2    0    0  0.76435916355E-02 -0.21027531655E-01  0.58305590444E-02  0.10208090788E+01  0.10205472053E+01 0.  0.
     999903    2    3    3    0    0 -0.95922702679E-02  0.38645128405E-01 -0.12154995371E+00  0.12947092949E+00  0.20071689973E-01 0.  0.
         14    1    1    2    0    0 -0.76435916355E-02  0.21027531655E-01 -0.58305590444E-02  0.23120921248E-01  0.00000000000E+00 0.  1.
     999901    1    3    3    0    0  0.17235861903E-01 -0.59672660060E-01  0.12738051275E+00  0.89133814926E+00  0.88000000000E+00 0.  1.
        -11    1    4    4    0    0 -0.13260720395E-01  0.26450395510E-01 -0.63766132876E-01  0.70298299773E-01  0.51100000000E-03 0.  1.
         11    1    4    4    0    0  0.36684501272E-02  0.12194732895E-01 -0.57783820835E-01  0.59172629720E-01  0.51100000000E-03 0. -1.
</event>
<event>
 8    1  0.1112171E+005  0.1043930E+01  0.7957747E-01            NaN
         13   -1    0    0    0    0  0.00000000000E+00  0.00000000000E+00  0.74505805969E-08  0.10566000000E+00  0.10566000000E+00 0.  1.
     999900   -1    0    0    0    0 -0.00000000000E+00 -0.00000000000E+00 -0.74505805969E-08  0.93827000000E+00  0.93827000000E+00 0. -1.
     999902    2    1    2    0    0  0.12071973373E-01 -0.94332191756E-02 -0.18722336303E-01  0.10197381823E+01  0.10194511840E+01 0.  0.
     999903    2    3    3    0    0 -0.57484245171E-01 -0.70761402089E-01  0.88669567554E-01  0.12837280575E+00  0.17483437265E-01 0.  0.
         14    1    1    2    0    0 -0.12071973373E-01  0.94332191756E-02  0.18722336303E-01  0.24191817662E-01  0.00000000000E+00 0. -1.
     999901    1    3    3    0    0  0.69556218544E-01  0.61328182914E-01 -0.10739190386E+00  0.89136537658E+00  0.88000000000E+00 0. -1.
        -11    1    4    4    0    0 -0.14308399881E-01 -0.15104944856E-01  0.30984388979E-01  0.37325368688E-01  0.51100000000E-03 0.  1.
         11    1    4    4    0    0 -0.43175845290E-01 -0.55656457233E-01  0.57685178575E-01  0.91047437067E-01  0.51100000000E-03 0. -1.
</event>
<event>
 8    1  0.1112171E+005  0.1043930E+01  0.7957747E-01            NaN
         13   -1    0    0    0    0  0.00000000000E+00  0.00000000000E+00  0.74505805969E-08  0.10566000000E+00  0.10566000000E+00 0. -1.
     999900   -1    0    0    0    0 -0.00000000000E+00 -0.00000000000E+00 -0.74505805969E-08  0.93827000000E+00  0.93827000000E+00 0.  1.
     999902    2    1    2    0    0 -0.22721153177E-01  0.44078912619E-02  0.42019692413E-02  0.10204068868E+01  0.10201357154E+01 0.  0.
     999903    2    3    3    0    0 -0.12897013766E+00 -0.47012031682E-02  0.28093630608E-01  0.13364726113E+00  0.20419123624E-01 0.  0.
         14    1    1    2    0    0  0.22721153177E-01 -0.44078912619E-02 -0.42019692413E-02  0.23523113156E-01  0.00000000000E+00 0.  1.
     999901    1    3    3    0    0  0.10624898448E+00  0.91090944301E-02 -0.23891661367E-01  0.88675962571E+00  0.88000000000E+00 0. -1.
        -11    1    4    4    0    0 -0.10238615474E+00  0.34928856639E-02  0.26287270419E-01  0.10576581036E+00  0.51100000000E-03 0.  1.
         11    1    4    4    0    0 -0.26583982916E-01 -0.81940888321E-02  0.18063601894E-02  0.27881450780E-01  0.51100000000E-03 0. -1.
</event>
<event>
 8    1  0.1112171E+005  0.1043930E+01  0.7957747E-01            NaN
         13   -1    0    0    0    0  0.00000000000E+00  0.00000000000E+00  0.74505805969E-08  0.10566000000E+00  0.10566000000E+00 0. -1.
     999900   -1    0    0    0    0 -0.00000000000E+00 -0.00000000000E+00 -0.74505805969E-08  0.93827000000E+00  0.93827000000E+00 0.  1.
     999902    2    1    2    0    0  0.19494247581E-01 -0.12834304923E-01  0.67784542373E-03  0.10205803845E+01  0.10203132443E+01 0.  0.
     999903    2    3    3    0    0 -0.24840747320E-01  0.12467413451E+00  0.16752611978E-01  0.12865406418E+00  0.10512643727E-01 0.  0.
         14    1    1    2    0    0 -0.19494247581E-01  0.12834304923E-01 -0.67784542373E-03  0.23349615544E-01  0.00000000000E+00 0.  1.
     999901    1    3    3    0    0  0.44334994901E-01 -0.13750843943E+00 -0.16074766555E-01  0.89192632028E+00  0.88000000000E+00 0.  1.
        -11    1    4    4    0    0 -0.19030473917E-02  0.32736637238E-01  0.48405866521E-02  0.33151190132E-01  0.51100000000E-03 0.  1.
         11    1    4    4    0    0 -0.22937699928E-01  0.91937497271E-01  0.11912025326E-01  0.95502874045E-01  0.51100000000E-03 0. -1.
</event>
<event>
 8    1  0.1112171E+005  0.1043930E+01  0.7957747E-01            NaN
         13   -1    0    0    0    0  0.00000000000E+00  0.00000000000E+00  0.74505805969E-08  0.10566000000E+00  0.10566000000E+00 0.  1.
     999900   -1    0    0    0    0 -0.00000000000E+00 -0.00000000000E+00 -0.74505805969E-08  0.93827000000E+00  0.93827000000E+00 0. -1.
     999902    2    1    2    0    0  0.23686382946E-01 -0.44487885543E-02  0.29842955630E-03  0.10198276035E+01  0.10195427482E+01 0.  0.
     999903    2    3    3    0    0 -0.10435650887E+00  0.11891749630E-01  0.70291543313E-01  0.12766112167E+00  0.18021272760E-01 0.  0.
         14    1    1    2    0    0 -0.23686382946E-01  0.44487885543E-02 -0.29842955630E-03  0.24102396496E-01  0.00000000000E+00 0.  1.
     999901    1    3    3    0    0  0.12804289182E+00 -0.16340538184E-01 -0.69993113757E-01  0.89216648183E+00  0.88000000000E+00 0. -1.
        -11    1    4    4    0    0 -0.12838694932E-01 -0.42319319554E-03  0.24794097474E-02  0.13092737443E-01  0.51100000000E-03 0. -1.
         11    1    4    4    0    0 -0.91517813939E-01  0.12314942826E-01  0.67812133566E-01  0.11456838423E+00  0.51100000000E-03 0.  1.
</event>
<event>
 8    1  0.1112171E+005  0.1043930E+01  0.7957747E-01            NaN
         13   -1    0    0    0    0  0.00000000000E+00  0.00000000000E+00  0.74505805969E-08  0.10566000000E+00  0.10566000000E+00 0.  1.
     999900   -1    0    0    0    0 -0.00000000000E+00 -0.00000000000E+00 -0.74505805969E-08  0.93827000000E+00  0.93827000000E+00 0.  1.
     999902    2    1    2    0    0  0.50319062660E-02 -0.17862632337E-01  0.13259381332E-01  0.10211219990E+01  0.10208672450E+01 0.  0.
     999903    2    3    3    0    0 -0.90552597675E-01  0.65212241304E-01 -0.59223695227E-01  0.12910651239E+00  0.26620219838E-01 0.  0.
         14    1    1    2    0    0 -0.50319062660E-02  0.17862632337E-01 -0.13259381332E-01  0.22808000964E-01  0.00000000000E+00 0. -1.
     999901    1    3    3    0    0  0.95584503941E-01 -0.83074873641E-01  0.72483076559E-01  0.89201548664E+00  0.88000000000E+00 0. -1.
        -11    1    4    4    0    0 -0.87356278424E-01  0.57166126377E-01 -0.47955676517E-01  0.11488730746E+00  0.51100000000E-03 0. -1.
         11    1    4    4    0    0 -0.31963192514E-02  0.80461149266E-02 -0.11268018709E-01  0.14219204929E-01  0.51100000000E-03 0.  1.
</event>
<event>
 8    1  0.1112171E+005  0.1043930E+01  0.7957747E-01            NaN
         13   -1    0    0    0    0  0.00000000000E+00  0.00000000000E+00  0.74505805969E-08  0.10566000000E+00  0.10566000000E+00 0. -1.
     999900   -1    0    0    0    0 -0.00000000000E+00 -0.00000000000E+00 -0.74505805969E-08  0.93827000000E+00  0.93827000000E+00 0. -1.
     999902    2    1    2    0    0  0.57764098274E-02  0.22807632675E-01  0.36072206424E-02  0.10201273308E+01  0.10198495987E+01 0.  0.
     999903    2    3    3    0    0  0.62313566504E-01 -0.52714604924E-01 -0.98160736396E-01  0.12925316714E+00  0.20224759647E-01 0.  0.
         14    1    1    2    0    0 -0.57764098274E-02 -0.22807632675E-01 -0.36072206424E-02  0.23802669168E-01  0.00000000000E+00 0.  1.
     999901    1    3    3    0    0 -0.56537156676E-01  0.75522237600E-01  0.10176795704E+00  0.89087416369E+00  0.88000000000E+00 0.  1.
        -11    1    4    4    0    0  0.27491969980E-01 -0.33168423922E-01 -0.61158900613E-01  0.74810594196E-01  0.51100000000E-03 0.  1.
         11    1    4    4    0    0  0.34821596523E-01 -0.19546181002E-01 -0.37001835783E-01  0.54442572942E-01  0.51100000000E-03 0. -1.
</event>
<event>
 8    1  0.1112171E+005  0.1043930E+01  0.7957747E-01            NaN
         13   -1    0    0    0    0  0.00000000000E+00  0.00000000000E+00  0.74505805969E-08  0.10566000000E+00  0.10566000000E+00 0. -1.
     999900   -1    0    0    0    0 -0.00000000000E+00 -0.00000000000E+00 -0.74505805969E-08  0.93827000000E+00  0.93827000000E+00 0. -1.
     999902    2    1    2    0    0  0.10302570693E-03 -0.31796687267E-02 -0.23764076884E-01  0.10199539232E+01  0.10196720812E+01 0.  0.
     999903    2    3    3    0    0 -0.20942463113E-01 -0.70632898601E-01 -0.10879052686E+00  0.13303659448E+00  0.20874951786E-01 0.  0.
         14    1    1    2    0    0 -0.10302570693E-03  0.31796687267E-02  0.23764076884E-01  0.23976076778E-01  0.00000000000E+00 0.  1.
     999901    1    3    3    0    0  0.21045488820E-01  0.67453229875E-01  0.85026449973E-01  0.88691732874E+00  0.88000000000E+00 0.  1.
        -11    1    4    4    0    0  0.49160429979E-03 -0.34593998404E-01 -0.47129728172E-01  0.58467587593E-01  0.51100000000E-03 0. -1.
         11    1    4    4    0    0 -0.21434067413E-01 -0.36038900198E-01 -0.61660798686E-01  0.74569006892E-01  0.51100000000E-03 0.  1.
</event>
<event>
 8    1  0.1112171E+005  0.1043930E+01  0.7957747E-01            NaN
         13   -1    0    0    0    0  0.00000000000E+00  0.00000000000E+00  0.74505805969E-08  0.10566000000E+00  0.10566000000E+00 0.  1.
     999900   -1    0    0    0    0 -0.00000000000E+00 -0.00000000000E+00 -0.74505805969E-08  0.93827000000E+00  0.93827000000E+00 0.  1.
     999902    2    1    2    0    0 -0.14008735727E-01  0.34209116977E-02  0.18575242241E-01  0.10204143257E+01  0.10201433278E+01 0.  0.
     999903    2    3    3    0    0 -0.22647701523E-01  0.11920145401E+00  0.48607825740E-01  0.13228048343E+00  0.20334712934E-01 0.  0.
         14    1    1    2    0    0  0.14008735727E-01 -0.34209116977E-02 -0.18575242241E-01  0.23515674301E-01  0.00000000000E+00 0. -1.
     999901    1    3    3    0    0  0.86389657952E-02 -0.11578054232E+00 -0.30032583498E-01  0.88813384227E+00  0.88000000000E+00 0.  1.
        -11    1    4    4    0    0 -0.11364836910E-01  0.98471819297E-01  0.35589641151E-01  0.10532208881E+00  0.51100000000E-03 0.  1.
         11    1    4    4    0    0 -0.11282864613E-01  0.20729634718E-01  0.13018184589E-01  0.26958394618E-01  0.51100000000E-03 0. -1.
</event>
<event>
 8    1  0.1112171E+005  0.1043930E+01  0.7957747E-01            NaN
         13   -1    0    0    0    0  0.00000000000E+00  0.00000000000E+00  0.74505805969E-08  0.10566000000E+00  0.10566000000E+00 0. -1.
     999900   -1    0    0    0    0 -0.00000000000E+00 -0.00000000000E+00 -0.74505805969E-08  0.93827000000E+00  0.93827000000E+00 0. -1.
     999902    2    1    2    0    0 -0.17938182372E-02  0.23776486801E-01  0.13418605014E-01  0.10165694797E+01  0.10162012149E+01 0.  0.
     999903    2    3    3    0    0 -0.28745912617E-01 -0.26952580616E-01 -0.11705908300E+00  0.12509638382E+00  0.19837016901E-01 0.  0.
         14    1    1    2    0    0  0.17938182372E-02 -0.23776486801E-01 -0.13418605014E-01  0.27360520262E-01  0.00000000000E+00 0.  1.
     999901    1    3    3    0    0  0.26952094380E-01  0.50729067417E-01  0.13047768801E+00  0.89147309592E+00  0.88000000000E+00 0. -1.
        -11    1    4    4    0    0 -0.17616831273E-01 -0.78889246591E-02 -0.76687539749E-01  0.79081146616E-01  0.51100000000E-03 0. -1.
         11    1    4    4    0    0 -0.11129081345E-01 -0.19063655957E-01 -0.40371543247E-01  0.46015237206E-01  0.51100000000E-03 0.  1.
</event>
<event>
 8    1  0.1112171E+005  0.1043930E+01  0.7957747E-01            NaN
         13   -1    0    0    0    0  0.00000000000E+00  0.00000000000E+00  0.74505805969E-08  0.10566000000E+00  0.10566000000E+00 0.  1.
     999900   -1    0    0    0    0 -0.00000000000E+00 -0.00000000000E+00 -0.74505805969E-08  0.93827000000E+00  0.93827000000E+00 0. -1.
     999902    2    1    2    0    0 -0.11896819142E-01 -0.15126569487E-01  0.14083657494E-01  0.10200826350E+01  0.10198038465E+01 0.  0.
     999903    2    3    3    0    0  0.82758425298E-01 -0.76683019464E-01 -0.60456468937E-01  0.12974278847E+00  0.21188772757E-01 0.  0.
         14    1    1    2    0    0  0.11896819142E-01  0.15126569487E-01 -0.14083657494E-01  0.23847365023E-01  0.00000000000E+00 0. -1.
     999901    1    3    3    0    0 -0.94655244440E-01  0.61556449977E-01  0.74540126431E-01  0.89033984651E+00  0.88000000000E+00 0.  1.
        -11    1    4    4    0    0  0.38742851549E-01 -0.23579818549E-01 -0.18332672071E-01  0.48922023417E-01  0.51100000000E-03 0. -1.
         11    1    4    4    0    0  0.44015573749E-01 -0.53103200915E-01 -0.42123796867E-01  0.80820765050E-01  0.51100000000E-03 0.  1.
</event>
<event>
 8    1  0.1112171E+005  0.1043930E+01  0.7957747E-01            NaN
         13   -1    0    0    0    0  0.00000000000E+00  0.00000000000E+00  0.74505805969E-08  0.10566000000E+00  0.10566000000E+00 0. -1.
     999900   -1    0    0    0    0 -0.00000000000E+00 -0.00000000000E+00 -0.74505805969E-08  0.93827000000E+00  0.93827000000E+00 0. -1.
     999902    2    1    2    0    0 -0.22653249464E-01 -0.44054039552E-02  0.51573789814E-02  0.10202831006E+01  0.10200090340E+01 0.  0.
     999903    2    3    3    0    0 -0.43726250388E-01 -0.96327799023E-02  0.12283158972E+00  0.13218478579E+00  0.19504941400E-01 0.  0.
         14    1    1    2    0    0  0.22653249464E-01  0.44054039552E-02 -0.51573789814E-02  0.23646899442E-01  0.00000000000E+00 0.  1.
     999901    1    3    3    0    0  0.21073000925E-01  0.52273759471E-02 -0.11767421074E+00  0.88809831477E+00  0.88000000000E+00 0. -1.
        -11    1    4    4    0    0 -0.20013489528E-01  0.40891378088E-02  0.66027530327E-01  0.69116978328E-01  0.51100000000E-03 0.  1.
         11    1    4    4    0    0 -0.23712760861E-01 -0.13721917711E-01  0.56804059391E-01  0.63067807459E-01  0.51100000000E-03 0. -1.
</event>
<event>
 8    1  0.1112171E+005  0.1043930E+01  0.7957747E-01            NaN
         13   -1    0    0    0    0  0.00000000000E+00  0.00000000000E+00  0.74505805969E-08  0.10566000000E+00  0.10566000000E+00 0. -1.
     999900   -1    0    0    0    0 -0.00000000000E+00 -0.00000000000E+00 -0.74505805969E-08  0.93827000000E+00  0.93827000000E+00 0. -1.
     999902    2    1    2    0    0 -0.43924581088E-02 -0.15132011344E-01  0.18109224861E-01  0.10199255112E+01  0.10196429929E+01 0.  0.
     999903    2    3    3    0    0  0.75376737446E-01  0.24912206002E-01 -0.97866127588E-01  0.12783978314E+00  0.21516520829E-01 0.  0.
         14    1    1    2    0    0  0.43924581088E-02  0.15132011344E-01 -0.18109224861E-01  0.24004488760E-01  0.00000000000E+00 0. -1.
     999901    1    3    3    0    0 -0.79769195555E-01 -0.40044217347E-01  0.11597535245E+00  0.89208572810E+00  0.88000000000E+00 0.  1.
        -11    1    4    4    0    0  0.48762515657E-01  0.18258076425E-01 -0.47484524406E-01  0.70471139248E-01  0.51100000000E-03 0. -1.
         11    1    4    4    0    0  0.26614221790E-01  0.66541295771E-02 -0.50381603182E-01  0.57368643893E-01  0.51100000000E-03 0.  1.
</event>
<event>
 8    1  0.1112171E+005  0.1043930E+01  0.7957747E-01            NaN
         13   -1    0    0    0    0  0.00000000000E+00  0.00000000000E+00  0.74505805969E-08  0.10566000000E+00  0.10566000000E+00 0.  1.
     999900   -1    0    0    0    0 -0.00000000000E+00 -0.00000000000E+00 -0.74505805969E-08  0.93827000000E+00  0.93827000000E+00 0.  1.
     999902    2    1    2    0    0 -0.16093834265E-01  0.15503782600E-01  0.14856044431E-02  0.10215338888E+01  0.10212883531E+01 0.  0.
     999903    2    3    3    0    0  0.31031504643E-01 -0.10746403550E+00  0.62347979515E-01  0.12965603250E+00  0.20296379179E-01 0.  0.
         14    1    1    2    0    0  0.16093834265E-01 -0.15503782600E-01 -0.14856044431E-02  0.22396111199E-01  0.00000000000E+00 0. -1.
     999901    1    3    3    0    0 -0.47125338908E-01  0.12296781810E+00 -0.60862375072E-01  0.89187785630E+00  0.88000000000E+00 0. -1.
        -11    1    4    4    0    0  0.22627617215E-01 -0.67203148130E-01  0.49802771207E-01  0.86653616891E-01  0.51100000000E-03 0. -1.
         11    1    4    4    0    0  0.84038874283E-02 -0.40260887373E-01  0.12545208309E-01  0.43002415612E-01  0.51100000000E-03 0.  1.
</event>
<event>
 8    1  0.1112171E+005  0.1043930E+01  0.7957747E-01            NaN
         13   -1    0    0    0    0  0.00000000000E+00  0.00000000000E+00  0.74505805969E-08  0.10566000000E+00  0.10566000000E+00 0. -1.
     999900   -1    0    0    0    0 -0.00000000000E+00 -0.00000000000E+00 -0.74505805969E-08  0.93827000000E+00  0.93827000000E+00 0. -1.
     999902    2    1    2    0    0  0.20916998309E-01 -0.99139788296E-02  0.94940739485E-02  0.10189111025E+01  0.10186038923E+01 0.  0.
     999903    2    3    3    0    0 -0.45082915649E-02 -0.11250191892E+00  0.65535693667E-01  0.13081685410E+00  0.11879213690E-01 0.  0.
         14    1    1    2    0    0 -0.20916998309E-01  0.99139788296E-02 -0.94940739485E-02  0.25018897550E-01  0.00000000000E+00 0. -1.
     999901    1    3    3    0    0  0.25425289874E-01  0.10258794009E+00 -0.56041619719E-01  0.88809424835E+00  0.88000000000E+00 0. -1.
        -11    1    4    4    0    0  0.48128209526E-03 -0.62158880518E-01  0.41975204893E-01  0.75007579661E-01  0.51100000000E-03 0. -1.
         11    1    4    4    0    0 -0.49895736601E-02 -0.50343038402E-01  0.23560488774E-01  0.55809274436E-01  0.51100000000E-03 0.  1.
</event>
<event>
 8    1  0.1112171E+005  0.1043930E+01  0.7957747E-01            NaN
         13   -1    0    0    0    0  0.00000000000E+00  0.00000000000E+00  0.74505805969E-08  0.10566000000E+00  0.10566000000E+00 0. -1.
     999900   -1    0    0    0    0 -0.00000000000E+00 -0.00000000000E+00 -0.74505805969E-08  0.93827000000E+00  0.93827000000E+00 0. -1.
     999902    2    1    2    0    0  0.22001071505E-02  0.34599103770E-02 -0.24452011408E-01  0.10191366075E+01  0.10188349780E+01 0.  0.
     999903    2    3    3    0    0 -0.10483965383E+00 -0.70501058473E-03 -0.76228865590E-01  0.13113001987E+00  0.19808889554E-01 0.  0.
         14    1    1    2    0    0 -0.22001071505E-02 -0.34599103770E-02  0.24452011408E-01  0.24793392531E-01  0.00000000000E+00 0. -1.
     999901    1    3    3    0    0  0.10703976098E+00  0.41649209617E-02  0.51776854182E-01  0.88800658760E+00  0.88000000000E+00 0. -1.
        -11    1    4    4    0    0 -0.40475253869E-01  0.54440899853E-02 -0.20165265714E-01  0.45549789833E-01  0.51100000000E-03 0.  1.
         11    1    4    4    0    0 -0.64364399963E-01 -0.61491005700E-02 -0.56063599876E-01  0.85580230033E-01  0.51100000000E-03 0. -1.
</event>
<event>
 8    1  0.1112171E+005  0.1043930E+01  0.7957747E-01            NaN
         13   -1    0    0    0    0  0.00000000000E+00  0.00000000000E+00  0.74505805969E-08  0.10566000000E+00  0.10566000000E+00 0. -1.
     999900   -1    0    0    0    0 -0.00000000000E+00 -0.00000000000E+00 -0.74505805969E-08  0.93827000000E+00  0.93827000000E+00 0.  1.
     999902    2    1    2    0    0 -0.15018870301E-01  0.12937623380E-01 -0.10146872304E-01  0.10216610175E+01  0.10214182919E+01 0.  0.
     999903    2    3    3    0    0  0.94932879340E-01  0.30600205617E-01  0.80953879528E-01  0.12997682394E+00  0.19794443372E-01 0.  0.
         14    1    1    2    0    0  0.15018870301E-01 -0.12937623380E-01  0.10146872304E-01  0.22268982496E-01  0.00000000000E+00 0. -1.
     999901    1    3    3    0    0 -0.10995174964E+00 -0.17662582237E-01 -0.91100751832E-01  0.89168419356E+00  0.88000000000E+00 0. -1.
        -11    1    4    4    0    0  0.64253745449E-01  0.19146626835E-01  0.65612231503E-01  0.93810250864E-01  0.51100000000E-03 0.  1.
         11    1    4    4    0    0  0.30679133892E-01  0.11453578782E-01  0.15341648024E-01  0.36166573080E-01  0.51100000000E-03 0. -1.
</event>
<event>
 8    1  0.1112171E+005  0.1043930E+01  0.7957747E-01            NaN
         13   -1    0    0    0    0  0.00000000000E+00  0.00000000000E+00  0.74505805969E-08  0.10566000000E+00  0.10566000000E+00 0. -1.
     999900   -1    0    0    0    0 -0.00000000000E+00 -0.00000000000E+00 -0.74505805969E-08  0.93827000000E+00  0.93827000000E+00 0. -1.
     999902    2    1    2    0    0  0.77159942165E-02 -0.14044035724E-01  0.15173966159E-01  0.10218614533E+01  0.10216231247E+01 0.  0.
     999903    2    3    3    0    0  0.65026165171E-01 -0.90663696294E-01  0.72740528155E-01  0.13480512070E+00  0.20806925475E-01 0.  0.
         14    1    1    2    0    0 -0.77159942165E-02  0.14044035724E-01 -0.15173966159E-01  0.22068546738E-01  0.00000000000E+00 0.  1.
     999901    1    3    3    0    0 -0.57310170954E-01  0.76619660570E-01 -0.57566561997E-01  0.88705633256E+00  0.88000000000E+00 0. -1.
        -11    1    4    4    0    0  0.19560520997E-03 -0.63544753507E-02  0.82404943559E-02  0.10420388026E-01  0.51100000000E-03 0. -1.
         11    1    4    4    0    0  0.64830559961E-01 -0.84309220943E-01  0.64500033799E-01  0.12438473267E+00  0.51100000000E-03 0.  1.
</event>
<event>
 8    1  0.1304963E+005  0.1043930E+01  0.7957747E-01            NaN
         13   -1    0    0    0    0  0.00000000000E+00  0.00000000000E+00  0.74505805969E-08  0.10566000000E+00  0.10566000000E+00 0.  1.
     999900   -1    0    0    0    0 -0.00000000000E+00 -0.00000000000E+00 -0.74505805969E-08  0.93827000000E+00  0.93827000000E+00 0. -1.
     999902    2    1    2    0    0  0.39921493974E-02 -0.21720664760E-01 -0.22317030532E-01  0.10125329558E+01  0.10120460524E+01 0.  0.
     999903    2    3    3    0    0  0.12155495750E+00 -0.89340508327E-02  0.10911323004E-01  0.12400122599E+00  0.20045501283E-01 0.  0.
         14    1    1    2    0    0 -0.39921493974E-02  0.21720664760E-01  0.22317030532E-01  0.31397044227E-01  0.00000000000E+00 0.  1.
     999901    1    3    3    0    0 -0.11756280810E+00 -0.12786613928E-01 -0.33228353536E-01  0.88853172978E+00  0.88000000000E+00 0. -1.
        -11    1    4    4    0    0  0.94037773943E-01 -0.58404577869E-02  0.16748899158E-01  0.95697443118E-01  0.51100000000E-03 0.  1.
         11    1    4    4    0    0  0.27517183556E-01 -0.30935930458E-02 -0.58375761540E-02  0.28303782877E-01  0.51100000000E-03 0. -1.
</event>
<event>
 8    1  0.1112171E+005  0.1043930E+01  0.7957747E-01            NaN
         13   -1    0    0    0    0  0.00000000000E+00  0.00000000000E+00  0.74505805969E-08  0.10566000000E+00  0.10566000000E+00 0. -1.
     999900   -1    0    0    0    0 -0.00000000000E+00 -0.00000000000E+00 -0.74505805969E-08  0.93827000000E+00  0.93827000000E+00 0. -1.
     999902    2    1    2    0    0 -0.16849924565E-01 -0.15909287783E-01 -0.45970708499E-02  0.10203046226E+01  0.10200310606E+01 0.  0.
     999903    2    3    3    0    0  0.55026611361E-01 -0.95174222746E-01 -0.69226193288E-01  0.13147050436E+00  0.20153586429E-01 0.  0.
         14    1    1    2    0    0  0.16849924565E-01  0.15909287783E-01  0.45970708499E-02  0.23625377373E-01  0.00000000000E+00 0. -1.
     999901    1    3    3    0    0 -0.71876535926E-01  0.79264934963E-01  0.64629122438E-01  0.88883411827E+00  0.88000000000E+00 0.  1.
        -11    1    4    4    0    0  0.43170081357E-01 -0.55972952364E-01 -0.46766599843E-01  0.84758499884E-01  0.51100000000E-03 0.  1.
         11    1    4    4    0    0  0.11856530004E-01 -0.39201270382E-01 -0.22459593445E-01  0.46712004475E-01  0.51100000000E-03 0. -1.
</event>
<event>
 8    1  0.1112171E+005  0.1043930E+01  0.7957747E-01            NaN
         13   -1    0    0    0    0  0.00000000000E+00  0.00000000000E+00  0.74505805969E-08  0.10566000000E+00  0.10566000000E+00 0.  1.
     999900   -1    0    0    0    0 -0.00000000000E+00 -0.00000000000E+00 -0.74505805969E-08  0.93827000000E+00  0.93827000000E+00 0. -1.
     999902    2    1    2    0    0 -0.19255672689E-01  0.88932856544E-02  0.89771385823E-02  0.10208982724E+01  0.10206384385E+01 0.  0.
     999903    2    3    3    0    0 -0.13031301618E+00 -0.12654686165E-01  0.16558361751E-01  0.13362406246E+00  0.20966341036E-01 0.  0.
         14    1    1    2    0    0  0.19255672689E-01 -0.88932856544E-02 -0.89771385823E-02  0.23031727628E-01  0.00000000000E+00 0. -1.
     999901    1    3    3    0    0  0.11105734349E+00  0.21547971819E-01 -0.75812231687E-02  0.88727420991E+00  0.88000000000E+00 0.  1.
        -11    1    4    4    0    0 -0.25017819207E-01 -0.75606601473E-02  0.10043528085E-01  0.28003364747E-01  0.51100000000E-03 0.  1.
         11    1    4    4    0    0 -0.10529519697E+00 -0.50940260173E-02  0.65148336658E-02  0.10562069771E+00  0.51100000000E-03 0. -1.
</event>
<event>
 8    1  0.1112171E+005  0.1043930E+01  0.7957747E-01            NaN
         13   -1    0    0    0    0  0.00000000000E+00  0.00000000000E+00  0.74505805969E-08  0.10566000000E+00  0.10566000000E+00 0.  1.
     999900   -1    0    0    0    0 -0.00000000000E+00 -0.00000000000E+00 -0.74505805969E-08  0.93827000000E+00  0.93827000000E+00 0. -1.
     999902    2    1    2    0    0  0.19257165489E-01  0.71478418343E-02  0.10458854043E-01  0.10208796704E+01  0.10206194118E+01 0.  0.
     999903    2    3    3    0    0 -0.26228179402E-01  0.10097980740E+00  0.78407300034E-01  0.13212191621E+00  0.20582933428E-01 0.  0.
         14    1    1    2    0    0 -0.19257165489E-01 -0.71478418343E-02 -0.10458854043E-01  0.23050329573E-01  0.00000000000E+00 0. -1.
     999901    1    3    3    0    0  0.45485344890E-01 -0.93831965563E-01 -0.67948445991E-01  0.88875775421E+00  0.88000000000E+00 0.  1.
        -11    1    4    4    0    0 -0.25572196070E-01  0.62401377081E-01  0.54693003719E-01  0.86830034264E-01  0.51100000000E-03 0.  1.
         11    1    4    4    0    0 -0.65598333159E-03  0.38578430316E-01  0.23714296316E-01  0.45291881950E-01  0.51100000000E-03 0. -1.
</event>
<event>
 8    1  0.1112171E+005  0.1043930E+01  0.7957747E-01            NaN
         13   -1    0    0    0    0  0.00000000000E+00  0.00000000000E+00  0.74505805969E-08  0.10566000000E+00  0.10566000000E+00 0.  1.
     999900   -1    0    0    0    0 -0.00000000000E+00 -0.00000000000E+00 -0.74505805969E-08  0.93827000000E+00  0.93827000000E+00 0.  1.
     999902    2    1    2    0    0 -0.20589577217E-01 -0.84073832903E-02  0.22499537398E-02  0.10215765422E+01  0.10213319512E+01 0.  0.
     999903    2    3    3    0    0 -0.47366721956E-01  0.11476102748E+00 -0.38355652886E-01  0.13166851989E+00  0.21254252376E-01 0.  0.
         14    1    1    2    0    0  0.20589577217E-01  0.84073832903E-02 -0.22499537398E-02  0.22353457799E-01  0.00000000000E+00 0. -1.
     999901    1    3    3    0    0  0.26777144740E-01 -0.12316841077E+00  0.40605606626E-01  0.88990802232E+00  0.88000000000E+00 0. -1.
        -11    1    4    4    0    0 -0.39012738890E-01  0.10900840526E+00 -0.34589159997E-01  0.12083665554E+00  0.51100000000E-03 0.  1.
         11    1    4    4    0    0 -0.83539830664E-02  0.57526222220E-02 -0.37664928896E-02  0.10831864345E-01  0.51100000000E-03 0. -1.
</event>
<event>
 8    1  0.1112171E+005  0.1043930E+01  0.7957747E-01            NaN
         13   -1    0    0    0    0  0.00000000000E+00  0.00000000000E+00  0.74505805969E-08  0.10566000000E+00  0.10566000000E+00 0.  1.
     999900   -1    0    0    0    0 -0.00000000000E+00 -0.00000000000E+00 -0.74505805969E-08  0.93827000000E+00  0.93827000000E+00 0. -1.
     999902    2    1    2    0    0 -0.31217022332E-02  0.23083612436E-01 -0.85444227699E-02  0.10191186045E+01  0.10188165314E+01 0.  0.
     999903    2    3    3    0    0 -0.87065811706E-01 -0.32102261221E-01 -0.88523007380E-01  0.12979938834E+00  0.20013686194E-01 0.  0.
         14    1    1    2    0    0  0.31217022332E-02 -0.23083612436E-01  0.85444227699E-02  0.24811395535E-01  0.00000000000E+00 0.  1.
     999901    1    3    3    0    0  0.83944109473E-01  0.55185873657E-01  0.79978584610E-01  0.88931921612E+00  0.88000000000E+00 0.  1.
        -11    1    4    4    0    0 -0.26959497191E-01 -0.16695533076E-02 -0.19295856224E-01  0.33199293448E-01  0.51100000000E-03 0.  1.
         11    1    4    4    0    0 -0.60106314515E-01 -0.30432707913E-01 -0.69227151156E-01  0.96600094895E-01  0.51100000000E-03 0. -1.
</event>
<event>
 8    1  0.1112171E+005  0.1043930E+01  0.7957747E-01            NaN
         13   -1    0    0    0    0  0.00000000000E+00  0.00000000000E+00  0.74505805969E-08  0.10566000000E+00  0.10566000000E+00 0.  1.
     999900   -1    0    0    0    0 -0.00000000000E+00 -0.00000000000E+00 -0.74505805969E-08  0.93827000000E+00  0.93827000000E+00 0. -1.
     999902    2    1    2    0    0  0.66447836094E-02  0.10016873822E-01  0.19621221593E-01  0.10209194970E+01  0.10206601472E+01 0.  0.
     999903    2    3    3    0    0  0.12237880544E+00 -0.13715827602E-01  0.44401603615E-01  0.13267872321E+00  0.21620482039E-01 0.  0.
         14    1    1    2    0    0 -0.66447836094E-02 -0.10016873822E-01 -0.19621221593E-01  0.23010502976E-01  0.00000000000E+00 0. -1.
     999901    1    3    3    0    0 -0.11573402183E+00  0.23732701424E-01 -0.24780382021E-01  0.88824077381E+00  0.88000000000E+00 0.  1.
        -11    1    4    4    0    0  0.15407958941E-01  0.51483758228E-02  0.80269554459E-02  0.18127440720E-01  0.51100000000E-03 0. -1.
         11    1    4    4    0    0  0.10697084649E+00 -0.18864203425E-01  0.36374648169E-01  0.11455128249E+00  0.51100000000E-03 0.  1.
</event>
<event>
 8    1  0.1112171E+005  0.1043930E+01  0.7957747E-01            NaN
         13   -1    0    0    0    0  0.00000000000E+00  0.00000000000E+00  0.74505805969E-08  0.10566000000E+00  0.10566000000E+00 0. -1.
     999900   -1    0    0    0    0 -0.00000000000E+00 -0.00000000000E+00 -0.74505805969E-08  0.93827000000E+00  0.93827000000E+00 0. -1.
     999902    2    1    2    0    0  0.63801578416E-02  0.17974512811E-01 -0.13466434899E-01  0.10205818867E+01  0.10203147814E+01 0.  0.
     999903    2    3    3    0    0  0.12538631111E+00  0.26948068759E-01 -0.26658502775E-01  0.13242817262E+00  0.19458152747E-01 0.  0.
         14    1    1    2    0    0 -0.63801578416E-02 -0.17974512811E-01  0.13466434899E-01  0.23348113281E-01  0.00000000000E+00 0.  1.
     999901    1    3    3    0    0 -0.11900615327E+00 -0.89735559486E-02  0.13192067875E-01  0.88815371410E+00  0.88000000000E+00 0. -1.
        -11    1    4    4    0    0  0.36000093648E-01  0.51626976928E-02  0.90704508955E-03  0.36383293446E-01  0.51100000000E-03 0.  1.
         11    1    4    4    0    0  0.89386217462E-01  0.21785371066E-01 -0.27565547864E-01  0.96044879170E-01  0.51100000000E-03 0. -1.
</event>
<event>
 8    1  0.1112171E+005  0.1043930E+01  0.7957747E-01            NaN
         13   -1    0    0    0    0  0.00000000000E+00  0.00000000000E+00  0.74505805969E-08  0.10566000000E+00  0.10566000000E+00 0. -1.
     999900   -1    0    0    0    0 -0.00000000000E+00 -0.00000000000E+00 -0.74505805969E-08  0.93827000000E+00  0.93827000000E+00 0.  1.
     999902    2    1    2    0    0 -0.60590058552E-02  0.17558801728E-01  0.13946600341E-01  0.10207021992E+01  0.10204378710E+01 0.  0.
     999903    2    3    3    0    0 -0.47870134027E-01 -0.10915582052E+00  0.47755694850E-01  0.13000145212E+00  0.20328017041E-01 0.  0.
         14    1    1    2    0    0  0.60590058552E-02 -0.17558801728E-01 -0.13946600341E-01  0.23227800825E-01  0.00000000000E+00 0.  1.
     999901    1    3    3    0    0  0.41811128172E-01  0.12671462225E+00 -0.33809094508E-01  0.89070074705E+00  0.88000000000E+00 0. -1.
        -11    1    4    4    0    0 -0.21392555575E-01 -0.72748480766E-01  0.27951575613E-01  0.80817910069E-01  0.51100000000E-03 0. -1.
         11    1    4    4    0    0 -0.26477578452E-01 -0.36407339759E-01  0.19804119237E-01  0.49183542052E-01  0.51100000000E-03 0.  1.
</event>
<event>
 8    1  0.1112171E+005  0.1043930E+01  0.7957747E-01            NaN
         13   -1    0    0    0    0  0.00000000000E+00  0.00000000000E+00  0.74505805969E-08  0.10566000000E+00  0.10566000000E+00 0. -1.
     999900   -1    0    0    0    0 -0.00000000000E+00 -0.00000000000E+00 -0.74505805969E-08  0.93827000000E+00  0.93827000000E+00 0.  1.
     999902    2    1    2    0    0  0.77095040270E-02  0.68520004494E-02  0.22596934514E-01  0.10190903581E+01  0.10187875883E+01 0.  0.
     999903    2    3    3    0    0 -0.11253621819E+00  0.24194512205E-01 -0.50912149939E-01  0.12770750994E+00  0.21619117855E-01 0.  0.
         14    1    1    2    0    0 -0.77095040270E-02 -0.68520004494E-02 -0.22596934514E-01  0.24839641944E-01  0.00000000000E+00 0.  1.
     999901    1    3    3    0    0  0.12024572222E+00 -0.17342511755E-01  0.73509084453E-01  0.89138284812E+00  0.88000000000E+00 0.  1.
        -11    1    4    4    0    0 -0.38432403432E-01  0.13880438626E-02 -0.87258128488E-02  0.39438271136E-01  0.51100000000E-03 0. -1.
         11    1    4    4    0    0 -0.74103814760E-01  0.22806468342E-01 -0.42186337090E-01  0.88269238800E-01  0.51100000000E-03 0.  1.
</event>
<event>
 8    1  0.1112171E+005  0.1043930E+01  0.7957747E-01            NaN
         13   -1    0    0    0    0  0.00000000000E+00  0.00000000000E+00  0.74505805969E-08  0.10566000000E+00  0.10566000000E+00 0. -1.
     999900   -1    0    0    0    0 -0.00000000000E+00 -0.00000000000E+00 -0.74505805969E-08  0.93827000000E+00  0.93827000000E+00 0. -1.
     999902    2    1    2    0    0 -0.20664114794E-01 -0.19749495718E-02  0.10753886867E-01  0.10205515452E+01  0.10202837371E+01 0.  0.
     999903    2    3    3    0    0  0.88720145504E-01 -0.47625258152E-01  0.79478109775E-01  0.12994956570E+00  0.20753078330E-01 0.  0.
         14    1    1    2    0    0  0.20664114794E-01  0.19749495718E-02 -0.10753886867E-01  0.23378454799E-01  0.00000000000E+00 0.  1.
     999901    1    3    3    0    0 -0.10938426030E+00  0.45650308581E-01 -0.68724222907E-01  0.89060197950E+00  0.88000000000E+00 0.  1.
        -11    1    4    4    0    0  0.10625284632E-01 -0.13249560187E-01  0.18196980829E-01  0.24896561026E-01  0.51100000000E-03 0.  1.
         11    1    4    4    0    0  0.78094860873E-01 -0.34375697966E-01  0.61281128946E-01  0.10505300468E+00  0.51100000000E-03 0. -1.
</event>
<event>
 8    1  0.1112171E+005  0.1043930E+01  0.7957747E-01            NaN
         13   -1    0    0    0    0  0.00000000000E+00  0.00000000000E+00  0.74505805969E-08  0.10566000000E+00  0.10566000000E+00 0. -1.
     999900   -1    0    0    0    0 -0.00000000000E+00 -0.00000000000E+00 -0.74505805969E-08  0.93827000000E+00  0.93827000000E+00 0. -1.
     999902    2    1    2    0    0  0.19669233518E-01  0.42878296761E-02 -0.12049121816E-01  0.10204684236E+01  0.10201986856E+01 0.  0.
     999903    2    3    3    0    0  0.10289653018E+00 -0.80611884420E-01  0.44574275943E-02  0.13232023184E+00  0.20069959163E-01 0.  0.
         14    1    1    2    0    0 -0.19669233518E-01 -0.42878296761E-02  0.12049121816E-01  0.23461576398E-01  0.00000000000E+00 0. -1.
     999901    1    3    3    0    0 -0.83227296657E-01  0.84899714096E-01 -0.16506549410E-01  0.88814819177E+00  0.88000000000E+00 0.  1.
        -11    1    4    4    0    0  0.62911205974E-02 -0.54404652758E-02  0.53625487324E-02  0.99093345233E-02  0.51100000000E-03 0. -1.
         11    1    4    4    0    0  0.96605409578E-01 -0.75171419144E-01 -0.90512113815E-03  0.12241089731E+00  0.51100000000E-03 0.  1.
</event>
<event>
 8    1  0.1112171E+005  0.1043930E+01  0.7957747E-01            NaN
         13   -1    0    0    0    0  0.00000000000E+00  0.00000000000E+00  0.74505805969E-08  0.10566000000E+00  0.10566000000E+00 0.  1.
     999900   -1    0    0    0    0 -0.00000000000E+00 -0.00000000000E+00 -0.74505805969E-08  0.93827000000E+00  0.93827000000E+00 0.  1.
     999902    2    1    2    0    0  0.21878171747E-01  0.62911253339E-02 -0.46261001572E-02  0.10206999880E+01  0.10204356089E+01 0.  0.
     999903    2    3    3    0    0  0.12538294333E+00  0.25606624712E-01  0.32624897540E-01  0.13364082246E+00  0.20467139079E-01 0.  0.
         14    1    1    2    0    0 -0.21878171747E-01 -0.62911253339E-02  0.46261001572E-02  0.23230012045E-01  0.00000000000E+00 0. -1.
     999901    1    3    3    0    0 -0.10350477158E+00 -0.19315499378E-01 -0.37250997697E-01  0.88705916549E+00  0.88000000000E+00 0.  1.
        -11    1    4    4    0    0  0.55659002215E-01  0.14197735167E-01  0.45820671062E-02  0.57626006902E-01  0.51100000000E-03 0. -1.
         11    1    4    4    0    0  0.69723941113E-01  0.11408889546E-01  0.28042830433E-01  0.76014815560E-01  0.51100000000E-03 0.  1.
</event>
<event>
 8    1  0.1112171E+005  0.1043930E+01  0.7957747E-01            NaN
         13   -1    0    0    0    0  0.00000000000E+00  0.00000000000E+00  0.74505805969E-08  0.10566000000E+00  0.10566000000E+00 0.  1.
     999900   -1    0    0    0    0 -0.00000000000E+00 -0.00000000000E+00 -0.74505805969E-08  0.93827000000E+00  0.93827000000E+00 0. -1.
     999902    2    1    2    0    0 -0.68532145432E-02 -0.21656111576E-01 -0.35847187247E-02  0.10209342629E+01  0.10206752496E+01 0.  0.
     999903    2    3    3    0    0 -0.66519350900E-01 -0.78663906909E-01 -0.82475282590E-01  0.13355967588E+00  0.20571351153E-01 0.  0.
         14    1    1    2    0    0  0.68532145432E-02  0.21656111576E-01  0.35847187247E-02  0.22995737138E-01  0.00000000000E+00 0. -1.
     999901    1    3    3    0    0  0.59666136357E-01  0.57007795332E-01  0.78890563865E-01  0.88737458698E+00  0.88000000000E+00 0.  1.
        -11    1    4    4    0    0 -0.89734772740E-02 -0.23822595845E-01 -0.22498552206E-01  0.33977718281E-01  0.51100000000E-03 0.  1.
         11    1    4    4    0    0 -0.57545873626E-01 -0.54841311063E-01 -0.59976730384E-01  0.99581957598E-01  0.51100000000E-03 0. -1.
</event>
<event>
 8    1  0.1112171E+005  0.1043930E+01  0.7957747E-01            NaN
         13   -1    0    0    0    0  0.00000000000E+00  0.00000000000E+00  0.74505805969E-08  0.10566000000E+00  0.10566000000E+00 0. -1.
     999900   -1    0    0    0    0 -0.00000000000E+00 -0.00000000000E+00 -0.74505805969E-08  0.93827000000E+00  0.93827000000E+00 0.  1.
     999902    2    1    2    0    0  0.86411892885E-02  0.80043762528E-02 -0.20833293828E-01  0.10199974631E+01  0.10197166559E+01 0.  0.
     999903    2    3    3    0    0 -0.11450455543E+00 -0.19219177014E-01  0.49936921339E-01  0.12819343772E+00  0.21428751307E-01 0.  0.
         14    1    1    2    0    0 -0.86411892885E-02 -0.80043762528E-02  0.20833293828E-01  0.23932536917E-01  0.00000000000E+00 0. -1.
     999901    1    3    3    0    0  0.12314574472E+00  0.27223553267E-01 -0.70770215168E-01  0.89180402536E+00  0.88000000000E+00 0.  1.
        -11    1    4    4    0    0 -0.84935307336E-01 -0.94402842080E-02  0.27393095708E-01  0.89742789191E-01  0.51100000000E-03 0.  1.
         11    1    4    4    0    0 -0.29569248095E-01 -0.97788928057E-02  0.22543825631E-01  0.38450648532E-01  0.51100000000E-03 0. -1.
</event>
<event>
 8    1  0.1112171E+005  0.1043930E+01  0.7957747E-01            NaN
         13   -1    0    0    0    0  0.00000000000E+00  0.00000000000E+00  0.74505805969E-08  0.10566000000E+00  0.10566000000E+00 0.  1.
     999900   -1    0    0    0    0 -0.00000000000E+00 -0.00000000000E+00 -0.74505805969E-08  0.93827000000E+00  0.93827000000E+00 0. -1.
     999902    2    1    2    0    0 -0.73067920824E-02  0.97795871833E-02 -0.20247244724E-01  0.10202872325E+01  0.10200132628E+01 0.  0.
     999903    2    3    3    0    0  0.28993972596E-01  0.12285981660E+00 -0.33867749327E-01  0.13220480280E+00  0.19897247458E-01 0.  0.
         14    1    1    2    0    0  0.73067920824E-02 -0.97795871833E-02  0.20247244724E-01  0.23642767497E-01  0.00000000000E+00 0.  1.
     999901    1    3    3    0    0 -0.36300764679E-01 -0.11308022942E+00  0.13620504603E-01  0.88808242970E+00  0.88000000000E+00 0.  1.
        -11    1    4    4    0    0  0.94405032299E-02  0.33281303028E-01 -0.18509795086E-01  0.39238270446E-01  0.51100000000E-03 0.  1.
         11    1    4    4    0    0  0.19553469367E-01  0.89578513574E-01 -0.15357954242E-01  0.92966532354E-01  0.51100000000E-03 0. -1.
</event>
<event>
 8    1  0.1112171E+005  0.1043930E+01  0.7957747E-01            NaN
         13   -1    0    0    0    0  0.00000000000E+00  0.00000000000E+00  0.74505805969E-08  0.10566000000E+00  0.10566000000E+00 0.  1.
     999900   -1    0    0    0    0 -0.00000000000E+00 -0.00000000000E+00 -0.74505805969E-08  0.93827000000E+00  0.93827000000E+00 0.  1.
     999902    2    1    2    0    0 -0.15613369101E-01  0.16623984846E-01 -0.37500003158E-02  0.10208173050E+01  0.10205556200E+01 0.  0.
     999903    2    3    3    0    0  0.98374475762E-01 -0.75507763449E-01  0.24748347313E-01  0.12824033711E+00  0.21310643951E-01 0.  0.
         14    1    1    2    0    0  0.15613369101E-01 -0.16623984846E-01  0.37500003158E-02  0.23112694980E-01  0.00000000000E+00 0.  1.
     999901    1    3    3    0    0 -0.11398784486E+00  0.92131748296E-01 -0.28498347629E-01  0.89257696791E+00  0.88000000000E+00 0. -1.
        -11    1    4    4    0    0  0.10820533382E-01 -0.14496689592E-01 -0.20452724445E-02  0.18212144634E-01  0.51100000000E-03 0. -1.
         11    1    4    4    0    0  0.87553942380E-01 -0.61011073857E-01  0.26793619757E-01  0.11002819248E+00  0.51100000000E-03 0.  1.
</event>
<event>
 8    1  0.1112171E+005  0.1043930E+01  0.7957747E-01            NaN
         13   -1    0    0    0    0  0.00000000000E+00  0.00000000000E+00  0.74505805969E-08  0.10566000000E+00  0.10566000000E+00 0.  1.
     999900   -1    0    0    0    0 -0.00000000000E+00 -0.00000000000E+00 -0.74505805969E-08  0.93827000000E+00  0.93827000000E+00 0. -1.
     999902    2    1    2    0    0  0.19646141467E-01 -0.13067808819E-01 -0.35154609090E-02  0.10200742467E+01  0.10197952597E+01 0.  0.
     999903    2    3    3    0    0 -0.57545897451E-01  0.10075912693E+00  0.49667754857E-01  0.12780543256E+00  0.20085087696E-01 0.  0.
         14    1    1    2    0    0 -0.19646141467E-01  0.13067808819E-01  0.35154609090E-02  0.23855753337E-01  0.00000000000E+00 0. -1.
     999901    1    3    3    0    0  0.77192038918E-01 -0.11382693575E+00 -0.53183215766E-01  0.89226881410E+00  0.88000000000E+00 0. -1.
        -11    1    4    4    0    0 -0.48388759811E-01  0.85691466004E-01  0.49514089590E-01  0.11016535576E+00  0.51100000000E-03 0.  1.
         11    1    4    4    0    0 -0.91571376401E-02  0.15067660924E-01  0.15366526741E-03  0.17640076800E-01  0.51100000000E-03 0. -1.
</event>
<event>
 8    1  0.1112171E+005  0.1043930E+01  0.7957747E-01            NaN
         13   -1    0    0    0    0  0.00000000000E+00  0.00000000000E+00  0.74505805969E-08  0.10566000000E+00  0.10566000000E+00 0. -1.
     999900   -1    0    0    0    0 -0.00000000000E+00 -0.00000000000E+00 -0.74505805969E-08  0.93827000000E+00  0.93827000000E+00 0.  1.
     999902    2    1    2    0    0 -0.18031010995E-01  0.84354469020E-02 -0.72671111838E-02  0.10227383737E+01  0.10225187998E+01 0.  0.
     999903    2    3    3    0    0 -0.11963673880E-01  0.13114236623E+00  0.13894603444E-01  0.13395177453E+00  0.20213069594E-01 0.  0.
         14    1    1    2    0    0  0.18031010995E-01 -0.84354469020E-02  0.72671111838E-02  0.21191626339E-01  0.00000000000E+00 0. -1.
     999901    1    3    3    0    0 -0.60673371149E-02 -0.12270691933E+00 -0.21161714627E-01  0.88878659913E+00  0.88000000000E+00 0.  1.
        -11    1    4    4    0    0 -0.14939548267E-01  0.91944286675E-01  0.16287932830E-01  0.94564791712E-01  0.51100000000E-03 0.  1.
         11    1    4    4    0    0  0.29758743870E-02  0.39198079552E-01 -0.23933293868E-02  0.39386982817E-01  0.51100000000E-03 0. -1.
</event>
<event>
 8    1  0.1112171E+005  0.1043930E+01  0.7957747E-01            NaN
         13   -1    0    0    0    0  0.00000000000E+00  0.00000000000E+00  0.74505805969E-08  0.10566000000E+00  0.10566000000E+00 0.  1.
     999900   -1    0    0    0    0 -0.00000000000E+00 -0.00000000000E+00 -0.74505805969E-08  0.93827000000E+00  0.93827000000E+00 0. -1.
     999902    2    1    2    0    0  0.24412905952E-02  0.18700065305E-01 -0.13839240267E-01  0.10205381870E+01  0.10202700693E+01 0.  0.
     999903    2    3    3    0    0  0.66456575522E-01  0.11127390819E+00  0.20420953607E-01  0.13270845451E+00  0.19903755343E-01 0.  0.
         14    1    1    2    0    0 -0.24412905952E-02 -0.18700065305E-01  0.13839240267E-01  0.23391812956E-01  0.00000000000E+00 0. -1.
     999901    1    3    3    0    0 -0.64015284927E-01 -0.92573842888E-01 -0.34260193874E-01  0.88782973254E+00  0.88000000000E+00 0.  1.
        -11    1    4    4    0    0  0.48886837332E-02  0.20318434741E-01 -0.44300424316E-03  0.20909217889E-01  0.51100000000E-03 0. -1.
         11    1    4    4    0    0  0.61567891789E-01  0.90955473453E-01  0.20863957850E-01  0.11179923662E+00  0.51100000000E-03 0.  1.
</event>
<event>
 7    1  0.1112171E+005  0.1043930E+01  0.7957747E-01            NaN
         13   -1    0    0    0    0  0.00000000000E+00  0.00000000000E+00  0.74505805969E-08  0.10566000000E+00  0.10566000000E+00 0. -1.
     999900   -1    0    0    0    0 -0.00000000000E+00 -0.00000000000E+00 -0.74505805969E-08  0.93827000000E+00  0.93827000000E+00 0.  1.
     999902    2    1    2    0    0 -0.12467292771E-01  0.67256926816E-02  0.18462188440E-01  0.10206594020E+01  0.10203940876E+01 0.  0.
         14    1    1    2    0    0  0.12467292771E-01 -0.67256926816E-02 -0.18462188440E-01  0.23270598039E-01  0.00000000000E+00 0.  1.
     999901    1    3    3    0    0  0.26422849562E-01  0.16295233920E-01  0.13615075382E+00  0.89101107142E+00  0.88000000000E+00 0. -1.
        -11    1    3    3    0    0  0.13769571915E-02  0.96489766933E-02 -0.20332776022E-01  0.22553972246E-01  0.51100000000E-03 0. -1.
         11    1    3    3    0    0 -0.40267099525E-01 -0.19218517931E-01 -0.97355789360E-01  0.10709435829E+00  0.51100000000E-03 0.  1.
</event>
<event>
 8    1  0.1112171E+005  0.1043930E+01  0.7957747E-01            NaN
         13   -1    0    0    0    0  0.00000000000E+00  0.00000000000E+00  0.74505805969E-08  0.10566000000E+00  0.10566000000E+00 0.  1.
     999900   -1    0    0    0    0 -0.00000000000E+00 -0.00000000000E+00 -0.74505805969E-08  0.93827000000E+00  0.93827000000E+00 0.  1.
     999902    2    1    2    0    0  0.11417550596E-02 -0.19103707510E-01 -0.12986588436E-01  0.10208019494E+01  0.10205399126E+01 0.  0.
     999903    2    3    3    0    0  0.11261647552E+00  0.55751915321E-01  0.25884951521E-01  0.12976829449E+00  0.19468767786E-01 0.  0.
         14    1    1    2    0    0 -0.11417550596E-02  0.19103707510E-01  0.12986588436E-01  0.23128050598E-01  0.00000000000E+00 0.  1.
     999901    1    3    3    0    0 -0.11147472046E+00 -0.74855622831E-01 -0.38871539957E-01  0.89103365491E+00  0.88000000000E+00 0.  1.
        -11    1    4    4    0    0  0.21649223098E-01  0.14492293497E-01 -0.17856875753E-02  0.26118293066E-01  0.51100000000E-03 0. -1.
         11    1    4    4    0    0  0.90967252419E-01  0.41259621824E-01  0.27670639097E-01  0.10365000142E+00  0.51100000000E-03 0.  1.
</event>
<event>
 8    1  0.1112171E+005  0.1043930E+01  0.7957747E-01            NaN
         13   -1    0    0    0    0  0.00000000000E+00  0.00000000000E+00  0.74505805969E-08  0.10566000000E+00  0.10566000000E+00 0. -1.
     999900   -1    0    0    0    0 -0.00000000000E+00 -0.00000000000E+00 -0.74505805969E-08  0.93827000000E+00  0.93827000000E+00 0.  1.
     999902    2    1    2    0    0 -0.14561773184E-01  0.15622827398E-01  0.85565394600E-02  0.10209227763E+01  0.10206635013E+01 0.  0.
     999903    2    3    3    0    0 -0.27571142226E-01  0.81137498517E-01 -0.98519741778E-01  0.13191954470E+00  0.18792690208E-01 0.  0.
         14    1    1    2    0    0  0.14561773184E-01 -0.15622827398E-01 -0.85565394600E-02  0.23007223685E-01  0.00000000000E+00 0.  1.
     999901    1    3    3    0    0  0.13009369042E-01 -0.65514671119E-01  0.10707628124E+00  0.88900323161E+00  0.88000000000E+00 0. -1.
        -11    1    4    4    0    0 -0.14019979583E-01  0.61380500309E-01 -0.62977498387E-01  0.89053647144E-01  0.51100000000E-03 0.  1.
         11    1    4    4    0    0 -0.13551162643E-01  0.19756998208E-01 -0.35542243391E-01  0.42865897558E-01  0.51100000000E-03 0. -1.
</event>
<event>
 8    1  0.1112171E+005  0.1043930E+01  0.7957747E-01            NaN
         13   -1    0    0    0    0  0.00000000000E+00  0.00000000000E+00  0.74505805969E-08  0.10566000000E+00  0.10566000000E+00 0.  1.
     999900   -1    0    0    0    0 -0.00000000000E+00 -0.00000000000E+00 -0.74505805969E-08  0.93827000000E+00  0.93827000000E+00 0.  1.
     999902    2    1    2    0    0  0.23157445370E-01  0.56701774324E-02 -0.26506928209E-02  0.10199415786E+01  0.10196594429E+01 0.  0.
     999903    2    3    3    0    0  0.12198179925E+00 -0.46317783172E-01 -0.14638160881E-01  0.13280421588E+00  0.19944613683E-01 0.  0.
         14    1    1    2    0    0 -0.23157445370E-01 -0.56701774324E-02  0.26506928209E-02  0.23988421386E-01  0.00000000000E+00 0.  1.
     999901    1    3    3    0    0 -0.98824353882E-01  0.51987960605E-01  0.11987468060E-01  0.88713736273E+00  0.88000000000E+00 0.  1.
        -11    1    4    4    0    0  0.25530762132E-01 -0.18740904175E-01 -0.31416318129E-02  0.31830367195E-01  0.51100000000E-03 0. -1.
         11    1    4    4    0    0  0.96451037119E-01 -0.27576878997E-01 -0.11496529068E-01  0.10097384868E+00  0.51100000000E-03 0.  1.
</event>
<event>
 8    1  0.1112171E+005  0.1043930E+01  0.7957747E-01            NaN
         13   -1    0    0    0    0  0.00000000000E+00  0.00000000000E+00  0.74505805969E-08  0.10566000000E+00  0.10566000000E+00 0.  1.
     999900   -1    0    0    0    0 -0.00000000000E+00 -0.00000000000E+00 -0.74505805969E-08  0.93827000000E+00  0.93827000000E+00 0.  1.
     999902    2    1    2    0    0 -0.76196620718E-02  0.13216090657E-01  0.18582247806E-01  0.10198878654E+01  0.10196044497E+01 0.  0.
     999903    2    3    3    0    0  0.34222323462E-01 -0.28009703026E-01  0.12250735266E+00  0.13182776314E+00  0.20366560622E-01 0.  0.
         14    1    1    2    0    0  0.76196620718E-02 -0.13216090657E-01 -0.18582247806E-01  0.24042134595E-01  0.00000000000E+00 0. -1.
     999901    1    3    3    0    0 -0.41841985534E-01  0.41225793684E-01 -0.10392510485E+00  0.88806010227E+00  0.88000000000E+00 0.  1.
        -11    1    4    4    0    0  0.22754231028E-01 -0.15557415969E-01  0.47398319464E-01  0.54832928340E-01  0.51100000000E-03 0. -1.
         11    1    4    4    0    0  0.11468092434E-01 -0.12452287058E-01  0.75109033197E-01  0.76994834799E-01  0.51100000000E-03 0.  1.
</event>
<event>
 8    1  0.1112171E+005  0.1043930E+01  0.7957747E-01            NaN
         13   -1    0    0    0    0  0.00000000000E+00  0.00000000000E+00  0.74505805969E-08  0.10566000000E+00  0.10566000000E+00 0. -1.
     999900   -1    0    0    0    0 -0.00000000000E+00 -0.00000000000E+00 -0.74505805969E-08  0.93827000000E+00  0.93827000000E+00 0. -1.
     999902    2    1    2    0    0  0.58258369544E-02  0.62724300609E-02  0.17805477617E-01  0.10241735128E+01  0.10239829420E+01 0.  0.
     999903    2    3    3    0    0  0.12979054864E-01  0.21132569815E-01  0.13242035377E+00  0.13658770726E+00  0.22494672914E-01 0.  0.
         14    1    1    2    0    0 -0.58258369544E-02 -0.62724300609E-02 -0.17805477617E-01  0.19756487245E-01  0.00000000000E+00 0.  1.
     999901    1    3    3    0    0 -0.71532179099E-02 -0.14860139754E-01 -0.11461487615E+00  0.88758580549E+00  0.88000000000E+00 0. -1.
        -11    1    4    4    0    0  0.15179178372E-02 -0.46667006728E-02  0.27254764169E-01  0.27697751906E-01  0.51100000000E-03 0.  1.
         11    1    4    4    0    0  0.11461137027E-01  0.25799270488E-01  0.10516558960E+00  0.10888995535E+00  0.51100000000E-03 0. -1.
</event>
<event>
 8    1  0.1112171E+005  0.1043930E+01  0.7957747E-01            NaN
         13   -1    0    0    0    0  0.00000000000E+00  0.00000000000E+00  0.74505805969E-08  0.10566000000E+00  0.10566000000E+00 0. -1.
     999900   -1    0    0    0    0 -0.00000000000E+00 -0.00000000000E+00 -0.74505805969E-08  0.93827000000E+00  0.93827000000E+00 0. -1.
     999902    2    1    2    0    0 -0.69930377250E-02 -0.33322832096E-02  0.21518644805E-01  0.10210595220E+01  0.10208033546E+01 0.  0.
     999903    2    3    3    0    0 -0.10826911720E+00  0.51681725198E-01 -0.48118847601E-01  0.13081642841E+00  0.20107510774E-01 0.  0.
         14    1    1    2    0    0  0.69930377250E-02  0.33322832096E-02 -0.21518644805E-01  0.22870477963E-01  0.00000000000E+00 0.  1.
     999901    1    3    3    0    0  0.10127607948E+00 -0.55014008408E-01  0.69637492406E-01  0.89024309362E+00  0.88000000000E+00 0.  1.
        -11    1    4    4    0    0 -0.26752074480E-01  0.17294519276E-01 -0.45068516832E-02  0.32176804053E-01  0.51100000000E-03 0.  1.
         11    1    4    4    0    0 -0.81517042721E-01  0.34387205923E-01 -0.43611995917E-01  0.98639624361E-01  0.51100000000E-03 0. -1.
</event>
<event>
 8    1  0.1112171E+005  0.1043930E+01  0.7957747E-01            NaN
         13   -1    0    0    0    0  0.00000000000E+00  0.00000000000E+00  0.74505805969E-08  0.10566000000E+00  0.10566000000E+00 0.  1.
     999900   -1    0    0    0    0 -0.00000000000E+00 -0.00000000000E+00 -0.74505805969E-08  0.93827000000E+00  0.93827000000E+00 0.  1.
     999902    2    1    2    0    0  0.20995649159E-01 -0.14783515646E-01 -0.15828015379E-02  0.10182030709E+01  0.10178779980E+01 0.  0.
     999903    2    3    3    0    0  0.39678395560E-01 -0.11772082626E+00  0.37117546027E-01  0.13116144179E+00  0.19825326766E-01 0.  0.
         14    1    1    2    0    0 -0.20995649159E-01  0.14783515646E-01  0.15828015379E-02  0.25726929066E-01  0.00000000000E+00 0. -1.
     999901    1    3    3    0    0 -0.18682746401E-01  0.10293731061E+00 -0.38700347565E-01  0.88704162914E+00  0.88000000000E+00 0.  1.
        -11    1    4    4    0    0  0.15518241646E-01 -0.35180759592E-01  0.20457989233E-01  0.43557916774E-01  0.51100000000E-03 0. -1.
         11    1    4    4    0    0  0.24160153913E-01 -0.82540066664E-01  0.16659556795E-01  0.87603525018E-01  0.51100000000E-03 0.  1.
</event>
<event>
 8    1  0.1112171E+005  0.1043930E+01  0.7957747E-01            NaN
         13   -1    0    0    0    0  0.00000000000E+00  0.00000000000E+00  0.74505805969E-08  0.10566000000E+00  0.10566000000E+00 0. -1.
     999900   -1    0    0    0    0 -0.00000000000E+00 -0.00000000000E+00 -0.74505805969E-08  0.93827000000E+00  0.93827000000E+00 0. -1.
     999902    2    1    2    0    0 -0.11843415691E-01 -0.18723150388E-01 -0.35327786090E-02  0.10214955760E+01  0.10212491902E+01 0.  0.
     999903    2    3    3    0    0  0.87597993121E-01 -0.14593382696E-01  0.93717472842E-01  0.13056165018E+00  0.19416605359E-01 0.  0.
         14    1    1    2    0    0  0.11843415691E-01  0.18723150388E-01  0.35327786090E-02  0.22434424004E-01  0.00000000000E+00 0. -1.
     999901    1    3    3    0    0 -0.99441408812E-01 -0.41297676921E-02 -0.97250251451E-01  0.89093392582E+00  0.88000000000E+00 0. -1.
        -11    1    4    4    0    0  0.66130849096E-01 -0.17090576061E-01  0.78867309537E-01  0.10433451311E+00  0.51100000000E-03 0.  1.
         11    1    4    4    0    0  0.21467144026E-01  0.24971933648E-02  0.14850163305E-01  0.26227137063E-01  0.51100000000E-03 0. -1.
</event>
<event>
 8    1  0.1112171E+005  0.1043930E+01  0.7957747E-01            NaN
         13   -1    0    0    0    0  0.00000000000E+00  0.00000000000E+00  0.74505805969E-08  0.10566000000E+00  0.10566000000E+00 0. -1.
     999900   -1    0    0    0    0 -0.00000000000E+00 -0.00000000000E+00 -0.74505805969E-08  0.93827000000E+00  0.93827000000E+00 0.  1.
     999902    2    1    2    0    0  0.44617978900E-03 -0.24147057140E-01  0.40107492211E-02  0.10194480566E+01  0.10191540485E+01 0.  0.
     999903    2    3    3    0    0 -0.67077687301E-01 -0.99116827986E-01 -0.51736120518E-01  0.13193036511E+00  0.20135375532E-01 0.  0.
         14    1    1    2    0    0 -0.44617978900E-03  0.24147057140E-01 -0.40107492211E-02  0.24481943432E-01  0.00000000000E+00 0.  1.
     999901    1    3    3    0    0  0.67523867090E-01  0.74969770846E-01  0.55746869739E-01  0.88751769146E+00  0.88000000000E+00 0. -1.
        -11    1    4    4    0    0 -0.16157692577E-01 -0.36795633623E-01 -0.10690102191E-01  0.41587607397E-01  0.51100000000E-03 0. -1.
         11    1    4    4    0    0 -0.50919994724E-01 -0.62321194363E-01 -0.41046018326E-01  0.90342757711E-01  0.51100000000E-03 0.  1.
</event>
<event>
 8    1  0.1112171E+005  0.1043930E+01  0.7957747E-01            NaN
         13   -1    0    0    0    0  0.00000000000E+00  0.00000000000E+00  0.74505805969E-08  0.10566000000E+00  0.10566000000E+00 0.  1.
     999900   -1    0    0    0    0 -0.00000000000E+00 -0.00000000000E+00 -0.74505805969E-08  0.93827000000E+00  0.93827000000E+00 0.  1.
     999902    2    1    2    0    0 -0.47463182028E-02  0.22093717014E-01  0.77843618457E-02  0.10200290344E+01  0.10197489764E+01 0.  0.
     999903    2    3    3    0    0 -0.33583108940E-01  0.55247896743E-01 -0.11164221915E+00  0.13087580328E+00  0.22007623392E-01 0.  0.
         14    1    1    2    0    0  0.47463182028E-02 -0.22093717014E-01 -0.77843618457E-02  0.23900965615E-01  0.00000000000E+00 0. -1.
     999901    1    3    3    0    0  0.28836790737E-01 -0.33154179729E-01  0.11942658100E+00  0.88915323110E+00  0.88000000000E+00 0. -1.
        -11    1    4    4    0    0 -0.20097719540E-01  0.27452862048E-01 -0.78539051182E-01  0.85593350483E-01  0.51100000000E-03 0.  1.
         11    1    4    4    0    0 -0.13485389400E-01  0.27795034695E-01 -0.33103167967E-01  0.45282452798E-01  0.51100000000E-03 0. -1.
</event>
<event>
 8    1  0.1112171E+005  0.1043930E+01  0.7957747E-01            NaN
         13   -1    0    0    0    0  0.00000000000E+00  0.00000000000E+00  0.74505805969E-08  0.10566000000E+00  0.10566000000E+00 0. -1.
     999900   -1    0    0    0    0 -0.00000000000E+00 -0.00000000000E+00 -0.74505805969E-08  0.93827000000E+00  0.93827000000E+00 0. -1.
     999902    2    1    2    0    0  0.10639388182E-01 -0.15988652381E-01  0.13730519775E-01  0.10203215109E+01  0.10200483443E+01 0.  0.
     999903    2    3    3    0    0 -0.65378263089E-02  0.12664723562E+00  0.70999428001E-02  0.12864667227E+00  0.20427717296E-01 0.  0.
         14    1    1    2    0    0 -0.10639388182E-01  0.15988652381E-01 -0.13730519775E-01  0.23608489133E-01  0.00000000000E+00 0.  1.
     999901    1    3    3    0    0  0.17177214491E-01 -0.14263588800E+00  0.66305769747E-02  0.89167483860E+00  0.88000000000E+00 0. -1.
        -11    1    4    4    0    0 -0.13246724904E-01  0.62882437515E-01  0.14733943969E-02  0.64281480074E-01  0.51100000000E-03 0. -1.
         11    1    4    4    0    0  0.67088985952E-02  0.63764798106E-01  0.56265484032E-02  0.64365192191E-01  0.51100000000E-03 0.  1.
</event>
<event>
 8    1  0.1112171E+005  0.1043930E+01  0.7957747E-01            NaN
         13   -1    0    0    0    0  0.00000000000E+00  0.00000000000E+00  0.74505805969E-08  0.10566000000E+00  0.10566000000E+00 0.  1.
     999900   -1    0    0    0    0 -0.00000000000E+00 -0.00000000000E+00 -0.74505805969E-08  0.93827000000E+00  0.93827000000E+00 0. -1.
     999902    2    1    2    0    0 -0.23960598590E-02  0.49944273679E-02  0.23209425017E-01  0.10200686753E+01  0.10197895565E+01 0.  0.
     999903    2    3    3    0    0  0.43720648263E-01 -0.64842416239E-01 -0.98992525242E-01  0.12769137159E+00  0.19736572588E-01 0.  0.
         14    1    1    2    0    0  0.23960598590E-02 -0.49944273679E-02 -0.23209425017E-01  0.23861324716E-01  0.00000000000E+00 0. -1.
     999901    1    3    3    0    0 -0.46116708122E-01  0.69836843607E-01  0.12220195026E+00  0.89237730369E+00  0.88000000000E+00 0.  1.
        -11    1    4    4    0    0  0.24750363855E-01 -0.19962153256E-01 -0.35608046232E-01  0.47741618647E-01  0.51100000000E-03 0.  1.
         11    1    4    4    0    0  0.18970284408E-01 -0.44880262984E-01 -0.63384479010E-01  0.79949752948E-01  0.51100000000E-03 0. -1.
</event>
<event>
 8    1  0.1112171E+005  0.1043930E+01  0.7957747E-01            NaN
         13   -1    0    0    0    0  0.00000000000E+00  0.00000000000E+00  0.74505805969E-08  0.10566000000E+00  0.10566000000E+00 0. -1.
     999900   -1    0    0    0    0 -0.00000000000E+00 -0.00000000000E+00 -0.74505805969E-08  0.93827000000E+00  0.93827000000E+00 0.  1.
     999902    2    1    2    0    0  0.14087189711E-01  0.17382771441E-01 -0.22935310338E-02  0.10214384473E+01  0.10211907911E+01 0.  0.
     999903    2    3    3    0    0 -0.58122294051E-01 -0.61639456964E-01  0.95951437257E-01  0.12952432819E+00  0.19805291225E-01 0.  0.
         14    1    1    2    0    0 -0.14087189711E-01 -0.17382771441E-01  0.22935310338E-02  0.22491552670E-01  0.00000000000E+00 0. -1.
     999901    1    3    3    0    0  0.72209483762E-01  0.79022228405E-01 -0.98244968291E-01  0.89191411914E+00  0.88000000000E+00 0.  1.
        -11    1    4    4    0    0 -0.22580866997E-01 -0.18451603454E-01  0.46363546816E-01  0.54774052422E-01  0.51100000000E-03 0. -1.
         11    1    4    4    0    0 -0.35541427054E-01 -0.43187853511E-01  0.49587890442E-01  0.74750275768E-01  0.51100000000E-03 0.  1.
</event>
<event>
 7    1  0.1112171E+005  0.1043930E+01  0.7957747E-01            NaN
         13   -1    0    0    0    0  0.00000000000E+00  0.00000000000E+00  0.74505805969E-08  0.10566000000E+00  0.10566000000E+00 0. -1.
     999900   -1    0    0    0    0 -0.00000000000E+00 -0.00000000000E+00 -0.74505805969E-08  0.93827000000E+00  0.93827000000E+00 0. -1.
     999903    2    1    2    0    0  0.60529555143E-01 -0.33854353529E-01 -0.83903161106E-01  0.11060903511E+00  0.19613105443E-01 0.  0.
         14    1    1    2    0    0 -0.25641895303E-01 -0.32658076278E-01 -0.15981964203E-01  0.44491346582E-01  0.00000000000E+00 0.  1.
     999901    1    1    2    0    0 -0.34887659840E-01  0.66512429807E-01  0.99885125309E-01  0.88882961831E+00  0.88000000000E+00 0.  1.
        -11    1    3    3    0    0  0.47810597162E-01 -0.20648114586E-01 -0.50742452872E-01  0.72713516498E-01  0.51100000000E-03 0. -1.
         11    1    3    3    0    0  0.12718957981E-01 -0.13206238943E-01 -0.33160708233E-01  0.37895518609E-01  0.51100000000E-03 0.  1.
</event>
<event>
 8    1  0.1112171E+005  0.1043930E+01  0.7957747E-01            NaN
         13   -1    0    0    0    0  0.00000000000E+00  0.00000000000E+00  0.74505805969E-08  0.10566000000E+00  0.10566000000E+00 0.  1.
     999900   -1    0    0    0    0 -0.00000000000E+00 -0.00000000000E+00 -0.74505805969E-08  0.93827000000E+00  0.93827000000E+00 0.  1.
     999902    2    1    2    0    0 -0.65782069266E-02  0.39751703789E-02  0.22782618939E-01  0.10198858217E+01  0.10196023572E+01 0.  0.
     999903    2    3    3    0    0 -0.29768762532E-01  0.11137329335E+00 -0.55803957764E-01  0.12957800483E+00  0.19651665052E-01 0.  0.
         14    1    1    2    0    0  0.65782069266E-02 -0.39751703789E-02 -0.22782618939E-01  0.24044178331E-01  0.00000000000E+00 0. -1.
     999901    1    3    3    0    0  0.23190555605E-01 -0.10739812297E+00  0.78586576702E-01  0.89030781684E+00  0.88000000000E+00 0. -1.
        -11    1    4    4    0    0 -0.75842919367E-02  0.64836375018E-01 -0.33948732602E-01  0.73580259418E-01  0.51100000000E-03 0. -1.
         11    1    4    4    0    0 -0.22184470595E-01  0.46536918332E-01 -0.21855225162E-01  0.55997745412E-01  0.51100000000E-03 0.  1.
</event>
<event>
 8    1  0.1112171E+005  0.1043930E+01  0.7957747E-01            NaN
         13   -1    0    0    0    0  0.00000000000E+00  0.00000000000E+00  0.74505805969E-08  0.10566000000E+00  0.10566000000E+00 0. -1.
     999900   -1    0    0    0    0 -0.00000000000E+00 -0.00000000000E+00 -0.74505805969E-08  0.93827000000E+00  0.93827000000E+00 0. -1.
     999902    2    1    2    0    0 -0.22264005522E-01  0.27436473350E-02 -0.74652454805E-02  0.10202880155E+01  0.10200140642E+01 0.  0.
     999903    2    3    3    0    0  0.26644723625E-01 -0.88427571075E-01  0.88052210275E-01  0.12909340192E+00  0.19558580286E-01 0.  0.
         14    1    1    2    0    0  0.22264005522E-01 -0.27436473350E-02  0.74652454805E-02  0.23641984533E-01  0.00000000000E+00 0. -1.
     999901    1    3    3    0    0 -0.48908729146E-01  0.91171218410E-01 -0.95517455756E-01  0.89119461354E+00  0.88000000000E+00 0. -1.
        -11    1    4    4    0    0  0.19610186843E-01 -0.50673918152E-01  0.39455422036E-01  0.67152042842E-01  0.51100000000E-03 0.  1.
         11    1    4    4    0    0  0.70345367823E-02 -0.37753652923E-01  0.48596788239E-01  0.61941359082E-01  0.51100000000E-03 0. -1.
</event>
<event>
 8    1  0.1112171E+005  0.1043930E+01  0.7957747E-01            NaN
         13   -1    0    0    0    0  0.00000000000E+00  0.00000000000E+00  0.74505805969E-08  0.10566000000E+00  0.10566000000E+00 0. -1.
     999900   -1    0    0    0    0 -0.00000000000E+00 -0.00000000000E+00 -0.74505805969E-08  0.93827000000E+00  0.93827000000E+00 0.  1.
     999902    2    1    2    0    0 -0.12771560574E-01 -0.18020928571E-01 -0.10405162733E-01  0.10195141437E+01  0.10192217400E+01 0.  0.
     999903    2    3    3    0    0 -0.19739700547E-01 -0.12859726213E+00  0.13359837495E-01  0.13224842493E+00  0.19602271115E-01 0.  0.
         14    1    1    2    0    0  0.12771560574E-01  0.18020928571E-01  0.10405162733E-01  0.24415856273E-01  0.00000000000E+00 0. -1.
     999901    1    3    3    0    0  0.69681399727E-02  0.11057633356E+00 -0.23765000228E-01  0.88726571880E+00  0.88000000000E+00 0. -1.
        -11    1    4    4    0    0  0.20368379762E-02 -0.48734617855E-01  0.58198402065E-02  0.49125791061E-01  0.51100000000E-03 0. -1.
         11    1    4    4    0    0 -0.21776538523E-01 -0.79862644277E-01  0.75399972885E-02  0.83122633867E-01  0.51100000000E-03 0.  1.
</event>
<event>
 8    1  0.1112171E+005  0.1043930E+01  0.7957747E-01            NaN
         13   -1    0    0    0    0  0.00000000000E+00  0.00000000000E+00  0.74505805969E-08  0.10566000000E+00  0.10566000000E+00 0.  1.
     999900   -1    0    0    0    0 -0.00000000000E+00 -0.00000000000E+00 -0.74505805969E-08  0.93827000000E+00  0.93827000000E+00 0.  1.
     999902    2    1    2    0    0  0.16389853337E-01  0.16429074779E-01 -0.48488733394E-02  0.10202223353E+01  0.10199468418E+01 0.  0.
     999903    2    3    3    0    0 -0.62239453445E-01  0.52688811135E-01 -0.10026453126E+00  0.13083969321E+00  0.20400703574E-01 0.  0.
         14    1    1    2    0    0 -0.16389853337E-01 -0.16429074779E-01  0.48488733394E-02  0.23707664650E-01  0.00000000000E+00 0.  1.
     999901    1    3    3    0    0  0.78629306781E-01 -0.36259736356E-01  0.95415657921E-01  0.88938264214E+00  0.88000000000E+00 0. -1.
        -11    1    4    4    0    0 -0.44975788647E-01  0.48705514269E-01 -0.77480927365E-01  0.10197354515E+00  0.51100000000E-03 0.  1.
         11    1    4    4    0    0 -0.17263664798E-01  0.39832968660E-02 -0.22783603895E-01  0.28866148056E-01  0.51100000000E-03 0. -1.
</event>
<event>
 8    1  0.1112171E+005  0.1043930E+01  0.7957747E-01            NaN
         13   -1    0    0    0    0  0.00000000000E+00  0.00000000000E+00  0.74505805969E-08  0.10566000000E+00  0.10566000000E+00 0.  1.
     999900   -1    0    0    0    0 -0.00000000000E+00 -0.00000000000E+00 -0.74505805969E-08  0.93827000000E+00  0.93827000000E+00 0. -1.
     999902    2    1    2    0    0 -0.29526704880E-02 -0.38370782489E-02  0.23439900022E-01  0.10199952899E+01  0.10197144312E+01 0.  0.
     999903    2    3    3    0    0  0.93200267304E-01 -0.40299467356E-01  0.82071241155E-01  0.13206932038E+00  0.19906779382E-01 0.  0.
         14    1    1    2    0    0  0.29526704880E-02  0.38370782489E-02 -0.23439900022E-01  0.23934710058E-01  0.00000000000E+00 0.  1.
     999901    1    3    3    0    0 -0.96152937792E-01  0.36462389107E-01 -0.58631341133E-01  0.88792596957E+00  0.88000000000E+00 0. -1.
        -11    1    4    4    0    0  0.61139239170E-01 -0.36422039419E-01  0.57133260112E-01  0.91263585585E-01  0.51100000000E-03 0.  1.
         11    1    4    4    0    0  0.32061028134E-01 -0.38774279362E-02  0.24937981043E-01  0.40805734792E-01  0.51100000000E-03 0. -1.
</event>
<event>
 8    1  0.1112171E+005  0.1043930E+01  0.7957747E-01            NaN
         13   -1    0    0    0    0  0.00000000000E+00  0.00000000000E+00  0.74505805969E-08  0.10566000000E+00  0.10566000000E+00 0. -1.
     999900   -1    0    0    0    0 -0.00000000000E+00 -0.00000000000E+00 -0.74505805969E-08  0.93827000000E+00  0.93827000000E+00 0.  1.
     999902    2    1    2    0    0  0.59404438109E-02 -0.20221683095E-01 -0.29455083474E-01  0.10077111198E+01  0.10070600249E+01 0.  0.
     999903    2    3    3    0    0 -0.43915021834E-01  0.96557824318E-01 -0.48849623831E-01  0.11838599984E+00  0.19416916099E-01 0.  0.
         14    1    1    2    0    0 -0.59404438109E-02  0.20221683095E-01  0.29455083474E-01  0.36218880192E-01  0.00000000000E+00 0. -1.
     999901    1    3    3    0    0  0.49855465644E-01 -0.11677950741E+00  0.19394540356E-01  0.88932511997E+00  0.88000000000E+00 0.  1.
        -11    1    4    4    0    0 -0.37656464457E-01  0.62755643365E-01 -0.37089465994E-01  0.82049800111E-01  0.51100000000E-03 0. -1.
         11    1    4    4    0    0 -0.62585573761E-02  0.33802180953E-01 -0.11760157837E-01  0.36336199732E-01  0.51100000000E-03 0.  1.
</event>
<event>
 8    1  0.1112171E+005  0.1043930E+01  0.7957747E-01            NaN
         13   -1    0    0    0    0  0.00000000000E+00  0.00000000000E+00  0.74505805969E-08  0.10566000000E+00  0.10566000000E+00 0. -1.
     999900   -1    0    0    0    0 -0.00000000000E+00 -0.00000000000E+00 -0.74505805969E-08  0.93827000000E+00  0.93827000000E+00 0.  1.
     999902    2    1    2    0    0 -0.14037276597E-01 -0.14925577994E-01 -0.11593530296E-01  0.10203879534E+01  0.10201163402E+01 0.  0.
     999903    2    3    3    0    0 -0.71475987601E-01  0.10323582993E+00  0.26867602873E-01  0.12980354831E+00  0.18990515677E-01 0.  0.
         14    1    1    2    0    0  0.14037276597E-01  0.14925577994E-01  0.11593530296E-01  0.23542046586E-01  0.00000000000E+00 0. -1.
     999901    1    3    3    0    0  0.57438711004E-01 -0.11816140792E+00 -0.38461133169E-01  0.89058440510E+00  0.88000000000E+00 0.  1.
        -11    1    4    4    0    0 -0.42776028644E-01  0.47434089179E-01  0.18472820852E-01  0.66492764073E-01  0.51100000000E-03 0.  1.
         11    1    4    4    0    0 -0.28699958957E-01  0.55801740750E-01  0.83947820207E-02  0.63310784240E-01  0.51100000000E-03 0. -1.
</event>
<event>
 8    1  0.1393777E+005  0.1043930E+01  0.7957747E-01            NaN
         13   -1    0    0    0    0  0.00000000000E+00  0.00000000000E+00  0.74505805969E-08  0.10566000000E+00  0.10566000000E+00 0. -1.
     999900   -1    0    0    0    0 -0.00000000000E+00 -0.00000000000E+00 -0.74505805969E-08  0.93827000000E+00  0.93827000000E+00 0.  1.
     999902    2    1    2    0    0 -0.14950096610E-01 -0.13360319336E-01  0.13573347957E-01  0.10197176210E+01  0.10194301287E+01 0.  0.
     999903    2    3    3    0    0  0.61895158989E-01 -0.13492287274E-01  0.11252879595E+00  0.13084339402E+00  0.21076321260E-01 0.  0.
         14    1    1    2    0    0  0.14950096610E-01  0.13360319336E-01 -0.13573347957E-01  0.24212378986E-01  0.00000000000E+00 0.  1.
     999901    1    3    3    0    0 -0.76845255599E-01  0.13196793800E-03 -0.98955447998E-01  0.88887422699E+00  0.88000000000E+00 0.  1.
        -11    1    4    4    0    0  0.34475762761E-01 -0.17798668320E-01  0.70533532003E-01  0.80502242638E-01  0.51100000000E-03 0.  1.
         11    1    4    4    0    0  0.27419396228E-01  0.43063810466E-02  0.41995263952E-01  0.50341151384E-01  0.51100000000E-03 0. -1.
</event>
<event>
 8    1  0.1112171E+005  0.1043930E+01  0.7957747E-01            NaN
         13   -1    0    0    0    0  0.00000000000E+00  0.00000000000E+00  0.74505805969E-08  0.10566000000E+00  0.10566000000E+00 0.  1.
     999900   -1    0    0    0    0 -0.00000000000E+00 -0.00000000000E+00 -0.74505805969E-08  0.93827000000E+00  0.93827000000E+00 0. -1.
     999902    2    1    2    0    0 -0.18484814678E-01 -0.89104340806E-02 -0.14389126291E-01  0.10188674549E+01  0.10185591586E+01 0.  0.
     999903    2    3    3    0    0  0.86820436746E-01  0.56793207664E-01 -0.72648441811E-01  0.12824951645E+00  0.20171407980E-01 0.  0.
         14    1    1    2    0    0  0.18484814678E-01  0.89104340806E-02  0.14389126291E-01  0.25062545055E-01  0.00000000000E+00 0.  1.
     999901    1    3    3    0    0 -0.10530525142E+00 -0.65703641744E-01  0.58259315520E-01  0.89061793849E+00  0.88000000000E+00 0.  1.
        -11    1    4    4    0    0  0.12144804875E-01  0.20995685790E-02 -0.14048485261E-01  0.18695601964E-01  0.51100000000E-03 0.  1.
         11    1    4    4    0    0  0.74675631871E-01  0.54693639085E-01 -0.58599956550E-01  0.10955391449E+00  0.51100000000E-03 0. -1.
</event>
<event>
 8    1  0.1112171E+005  0.1043930E+01  0.7957747E-01            NaN
         13   -1    0    0    0    0  0.00000000000E+00  0.00000000000E+00  0.74505805969E-08  0.10566000000E+00  0.10566000000E+00 0.  1.
     999900   -1    0    0    0    0 -0.00000000000E+00 -0.00000000000E+00 -0.74505805969E-08  0.93827000000E+00  0.93827000000E+00 0. -1.
     999902    2    1    2    0    0  0.22117028440E-01 -0.76827005088E-02 -0.14747607491E-02  0.10204702099E+01  0.10202005134E+01 0.  0.
     999903    2    3    3    0    0  0.97665834307E-01 -0.73552145218E-01 -0.49599573220E-01  0.13347392836E+00  0.20165282845E-01 0.  0.
         14    1    1    2    0    0 -0.22117028440E-01  0.76827005088E-02  0.14747607491E-02  0.23459790139E-01  0.00000000000E+00 0.  1.
     999901    1    3    3    0    0 -0.75548805867E-01  0.65869444709E-01  0.48124812471E-01  0.88699628150E+00  0.88000000000E+00 0. -1.
        -11    1    4    4    0    0  0.50118582165E-01 -0.30808591976E-01 -0.14741645239E-01  0.60651618635E-01  0.51100000000E-03 0. -1.
         11    1    4    4    0    0  0.47547252142E-01 -0.42743553242E-01 -0.34857927981E-01  0.72822309728E-01  0.51100000000E-03 0.  1.
</event>
<event>
 8    1  0.1112171E+005  0.1043930E+01  0.7957747E-01            NaN
         13   -1    0    0    0    0  0.00000000000E+00  0.00000000000E+00  0.74505805969E-08  0.10566000000E+00  0.10566000000E+00 0.  1.
     999900   -1    0    0    0    0 -0.00000000000E+00 -0.00000000000E+00 -0.74505805969E-08  0.93827000000E+00  0.93827000000E+00 0.  1.
     999902    2    1    2    0    0  0.99221605447E-02  0.18070732682E-01  0.11826240996E-01  0.10201632033E+01  0.10198863176E+01 0.  0.
     999903    2    3    3    0    0 -0.36680365474E-01  0.41787280871E-01 -0.11562861972E+00  0.12944494727E+00  0.17157815207E-01 0.  0.
         14    1    1    2    0    0 -0.99221605447E-02 -0.18070732682E-01 -0.11826240996E-01  0.23766796705E-01  0.00000000000E+00 0. -1.
     999901    1    3    3    0    0  0.46602526019E-01 -0.23716548190E-01  0.12745486072E+00  0.89071825602E+00  0.88000000000E+00 0. -1.
        -11    1    4    4    0    0 -0.34013133742E-01  0.29522063593E-01 -0.82156280004E-01  0.93692907794E-01  0.51100000000E-03 0. -1.
         11    1    4    4    0    0 -0.26672317318E-02  0.12265217278E-01 -0.33472339714E-01  0.35752039480E-01  0.51100000000E-03 0.  1.
</event>
<event>
 8    1  0.1112171E+005  0.1043930E+01  0.7957747E-01            NaN
         13   -1    0    0    0    0  0.00000000000E+00  0.00000000000E+00  0.74505805969E-08  0.10566000000E+00  0.10566000000E+00 0.  1.
     999900   -1    0    0    0    0 -0.00000000000E+00 -0.00000000000E+00 -0.74505805969E-08  0.93827000000E+00  0.93827000000E+00 0. -1.
     999902    2    1    2    0    0  0.21033781724E-01 -0.23629256524E-01  0.14060673334E-01  0.10093111573E+01  0.10087172785E+01 0.  0.
     999903    2    3    3    0    0  0.10373937378E+00  0.51831634923E-01 -0.29220286544E-01  0.12116263220E+00  0.19446908362E-01 0.  0.
         14    1    1    2    0    0 -0.21033781724E-01  0.23629256524E-01 -0.14060673334E-01  0.34618842732E-01  0.00000000000E+00 0. -1.
     999901    1    3    3    0    0 -0.82705592055E-01 -0.75460891447E-01  0.43280959878E-01  0.88814852507E+00  0.88000000000E+00 0.  1.
        -11    1    4    4    0    0  0.63329195337E-01  0.35117625749E-01 -0.27287265423E-01  0.77386630600E-01  0.51100000000E-03 0. -1.
         11    1    4    4    0    0  0.40410178442E-01  0.16714009174E-01 -0.19330211204E-02  0.43776001599E-01  0.51100000000E-03 0.  1.
</event>
<event>
 8    1  0.1112171E+005  0.1043930E+01  0.7957747E-01            NaN
         13   -1    0    0    0    0  0.00000000000E+00  0.00000000000E+00  0.74505805969E-08  0.10566000000E+00  0.10566000000E+00 0. -1.
     999900   -1    0    0    0    0 -0.00000000000E+00 -0.00000000000E+00 -0.74505805969E-08  0.93827000000E+00  0.93827000000E+00 0.  1.
     999902    2    1    2    0    0  0.11813920518E-01 -0.19634592639E-02  0.19565130243E-01  0.10209905534E+01  0.10207328210E+01 0.  0.
     999903    2    3    3    0    0 -0.12684990369E+00 -0.18580506412E-01 -0.59629620334E-03  0.12974969619E+00  0.19962334712E-01 0.  0.
         14    1    1    2    0    0 -0.11813920518E-01  0.19634592639E-02 -0.19565130243E-01  0.22939446630E-01  0.00000000000E+00 0.  1.
     999901    1    3    3    0    0  0.13866382420E+00  0.16617047148E-01  0.20161426446E-01  0.89124085718E+00  0.88000000000E+00 0.  1.
        -11    1    4    4    0    0 -0.62931075907E-01 -0.12371163423E-02  0.57874638927E-02  0.63210811029E-01  0.51100000000E-03 0.  1.
         11    1    4    4    0    0 -0.63918827779E-01 -0.17343390070E-01 -0.63837600961E-02  0.66538885156E-01  0.51100000000E-03 0. -1.
</event>
<event>
 8    1  0.1112171E+005  0.1043930E+01  0.7957747E-01            NaN
         13   -1    0    0    0    0  0.00000000000E+00  0.00000000000E+00  0.74505805969E-08  0.10566000000E+00  0.10566000000E+00 0.  1.
     999900   -1    0    0    0    0 -0.00000000000E+00 -0.00000000000E+00 -0.74505805969E-08  0.93827000000E+00  0.93827000000E+00 0. -1.
     999902    2    1    2    0    0  0.24865260387E-02  0.65462878119E-02  0.22837281161E-01  0.10200432232E+01  0.10197635015E+01 0.  0.
     999903    2    3    3    0    0  0.78746061422E-01 -0.85994733654E-03 -0.99314527907E-01  0.12830815405E+00  0.19948063679E-01 0.  0.
         14    1    1    2    0    0 -0.24865260387E-02 -0.65462878119E-02 -0.22837281161E-01  0.23886776817E-01  0.00000000000E+00 0. -1.
     999901    1    3    3    0    0 -0.76259535384E-01  0.74062351484E-02  0.12215180907E+00  0.89173506913E+00  0.88000000000E+00 0.  1.
        -11    1    4    4    0    0  0.95587942100E-02  0.58022651235E-03 -0.24923317752E-01  0.26704683079E-01  0.51100000000E-03 0. -1.
         11    1    4    4    0    0  0.69187267212E-01 -0.14401738489E-02 -0.74391210154E-01  0.10160347098E+00  0.51100000000E-03 0.  1.
</event>
<event>
 8    1  0.1112171E+005  0.1043930E+01  0.7957747E-01            NaN
         13   -1    0    0    0    0  0.00000000000E+00  0.00000000000E+00  0.74505805969E-08  0.10566000000E+00  0.10566000000E+00 0. -1.
     999900   -1    0    0    0    0 -0.00000000000E+00 -0.00000000000E+00 -0.74505805969E-08  0.93827000000E+00  0.93827000000E+00 0. -1.
     999902    2    1    2    0    0  0.85233873612E-04 -0.23347306547E-02 -0.23098819977E-01  0.10207133311E+01  0.10204492592E+01 0.  0.
     999903    2    3    3    0    0 -0.10238988676E+00 -0.73530795175E-01 -0.32858391160E-01  0.13185716768E+00  0.20400295329E-01 0.  0.
         14    1    1    2    0    0 -0.85233873612E-04  0.23347306547E-02  0.23098819977E-01  0.23216668933E-01  0.00000000000E+00 0. -1.
     999901    1    3    3    0    0  0.10247512064E+00  0.71196064521E-01  0.97595711835E-02  0.88885616338E+00  0.88000000000E+00 0.  1.
        -11    1    4    4    0    0 -0.42986331987E-01 -0.39941648063E-01 -0.22426980814E-01  0.62820303861E-01  0.51100000000E-03 0.  1.
         11    1    4    4    0    0 -0.59403554776E-01 -0.33589147112E-01 -0.10431410346E-01  0.69036863824E-01  0.51100000000E-03 0. -1.
</event>
<event>
 8    1  0.1112171E+005  0.1043930E+01  0.7957747E-01            NaN
         13   -1    0    0    0    0  0.00000000000E+00  0.00000000000E+00  0.74505805969E-08  0.10566000000E+00  0.10566000000E+00 0.  1.
     999900   -1    0    0    0    0 -0.00000000000E+00 -0.00000000000E+00 -0.74505805969E-08  0.93827000000E+00  0.93827000000E+00 0.  1.
     999902    2    1    2    0    0 -0.77777804195E-02  0.43808198234E-02  0.22556695768E-01  0.10196711877E+01  0.10193825783E+01 0.  0.
     999903    2    3    3    0    0 -0.44294486050E-03  0.46636022321E-01  0.12217200970E+00  0.13301312918E+00  0.24318260671E-01 0.  0.
         14    1    1    2    0    0  0.77777804195E-02 -0.43808198234E-02 -0.22556695768E-01  0.24258812307E-01  0.00000000000E+00 0. -1.
     999901    1    3    3    0    0 -0.73348355590E-02 -0.42255202497E-01 -0.99615313936E-01  0.88665805851E+00  0.88000000000E+00 0.  1.
        -11    1    4    4    0    0 -0.10437152801E-01  0.37757704509E-01  0.88695979185E-01  0.96962963306E-01  0.51100000000E-03 0.  1.
         11    1    4    4    0    0  0.99942079409E-02  0.88783178115E-02  0.33476030518E-01  0.36050165877E-01  0.51100000000E-03 0. -1.
</event>
<event>
 8    1  0.1112171E+005  0.1043930E+01  0.7957747E-01            NaN
         13   -1    0    0    0    0  0.00000000000E+00  0.00000000000E+00  0.74505805969E-08  0.10566000000E+00  0.10566000000E+00 0.  1.
     999900   -1    0    0    0    0 -0.00000000000E+00 -0.00000000000E+00 -0.74505805969E-08  0.93827000000E+00  0.93827000000E+00 0.  1.
     999902    2    1    2    0    0  0.19907068638E-01 -0.77463417240E-02 -0.13192725232E-01  0.10188233238E+01  0.10185139272E+01 0.  0.
     999903    2    3    3    0    0 -0.13931019780E-01 -0.72104485266E-01 -0.10640443157E+00  0.13091825618E+00  0.20604772180E-01 0.  0.
         14    1    1    2    0    0 -0.19907068638E-01  0.77463417240E-02  0.13192725232E-01  0.25106676222E-01  0.00000000000E+00 0.  1.
     999901    1    3    3    0    0  0.33838088418E-01  0.64358143542E-01  0.93211706335E-01  0.88790506760E+00  0.88000000000E+00 0. -1.
        -11    1    4    4    0    0 -0.14928845709E-02 -0.51461754705E-01 -0.80281470615E-01  0.95372514629E-01  0.51100000000E-03 0.  1.
         11    1    4    4    0    0 -0.12438135209E-01 -0.20642730561E-01 -0.26122960952E-01  0.35545741551E-01  0.51100000000E-03 0. -1.
</event>
<event>
 8    1  0.1112171E+005  0.1043930E+01  0.7957747E-01            NaN
         13   -1    0    0    0    0  0.00000000000E+00  0.00000000000E+00  0.74505805969E-08  0.10566000000E+00  0.10566000000E+00 0. -1.
     999900   -1    0    0    0    0 -0.00000000000E+00 -0.00000000000E+00 -0.74505805969E-08  0.93827000000E+00  0.93827000000E+00 0. -1.
     999902    2    1    2    0    0 -0.58371411945E-02 -0.40702099079E-02 -0.22565912215E-01  0.10202686556E+01  0.10199942501E+01 0.  0.
     999903    2    3    3    0    0 -0.51738212623E-02  0.12717281402E+00  0.15008286917E-01  0.12974241129E+00  0.20202761137E-01 0.  0.
         14    1    1    2    0    0  0.58371411945E-02  0.40702099079E-02  0.22565912215E-01  0.23661344428E-01  0.00000000000E+00 0. -1.
     999901    1    3    3    0    0 -0.66331993216E-03 -0.13124302393E+00 -0.37574199132E-01  0.89052624429E+00  0.88000000000E+00 0. -1.
        -11    1    4    4    0    0 -0.25791875098E-02  0.67959688821E-01  0.18138176033E-01  0.70387684034E-01  0.51100000000E-03 0. -1.
         11    1    4    4    0    0 -0.25946337525E-02  0.59213125200E-01 -0.31298891160E-02  0.59354727252E-01  0.51100000000E-03 0.  1.
</event>
<event>
 8    1  0.1112171E+005  0.1043930E+01  0.7957747E-01            NaN
         13   -1    0    0    0    0  0.00000000000E+00  0.00000000000E+00  0.74505805969E-08  0.10566000000E+00  0.10566000000E+00 0.  1.
     999900   -1    0    0    0    0 -0.00000000000E+00 -0.00000000000E+00 -0.74505805969E-08  0.93827000000E+00  0.93827000000E+00 0. -1.
     999902    2    1    2    0    0  0.20931214661E-01  0.59239637336E-02  0.10382695509E-01  0.10198258622E+01  0.10195409652E+01 0.  0.
     999903    2    3    3    0    0  0.48377024572E-01 -0.80857815572E-01 -0.87064458903E-01  0.12978075232E+00  0.19608692549E-01 0.  0.
         14    1    1    2    0    0 -0.20931214661E-01 -0.59239637336E-02 -0.10382695509E-01  0.24104137809E-01  0.00000000000E+00 0. -1.
     999901    1    3    3    0    0 -0.27445809911E-01  0.86781779305E-01  0.97447154411E-01  0.89004510987E+00  0.88000000000E+00 0. -1.
        -11    1    4    4    0    0  0.19313630705E-01 -0.35327633883E-01 -0.50333965400E-01  0.64457949399E-01  0.51100000000E-03 0.  1.
         11    1    4    4    0    0  0.29063393866E-01 -0.45530181689E-01 -0.36730493502E-01  0.65322802922E-01  0.51100000000E-03 0. -1.
</event>
<event>
 8    1  0.1112171E+005  0.1043930E+01  0.7957747E-01            NaN
         13   -1    0    0    0    0  0.00000000000E+00  0.00000000000E+00  0.74505805969E-08  0.10566000000E+00  0.10566000000E+00 0. -1.
     999900   -1    0    0    0    0 -0.00000000000E+00 -0.00000000000E+00 -0.74505805969E-08  0.93827000000E+00  0.93827000000E+00 0.  1.
     999902    2    1    2    0    0  0.10113357751E-01  0.12368228967E-01 -0.16627209671E-01  0.10208710062E+01  0.10206105497E+01 0.  0.
     999903    2    3    3    0    0  0.46222604486E-01  0.99578899300E-01  0.69987064106E-01  0.13159511475E+00  0.19146768221E-01 0.  0.
         14    1    1    2    0    0 -0.10113357751E-01 -0.12368228967E-01  0.16627209671E-01  0.23058993782E-01  0.00000000000E+00 0.  1.
     999901    1    3    3    0    0 -0.36109246735E-01 -0.87210670333E-01 -0.86614273777E-01  0.88927589147E+00  0.88000000000E+00 0.  1.
        -11    1    4    4    0    0  0.28741288661E-01  0.75731968080E-01  0.43762140087E-01  0.92069423204E-01  0.51100000000E-03 0. -1.
         11    1    4    4    0    0  0.17481315825E-01  0.23846931220E-01  0.26224924019E-01  0.39525691549E-01  0.51100000000E-03 0.  1.
</event>
<event>
 8    1  0.1112171E+005  0.1043930E+01  0.7957747E-01            NaN
         13   -1    0    0    0    0  0.00000000000E+00  0.00000000000E+00  0.74505805969E-08  0.10566000000E+00  0.10566000000E+00 0.  1.
     999900   -1    0    0    0    0 -0.00000000000E+00 -0.00000000000E+00 -0.74505805969E-08  0.93827000000E+00  0.93827000000E+00 0. -1.
     999902    2    1    2    0    0 -0.18944621832E-01  0.50632582838E-02  0.58461229131E-02  0.10234675360E+01  0.10232629597E+01 0.  0.
     999903    2    3    3    0    0  0.46093961598E-01 -0.19286843436E-01  0.12173388583E+00  0.13315696186E+00  0.20371595611E-01 0.  0.
         14    1    1    2    0    0  0.18944621832E-01 -0.50632582838E-02 -0.58461229131E-02  0.20462464024E-01  0.00000000000E+00 0.  1.
     999901    1    3    3    0    0 -0.65038583430E-01  0.24350101720E-01 -0.11588776291E+00  0.89031057412E+00  0.88000000000E+00 0. -1.
        -11    1    4    4    0    0  0.40497852115E-01 -0.20281108166E-01  0.88303268714E-01  0.99242771832E-01  0.51100000000E-03 0.  1.
         11    1    4    4    0    0  0.55961094833E-02  0.99426472974E-03  0.33430617113E-01  0.33914190028E-01  0.51100000000E-03 0. -1.
</event>
<event>
 8    1  0.1112171E+005  0.1043930E+01  0.7957747E-01            NaN
         13   -1    0    0    0    0  0.00000000000E+00  0.00000000000E+00  0.74505805969E-08  0.10566000000E+00  0.10566000000E+00 0.  1.
     999900   -1    0    0    0    0 -0.00000000000E+00 -0.00000000000E+00 -0.74505805969E-08  0.93827000000E+00  0.93827000000E+00 0. -1.
     999902    2    1    2    0    0 -0.77288647002E-03 -0.98763602943E-02 -0.21647961946E-01  0.10201229821E+01  0.10198451473E+01 0.  0.
     999903    2    3    3    0    0  0.37438229033E-01 -0.65815129230E-01 -0.10780197867E+00  0.13332438610E+00  0.20515191852E-01 0.  0.
         14    1    1    2    0    0  0.77288647002E-03  0.98763602943E-02  0.21647961946E-01  0.23807017927E-01  0.00000000000E+00 0.  1.
     999901    1    3    3    0    0 -0.38211115503E-01  0.55938768936E-01  0.86154016719E-01  0.88679859597E+00  0.88000000000E+00 0.  1.
        -11    1    4    4    0    0  0.85150593072E-02 -0.11505376537E-01 -0.36107399972E-01  0.38844373827E-01  0.51100000000E-03 0.  1.
         11    1    4    4    0    0  0.28923169726E-01 -0.54309752693E-01 -0.71694578693E-01  0.94480012275E-01  0.51100000000E-03 0. -1.
</event>
<event>
 8    1  0.1112171E+005  0.1043930E+01  0.7957747E-01            NaN
         13   -1    0    0    0    0  0.00000000000E+00  0.00000000000E+00  0.74505805969E-08  0.10566000000E+00  0.10566000000E+00 0.  1.
     999900   -1    0    0    0    0 -0.00000000000E+00 -0.00000000000E+00 -0.74505805969E-08  0.93827000000E+00  0.93827000000E+00 0.  1.
     999902    2    1    2    0    0 -0.10474491764E-01 -0.19113663665E-01 -0.94471446832E-02  0.10201750919E+01  0.10198984864E+01 0.  0.
     999903    2    3    3    0    0  0.10803789595E+00 -0.44942754030E-01  0.52487711823E-01  0.12969867199E+00  0.19358396741E-01 0.  0.
         14    1    1    2    0    0  0.10474491764E-01  0.19113663665E-01  0.94471446832E-02  0.23754908105E-01  0.00000000000E+00 0.  1.
     999901    1    3    3    0    0 -0.11851238771E+00  0.25829090365E-01 -0.61934856506E-01  0.89047641990E+00  0.88000000000E+00 0.  1.
        -11    1    4    4    0    0  0.42499820918E-01 -0.20697833373E-01  0.31220248473E-01  0.56653332825E-01  0.51100000000E-03 0.  1.
         11    1    4    4    0    0  0.65538075028E-01 -0.24244920656E-01  0.21267463349E-01  0.73045339169E-01  0.51100000000E-03 0. -1.
</event>
<event>
 8    1  0.1112171E+005  0.1043930E+01  0.7957747E-01            NaN
         13   -1    0    0    0    0  0.00000000000E+00  0.00000000000E+00  0.74505805969E-08  0.10566000000E+00  0.10566000000E+00 0. -1.
     999900   -1    0    0    0    0 -0.00000000000E+00 -0.00000000000E+00 -0.74505805969E-08  0.93827000000E+00  0.93827000000E+00 0. -1.
     999902    2    1    2    0    0  0.20560944991E-01 -0.93618848867E-02 -0.47788478335E-02  0.10208381241E+01  0.10205769157E+01 0.  0.
     999903    2    3    3    0    0 -0.47526688346E-01 -0.10345871756E+00  0.61603280827E-01  0.13072761029E+00  0.18227768341E-01 0.  0.
         14    1    1    2    0    0 -0.20560944991E-01  0.93618848867E-02  0.47788478335E-02  0.23091875934E-01  0.00000000000E+00 0.  1.
     999901    1    3    3    0    0  0.68087633337E-01  0.94096832673E-01 -0.66382128660E-01  0.89011051378E+00  0.88000000000E+00 0.  1.
        -11    1    4    4    0    0 -0.82946931518E-02 -0.34006162083E-01  0.13145482982E-01  0.37393660397E-01  0.51100000000E-03 0. -1.
         11    1    4    4    0    0 -0.39231995194E-01 -0.69452555477E-01  0.48457797844E-01  0.93333949891E-01  0.51100000000E-03 0.  1.
</event>
<event>
 8    1  0.1112171E+005  0.1043930E+01  0.7957747E-01            NaN
         13   -1    0    0    0    0  0.00000000000E+00  0.00000000000E+00  0.74505805969E-08  0.10566000000E+00  0.10566000000E+00 0.  1.
     999900   -1    0    0    0    0 -0.00000000000E+00 -0.00000000000E+00 -0.74505805969E-08  0.93827000000E+00  0.93827000000E+00 0.  1.
     999902    2    1    2    0    0  0.15129225853E-01 -0.17476962072E-01  0.68018813982E-02  0.10198342894E+01  0.10195495940E+01 0.  0.
     999903    2    3    3    0    0 -0.72008135976E-01  0.76790137075E-01  0.71020944868E-01  0.12820471727E+00  0.17623226756E-01 0.  0.
         14    1    1    2    0    0 -0.15129225853E-01  0.17476962072E-01 -0.68018813982E-02  0.24095710588E-01  0.00000000000E+00 0. -1.
     999901    1    3    3    0    0  0.87137361829E-01 -0.94267099146E-01 -0.64219063469E-01  0.89162957214E+00  0.88000000000E+00 0.  1.
        -11    1    4    4    0    0 -0.10859675052E-01  0.14021487161E-01  0.20268872488E-01  0.26937389580E-01  0.51100000000E-03 0. -1.
         11    1    4    4    0    0 -0.61148460924E-01  0.62768649913E-01  0.50752072380E-01  0.10126732769E+00  0.51100000000E-03 0.  1.
</event>
<event>
 8    1  0.1112171E+005  0.1043930E+01  0.7957747E-01            NaN
         13   -1    0    0    0    0  0.00000000000E+00  0.00000000000E+00  0.74505805969E-08  0.10566000000E+00  0.10566000000E+00 0. -1.
     999900   -1    0    0    0    0 -0.00000000000E+00 -0.00000000000E+00 -0.74505805969E-08  0.93827000000E+00  0.93827000000E+00 0.  1.
     999902    2    1    2    0    0  0.21090411677E-03 -0.42657781744E-02 -0.23240710861E-01  0.10203001040E+01  0.10200264360E+01 0.  0.
     999903    2    3    3    0    0  0.10276590241E+00  0.16186349886E-01  0.73810320458E-01  0.12880993585E+00  0.17922263959E-01 0.  0.
         14    1    1    2    0    0 -0.21090411677E-03  0.42657781744E-02  0.23240710861E-01  0.23629896007E-01  0.00000000000E+00 0. -1.
     999901    1    3    3    0    0 -0.10255499830E+00 -0.20452128061E-01 -0.97051031319E-01  0.89149016814E+00  0.88000000000E+00 0.  1.
        -11    1    4    4    0    0  0.61030409203E-01  0.17271400247E-01  0.39089012919E-01  0.74506537740E-01  0.51100000000E-03 0. -1.
         11    1    4    4    0    0  0.41735493211E-01 -0.10850503612E-02  0.34721307539E-01  0.54303398108E-01  0.51100000000E-03 0.  1.
</event>
<event>
 8    1  0.1112171E+005  0.1043930E+01  0.7957747E-01            NaN
         13   -1    0    0    0    0  0.00000000000E+00  0.00000000000E+00  0.74505805969E-08  0.10566000000E+00  0.10566000000E+00 0. -1.
     999900   -1    0    0    0    0 -0.00000000000E+00 -0.00000000000E+00 -0.74505805969E-08  0.93827000000E+00  0.93827000000E+00 0.  1.
     999902    2    1    2    0    0 -0.36493683160E-03 -0.75967213268E-02  0.22323508303E-01  0.10203464808E+01  0.10200738986E+01 0.  0.
     999903    2    3    3    0    0  0.44711372108E-01  0.11308825778E+00  0.43804083396E-01  0.13070714215E+00  0.19429319138E-01 0.  0.
         14    1    1    2    0    0  0.36493683160E-03  0.75967213268E-02 -0.22323508303E-01  0.23583519177E-01  0.00000000000E+00 0.  1.
     999901    1    3    3    0    0 -0.45076308940E-01 -0.12068497911E+00 -0.21480575093E-01  0.88963933867E+00  0.88000000000E+00 0. -1.
        -11    1    4    4    0    0  0.12108382065E-01  0.19909374847E-01  0.16559497685E-02  0.23366630345E-01  0.51100000000E-03 0. -1.
         11    1    4    4    0    0  0.32602990044E-01  0.93178882936E-01  0.42148133628E-01  0.10734051180E+00  0.51100000000E-03 0.  1.
</event>
<event>
 8    1  0.1112171E+005  0.1043930E+01  0.7957747E-01            NaN
         13   -1    0    0    0    0  0.00000000000E+00  0.00000000000E+00  0.74505805969E-08  0.10566000000E+00  0.10566000000E+00 0.  1.
     999900   -1    0    0    0    0 -0.00000000000E+00 -0.00000000000E+00 -0.74505805969E-08  0.93827000000E+00  0.93827000000E+00 0. -1.
     999902    2    1    2    0    0  0.36127219521E-02 -0.11630285404E-01 -0.20041341992E-01  0.10204785462E+01  0.10202090435E+01 0.  0.
     999903    2    3    3    0    0  0.65792152907E-01 -0.51310650285E-01 -0.10236397973E+00  0.13356376464E+00  0.19987612722E-01 0.  0.
         14    1    1    2    0    0 -0.36127219521E-02  0.11630285404E-01  0.20041341992E-01  0.23451453842E-01  0.00000000000E+00 0.  1.
     999901    1    3    3    0    0 -0.62179430955E-01  0.39680364882E-01  0.82322637736E-01  0.88691478152E+00  0.88000000000E+00 0.  1.
        -11    1    4    4    0    0  0.10503824893E-01 -0.30653406957E-02 -0.22995005255E-01  0.25470729056E-01  0.51100000000E-03 0.  1.
         11    1    4    4    0    0  0.55288328014E-01 -0.48245309590E-01 -0.79368974472E-01  0.10809303558E+00  0.51100000000E-03 0. -1.
</event>
<event>
 8    1  0.1112171E+005  0.1043930E+01  0.7957747E-01            NaN
         13   -1    0    0    0    0  0.00000000000E+00  0.00000000000E+00  0.74505805969E-08  0.10566000000E+00  0.10566000000E+00 0.  1.
     999900   -1    0    0    0    0 -0.00000000000E+00 -0.00000000000E+00 -0.74505805969E-08  0.93827000000E+00  0.93827000000E+00 0.  1.
     999902    2    1    2    0    0 -0.19180365808E-01  0.37134726324E-02  0.12108154365E-01  0.10209455767E+01  0.10206868212E+01 0.  0.
     999903    2    3    3    0    0  0.85940894367E-01 -0.13918224955E-01 -0.92057723075E-01  0.12841440856E+00  0.20882567818E-01 0.  0.
         14    1    1    2    0    0  0.19180365808E-01 -0.37134726324E-02 -0.12108154365E-01  0.22984423283E-01  0.00000000000E+00 0.  1.
     999901    1    3    3    0    0 -0.10512126018E+00  0.17631697588E-01  0.10416587744E+00  0.89253116815E+00  0.88000000000E+00 0. -1.
        -11    1    4    4    0    0  0.62992016023E-01 -0.35382709140E-02 -0.55578956692E-01  0.84082072951E-01  0.51100000000E-03 0.  1.
         11    1    4    4    0    0  0.22948878344E-01 -0.10379954041E-01 -0.36478766383E-01  0.44332335614E-01  0.51100000000E-03 0. -1.
</event>
<event>
 8    1  0.1112171E+005  0.1043930E+01  0.7957747E-01            NaN
         13   -1    0    0    0    0  0.00000000000E+00  0.00000000000E+00  0.74505805969E-08  0.10566000000E+00  0.10566000000E+00 0.  1.
     999900   -1    0    0    0    0 -0.00000000000E+00 -0.00000000000E+00 -0.74505805969E-08  0.93827000000E+00  0.93827000000E+00 0.  1.
     999902    2    1    2    0    0 -0.62327022311E-02  0.25456459954E-01 -0.56263992581E-02  0.10171245099E+01  0.10167712301E+01 0.  0.
     999903    2    3    3    0    0  0.51274998064E-01  0.26440751329E-01  0.11188557309E+00  0.12745200383E+00  0.19934719927E-01 0.  0.
         14    1    1    2    0    0  0.62327022311E-02 -0.25456459954E-01  0.56263992581E-02  0.26805490092E-01  0.00000000000E+00 0.  1.
     999901    1    3    3    0    0 -0.57507700295E-01 -0.98429137502E-03 -0.11751197234E+00  0.88967250608E+00  0.88000000000E+00 0.  1.
        -11    1    4    4    0    0  0.16777960889E-01  0.62424480224E-02  0.17917656299E-01  0.25333212531E-01  0.51100000000E-03 0.  1.
         11    1    4    4    0    0  0.34497037175E-01  0.20198303306E-01  0.93967916788E-01  0.10211879130E+00  0.51100000000E-03 0. -1.
</event>
<event>
 7    1  0.1112171E+005  0.1043930E+01  0.7957747E-01            NaN
         13   -1    0    0    0    0  0.00000000000E+00  0.00000000000E+00  0.74505805969E-08  0.10566000000E+00  0.10566000000E+00 0. -1.
     999900   -1    0    0    0    0 -0.00000000000E+00 -0.00000000000E+00 -0.74505805969E-08  0.93827000000E+00  0.93827000000E+00 0.  1.
     999902    2    1    2    0    0  0.41244257529E-02  0.19556848301E-01  0.12567106732E-01  0.10203203966E+01  0.10200472039E+01 0.  0.
         14    1    1    2    0    0 -0.41244257529E-02 -0.19556848301E-01 -0.12567106732E-01  0.23609603446E-01  0.00000000000E+00 0.  1.
     999901    1    3    3    0    0 -0.62567364696E-01 -0.49479650028E-01 -0.72535113422E-01  0.88658008864E+00  0.88000000000E+00 0. -1.
        -11    1    3    3    0    0  0.60519731000E-01  0.39514225380E-01  0.52568330756E-01  0.89373946804E-01  0.51100000000E-03 0.  1.
         11    1    3    3    0    0  0.61720594485E-02  0.29522272949E-01  0.32533889398E-01  0.44366361111E-01  0.51100000000E-03 0. -1.
</event>
<event>
 8    1  0.1112171E+005  0.1043930E+01  0.7957747E-01            NaN
         13   -1    0    0    0    0  0.00000000000E+00  0.00000000000E+00  0.74505805969E-08  0.10566000000E+00  0.10566000000E+00 0.  1.
     999900   -1    0    0    0    0 -0.00000000000E+00 -0.00000000000E+00 -0.74505805969E-08  0.93827000000E+00  0.93827000000E+00 0.  1.
     999902    2    1    2    0    0  0.27322403697E-01  0.22416740193E-02 -0.17827514441E-02  0.10164578860E+01  0.10160865696E+01 0.  0.
     999903    2    3    3    0    0 -0.10654892987E+00  0.29357940627E-01 -0.53392794281E-01  0.12442625964E+00  0.20409323165E-01 0.  0.
         14    1    1    2    0    0 -0.27322403697E-01 -0.22416740193E-02  0.17827514441E-02  0.27472114023E-01  0.00000000000E+00 0. -1.
     999901    1    3    3    0    0  0.13387133357E+00 -0.27116266607E-01  0.51610042837E-01  0.89203162634E+00  0.88000000000E+00 0. -1.
        -11    1    4    4    0    0 -0.51491936559E-01  0.13549901897E-01 -0.37009096585E-01  0.64845614525E-01  0.51100000000E-03 0. -1.
         11    1    4    4    0    0 -0.55056993311E-01  0.15808038730E-01 -0.16383697696E-01  0.59580645114E-01  0.51100000000E-03 0.  1.
</event>
<event>
 8    1  0.1112171E+005  0.1043930E+01  0.7957747E-01            NaN
         13   -1    0    0    0    0  0.00000000000E+00  0.00000000000E+00  0.74505805969E-08  0.10566000000E+00  0.10566000000E+00 0. -1.
     999900   -1    0    0    0    0 -0.00000000000E+00 -0.00000000000E+00 -0.74505805969E-08  0.93827000000E+00  0.93827000000E+00 0.  1.
     999902    2    1    2    0    0  0.12965867368E-01  0.14984034558E-01 -0.12040066688E-01  0.10207438357E+01  0.10204804652E+01 0.  0.
     999903    2    3    3    0    0  0.12069192501E+00  0.53070276261E-01 -0.50520028280E-02  0.13332944642E+00  0.19189152276E-01 0.  0.
         14    1    1    2    0    0 -0.12965867368E-01 -0.14984034558E-01  0.12040066688E-01  0.23186164281E-01  0.00000000000E+00 0. -1.
     999901    1    3    3    0    0 -0.10772605764E+00 -0.38086241702E-01 -0.69880638598E-02  0.88741438930E+00  0.88000000000E+00 0. -1.
        -11    1    4    4    0    0  0.30388479795E-01  0.21594692213E-01  0.27108472700E-02  0.37381817103E-01  0.51100000000E-03 0.  1.
         11    1    4    4    0    0  0.90303445213E-01  0.31475584048E-01 -0.77628500980E-02  0.95947629315E-01  0.51100000000E-03 0. -1.
</event>
<event>
 8    1  0.1112171E+005  0.1043930E+01  0.7957747E-01            NaN
         13   -1    0    0    0    0  0.00000000000E+00  0.00000000000E+00  0.74505805969E-08  0.10566000000E+00  0.10566000000E+00 0. -1.
     999900   -1    0    0    0    0 -0.00000000000E+00 -0.00000000000E+00 -0.74505805969E-08  0.93827000000E+00  0.93827000000E+00 0. -1.
     999902    2    1    2    0    0  0.11651957018E-02 -0.22701919424E-01  0.32010532127E-02  0.10209739209E+01  0.10207158104E+01 0.  0.
     999903    2    3    3    0    0  0.11561693616E+00 -0.62035109414E-02  0.59102612144E-01  0.13165036747E+00  0.20807234752E-01 0.  0.
         14    1    1    2    0    0 -0.11651957018E-02  0.22701919424E-01 -0.32010532127E-02  0.22956079112E-01  0.00000000000E+00 0. -1.
     999901    1    3    3    0    0 -0.11445174045E+00 -0.16498408482E-01 -0.55901558932E-01  0.88932355342E+00  0.88000000000E+00 0.  1.
        -11    1    4    4    0    0  0.26097543555E-01  0.62821531775E-02  0.18224737538E-01  0.32449181923E-01  0.51100000000E-03 0. -1.
         11    1    4    4    0    0  0.89519392602E-01 -0.12485664119E-01  0.40877874606E-01  0.99201185546E-01  0.51100000000E-03 0.  1.
</event>
<event>
 8    1  0.1112171E+005  0.1043930E+01  0.7957747E-01            NaN
         13   -1    0    0    0    0  0.00000000000E+00  0.00000000000E+00  0.74505805969E-08  0.10566000000E+00  0.10566000000E+00 0.  1.
     999900   -1    0    0    0    0 -0.00000000000E+00 -0.00000000000E+00 -0.74505805969E-08  0.93827000000E+00  0.93827000000E+00 0.  1.
     999902    2    1    2    0    0 -0.13903371094E-01  0.41888919457E-02 -0.18182834639E-01  0.10206605776E+01  0.10203952904E+01 0.  0.
     999903    2    3    3    0    0  0.89672609529E-01  0.34240135589E-01 -0.87477318586E-01  0.13137278025E+00  0.19823277684E-01 0.  0.
         14    1    1    2    0    0  0.13903371094E-01 -0.41888919457E-02  0.18182834639E-01  0.23269422404E-01  0.00000000000E+00 0. -1.
     999901    1    3    3    0    0 -0.10357598062E+00 -0.30051243643E-01  0.69294483947E-01  0.88928779735E+00  0.88000000000E+00 0. -1.
        -11    1    4    4    0    0  0.38136316130E-01  0.57846016895E-02 -0.41620502788E-01  0.56748282776E-01  0.51100000000E-03 0.  1.
         11    1    4    4    0    0  0.51536293399E-01  0.28455533899E-01 -0.45856815798E-01  0.74624497472E-01  0.51100000000E-03 0. -1.
</event>
<event>
 8    1  0.1112171E+005  0.1043930E+01  0.7957747E-01            NaN
         13   -1    0    0    0    0  0.00000000000E+00  0.00000000000E+00  0.74505805969E-08  0.10566000000E+00  0.10566000000E+00 0. -1.
     999900   -1    0    0    0    0 -0.00000000000E+00 -0.00000000000E+00 -0.74505805969E-08  0.93827000000E+00  0.93827000000E+00 0.  1.
     999902    2    1    2    0    0  0.14968544452E-01  0.94933517536E-02 -0.15390836811E-01  0.10204553561E+01  0.10201853139E+01 0.  0.
     999903    2    3    3    0    0 -0.96208114072E-01  0.53675374202E-01  0.63916591766E-01  0.12882652704E+00  0.19336399786E-01 0.  0.
         14    1    1    2    0    0 -0.14968544452E-01 -0.94933517536E-02  0.15390836811E-01  0.23474643944E-01  0.00000000000E+00 0. -1.
     999901    1    3    3    0    0  0.11117665852E+00 -0.44182022449E-01 -0.79307428577E-01  0.89162882902E+00  0.88000000000E+00 0.  1.
        -11    1    4    4    0    0 -0.69557012808E-01  0.46674895032E-01  0.42553286769E-01  0.93956198268E-01  0.51100000000E-03 0.  1.
         11    1    4    4    0    0 -0.26651101264E-01  0.70004791704E-02  0.21363304996E-01  0.34870328771E-01  0.51100000000E-03 0. -1.
</event>
<event>
 8    1  0.1112171E+005  0.1043930E+01  0.7957747E-01            NaN
         13   -1    0    0    0    0  0.00000000000E+00  0.00000000000E+00  0.74505805969E-08  0.10566000000E+00  0.10566000000E+00 0. -1.
     999900   -1    0    0    0    0 -0.00000000000E+00 -0.00000000000E+00 -0.74505805969E-08  0.93827000000E+00  0.93827000000E+00 0. -1.
     999902    2    1    2    0    0 -0.90019310377E-02  0.12843731153E-01  0.18193349357E-01  0.10199092974E+01  0.10196263927E+01 0.  0.
     999903    2    3    3    0    0 -0.12407089587E-01 -0.10261966193E+00  0.76877676585E-01  0.13042223145E+00  0.20372786037E-01 0.  0.
         14    1    1    2    0    0  0.90019310377E-02 -0.12843731153E-01 -0.18193349357E-01  0.24020702595E-01  0.00000000000E+00 0.  1.
     999901    1    3    3    0    0  0.34051585497E-02  0.11546339309E+00 -0.58684327229E-01  0.88948706596E+00  0.88000000000E+00 0. -1.
        -11    1    4    4    0    0 -0.10378266395E-01 -0.10113835871E+00  0.70994063500E-01  0.12400441198E+00  0.51100000000E-03 0. -1.
         11    1    4    4    0    0 -0.20288231920E-02 -0.14813032169E-02  0.58836130855E-02  0.64178194665E-02  0.51100000000E-03 0.  1.
</event>
<event>
 8    1  0.1112171E+005  0.1043930E+01  0.7957747E-01            NaN
         13   -1    0    0    0    0  0.00000000000E+00  0.00000000000E+00  0.74505805969E-08  0.10566000000E+00  0.10566000000E+00 0.  1.
     999900   -1    0    0    0    0 -0.00000000000E+00 -0.00000000000E+00 -0.74505805969E-08  0.93827000000E+00  0.93827000000E+00 0.  1.
     999902    2    1    2    0    0 -0.35887110103E-02 -0.80402891438E-02 -0.14274214033E-01  0.10271586470E+01  0.10270217173E+01 0.  0.
     999903    2    3    3    0    0 -0.53473612981E-02  0.68313779118E-01  0.11407258489E+00  0.13457479243E+00  0.20061242354E-01 0.  0.
         14    1    1    2    0    0  0.35887110103E-02  0.80402891438E-02  0.14274214033E-01  0.16771353031E-01  0.00000000000E+00 0.  1.
     999901    1    3    3    0    0  0.17586502878E-02 -0.76354068262E-01 -0.12834679892E+00  0.89258385454E+00  0.88000000000E+00 0.  1.
        -11    1    4    4    0    0  0.71099976261E-02  0.29076679977E-01  0.42106832304E-01  0.51664802646E-01  0.51100000000E-03 0. -1.
         11    1    4    4    0    0 -0.12457358924E-01  0.39237099141E-01  0.71965752582E-01  0.82909989784E-01  0.51100000000E-03 0.  1.
</event>
<event>
 8    1  0.1112171E+005  0.1043930E+01  0.7957747E-01            NaN
         13   -1    0    0    0    0  0.00000000000E+00  0.00000000000E+00  0.74505805969E-08  0.10566000000E+00  0.10566000000E+00 0.  1.
     999900   -1    0    0    0    0 -0.00000000000E+00 -0.00000000000E+00 -0.74505805969E-08  0.93827000000E+00  0.93827000000E+00 0. -1.
     999902    2    1    2    0    0 -0.14563462433E-01 -0.18835644106E-01  0.19790488114E-02  0.10200387346E+01  0.10197589066E+01 0.  0.
     999903    2    3    3    0    0  0.11348636634E+00 -0.79742711753E-02  0.56350739401E-01  0.12904434137E+00  0.23114754221E-01 0.  0.
         14    1    1    2    0    0  0.14563462433E-01  0.18835644106E-01 -0.19790488114E-02  0.23891265373E-01  0.00000000000E+00 0. -1.
     999901    1    3    3    0    0 -0.12804982878E+00 -0.10861372930E-01 -0.54371690590E-01  0.89099439325E+00  0.88000000000E+00 0. -1.
        -11    1    4    4    0    0  0.82471254775E-01 -0.15809711325E-01  0.38128100004E-01  0.92225094022E-01  0.51100000000E-03 0. -1.
         11    1    4    4    0    0  0.31015111569E-01  0.78354401494E-02  0.18222639397E-01  0.36819247352E-01  0.51100000000E-03 0.  1.
</event>
<event>
 8    1  0.1112171E+005  0.1043930E+01  0.7957747E-01            NaN
         13   -1    0    0    0    0  0.00000000000E+00  0.00000000000E+00  0.74505805969E-08  0.10566000000E+00  0.10566000000E+00 0. -1.
     999900   -1    0    0    0    0 -0.00000000000E+00 -0.00000000000E+00 -0.74505805969E-08  0.93827000000E+00  0.93827000000E+00 0.  1.
     999902    2    1    2    0    0  0.10047869393E-01  0.27898501863E-02 -0.20978461400E-01  0.10205026914E+01  0.10202337499E+01 0.  0.
     999903    2    3    3    0    0 -0.97455328492E-01  0.29808157511E-01  0.75308683233E-01  0.12833782960E+00  0.20325684025E-01 0.  0.
         14    1    1    2    0    0 -0.10047869393E-01 -0.27898501863E-02  0.20978461400E-01  0.23427308555E-01  0.00000000000E+00 0. -1.
     999901    1    3    3    0    0  0.10750319788E+00 -0.27018307325E-01 -0.96287144633E-01  0.89216486184E+00  0.88000000000E+00 0.  1.
        -11    1    4    4    0    0 -0.13622700884E-01  0.98544586004E-02  0.19098535601E-01  0.25450019976E-01  0.51100000000E-03 0. -1.
         11    1    4    4    0    0 -0.83832627608E-01  0.19953698911E-01  0.56210147632E-01  0.10288780963E+00  0.51100000000E-03 0.  1.
</event>
<event>
 8    1  0.1112171E+005  0.1043930E+01  0.7957747E-01            NaN
         13   -1    0    0    0    0  0.00000000000E+00  0.00000000000E+00  0.74505805969E-08  0.10566000000E+00  0.10566000000E+00 0. -1.
     999900   -1    0    0    0    0 -0.00000000000E+00 -0.00000000000E+00 -0.74505805969E-08  0.93827000000E+00  0.93827000000E+00 0. -1.
     999902    2    1    2    0    0 -0.19320090565E-02  0.42173324387E-02  0.20625694769E-01  0.10227890957E+01  0.10225705826E+01 0.  0.
     999903    2    3    3    0    0 -0.11540225935E+00  0.28261393154E-01 -0.54065474407E-01  0.13204087909E+00  0.19882917856E-01 0.  0.
         14    1    1    2    0    0  0.19320090565E-02 -0.42173324387E-02 -0.20625694769E-01  0.21140904347E-01  0.00000000000E+00 0.  1.
     999901    1    3    3    0    0  0.11347025029E+00 -0.24044060715E-01  0.74691169176E-01  0.89074821656E+00  0.88000000000E+00 0.  1.
        -11    1    4    4    0    0 -0.39379978902E-01  0.24562201119E-02 -0.24709954590E-01  0.46558122088E-01  0.51100000000E-03 0. -1.
         11    1    4    4    0    0 -0.76022280446E-01  0.25805173042E-01 -0.29355519818E-01  0.85482757002E-01  0.51100000000E-03 0.  1.
</event>
<event>
 8    1  0.1112171E+005  0.1043930E+01  0.7957747E-01            NaN
         13   -1    0    0    0    0  0.00000000000E+00  0.00000000000E+00  0.74505805969E-08  0.10566000000E+00  0.10566000000E+00 0. -1.
     999900   -1    0    0    0    0 -0.00000000000E+00 -0.00000000000E+00 -0.74505805969E-08  0.93827000000E+00  0.93827000000E+00 0. -1.
     999902    2    1    2    0    0  0.16140898486E-01 -0.92491965880E-02 -0.16376827736E-01  0.10191453933E+01  0.10188439802E+01 0.  0.
     999903    2    3    3    0    0  0.51193965490E-01 -0.77850112744E-01 -0.92778583852E-01  0.13248196702E+00  0.16190855667E-01 0.  0.
         14    1    1    2    0    0 -0.16140898486E-01  0.92491965880E-02  0.16376827736E-01  0.24784606678E-01  0.00000000000E+00 0. -1.
     999901    1    3    3    0    0 -0.35053067003E-01  0.68600916156E-01  0.76401756116E-01  0.88666342630E+00  0.88000000000E+00 0.  1.
        -11    1    4    4    0    0  0.21797342581E-01 -0.28007304285E-01 -0.45812001694E-01  0.57952858921E-01  0.51100000000E-03 0. -1.
         11    1    4    4    0    0  0.29396622909E-01 -0.49842808458E-01 -0.46966582158E-01  0.74529108099E-01  0.51100000000E-03 0.  1.
</event>
<event>
 8    1  0.1112171E+005  0.1043930E+01  0.7957747E-01            NaN
         13   -1    0    0    0    0  0.00000000000E+00  0.00000000000E+00  0.74505805969E-08  0.10566000000E+00  0.10566000000E+00 0.  1.
     999900   -1    0    0    0    0 -0.00000000000E+00 -0.00000000000E+00 -0.74505805969E-08  0.93827000000E+00  0.93827000000E+00 0. -1.
     999902    2    1    2    0    0  0.19617531891E-02 -0.18062887661E-01 -0.15974440332E-01  0.10197370438E+01  0.10194500181E+01 0.  0.
     999903    2    3    3    0    0  0.56140489283E-01 -0.96606779900E-01 -0.69250471119E-01  0.13297731652E+00  0.20067747733E-01 0.  0.
         14    1    1    2    0    0 -0.19617531891E-02  0.18062887661E-01  0.15974440332E-01  0.24192956209E-01  0.00000000000E+00 0.  1.
     999901    1    3    3    0    0 -0.54178736094E-01  0.78543892240E-01  0.53276030788E-01  0.88675972727E+00  0.88000000000E+00 0.  1.
        -11    1    4    4    0    0  0.20228539058E-01 -0.30026181077E-01 -0.12134481261E-01  0.38187329037E-01  0.51100000000E-03 0. -1.
         11    1    4    4    0    0  0.35911950225E-01 -0.66580598823E-01 -0.57115989859E-01  0.94789987483E-01  0.51100000000E-03 0.  1.
</event>
<event>
 8    1  0.1112171E+005  0.1043930E+01  0.7957747E-01            NaN
         13   -1    0    0    0    0  0.00000000000E+00  0.00000000000E+00  0.74505805969E-08  0.10566000000E+00  0.10566000000E+00 0. -1.
     999900   -1    0    0    0    0 -0.00000000000E+00 -0.00000000000E+00 -0.74505805969E-08  0.93827000000E+00  0.93827000000E+00 0.  1.
     999902    2    1    2    0    0  0.12859104882E-01  0.69142371824E-02 -0.20822549528E-01  0.10184988808E+01  0.10181813338E+01 0.  0.
     999903    2    3    3    0    0  0.82996522013E-01  0.88656237501E-01 -0.46448332311E-01  0.13156162675E+00  0.20066463208E-01 0.  0.
         14    1    1    2    0    0 -0.12859104882E-01 -0.69142371824E-02  0.20822549528E-01  0.25431119185E-01  0.00000000000E+00 0. -1.
     999901    1    3    3    0    0 -0.70137417131E-01 -0.81742000319E-01  0.25625782783E-01  0.88693725406E+00  0.88000000000E+00 0. -1.
        -11    1    4    4    0    0  0.64490343911E-01  0.72331852304E-01 -0.28398014194E-01  0.10098321468E+00  0.51100000000E-03 0.  1.
         11    1    4    4    0    0  0.18506178101E-01  0.16324385197E-01 -0.18050318117E-01  0.30578412076E-01  0.51100000000E-03 0. -1.
</event>
<event>
 8    1  0.1112171E+005  0.1043930E+01  0.7957747E-01            NaN
         13   -1    0    0    0    0  0.00000000000E+00  0.00000000000E+00  0.74505805969E-08  0.10566000000E+00  0.10566000000E+00 0. -1.
     999900   -1    0    0    0    0 -0.00000000000E+00 -0.00000000000E+00 -0.74505805969E-08  0.93827000000E+00  0.93827000000E+00 0.  1.
     999902    2    1    2    0    0 -0.15790131637E-01 -0.88653389281E-02 -0.81088569670E-02  0.10240887286E+01  0.10238965025E+01 0.  0.
     999903    2    3    3    0    0  0.16664250651E-01  0.12917643336E+00  0.12383180592E-01  0.13250096426E+00  0.20950278818E-01 0.  0.
         14    1    1    2    0    0  0.15790131637E-01  0.88653389281E-02  0.81088569670E-02  0.19841271450E-01  0.00000000000E+00 0. -1.
     999901    1    3    3    0    0 -0.32454382288E-01 -0.13804177229E+00 -0.20492037559E-01  0.89158776429E+00  0.88000000000E+00 0.  1.
        -11    1    4    4    0    0  0.12033470322E-01  0.63279680035E-01 -0.36598651505E-02  0.64519594290E-01  0.51100000000E-03 0.  1.
         11    1    4    4    0    0  0.46307803290E-02  0.65896753327E-01  0.16043045742E-01  0.67981369972E-01  0.51100000000E-03 0. -1.
</event>
<event>
 8    1  0.1112171E+005  0.1043930E+01  0.7957747E-01            NaN
         13   -1    0    0    0    0  0.00000000000E+00  0.00000000000E+00  0.74505805969E-08  0.10566000000E+00  0.10566000000E+00 0.  1.
     999900   -1    0    0    0    0 -0.00000000000E+00 -0.00000000000E+00 -0.74505805969E-08  0.93827000000E+00  0.93827000000E+00 0.  1.
     999902    2    1    2    0    0  0.61515141698E-02  0.23280001657E-01 -0.15149365668E-02  0.10198033625E+01  0.10195179270E+01 0.  0.
     999903    2    3    3    0    0  0.63972775940E-01  0.54701409828E-01  0.99241506237E-01  0.13161280640E+00  0.19705175683E-01 0.  0.
         14    1    1    2    0    0 -0.61515141698E-02 -0.23280001657E-01  0.15149365668E-02  0.24126637489E-01  0.00000000000E+00 0.  1.
     999901    1    3    3    0    0 -0.57821261770E-01 -0.31421408172E-01 -0.10075644280E+00  0.88819055611E+00  0.88000000000E+00 0.  1.
        -11    1    4    4    0    0  0.58020448989E-01  0.39986054594E-01  0.83352678047E-01  0.10914754748E+00  0.51100000000E-03 0.  1.
         11    1    4    4    0    0  0.59523269505E-02  0.14715355235E-01  0.15888828191E-01  0.22465258914E-01  0.51100000000E-03 0. -1.
</event>
<event>
 8    1  0.1112171E+005  0.1043930E+01  0.7957747E-01            NaN
         13   -1    0    0    0    0  0.00000000000E+00  0.00000000000E+00  0.74505805969E-08  0.10566000000E+00  0.10566000000E+00 0.  1.
     999900   -1    0    0    0    0 -0.00000000000E+00 -0.00000000000E+00 -0.74505805969E-08  0.93827000000E+00  0.93827000000E+00 0. -1.
     999902    2    1    2    0    0 -0.19586378603E-01 -0.15549220796E-01  0.48164437237E-02  0.10184623220E+01  0.10181438497E+01 0.  0.
     999903    2    3    3    0    0 -0.10988120155E+00 -0.69356313485E-01  0.12727073358E-01  0.13217177348E+00  0.20572375529E-01 0.  0.
         14    1    1    2    0    0  0.19586378603E-01  0.15549220796E-01 -0.48164437237E-02  0.25467678031E-01  0.00000000000E+00 0.  1.
     999901    1    3    3    0    0  0.90294822948E-01  0.53807092688E-01 -0.79106296341E-02  0.88629054849E+00  0.88000000000E+00 0.  1.
        -11    1    4    4    0    0 -0.89257674910E-01 -0.57239669276E-01  0.18307681908E-01  0.10760457521E+00  0.51100000000E-03 0. -1.
         11    1    4    4    0    0 -0.20623526641E-01 -0.12116644209E-01 -0.55806085502E-02  0.24567198268E-01  0.51100000000E-03 0.  1.
</event>
<event>
 8    1  0.1112171E+005  0.1043930E+01  0.7957747E-01            NaN
         13   -1    0    0    0    0  0.00000000000E+00  0.00000000000E+00  0.74505805969E-08  0.10566000000E+00  0.10566000000E+00 0. -1.
     999900   -1    0    0    0    0 -0.00000000000E+00 -0.00000000000E+00 -0.74505805969E-08  0.93827000000E+00  0.93827000000E+00 0. -1.
     999902    2    1    2    0    0  0.90283498155E-02  0.14097355900E-01 -0.16927255614E-01  0.10201228892E+01  0.10198450522E+01 0.  0.
     999903    2    3    3    0    0 -0.78155252587E-01  0.27457954447E-01 -0.10041131028E+00  0.13178225995E+00  0.20541422448E-01 0.  0.
         14    1    1    2    0    0 -0.90283498155E-02 -0.14097355900E-01  0.16927255614E-01  0.23807110837E-01  0.00000000000E+00 0. -1.
     999901    1    3    3    0    0  0.87183602402E-01 -0.13360598546E-01  0.83484054670E-01  0.88834062921E+00  0.88000000000E+00 0.  1.
        -11    1    4    4    0    0 -0.22795367549E-01  0.14949197408E-01 -0.43976745949E-01  0.51742850618E-01  0.51100000000E-03 0.  1.
         11    1    4    4    0    0 -0.55359885038E-01  0.12508757039E-01 -0.56434564335E-01  0.80039409335E-01  0.51100000000E-03 0. -1.
</event>
<event>
 8    1  0.1112171E+005  0.1043930E+01  0.7957747E-01            NaN
         13   -1    0    0    0    0  0.00000000000E+00  0.00000000000E+00  0.74505805969E-08  0.10566000000E+00  0.10566000000E+00 0.  1.
     999900   -1    0    0    0    0 -0.00000000000E+00 -0.00000000000E+00 -0.74505805969E-08  0.93827000000E+00  0.93827000000E+00 0.  1.
     999902    2    1    2    0    0  0.21559430092E-01  0.51989771629E-03 -0.11898810596E-01  0.10192995105E+01  0.10190018798E+01 0.  0.
     999903    2    3    3    0    0  0.12302555709E+00  0.23076612880E-01  0.36285159664E-01  0.13187296406E+00  0.20150634743E-01 0.  0.
         14    1    1    2    0    0 -0.21559430092E-01 -0.51989771629E-03  0.11898810596E-01  0.24630489503E-01  0.00000000000E+00 0.  1.
     999901    1    3    3    0    0 -0.10146612699E+00 -0.22556715164E-01 -0.48183970260E-01  0.88742654643E+00  0.88000000000E+00 0.  1.
        -11    1    4    4    0    0  0.82506509548E-01  0.18950118045E-01  0.15210068823E-01  0.86011850383E-01  0.51100000000E-03 0. -1.
         11    1    4    4    0    0  0.40519047539E-01  0.41264948352E-02  0.21075090840E-01  0.45861113680E-01  0.51100000000E-03 0.  1.
</event>
<event>
 8    1  0.1112171E+005  0.1043930E+01  0.7957747E-01            NaN
         13   -1    0    0    0    0  0.00000000000E+00  0.00000000000E+00  0.74505805969E-08  0.10566000000E+00  0.10566000000E+00 0. -1.
     999900   -1    0    0    0    0 -0.00000000000E+00 -0.00000000000E+00 -0.74505805969E-08  0.93827000000E+00  0.93827000000E+00 0.  1.
     999902    2    1    2    0    0  0.17053755261E-01  0.16466362643E-01  0.11224384170E-02  0.10201975004E+01  0.10199214226E+01 0.  0.
     999903    2    3    3    0    0 -0.75985996682E-01  0.37459453772E-01 -0.95101047809E-01  0.12982900110E+00  0.25184873722E-01 0.  0.
         14    1    1    2    0    0 -0.17053755261E-01 -0.16466362643E-01 -0.11224384170E-02  0.23732499556E-01  0.00000000000E+00 0.  1.
     999901    1    3    3    0    0  0.93039751943E-01 -0.20993091130E-01  0.96223486226E-01  0.89036849934E+00  0.88000000000E+00 0. -1.
        -11    1    4    4    0    0 -0.59926973928E-01  0.20049184418E-01 -0.79085473163E-01  0.10123233271E+00  0.51100000000E-03 0.  1.
         11    1    4    4    0    0 -0.16059022754E-01  0.17410269354E-01 -0.16015574645E-01  0.28596668390E-01  0.51100000000E-03 0. -1.
</event>
<event>
 8    1  0.1112171E+005  0.1043930E+01  0.7957747E-01            NaN
         13   -1    0    0    0    0  0.00000000000E+00  0.00000000000E+00  0.74505805969E-08  0.10566000000E+00  0.10566000000E+00 0. -1.
     999900   -1    0    0    0    0 -0.00000000000E+00 -0.00000000000E+00 -0.74505805969E-08  0.93827000000E+00  0.93827000000E+00 0.  1.
     999902    2    1    2    0    0  0.62012004784E-02  0.11150486429E-01  0.23810171036E-01  0.10169168092E+01  0.10165579591E+01 0.  0.
     999903    2    3    3    0    0 -0.89915905013E-02 -0.84349249431E-01 -0.88415167959E-01  0.12453485777E+00  0.22272051868E-01 0.  0.
         14    1    1    2    0    0 -0.62012004784E-02 -0.11150486429E-01 -0.23810171036E-01  0.27013190847E-01  0.00000000000E+00 0.  1.
     999901    1    3    3    0    0  0.15192790980E-01  0.95499735860E-01  0.11222533900E+00  0.89238195139E+00  0.88000000000E+00 0. -1.
        -11    1    4    4    0    0  0.73973811608E-02 -0.25355163046E-01 -0.24652055415E-01  0.36132955848E-01  0.51100000000E-03 0. -1.
         11    1    4    4    0    0 -0.16388971662E-01 -0.58994086384E-01 -0.63763112544E-01  0.88401901918E-01  0.51100000000E-03 0.  1.
</event>
<event>
 8    1  0.1112171E+005  0.1043930E+01  0.7957747E-01            NaN
         13   -1    0    0    0    0  0.00000000000E+00  0.00000000000E+00  0.74505805969E-08  0.10566000000E+00  0.10566000000E+00 0. -1.
     999900   -1    0    0    0    0 -0.00000000000E+00 -0.00000000000E+00 -0.74505805969E-08  0.93827000000E+00  0.93827000000E+00 0.  1.
     999902    2    1    2    0    0  0.17675012725E-01  0.11317626897E-01 -0.94496884658E-02  0.10209128028E+01  0.10206533004E+01 0.  0.
     999903    2    3    3    0    0 -0.11521896406E+00 -0.51569545800E-01  0.23011678081E-02  0.12863835616E+00  0.24651644351E-01 0.  0.
         14    1    1    2    0    0 -0.17675012725E-01 -0.11317626897E-01  0.94496884658E-02  0.23017197168E-01  0.00000000000E+00 0. -1.
     999901    1    3    3    0    0  0.13289397679E+00  0.62887172697E-01 -0.11750856274E-01  0.89227444667E+00  0.88000000000E+00 0. -1.
        -11    1    4    4    0    0 -0.80538719103E-01 -0.32680359910E-01  0.12592300714E-01  0.87825499469E-01  0.51100000000E-03 0.  1.
         11    1    4    4    0    0 -0.34680244959E-01 -0.18889185889E-01 -0.10291132906E-01  0.40812856693E-01  0.51100000000E-03 0. -1.
</event>
<event>
 8    1  0.1112171E+005  0.1043930E+01  0.7957747E-01            NaN
         13   -1    0    0    0    0  0.00000000000E+00  0.00000000000E+00  0.74505805969E-08  0.10566000000E+00  0.10566000000E+00 0. -1.
     999900   -1    0    0    0    0 -0.00000000000E+00 -0.00000000000E+00 -0.74505805969E-08  0.93827000000E+00  0.93827000000E+00 0. -1.
     999902    2    1    2    0    0 -0.21121005940E-01  0.40044113566E-02 -0.62611631191E-02  0.10215395028E+01  0.10212940915E+01 0.  0.
     999903    2    3    3    0    0  0.37424350803E-01  0.42558757333E-02  0.12300116030E+00  0.13017180632E+00  0.19917811470E-01 0.  0.
         14    1    1    2    0    0  0.21121005940E-01 -0.40044113566E-02  0.62611631191E-02  0.22390497222E-01  0.00000000000E+00 0. -1.
     999901    1    3    3    0    0 -0.58545356743E-01 -0.25146437670E-03 -0.12926232342E+00  0.89136769646E+00  0.88000000000E+00 0. -1.
        -11    1    4    4    0    0  0.25536509196E-01  0.13698963138E-02  0.10704964454E+00  0.11006306117E+00  0.51100000000E-03 0.  1.
         11    1    4    4    0    0  0.11887841607E-01  0.28859794195E-02  0.15951515766E-01  0.20108745150E-01  0.51100000000E-03 0. -1.
</event>
<event>
 8    1  0.1112171E+005  0.1043930E+01  0.7957747E-01            NaN
         13   -1    0    0    0    0  0.00000000000E+00  0.00000000000E+00  0.74505805969E-08  0.10566000000E+00  0.10566000000E+00 0. -1.
     999900   -1    0    0    0    0 -0.00000000000E+00 -0.00000000000E+00 -0.74505805969E-08  0.93827000000E+00  0.93827000000E+00 0. -1.
     999902    2    1    2    0    0 -0.20744629120E-01  0.11939445584E-02 -0.94933151386E-02  0.10210851281E+01  0.10208295404E+01 0.  0.
     999903    2    3    3    0    0  0.38120210404E-01 -0.12226534975E+00 -0.15527356105E-01  0.13049898607E+00  0.19670291976E-01 0.  0.
         14    1    1    2    0    0  0.20744629120E-01 -0.11939445584E-02  0.94933151386E-02  0.22844871924E-01  0.00000000000E+00 0. -1.
     999901    1    3    3    0    0 -0.58864839524E-01  0.12345929431E+00  0.60340409664E-02  0.89058614201E+00  0.88000000000E+00 0.  1.
        -11    1    4    4    0    0  0.17475209862E-01 -0.52958329913E-01  0.29835603741E-02  0.55849175647E-01  0.51100000000E-03 0. -1.
         11    1    4    4    0    0  0.20645000543E-01 -0.69307019838E-01 -0.18510916479E-01  0.74649810422E-01  0.51100000000E-03 0.  1.
</event>
<event>
 8    1  0.1112171E+005  0.1043930E+01  0.7957747E-01            NaN
         13   -1    0    0    0    0  0.00000000000E+00  0.00000000000E+00  0.74505805969E-08  0.10566000000E+00  0.10566000000E+00 0. -1.
     999900   -1    0    0    0    0 -0.00000000000E+00 -0.00000000000E+00 -0.74505805969E-08  0.93827000000E+00  0.93827000000E+00 0. -1.
     999902    2    1    2    0    0 -0.10004772491E-01 -0.15878618231E-01  0.15213668335E-01  0.10197704948E+01  0.10194842717E+01 0.  0.
     999903    2    3    3    0    0  0.49430472759E-01  0.43212959607E-01 -0.10775078879E+00  0.12727700981E+00  0.16687517069E-01 0.  0.
         14    1    1    2    0    0  0.10004772491E-01  0.15878618231E-01 -0.15213668335E-01  0.24159505246E-01  0.00000000000E+00 0. -1.
     999901    1    3    3    0    0 -0.59435245250E-01 -0.59091577838E-01  0.12296445713E+00  0.89249348494E+00  0.88000000000E+00 0.  1.
        -11    1    4    4    0    0  0.35822759435E-01  0.35855508226E-01 -0.92894018258E-01  0.10582271643E+00  0.51100000000E-03 0.  1.
         11    1    4    4    0    0  0.13607713324E-01  0.73574513817E-02 -0.14856770534E-01  0.21454293381E-01  0.51100000000E-03 0. -1.
</event>
<event>
 8    1  0.1112171E+005  0.1043930E+01  0.7957747E-01            NaN
         13   -1    0    0    0    0  0.00000000000E+00  0.00000000000E+00  0.74505805969E-08  0.10566000000E+00  0.10566000000E+00 0. -1.
     999900   -1    0    0    0    0 -0.00000000000E+00 -0.00000000000E+00 -0.74505805969E-08  0.93827000000E+00  0.93827000000E+00 0. -1.
     999902    2    1    2    0    0  0.10413309910E-01  0.10829762094E-01 -0.18016243360E-01  0.10204714025E+01  0.10202017338E+01 0.  0.
     999903    2    3    3    0    0  0.86025683188E-01  0.34447646384E-01 -0.95732549772E-01  0.13350192181E+00  0.84251725318E-02 0.  0.
         14    1    1    2    0    0 -0.10413309910E-01 -0.10829762094E-01  0.18016243360E-01  0.23458597466E-01  0.00000000000E+00 0.  1.
     999901    1    3    3    0    0 -0.75612373278E-01 -0.23617884291E-01  0.77716306411E-01  0.88696948072E+00  0.88000000000E+00 0.  1.
        -11    1    4    4    0    0  0.56059492004E-01  0.19794508913E-01 -0.56714544518E-01  0.82166233379E-01  0.51100000000E-03 0. -1.
         11    1    4    4    0    0  0.29966191183E-01  0.14653137471E-01 -0.39018005254E-01  0.51335688432E-01  0.51100000000E-03 0.  1.
</event>
<event>
 8    1  0.1112171E+005  0.1043930E+01  0.7957747E-01            NaN
         13   -1    0    0    0    0  0.00000000000E+00  0.00000000000E+00  0.74505805969E-08  0.10566000000E+00  0.10566000000E+00 0. -1.
     999900   -1    0    0    0    0 -0.00000000000E+00 -0.00000000000E+00 -0.74505805969E-08  0.93827000000E+00  0.93827000000E+00 0. -1.
     999902    2    1    2    0    0  0.21345483613E-01 -0.27609782379E-02 -0.15764435559E-01  0.10172509802E+01  0.10169010702E+01 0.  0.
     999903    2    3    3    0    0  0.12873907271E+00  0.54473755825E-02  0.60503869898E-02  0.13041579449E+00  0.19189828709E-01 0.  0.
         14    1    1    2    0    0 -0.21345483613E-01  0.27609782379E-02  0.15764435559E-01  0.26679019847E-01  0.00000000000E+00 0. -1.
     999901    1    3    3    0    0 -0.10739358910E+00 -0.82083538204E-02 -0.21814822549E-01  0.88683518567E+00  0.88000000000E+00 0.  1.
        -11    1    4    4    0    0  0.23781471161E-01 -0.32859965411E-02  0.72631240885E-02  0.25087252468E-01  0.51100000000E-03 0. -1.
         11    1    4    4    0    0  0.10495760155E+00  0.87333721236E-02 -0.12127370987E-02  0.10532854202E+00  0.51100000000E-03 0.  1.
</event>
<event>
 8    1  0.1112171E+005  0.1043930E+01  0.7957747E-01            NaN
         13   -1    0    0    0    0  0.00000000000E+00  0.00000000000E+00  0.74505805969E-08  0.10566000000E+00  0.10566000000E+00 0.  1.
     999900   -1    0    0    0    0 -0.00000000000E+00 -0.00000000000E+00 -0.74505805969E-08  0.93827000000E+00  0.93827000000E+00 0. -1.
     999902    2    1    2    0    0 -0.13786202514E-01 -0.16901544816E-01  0.10559428654E-01  0.10196973128E+01  0.10194093322E+01 0.  0.
     999903    2    3    3    0    0  0.21090528266E-03  0.16246024337E-01 -0.12580321924E+00  0.12846813231E+00  0.20337975784E-01 0.  0.
         14    1    1    2    0    0  0.13786202514E-01  0.16901544816E-01 -0.10559428654E-01  0.24232687230E-01  0.00000000000E+00 0. -1.
     999901    1    3    3    0    0 -0.13997107796E-01 -0.33147569153E-01  0.13636264790E+00  0.89122918046E+00  0.88000000000E+00 0.  1.
        -11    1    4    4    0    0 -0.53968523502E-02  0.39688729147E-02 -0.89194482725E-01  0.89447162264E-01  0.51100000000E-03 0.  1.
         11    1    4    4    0    0  0.56077576329E-02  0.12277151423E-01 -0.36608736517E-01  0.39020970043E-01  0.51100000000E-03 0. -1.
</event>
<event>
 8    1  0.1112171E+005  0.1043930E+01  0.7957747E-01            NaN
         13   -1    0    0    0    0  0.00000000000E+00  0.00000000000E+00  0.74505805969E-08  0.10566000000E+00  0.10566000000E+00 0. -1.
     999900   -1    0    0    0    0 -0.00000000000E+00 -0.00000000000E+00 -0.74505805969E-08  0.93827000000E+00  0.93827000000E+00 0. -1.
     999902    2    1    2    0    0  0.89934499847E-03  0.21950142295E-01  0.95412378593E-02  0.10199789502E+01  0.10196977032E+01 0.  0.
     999903    2    3    3    0    0  0.99995940116E-01 -0.78071929249E-01  0.89303317665E-02  0.12878597266E+00  0.20289449257E-01 0.  0.
         14    1    1    2    0    0 -0.89934499847E-03 -0.21950142295E-01 -0.95412378593E-02  0.23951049832E-01  0.00000000000E+00 0. -1.
     999901    1    3    3    0    0 -0.99096595117E-01  0.10002207154E+00  0.61090609276E-03  0.89119297751E+00  0.88000000000E+00 0. -1.
        -11    1    4    4    0    0  0.79067391370E-02 -0.10349731185E-01  0.62213756538E-02  0.14442994683E-01  0.51100000000E-03 0.  1.
         11    1    4    4    0    0  0.92089200979E-01 -0.67722198064E-01  0.27089561128E-02  0.11434297797E+00  0.51100000000E-03 0. -1.
</event>
<event>
 8    1  0.1112171E+005  0.1043930E+01  0.7957747E-01            NaN
         13   -1    0    0    0    0  0.00000000000E+00  0.00000000000E+00  0.74505805969E-08  0.10566000000E+00  0.10566000000E+00 0. -1.
     999900   -1    0    0    0    0 -0.00000000000E+00 -0.00000000000E+00 -0.74505805969E-08  0.93827000000E+00  0.93827000000E+00 0.  1.
     999902    2    1    2    0    0 -0.44970699460E-02  0.14287549501E-01 -0.75926402857E-03  0.10289321938E+01  0.10288228833E+01 0.  0.
     999903    2    3    3    0    0 -0.62922721544E-01 -0.59366434010E-01  0.10516375352E+00  0.13760837403E+00  0.19824408560E-01 0.  0.
         14    1    1    2    0    0  0.44970699460E-02 -0.14287549501E-01  0.75926402857E-03  0.14997806197E-01  0.00000000000E+00 0.  1.
     999901    1    3    3    0    0  0.58425651598E-01  0.73653983511E-01 -0.10592301755E+00  0.89132381977E+00  0.88000000000E+00 0.  1.
        -11    1    4    4    0    0 -0.48341299396E-01 -0.35323062670E-01  0.62882698671E-01  0.86827961491E-01  0.51100000000E-03 0.  1.
         11    1    4    4    0    0 -0.14581422149E-01 -0.24043371340E-01  0.42281054849E-01  0.50780412537E-01  0.51100000000E-03 0. -1.
</event>
<event>
 8    1  0.1112171E+005  0.1043930E+01  0.7957747E-01            NaN
         13   -1    0    0    0    0  0.00000000000E+00  0.00000000000E+00  0.74505805969E-08  0.10566000000E+00  0.10566000000E+00 0.  1.
     999900   -1    0    0    0    0 -0.00000000000E+00 -0.00000000000E+00 -0.74505805969E-08  0.93827000000E+00  0.93827000000E+00 0. -1.
     999902    2    1    2    0    0  0.97717307600E-02  0.12818243890E-01  0.15179082116E-01  0.10217895702E+01  0.10215496694E+01 0.  0.
     999903    2    3    3    0    0 -0.11683878218E+00 -0.51174945216E-01  0.19057927044E-01  0.13041961575E+00  0.19388025892E-01 0.  0.
         14    1    1    2    0    0 -0.97717307600E-02 -0.12818243890E-01 -0.15179082116E-01  0.22140429815E-01  0.00000000000E+00 0. -1.
     999901    1    3    3    0    0  0.12661051294E+00  0.63993189106E-01 -0.38788449280E-02  0.89136995444E+00  0.88000000000E+00 0. -1.
        -11    1    4    4    0    0 -0.10365975291E+00 -0.44316267699E-01  0.10397142026E-01  0.11321500625E+00  0.51100000000E-03 0. -1.
         11    1    4    4    0    0 -0.13179029275E-01 -0.68586775166E-02  0.86607850186E-02  0.17204609500E-01  0.51100000000E-03 0.  1.
</event>
<event>
 8    1  0.1112171E+005  0.1043930E+01  0.7957747E-01            NaN
         13   -1    0    0    0    0  0.00000000000E+00  0.00000000000E+00  0.74505805969E-08  0.10566000000E+00  0.10566000000E+00 0.  1.
     999900   -1    0    0    0    0 -0.00000000000E+00 -0.00000000000E+00 -0.74505805969E-08  0.93827000000E+00  0.93827000000E+00 0. -1.
     999902    2    1    2    0    0  0.14091605554E-02 -0.15967045684E-01 -0.16911382307E-01  0.10206292032E+01  0.10203631918E+01 0.  0.
     999903    2    3    3    0    0 -0.63204587377E-01  0.10630930799E+00  0.28751787039E-01  0.12865859372E+00  0.20733539227E-01 0.  0.
         14    1    1    2    0    0 -0.14091605554E-02  0.15967045684E-01  0.16911382307E-01  0.23300796829E-01  0.00000000000E+00 0.  1.
     999901    1    3    3    0    0  0.64613747933E-01 -0.12227635367E+00 -0.45663169346E-01  0.89197060945E+00  0.88000000000E+00 0.  1.
        -11    1    4    4    0    0 -0.29403836703E-01  0.56925134031E-01  0.49863779164E-02  0.64266488802E-01  0.51100000000E-03 0. -1.
         11    1    4    4    0    0 -0.33800750674E-01  0.49384173961E-01  0.23765409122E-01  0.64392104917E-01  0.51100000000E-03 0.  1.
</event>
<event>
 8    1  0.1112171E+005  0.1043930E+01  0.7957747E-01            NaN
         13   -1    0    0    0    0  0.00000000000E+00  0.00000000000E+00  0.74505805969E-08  0.10566000000E+00  0.10566000000E+00 0.  1.
     999900   -1    0    0    0    0 -0.00000000000E+00 -0.00000000000E+00 -0.74505805969E-08  0.93827000000E+00  0.93827000000E+00 0. -1.
     999902    2    1    2    0    0 -0.12492516204E-01 -0.11110597842E-01 -0.18642972996E-01  0.10188886584E+01  0.10185808900E+01 0.  0.
     999903    2    3    3    0    0  0.73719124609E-01 -0.10060626533E+00  0.26887006875E-01  0.12899265294E+00  0.18975337082E-01 0.  0.
         14    1    1    2    0    0  0.12492516204E-01  0.11110597842E-01  0.18642972996E-01  0.25041341570E-01  0.00000000000E+00 0.  1.
     999901    1    3    3    0    0 -0.86211640813E-01  0.89495667492E-01 -0.45529979872E-01  0.88989600549E+00  0.88000000000E+00 0.  1.
        -11    1    4    4    0    0  0.20589732412E-01 -0.32595922528E-01  0.16948378416E-01  0.42118165893E-01  0.51100000000E-03 0. -1.
         11    1    4    4    0    0  0.53129392198E-01 -0.68010342805E-01  0.99386284591E-02  0.86874487051E-01  0.51100000000E-03 0.  1.
</event>
<event>
 8    1  0.1112171E+005  0.1043930E+01  0.7957747E-01            NaN
         13   -1    0    0    0    0  0.00000000000E+00  0.00000000000E+00  0.74505805969E-08  0.10566000000E+00  0.10566000000E+00 0. -1.
     999900   -1    0    0    0    0 -0.00000000000E+00 -0.00000000000E+00 -0.74505805969E-08  0.93827000000E+00  0.93827000000E+00 0. -1.
     999902    2    1    2    0    0 -0.20404547298E-01  0.98838240615E-02  0.39782929239E-02  0.10209112610E+01  0.10206517235E+01 0.  0.
     999903    2    3    3    0    0 -0.15657311899E-01  0.10093620804E+00 -0.81409445648E-01  0.13208949108E+00  0.19668917157E-01 0.  0.
         14    1    1    2    0    0  0.20404547298E-01 -0.98838240615E-02 -0.39782929239E-02  0.23018738956E-01  0.00000000000E+00 0.  1.
     999901    1    3    3    0    0 -0.47472353987E-02 -0.91052383980E-01  0.85387738572E-01  0.88882176997E+00  0.88000000000E+00 0.  1.
        -11    1    4    4    0    0 -0.23555623507E-02  0.43913496368E-01 -0.46090347749E-01  0.63706554717E-01  0.51100000000E-03 0. -1.
         11    1    4    4    0    0 -0.13301749549E-01  0.57022711673E-01 -0.35319097900E-01  0.68382936358E-01  0.51100000000E-03 0.  1.
</event>
<event>
 8    1  0.1112171E+005  0.1043930E+01  0.7957747E-01            NaN
         13   -1    0    0    0    0  0.00000000000E+00  0.00000000000E+00  0.74505805969E-08  0.10566000000E+00  0.10566000000E+00 0. -1.
     999900   -1    0    0    0    0 -0.00000000000E+00 -0.00000000000E+00 -0.74505805969E-08  0.93827000000E+00  0.93827000000E+00 0.  1.
     999902    2    1    2    0    0  0.16259706367E-01  0.14363109853E-01  0.67563859412E-02  0.10212071981E+01  0.10209543651E+01 0.  0.
     999903    2    3    3    0    0 -0.87050392981E-01  0.65079608557E-01  0.71132197674E-01  0.13138171800E+00  0.19703804495E-01 0.  0.
         14    1    1    2    0    0 -0.16259706367E-01 -0.14363109853E-01 -0.67563859412E-02  0.22722801913E-01  0.00000000000E+00 0. -1.
     999901    1    3    3    0    0  0.10331009935E+00 -0.50716498704E-01 -0.64375811733E-01  0.88982548008E+00  0.88000000000E+00 0.  1.
        -11    1    4    4    0    0 -0.69403884848E-01  0.60212309672E-01  0.55818259215E-01  0.10750981653E+00  0.51100000000E-03 0. -1.
         11    1    4    4    0    0 -0.17646508133E-01  0.48672988849E-02  0.15313938459E-01  0.23871901471E-01  0.51100000000E-03 0.  1.
</event>
<event>
 8    1  0.1112171E+005  0.1043930E+01  0.7957747E-01            NaN
         13   -1    0    0    0    0  0.00000000000E+00  0.00000000000E+00  0.74505805969E-08  0.10566000000E+00  0.10566000000E+00 0.  1.
     999900   -1    0    0    0    0 -0.00000000000E+00 -0.00000000000E+00 -0.74505805969E-08  0.93827000000E+00  0.93827000000E+00 0. -1.
     999902    2    1    2    0    0 -0.18158976519E-01  0.14638971069E-01 -0.38505022300E-02  0.10202894782E+01  0.10200155612E+01 0.  0.
     999903    2    3    3    0    0  0.23966530160E-01  0.90786304928E-01  0.89241250460E-01  0.13111061591E+00  0.20234749603E-01 0.  0.
         14    1    1    2    0    0  0.18158976519E-01 -0.14638971069E-01  0.38505022300E-02  0.23640521771E-01  0.00000000000E+00 0. -1.
     999901    1    3    3    0    0 -0.42125506680E-01 -0.76147333858E-01 -0.93091752690E-01  0.88917886231E+00  0.88000000000E+00 0. -1.
        -11    1    4    4    0    0  0.12836038772E-01  0.42047488630E-01  0.55453517419E-01  0.70767993518E-01  0.51100000000E-03 0.  1.
         11    1    4    4    0    0  0.11130491388E-01  0.48738816297E-01  0.33787733041E-01  0.60342622396E-01  0.51100000000E-03 0. -1.
</event>
<event>
 8    1  0.1112171E+005  0.1043930E+01  0.7957747E-01            NaN
         13   -1    0    0    0    0  0.00000000000E+00  0.00000000000E+00  0.74505805969E-08  0.10566000000E+00  0.10566000000E+00 0.  1.
     999900   -1    0    0    0    0 -0.00000000000E+00 -0.00000000000E+00 -0.74505805969E-08  0.93827000000E+00  0.93827000000E+00 0.  1.
     999902    2    1    2    0    0  0.20147891026E-01  0.11362223014E-01  0.77225178553E-02  0.10195440428E+01  0.10192523634E+01 0.  0.
     999903    2    3    3    0    0  0.37419532786E-01 -0.38121619174E-01  0.11804840131E+00  0.13110791075E+00  0.20009495893E-01 0.  0.
         14    1    1    2    0    0 -0.20147891026E-01 -0.11362223014E-01 -0.77225178553E-02  0.24385957160E-01  0.00000000000E+00 0.  1.
     999901    1    3    3    0    0 -0.17271641761E-01  0.49483842188E-01 -0.11032588346E+00  0.88843613209E+00  0.88000000000E+00 0.  1.
        -11    1    4    4    0    0  0.26930831717E-01 -0.15544059844E-01  0.77727922901E-01  0.83718448462E-01  0.51100000000E-03 0. -1.
         11    1    4    4    0    0  0.10488701069E-01 -0.22577559330E-01  0.40320478410E-01  0.47389462285E-01  0.51100000000E-03 0.  1.
</event>
<event>
 8    1  0.1112171E+005  0.1043930E+01  0.7957747E-01            NaN
         13   -1    0    0    0    0  0.00000000000E+00  0.00000000000E+00  0.74505805969E-08  0.10566000000E+00  0.10566000000E+00 0.  1.
     999900   -1    0    0    0    0 -0.00000000000E+00 -0.00000000000E+00 -0.74505805969E-08  0.93827000000E+00  0.93827000000E+00 0.  1.
     999902    2    1    2    0    0 -0.10639957446E-01  0.15109557087E-01 -0.14651072032E-01  0.10203469272E+01  0.10200743554E+01 0.  0.
     999903    2    3    3    0    0 -0.83267924004E-01 -0.86108674295E-01 -0.48363062870E-01  0.13093338437E+00  0.21361515286E-01 0.  0.
         14    1    1    2    0    0  0.10639957446E-01 -0.15109557087E-01  0.14651072032E-01  0.23583072775E-01  0.00000000000E+00 0.  1.
     999901    1    3    3    0    0  0.72627966558E-01  0.10121823138E+00  0.33711990837E-01  0.88941354286E+00  0.88000000000E+00 0. -1.
        -11    1    4    4    0    0 -0.63850402164E-01 -0.53308265511E-01 -0.28347279588E-01  0.87877610399E-01  0.51100000000E-03 0.  1.
         11    1    4    4    0    0 -0.19417521840E-01 -0.32800408784E-01 -0.20015783281E-01  0.43055773970E-01  0.51100000000E-03 0. -1.
</event>
<event>
 8    1  0.1112171E+005  0.1043930E+01  0.7957747E-01            NaN
         13   -1    0    0    0    0  0.00000000000E+00  0.00000000000E+00  0.74505805969E-08  0.10566000000E+00  0.10566000000E+00 0.  1.
     999900   -1    0    0    0    0 -0.00000000000E+00 -0.00000000000E+00 -0.74505805969E-08  0.93827000000E+00  0.93827000000E+00 0.  1.
     999902    2    1    2    0    0 -0.16386449627E-01 -0.16515028762E-01  0.57303509332E-03  0.10206579078E+01  0.10203925590E+01 0.  0.
     999903    2    3    3    0    0 -0.63846789061E-01 -0.11375452896E+00  0.22032400862E-01  0.13377093157E+00  0.19817419416E-01 0.  0.
         14    1    1    2    0    0  0.16386449627E-01  0.16515028762E-01 -0.57303509332E-03  0.23272092205E-01  0.00000000000E+00 0. -1.
     999901    1    3    3    0    0  0.47460339434E-01  0.97239500202E-01 -0.21459365768E-01  0.88688697623E+00  0.88000000000E+00 0.  1.
        -11    1    4    4    0    0 -0.21580787817E-01 -0.49104375565E-01  0.72784751226E-03  0.53644766617E-01  0.51100000000E-03 0.  1.
         11    1    4    4    0    0 -0.42266001245E-01 -0.64650153398E-01  0.21304553349E-01  0.80126164953E-01  0.51100000000E-03 0. -1.
</event>
<event>
 8    1  0.1112171E+005  0.1043930E+01  0.7957747E-01            NaN
         13   -1    0    0    0    0  0.00000000000E+00  0.00000000000E+00  0.74505805969E-08  0.10566000000E+00  0.10566000000E+00 0. -1.
     999900   -1    0    0    0    0 -0.00000000000E+00 -0.00000000000E+00 -0.74505805969E-08  0.93827000000E+00  0.93827000000E+00 0.  1.
     999902    2    1    2    0    0 -0.43598281006E-02  0.33574241084E-02  0.24110216911E-01  0.10191997967E+01  0.10188997215E+01 0.  0.
     999903    2    3    3    0    0 -0.10769656850E+00 -0.65818469792E-01 -0.20197466629E-01  0.12935320481E+00  0.19841675917E-01 0.  0.
         14    1    1    2    0    0  0.43598281006E-02 -0.33574241084E-02 -0.24110216911E-01  0.24730203339E-01  0.00000000000E+00 0.  1.
     999901    1    3    3    0    0  0.10333674040E+00  0.69175893901E-01  0.44307683540E-01  0.88984659185E+00  0.88000000000E+00 0. -1.
        -11    1    4    4    0    0 -0.78508642057E-01 -0.39665391663E-01 -0.19774645755E-01  0.90156796245E-01  0.51100000000E-03 0. -1.
         11    1    4    4    0    0 -0.29187926443E-01 -0.26153078129E-01 -0.42282087325E-03  0.39196408562E-01  0.51100000000E-03 0.  1.
</event>
<event>
 8    1  0.1390398E+005  0.1043930E+01  0.7957747E-01            NaN
         13   -1    0    0    0    0  0.00000000000E+00  0.00000000000E+00  0.74505805969E-08  0.10566000000E+00  0.10566000000E+00 0. -1.
     999900   -1    0    0    0    0 -0.00000000000E+00 -0.00000000000E+00 -0.74505805969E-08  0.93827000000E+00  0.93827000000E+00 0. -1.
     999902    2    1    2    0    0  0.14107274339E-01  0.19422703522E-01 -0.60660768017E-03  0.10199169916E+01  0.10196342703E+01 0.  0.
     999903    2    3    3    0    0  0.24880709951E-01  0.32370316108E-01  0.12250843807E+00  0.13118698640E+00  0.23126195336E-01 0.  0.
         14    1    1    2    0    0 -0.14107274339E-01 -0.19422703522E-01  0.60660768017E-03  0.24013008438E-01  0.00000000000E+00 0. -1.
     999901    1    3    3    0    0 -0.10773435612E-01 -0.12947612586E-01 -0.12311504575E+00  0.88873000516E+00  0.88000000000E+00 0. -1.
        -11    1    4    4    0    0  0.11576376101E-01  0.29734230631E-01  0.69632694645E-01  0.76597064169E-01  0.51100000000E-03 0. -1.
         11    1    4    4    0    0  0.13304333849E-01  0.26360854776E-02  0.52875743421E-01  0.54589922230E-01  0.51100000000E-03 0.  1.
</event>
<event>
 8    1  0.1112171E+005  0.1043930E+01  0.7957747E-01            NaN
         13   -1    0    0    0    0  0.00000000000E+00  0.00000000000E+00  0.74505805969E-08  0.10566000000E+00  0.10566000000E+00 0. -1.
     999900   -1    0    0    0    0 -0.00000000000E+00 -0.00000000000E+00 -0.74505805969E-08  0.93827000000E+00  0.93827000000E+00 0.  1.
     999902    2    1    2    0    0  0.82784102515E-02 -0.21730612613E-01 -0.91165472903E-03  0.10206580702E+01  0.10203927252E+01 0.  0.
     999903    2    3    3    0    0 -0.26120360438E-01  0.11611312989E+00 -0.43272167171E-01  0.12825760755E+00  0.20322432955E-01 0.  0.
         14    1    1    2    0    0 -0.82784102515E-02  0.21730612613E-01  0.91165472903E-03  0.23271929769E-01  0.00000000000E+00 0. -1.
     999901    1    3    3    0    0  0.34398770690E-01 -0.13784374250E+00  0.42360512442E-01  0.89240046268E+00  0.88000000000E+00 0. -1.
        -11    1    4    4    0    0 -0.15580688539E-01  0.68748889290E-01 -0.14917512709E-01  0.72055263100E-01  0.51100000000E-03 0. -1.
         11    1    4    4    0    0 -0.10539671899E-01  0.47364240601E-01 -0.28354654462E-01  0.56202344454E-01  0.51100000000E-03 0.  1.
</event>
<event>
 8    1  0.1112171E+005  0.1043930E+01  0.7957747E-01            NaN
         13   -1    0    0    0    0  0.00000000000E+00  0.00000000000E+00  0.74505805969E-08  0.10566000000E+00  0.10566000000E+00 0. -1.
     999900   -1    0    0    0    0 -0.00000000000E+00 -0.00000000000E+00 -0.74505805969E-08  0.93827000000E+00  0.93827000000E+00 0.  1.
     999902    2    1    2    0    0  0.15208034073E-01  0.15090516721E-01  0.97308074388E-02  0.10203992412E+01  0.10201278914E+01 0.  0.
     999903    2    3    3    0    0  0.78887040184E-02 -0.41201185437E-01 -0.12039081598E+00  0.12902167520E+00  0.19821068733E-01 0.  0.
         14    1    1    2    0    0 -0.15208034073E-01 -0.15090516721E-01 -0.97308074388E-02  0.23530758778E-01  0.00000000000E+00 0.  1.
     999901    1    3    3    0    0  0.73193300547E-02  0.56291702158E-01  0.13012162342E+00  0.89137756602E+00  0.88000000000E+00 0. -1.
        -11    1    4    4    0    0  0.79136420816E-02 -0.20919567669E-01 -0.88019153739E-01  0.90817875930E-01  0.51100000000E-03 0. -1.
         11    1    4    4    0    0 -0.24938063234E-04 -0.20281617769E-01 -0.32371662244E-01  0.38203799270E-01  0.51100000000E-03 0.  1.
</event>
<event>
 8    1  0.1112171E+005  0.1043930E+01  0.7957747E-01            NaN
         13   -1    0    0    0    0  0.00000000000E+00  0.00000000000E+00  0.74505805969E-08  0.10566000000E+00  0.10566000000E+00 0. -1.
     999900   -1    0    0    0    0 -0.00000000000E+00 -0.00000000000E+00 -0.74505805969E-08  0.93827000000E+00  0.93827000000E+00 0. -1.
     999902    2    1    2    0    0 -0.19425037727E-01  0.84056786055E-02 -0.10188778148E-01  0.10204396036E+01  0.10201691947E+01 0.  0.
     999903    2    3    3    0    0  0.62010405552E-01  0.10335233135E+00 -0.46811453171E-01  0.13083979546E+00  0.20018619731E-01 0.  0.
         14    1    1    2    0    0  0.19425037727E-01 -0.84056786055E-02  0.10188778148E-01  0.23490396413E-01  0.00000000000E+00 0. -1.
     999901    1    3    3    0    0 -0.81435443279E-01 -0.94946652746E-01  0.36622675023E-01  0.88959980812E+00  0.88000000000E+00 0.  1.
        -11    1    4    4    0    0  0.23156499564E-01  0.55124414897E-01 -0.28620005999E-01  0.66289444516E-01  0.51100000000E-03 0. -1.
         11    1    4    4    0    0  0.38853905987E-01  0.48227916455E-01 -0.18191447172E-01  0.64550350946E-01  0.51100000000E-03 0.  1.
</event>
<event>
 8    1  0.1112171E+005  0.1043930E+01  0.7957747E-01            NaN
         13   -1    0    0    0    0  0.00000000000E+00  0.00000000000E+00  0.74505805969E-08  0.10566000000E+00  0.10566000000E+00 0.  1.
     999900   -1    0    0    0    0 -0.00000000000E+00 -0.00000000000E+00 -0.74505805969E-08  0.93827000000E+00  0.93827000000E+00 0.  1.
     999902    2    1    2    0    0  0.88578267637E-02  0.65326847246E-02  0.19267455777E-01  0.10217405449E+01  0.10214995689E+01 0.  0.
     999903    2    3    3    0    0  0.63082495167E-02 -0.45742346988E-01  0.12422717729E+00  0.13395919660E+00  0.19506882269E-01 0.  0.
         14    1    1    2    0    0 -0.88578267637E-02 -0.65326847246E-02 -0.19267455777E-01  0.22189455081E-01  0.00000000000E+00 0. -1.
     999901    1    3    3    0    0  0.25495772470E-02  0.52275031713E-01 -0.10495972151E+00  0.88778134832E+00  0.88000000000E+00 0.  1.
        -11    1    4    4    0    0  0.11550024184E-01 -0.32489824854E-01  0.10076806549E+00  0.10650566146E+00  0.51100000000E-03 0.  1.
         11    1    4    4    0    0 -0.52417746669E-02 -0.13252522134E-01  0.23459111797E-01  0.27453535143E-01  0.51100000000E-03 0. -1.
</event>
<event>
 8    1  0.1112171E+005  0.1043930E+01  0.7957747E-01            NaN
         13   -1    0    0    0    0  0.00000000000E+00  0.00000000000E+00  0.74505805969E-08  0.10566000000E+00  0.10566000000E+00 0.  1.
     999900   -1    0    0    0    0 -0.00000000000E+00 -0.00000000000E+00 -0.74505805969E-08  0.93827000000E+00  0.93827000000E+00 0. -1.
     999902    2    1    2    0    0  0.13382978994E-01 -0.18299738920E-01  0.83504585245E-02  0.10197698111E+01  0.10194835716E+01 0.  0.
     999903    2    3    3    0    0 -0.71787522313E-01  0.46163512485E-02 -0.10423962376E+00  0.12822301583E+00  0.20012085543E-01 0.  0.
         14    1    1    2    0    0 -0.13382978994E-01  0.18299738920E-01 -0.83504585245E-02  0.24160188925E-01  0.00000000000E+00 0. -1.
     999901    1    3    3    0    0  0.85170501307E-01 -0.22916090169E-01  0.11259008229E+00  0.89154679524E+00  0.88000000000E+00 0.  1.
        -11    1    4    4    0    0 -0.33128938605E-01 -0.34674187709E-02 -0.62065959941E-01  0.70441422973E-01  0.51100000000E-03 0.  1.
         11    1    4    4    0    0 -0.38658583708E-01  0.80837700194E-02 -0.42173663822E-01  0.57781592858E-01  0.51100000000E-03 0. -1.
</event>
<event>
 8    1  0.1112171E+005  0.1043930E+01  0.7957747E-01            NaN
         13   -1    0    0    0    0  0.00000000000E+00  0.00000000000E+00  0.74505805969E-08  0.10566000000E+00  0.10566000000E+00 0. -1.
     999900   -1    0    0    0    0 -0.00000000000E+00 -0.00000000000E+00 -0.74505805969E-08  0.93827000000E+00  0.93827000000E+00 0.  1.
     999902    2    1    2    0    0  0.11869029109E-01  0.17472535986E-01  0.15872030868E-01  0.10175087069E+01  0.10171656128E+01 0.  0.
     999903    2    3    3    0    0  0.50039408934E-01  0.11774311939E+00  0.19974304187E-01  0.13098290555E+00  0.19752572205E-01 0.  0.
         14    1    1    2    0    0 -0.11869029109E-01 -0.17472535986E-01 -0.15872030868E-01  0.26421293111E-01  0.00000000000E+00 0.  1.
     999901    1    3    3    0    0 -0.38170379825E-01 -0.10027058340E+00 -0.41022733189E-02  0.88652580134E+00  0.88000000000E+00 0. -1.
        -11    1    4    4    0    0  0.18861366931E-01  0.56609680079E-01  0.18002578616E-01  0.62327850909E-01  0.51100000000E-03 0. -1.
         11    1    4    4    0    0  0.31178042003E-01  0.61133439311E-01  0.19717255710E-02  0.68655054642E-01  0.51100000000E-03 0.  1.
</event>
<event>
 8    1  0.1112171E+005  0.1043930E+01  0.7957747E-01            NaN
         13   -1    0    0    0    0  0.00000000000E+00  0.00000000000E+00  0.74505805969E-08  0.10566000000E+00  0.10566000000E+00 0.  1.
     999900   -1    0    0    0    0 -0.00000000000E+00 -0.00000000000E+00 -0.74505805969E-08  0.93827000000E+00  0.93827000000E+00 0. -1.
     999902    2    1    2    0    0 -0.21080731087E-01 -0.12310826622E-02 -0.91389806481E-02  0.10209205725E+01  0.10206612472E+01 0.  0.
     999903    2    3    3    0    0 -0.29033814698E-01 -0.39400323532E-01 -0.12208376161E+00  0.13284587627E+00  0.18661031678E-01 0.  0.
         14    1    1    2    0    0  0.21080731087E-01  0.12310826622E-02  0.91389806481E-02  0.23009427524E-01  0.00000000000E+00 0.  1.
     999901    1    3    3    0    0  0.79530836109E-02  0.38169240869E-01  0.11294478096E+00  0.88807469620E+00  0.88000000000E+00 0.  1.
        -11    1    4    4    0    0 -0.51072193589E-02 -0.16777361038E-01 -0.26806781547E-01  0.32037918018E-01  0.51100000000E-03 0. -1.
         11    1    4    4    0    0 -0.23926595339E-01 -0.22622962493E-01 -0.95276980064E-01  0.10080795826E+00  0.51100000000E-03 0.  1.
</event>
<event>
 8    1  0.1112171E+005  0.1043930E+01  0.7957747E-01            NaN
         13   -1    0    0    0    0  0.00000000000E+00  0.00000000000E+00  0.74505805969E-08  0.10566000000E+00  0.10566000000E+00 0.  1.
     999900   -1    0    0    0    0 -0.00000000000E+00 -0.00000000000E+00 -0.74505805969E-08  0.93827000000E+00  0.93827000000E+00 0. -1.
     999902    2    1    2    0    0  0.61963041699E-02 -0.22960931645E-01  0.15423827520E-02  0.10200977212E+01  0.10198192895E+01 0.  0.
     999903    2    3    3    0    0 -0.11909193739E-01  0.10802756049E+00  0.64530767805E-01  0.12799160041E+00  0.20145646203E-01 0.  0.
         14    1    1    2    0    0 -0.61963041699E-02  0.22960931645E-01 -0.15423827520E-02  0.23832278781E-01  0.00000000000E+00 0.  1.
     999901    1    3    3    0    0  0.18105497909E-01 -0.13098849214E+00 -0.62988385053E-01  0.89210612081E+00  0.88000000000E+00 0.  1.
        -11    1    4    4    0    0 -0.12084830016E-01  0.10800421856E+00  0.61420509944E-01  0.12483466869E+00  0.51100000000E-03 0. -1.
         11    1    4    4    0    0  0.17563627698E-03  0.23341931125E-04  0.31102578610E-02  0.31569317240E-02  0.51100000000E-03 0.  1.
</event>
<event>
 8    1  0.1112171E+005  0.1043930E+01  0.7957747E-01            NaN
         13   -1    0    0    0    0  0.00000000000E+00  0.00000000000E+00  0.74505805969E-08  0.10566000000E+00  0.10566000000E+00 0.  1.
     999900   -1    0    0    0    0 -0.00000000000E+00 -0.00000000000E+00 -0.74505805969E-08  0.93827000000E+00  0.93827000000E+00 0.  1.
     999902    2    1    2    0    0  0.10707650307E-01 -0.19971181130E-01  0.93991392515E-03  0.10212499363E+01  0.10209980642E+01 0.  0.
     999903    2    3    3    0    0 -0.56827074799E-01  0.74371551072E-01 -0.86850473844E-01  0.12930338948E+00  0.20394060052E-01 0.  0.
         14    1    1    2    0    0 -0.10707650307E-01  0.19971181130E-01 -0.93991392515E-03  0.22680063690E-01  0.00000000000E+00 0.  1.
     999901    1    3    3    0    0  0.67534725106E-01 -0.94342732202E-01  0.87790387769E-01  0.89194654683E+00  0.88000000000E+00 0.  1.
        -11    1    4    4    0    0 -0.33836890153E-01  0.27943587117E-01 -0.42717237767E-01  0.61243797397E-01  0.51100000000E-03 0.  1.
         11    1    4    4    0    0 -0.22990184647E-01  0.46427963955E-01 -0.44133236077E-01  0.68059592084E-01  0.51100000000E-03 0. -1.
</event>
<event>
 8    1  0.1112171E+005  0.1043930E+01  0.7957747E-01            NaN
         13   -1    0    0    0    0  0.00000000000E+00  0.00000000000E+00  0.74505805969E-08  0.10566000000E+00  0.10566000000E+00 0.  1.
     999900   -1    0    0    0    0 -0.00000000000E+00 -0.00000000000E+00 -0.74505805969E-08  0.93827000000E+00  0.93827000000E+00 0. -1.
     999902    2    1    2    0    0  0.64983317516E-02 -0.40191447826E-02 -0.21768610253E-01  0.10208593643E+01  0.10205986417E+01 0.  0.
     999903    2    3    3    0    0  0.11268751058E+00  0.60731701885E-03 -0.68985888500E-01  0.13320683248E+00  0.16916368740E-01 0.  0.
         14    1    1    2    0    0 -0.64983317516E-02  0.40191447826E-02  0.21768610253E-01  0.23070635723E-01  0.00000000000E+00 0.  1.
     999901    1    3    3    0    0 -0.10618917883E+00 -0.46264618015E-02  0.47217278247E-01  0.88765253180E+00  0.88000000000E+00 0.  1.
        -11    1    4    4    0    0  0.68523095979E-01  0.62176871522E-02 -0.35008278457E-01  0.77200485734E-01  0.51100000000E-03 0.  1.
         11    1    4    4    0    0  0.44164414601E-01 -0.56103701333E-02 -0.33977610043E-01  0.56006346741E-01  0.51100000000E-03 0. -1.
</event>
<event>
 8    1  0.1112171E+005  0.1043930E+01  0.7957747E-01            NaN
         13   -1    0    0    0    0  0.00000000000E+00  0.00000000000E+00  0.74505805969E-08  0.10566000000E+00  0.10566000000E+00 0.  1.
     999900   -1    0    0    0    0 -0.00000000000E+00 -0.00000000000E+00 -0.74505805969E-08  0.93827000000E+00  0.93827000000E+00 0. -1.
     999902    2    1    2    0    0 -0.16157530925E-01 -0.10694104787E-01  0.14430909728E-01  0.10197705125E+01  0.10194842898E+01 0.  0.
     999903    2    3    3    0    0  0.49800617561E-01  0.11639150684E+00 -0.53267572826E-03  0.12807261579E+00  0.19370771726E-01 0.  0.
         14    1    1    2    0    0  0.16157530925E-01  0.10694104787E-01 -0.14430909728E-01  0.24159487543E-01  0.00000000000E+00 0. -1.
     999901    1    3    3    0    0 -0.65958148486E-01 -0.12708561163E+00  0.14963585456E-01  0.89169789667E+00  0.88000000000E+00 0. -1.
        -11    1    4    4    0    0  0.41164124177E-01  0.83182966527E-01 -0.72838364267E-02  0.93097832594E-01  0.51100000000E-03 0.  1.
         11    1    4    4    0    0  0.86364933834E-02  0.33208540313E-01  0.67511606985E-02  0.34974783194E-01  0.51100000000E-03 0. -1.
</event>
<event>
 8    1  0.1112171E+005  0.1043930E+01  0.7957747E-01            NaN
         13   -1    0    0    0    0  0.00000000000E+00  0.00000000000E+00  0.74505805969E-08  0.10566000000E+00  0.10566000000E+00 0. -1.
     999900   -1    0    0    0    0 -0.00000000000E+00 -0.00000000000E+00 -0.74505805969E-08  0.93827000000E+00  0.93827000000E+00 0.  1.
     999902    2    1    2    0    0  0.18757446510E-01 -0.24311326786E-02 -0.14309514299E-01  0.10202126139E+01  0.10199368917E+01 0.  0.
     999903    2    3    3    0    0  0.12768243499E+00 -0.31347502140E-01 -0.30659972612E-02  0.13295435033E+00  0.19544534688E-01 0.  0.
         14    1    1    2    0    0 -0.18757446510E-01  0.24311326786E-02  0.14309514299E-01  0.23717386137E-01  0.00000000000E+00 0. -1.
     999901    1    3    3    0    0 -0.10892498848E+00  0.28916369461E-01 -0.11243517038E-01  0.88725826354E+00  0.88000000000E+00 0.  1.
        -11    1    4    4    0    0  0.67284661498E-01 -0.72058568635E-02 -0.52236518994E-02  0.67872658017E-01  0.51100000000E-03 0.  1.
         11    1    4    4    0    0  0.60397773492E-01 -0.24141645276E-01  0.21576546381E-02  0.65081692310E-01  0.51100000000E-03 0. -1.
</event>
<event>
 8    1  0.1112171E+005  0.1043930E+01  0.7957747E-01            NaN
         13   -1    0    0    0    0  0.00000000000E+00  0.00000000000E+00  0.74505805969E-08  0.10566000000E+00  0.10566000000E+00 0. -1.
     999900   -1    0    0    0    0 -0.00000000000E+00 -0.00000000000E+00 -0.74505805969E-08  0.93827000000E+00  0.93827000000E+00 0. -1.
     999902    2    1    2    0    0 -0.28941774974E-01 -0.91888516303E-02  0.15199472923E-01  0.10099728901E+01  0.10094018791E+01 0.  0.
     999903    2    3    3    0    0  0.73112860803E-02  0.10662683376E+00  0.52630998136E-01  0.12085609438E+00  0.20333150327E-01 0.  0.
         14    1    1    2    0    0  0.28941774974E-01  0.91888516303E-02 -0.15199472923E-01  0.33957109860E-01  0.00000000000E+00 0. -1.
     999901    1    3    3    0    0 -0.36253061054E-01 -0.11581568539E+00 -0.37431525213E-01  0.88911679576E+00  0.88000000000E+00 0. -1.
        -11    1    4    4    0    0  0.12491089594E-01  0.77895536577E-01  0.44358491010E-01  0.90507893487E-01  0.51100000000E-03 0. -1.
         11    1    4    4    0    0 -0.51798035134E-02  0.28731297186E-01  0.82725071254E-02  0.30348200895E-01  0.51100000000E-03 0.  1.
</event>
<event>
 8    1  0.1112171E+005  0.1043930E+01  0.7957747E-01            NaN
         13   -1    0    0    0    0  0.00000000000E+00  0.00000000000E+00  0.74505805969E-08  0.10566000000E+00  0.10566000000E+00 0. -1.
     999900   -1    0    0    0    0 -0.00000000000E+00 -0.00000000000E+00 -0.74505805969E-08  0.93827000000E+00  0.93827000000E+00 0. -1.
     999902    2    1    2    0    0 -0.13363163457E-01  0.14168008809E-01  0.13569083192E-01  0.10201933905E+01  0.10199172160E+01 0.  0.
     999903    2    3    3    0    0  0.56073156996E-02 -0.85282287302E-01  0.96992819265E-01  0.13046884875E+00  0.17606901734E-01 0.  0.
         14    1    1    2    0    0  0.13363163457E-01 -0.14168008809E-01 -0.13569083192E-01  0.23736609486E-01  0.00000000000E+00 0.  1.
     999901    1    3    3    0    0 -0.18970479157E-01  0.99450296111E-01 -0.83423736073E-01  0.88972454176E+00  0.88000000000E+00 0. -1.
        -11    1    4    4    0    0  0.38187774496E-02 -0.17493214966E-01  0.31240857862E-01  0.36011775186E-01  0.51100000000E-03 0.  1.
         11    1    4    4    0    0  0.17885382500E-02 -0.67789072336E-01  0.65751961402E-01  0.94457073565E-01  0.51100000000E-03 0. -1.
</event>
<event>
 8    1  0.1112171E+005  0.1043930E+01  0.7957747E-01            NaN
         13   -1    0    0    0    0  0.00000000000E+00  0.00000000000E+00  0.74505805969E-08  0.10566000000E+00  0.10566000000E+00 0.  1.
     999900   -1    0    0    0    0 -0.00000000000E+00 -0.00000000000E+00 -0.74505805969E-08  0.93827000000E+00  0.93827000000E+00 0.  1.
     999902    2    1    2    0    0  0.69550640207E-02  0.17217174251E-01  0.14411135213E-01  0.10204250043E+01  0.10201542553E+01 0.  0.
     999903    2    3    3    0    0 -0.16856966227E-01  0.29286759421E-01 -0.12334163498E+00  0.12930856221E+00  0.19122597939E-01 0.  0.
         14    1    1    2    0    0 -0.69550640207E-02 -0.17217174251E-01 -0.14411135213E-01  0.23504995700E-01  0.00000000000E+00 0. -1.
     999901    1    3    3    0    0  0.23812030247E-01 -0.12069585171E-01  0.13775277020E+00  0.89111644209E+00  0.88000000000E+00 0. -1.
        -11    1    4    4    0    0 -0.12997398604E-01  0.47193498327E-02 -0.39404378264E-01  0.41763270714E-01  0.51100000000E-03 0.  1.
         11    1    4    4    0    0 -0.38595676227E-02  0.24567409589E-01 -0.83937256720E-01  0.87545291494E-01  0.51100000000E-03 0. -1.
</event>
<event>
 8    1  0.1112171E+005  0.1043930E+01  0.7957747E-01            NaN
         13   -1    0    0    0    0  0.00000000000E+00  0.00000000000E+00  0.74505805969E-08  0.10566000000E+00  0.10566000000E+00 0.  1.
     999900   -1    0    0    0    0 -0.00000000000E+00 -0.00000000000E+00 -0.74505805969E-08  0.93827000000E+00  0.93827000000E+00 0.  1.
     999902    2    1    2    0    0  0.16460187635E-01 -0.69170334723E-02 -0.15416102051E-01  0.10203410337E+01  0.10200683240E+01 0.  0.
     999903    2    3    3    0    0 -0.15369102337E-01 -0.94844979963E-02 -0.12957512681E+00  0.13239284911E+00  0.20297487461E-01 0.  0.
         14    1    1    2    0    0 -0.16460187635E-01  0.69170334723E-02  0.15416102051E-01  0.23588966308E-01  0.00000000000E+00 0.  1.
     999901    1    3    3    0    0  0.31829289971E-01  0.25674645240E-02  0.11415902476E+00  0.88794818459E+00  0.88000000000E+00 0.  1.
        -11    1    4    4    0    0 -0.65596888749E-02  0.19358001368E-02 -0.11142377617E-01  0.13083980291E-01  0.51100000000E-03 0. -1.
         11    1    4    4    0    0 -0.88094134618E-02 -0.11420298133E-01 -0.11843274920E+00  0.11930886882E+00  0.51100000000E-03 0.  1.
</event>
<event>
 8    1  0.1112171E+005  0.1043930E+01  0.7957747E-01            NaN
         13   -1    0    0    0    0  0.00000000000E+00  0.00000000000E+00  0.74505805969E-08  0.10566000000E+00  0.10566000000E+00 0. -1.
     999900   -1    0    0    0    0 -0.00000000000E+00 -0.00000000000E+00 -0.74505805969E-08  0.93827000000E+00  0.93827000000E+00 0. -1.
     999902    2    1    2    0    0 -0.36475049458E-02  0.15387894818E-01  0.17167345985E-01  0.10205888482E+01  0.10203219040E+01 0.  0.
     999903    2    3    3    0    0  0.22515584703E-01 -0.11653932111E+00  0.48637119580E-01  0.12981410439E+00  0.19944106366E-01 0.  0.
         14    1    1    2    0    0  0.36475049458E-02 -0.15387894818E-01 -0.17167345985E-01  0.23341151802E-01  0.00000000000E+00 0. -1.
     999901    1    3    3    0    0 -0.26163089649E-01  0.13192721592E+00 -0.31469773595E-01  0.89077474381E+00  0.88000000000E+00 0. -1.
        -11    1    4    4    0    0  0.29270340811E-02 -0.54196911111E-01  0.14984571879E-01  0.56308713516E-01  0.51100000000E-03 0.  1.
         11    1    4    4    0    0  0.19588550622E-01 -0.62342409994E-01  0.33652547701E-01  0.73505390871E-01  0.51100000000E-03 0. -1.
</event>
<event>
 8    1  0.1112171E+005  0.1043930E+01  0.7957747E-01            NaN
         13   -1    0    0    0    0  0.00000000000E+00  0.00000000000E+00  0.74505805969E-08  0.10566000000E+00  0.10566000000E+00 0. -1.
     999900   -1    0    0    0    0 -0.00000000000E+00 -0.00000000000E+00 -0.74505805969E-08  0.93827000000E+00  0.93827000000E+00 0.  1.
     999902    2    1    2    0    0 -0.21493138149E-02 -0.21315440567E-01  0.93440581732E-02  0.10205573883E+01  0.10202897156E+01 0.  0.
     999903    2    3    3    0    0 -0.56158697589E-01 -0.92405898757E-01  0.76351155353E-01  0.13350563224E+00  0.17366792348E-01 0.  0.
         14    1    1    2    0    0  0.21493138149E-02  0.21315440567E-01 -0.93440581732E-02  0.23372611741E-01  0.00000000000E+00 0. -1.
     999901    1    3    3    0    0  0.54009383774E-01  0.71090458190E-01 -0.67007097180E-01  0.88705175602E+00  0.88000000000E+00 0.  1.
        -11    1    4    4    0    0 -0.27334699001E-01 -0.58027340542E-01  0.51179381614E-01  0.82060637599E-01  0.51100000000E-03 0. -1.
         11    1    4    4    0    0 -0.28823998588E-01 -0.34378558215E-01  0.25171773739E-01  0.51444994642E-01  0.51100000000E-03 0.  1.
</event>
<event>
 8    1  0.1112171E+005  0.1043930E+01  0.7957747E-01            NaN
         13   -1    0    0    0    0  0.00000000000E+00  0.00000000000E+00  0.74505805969E-08  0.10566000000E+00  0.10566000000E+00 0. -1.
     999900   -1    0    0    0    0 -0.00000000000E+00 -0.00000000000E+00 -0.74505805969E-08  0.93827000000E+00  0.93827000000E+00 0.  1.
     999902    2    1    2    0    0 -0.11420614513E-01  0.21162507008E-01 -0.47780156242E-04  0.10198824550E+01  0.10195989101E+01 0.  0.
     999903    2    3    3    0    0 -0.84019607013E-01  0.52454022497E-01 -0.85126287904E-01  0.13225183071E+00  0.20816892063E-01 0.  0.
         14    1    1    2    0    0  0.11420614513E-01 -0.21162507008E-01  0.47780156242E-04  0.24047545024E-01  0.00000000000E+00 0. -1.
     999901    1    3    3    0    0  0.72598992501E-01 -0.31291515489E-01  0.85078507748E-01  0.88763062427E+00  0.88000000000E+00 0. -1.
        -11    1    4    4    0    0 -0.12328891394E-01  0.11773277111E-01 -0.24827713799E-01  0.30121223588E-01  0.51100000000E-03 0. -1.
         11    1    4    4    0    0 -0.71690715619E-01  0.40680745387E-01 -0.60298574105E-01  0.10213060712E+00  0.51100000000E-03 0.  1.
</event>
<event>
 8    1  0.1112171E+005  0.1043930E+01  0.7957747E-01            NaN
         13   -1    0    0    0    0  0.00000000000E+00  0.00000000000E+00  0.74505805969E-08  0.10566000000E+00  0.10566000000E+00 0. -1.
     999900   -1    0    0    0    0 -0.00000000000E+00 -0.00000000000E+00 -0.74505805969E-08  0.93827000000E+00  0.93827000000E+00 0. -1.
     999902    2    1    2    0    0 -0.20441493989E-01 -0.10829589103E-01 -0.85367955707E-02  0.10192721097E+01  0.10189738083E+01 0.  0.
     999903    2    3    3    0    0  0.44170346929E-02 -0.10679580050E+00 -0.73589542081E-01  0.13131979113E+00  0.20115010315E-01 0.  0.
         14    1    1    2    0    0  0.20441493989E-01  0.10829589103E-01  0.85367955707E-02  0.24657890324E-01  0.00000000000E+00 0.  1.
     999901    1    3    3    0    0 -0.24858528682E-01  0.95966211395E-01  0.65052746510E-01  0.88795231854E+00  0.88000000000E+00 0.  1.
        -11    1    4    4    0    0  0.46915652520E-02 -0.63174041971E-01 -0.31698843645E-01  0.70838183015E-01  0.51100000000E-03 0.  1.
         11    1    4    4    0    0 -0.27453055916E-03 -0.43621758527E-01 -0.41890698436E-01  0.60481608118E-01  0.51100000000E-03 0. -1.
</event>
<event>
 8    1  0.1112171E+005  0.1043930E+01  0.7957747E-01            NaN
         13   -1    0    0    0    0  0.00000000000E+00  0.00000000000E+00  0.74505805969E-08  0.10566000000E+00  0.10566000000E+00 0. -1.
     999900   -1    0    0    0    0 -0.00000000000E+00 -0.00000000000E+00 -0.74505805969E-08  0.93827000000E+00  0.93827000000E+00 0. -1.
     999902    2    1    2    0    0  0.89385672980E-02  0.10710315891E-01  0.23199013855E-01  0.10168596639E+01  0.10164992735E+01 0.  0.
     999903    2    3    3    0    0  0.28131397200E-01 -0.60407735392E-01 -0.10313515688E+00  0.12479102046E+00  0.22259114966E-01 0.  0.
         14    1    1    2    0    0 -0.89385672980E-02 -0.10710315891E-01 -0.23199013855E-01  0.27070336083E-01  0.00000000000E+00 0.  1.
     999901    1    3    3    0    0 -0.19192829902E-01  0.71118051282E-01  0.12633417074E+00  0.89206864345E+00  0.88000000000E+00 0.  1.
        -11    1    4    4    0    0  0.16639779271E-01 -0.54497058944E-01 -0.78964165158E-01  0.97377678078E-01  0.51100000000E-03 0. -1.
         11    1    4    4    0    0  0.11491617929E-01 -0.59106764479E-02 -0.24170991725E-01  0.27413342384E-01  0.51100000000E-03 0.  1.
</event>
<event>
 8    1  0.1112171E+005  0.1043930E+01  0.7957747E-01            NaN
         13   -1    0    0    0    0  0.00000000000E+00  0.00000000000E+00  0.74505805969E-08  0.10566000000E+00  0.10566000000E+00 0. -1.
     999900   -1    0    0    0    0 -0.00000000000E+00 -0.00000000000E+00 -0.74505805969E-08  0.93827000000E+00  0.93827000000E+00 0. -1.
     999902    2    1    2    0    0  0.24347571510E-01  0.61192674212E-03  0.18461606346E-02  0.10195048695E+01  0.10192122408E+01 0.  0.
     999903    2    3    3    0    0 -0.47520156968E-01 -0.92775770195E-01  0.72887121382E-01  0.12881241387E+00  0.20361646575E-01 0.  0.
         14    1    1    2    0    0 -0.24347571510E-01 -0.61192674212E-03 -0.18461606346E-02  0.24425130539E-01  0.00000000000E+00 0.  1.
     999901    1    3    3    0    0  0.71867728477E-01  0.93387696937E-01 -0.71040960747E-01  0.89069245559E+00  0.88000000000E+00 0. -1.
        -11    1    4    4    0    0 -0.33418808812E-01 -0.55622093035E-01  0.55676161221E-01  0.85502807354E-01  0.51100000000E-03 0. -1.
         11    1    4    4    0    0 -0.14101348155E-01 -0.37153677160E-01  0.17210960160E-01  0.43309606520E-01  0.51100000000E-03 0.  1.
</event>
<event>
 8    1  0.1112171E+005  0.1043930E+01  0.7957747E-01            NaN
         13   -1    0    0    0    0  0.00000000000E+00  0.00000000000E+00  0.74505805969E-08  0.10566000000E+00  0.10566000000E+00 0.  1.
     999900   -1    0    0    0    0 -0.00000000000E+00 -0.00000000000E+00 -0.74505805969E-08  0.93827000000E+00  0.93827000000E+00 0.  1.
     999902    2    1    2    0    0 -0.38136582307E-03  0.26244000527E-01  0.77990575836E-02  0.10165490157E+01  0.10161801922E+01 0.  0.
     999903    2    3    3    0    0 -0.12547393117E+00  0.10093573775E-01  0.30857267091E-02  0.12754327796E+00  0.20302177435E-01 0.  0.
         14    1    1    2    0    0  0.38136582307E-03 -0.26244000527E-01 -0.77990575836E-02  0.27380984328E-01  0.00000000000E+00 0. -1.
     999901    1    3    3    0    0  0.12509256535E+00  0.16150426753E-01  0.47133308746E-02  0.88900573771E+00  0.88000000000E+00 0. -1.
        -11    1    4    4    0    0 -0.68643465210E-01  0.50587913487E-03 -0.71033372361E-02  0.69013764936E-01  0.51100000000E-03 0. -1.
         11    1    4    4    0    0 -0.56830465964E-01  0.95876946399E-02  0.10189063945E-01  0.58529513028E-01  0.51100000000E-03 0.  1.
</event>
<event>
 8    1  0.1112171E+005  0.1043930E+01  0.7957747E-01            NaN
         13   -1    0    0    0    0  0.00000000000E+00  0.00000000000E+00  0.74505805969E-08  0.10566000000E+00  0.10566000000E+00 0. -1.
     999900   -1    0    0    0    0 -0.00000000000E+00 -0.00000000000E+00 -0.74505805969E-08  0.93827000000E+00  0.93827000000E+00 0.  1.
     999902    2    1    2    0    0  0.15934025326E-01 -0.13046669467E-01 -0.11234239403E-01  0.10204711662E+01  0.10202014920E+01 0.  0.
     999903    2    3    3    0    0 -0.99266501074E-01 -0.73052410198E-01  0.35345555748E-01  0.12971781791E+00  0.19670055983E-01 0.  0.
         14    1    1    2    0    0 -0.15934025326E-01  0.13046669467E-01  0.11234239403E-01  0.23458833778E-01  0.00000000000E+00 0. -1.
     999901    1    3    3    0    0  0.11520052640E+00  0.60005740731E-01 -0.46579795152E-01  0.89075334831E+00  0.88000000000E+00 0. -1.
        -11    1    4    4    0    0 -0.23942825269E-03 -0.26403660102E-02 -0.10157915788E-02  0.28847551174E-02  0.51100000000E-03 0. -1.
         11    1    4    4    0    0 -0.99027072821E-01 -0.70412044187E-01  0.36361347327E-01  0.12683306280E+00  0.51100000000E-03 0.  1.
</event>
<event>
 8    1  0.1112171E+005  0.1043930E+01  0.7957747E-01            NaN
         13   -1    0    0    0    0  0.00000000000E+00  0.00000000000E+00  0.74505805969E-08  0.10566000000E+00  0.10566000000E+00 0.  1.
     999900   -1    0    0    0    0 -0.00000000000E+00 -0.00000000000E+00 -0.74505805969E-08  0.93827000000E+00  0.93827000000E+00 0.  1.
     999902    2    1    2    0    0  0.19085329781E-01 -0.13739962159E-01  0.38017080049E-02  0.10201079649E+01  0.10198297753E+01 0.  0.
     999903    2    3    3    0    0 -0.23200928040E-01  0.12306930079E+00  0.20461253563E-01  0.12837793709E+00  0.19439546698E-01 0.  0.
         14    1    1    2    0    0 -0.19085329781E-01  0.13739962159E-01 -0.38017080049E-02  0.23822035108E-01  0.00000000000E+00 0. -1.
     999901    1    3    3    0    0  0.42286257820E-01 -0.13680926294E+00 -0.16659545558E-01  0.89173002780E+00  0.88000000000E+00 0. -1.
        -11    1    4    4    0    0 -0.23949274107E-02  0.65069119872E-01  0.10335887044E-01  0.65930400576E-01  0.51100000000E-03 0. -1.
         11    1    4    4    0    0 -0.20806000629E-01  0.58000180914E-01  0.10125366519E-01  0.62447536512E-01  0.51100000000E-03 0.  1.
</event>
<event>
 8    1  0.1112171E+005  0.1043930E+01  0.7957747E-01            NaN
         13   -1    0    0    0    0  0.00000000000E+00  0.00000000000E+00  0.74505805969E-08  0.10566000000E+00  0.10566000000E+00 0. -1.
     999900   -1    0    0    0    0 -0.00000000000E+00 -0.00000000000E+00 -0.74505805969E-08  0.93827000000E+00  0.93827000000E+00 0. -1.
     999902    2    1    2    0    0  0.28508214705E-02 -0.18072682874E-01 -0.15644249222E-01  0.10198573686E+01  0.10195732248E+01 0.  0.
     999903    2    3    3    0    0 -0.12721468439E+00  0.26942762698E-03  0.16776978889E-01  0.12951776773E+00  0.17599335776E-01 0.  0.
         14    1    1    2    0    0 -0.28508214705E-02  0.18072682874E-01  0.15644249222E-01  0.24072631411E-01  0.00000000000E+00 0. -1.
     999901    1    3    3    0    0  0.13006550586E+00 -0.18342110501E-01 -0.32421228111E-01  0.89033960086E+00  0.88000000000E+00 0. -1.
        -11    1    4    4    0    0 -0.43300580980E-01  0.70918329987E-02  0.12033209562E-02  0.43896964711E-01  0.51100000000E-03 0.  1.
         11    1    4    4    0    0 -0.83914103412E-01 -0.68224053717E-02  0.15573657933E-01  0.85620803015E-01  0.51100000000E-03 0. -1.
</event>
<event>
 8    1  0.1112171E+005  0.1043930E+01  0.7957747E-01            NaN
         13   -1    0    0    0    0  0.00000000000E+00  0.00000000000E+00  0.74505805969E-08  0.10566000000E+00  0.10566000000E+00 0. -1.
     999900   -1    0    0    0    0 -0.00000000000E+00 -0.00000000000E+00 -0.74505805969E-08  0.93827000000E+00  0.93827000000E+00 0.  1.
     999902    2    1    2    0    0 -0.19325765427E-01 -0.15977815804E-02 -0.13850146314E-01  0.10201000888E+01  0.10198217131E+01 0.  0.
     999903    2    3    3    0    0  0.83793109127E-01 -0.88566904310E-01  0.35517808062E-01  0.12845311520E+00  0.19321139678E-01 0.  0.
         14    1    1    2    0    0  0.19325765427E-01  0.15977815804E-02  0.13850146314E-01  0.23829911209E-01  0.00000000000E+00 0. -1.
     999901    1    3    3    0    0 -0.10311887455E+00  0.86969122730E-01 -0.49367954375E-01  0.89164697359E+00  0.88000000000E+00 0. -1.
        -11    1    4    4    0    0  0.70345824192E-01 -0.82517427505E-01  0.28510576274E-01  0.11211946710E+00  0.51100000000E-03 0. -1.
         11    1    4    4    0    0  0.13447284934E-01 -0.60494768050E-02  0.70072317879E-02  0.16333648094E-01  0.51100000000E-03 0.  1.
</event>
<event>
 8    1  0.1112171E+005  0.1043930E+01  0.7957747E-01            NaN
         13   -1    0    0    0    0  0.00000000000E+00  0.00000000000E+00  0.74505805969E-08  0.10566000000E+00  0.10566000000E+00 0. -1.
     999900   -1    0    0    0    0 -0.00000000000E+00 -0.00000000000E+00 -0.74505805969E-08  0.93827000000E+00  0.93827000000E+00 0.  1.
     999902    2    1    2    0    0 -0.11432883702E-01 -0.20140640758E-01  0.41590789036E-03  0.10207668996E+01  0.10205040589E+01 0.  0.
     999903    2    3    3    0    0 -0.12727632554E+00 -0.11308931391E-01  0.29236669029E-01  0.13266311155E+00  0.20434367560E-01 0.  0.
         14    1    1    2    0    0  0.11432883702E-01  0.20140640758E-01 -0.41590789036E-03  0.23163100381E-01  0.00000000000E+00 0. -1.
     999901    1    3    3    0    0  0.11584344184E+00 -0.88317093674E-02 -0.28820761139E-01  0.88810378807E+00  0.88000000000E+00 0.  1.
        -11    1    4    4    0    0 -0.10051630996E+00 -0.17941921104E-02  0.18088160147E-01  0.10214788471E+00  0.51100000000E-03 0.  1.
         11    1    4    4    0    0 -0.26760015587E-01 -0.95147392804E-02  0.11148508882E-01  0.30515226840E-01  0.51100000000E-03 0. -1.
</event>
<event>
 8    1  0.1112171E+005  0.1043930E+01  0.7957747E-01            NaN
         13   -1    0    0    0    0  0.00000000000E+00  0.00000000000E+00  0.74505805969E-08  0.10566000000E+00  0.10566000000E+00 0.  1.
     999900   -1    0    0    0    0 -0.00000000000E+00 -0.00000000000E+00 -0.74505805969E-08  0.93827000000E+00  0.93827000000E+00 0.  1.
     999902    2    1    2    0    0 -0.20114834218E-01 -0.79987282051E-02  0.95258015209E-02  0.10202799027E+01  0.10200057611E+01 0.  0.
     999903    2    3    3    0    0 -0.50020144708E-01 -0.39919644872E-01 -0.11251029771E+00  0.13078224556E+00  0.18703896376E-01 0.  0.
         14    1    1    2    0    0  0.20114834218E-01  0.79987282051E-02 -0.95258015209E-02  0.23650097318E-01  0.00000000000E+00 0. -1.
     999901    1    3    3    0    0  0.29905310490E-01  0.31920916667E-01  0.12203609923E+00  0.88949765713E+00  0.88000000000E+00 0. -1.
        -11    1    4    4    0    0 -0.20311584918E-01 -0.11724754191E-01 -0.58256841182E-01  0.62802476131E-01  0.51100000000E-03 0.  1.
         11    1    4    4    0    0 -0.29708559790E-01 -0.28194890682E-01 -0.54253456524E-01  0.67979769426E-01  0.51100000000E-03 0. -1.
</event>
<event>
 8    1  0.1112171E+005  0.1043930E+01  0.7957747E-01            NaN
         13   -1    0    0    0    0  0.00000000000E+00  0.00000000000E+00  0.74505805969E-08  0.10566000000E+00  0.10566000000E+00 0.  1.
     999900   -1    0    0    0    0 -0.00000000000E+00 -0.00000000000E+00 -0.74505805969E-08  0.93827000000E+00  0.93827000000E+00 0. -1.
     999902    2    1    2    0    0  0.14628813486E-01 -0.60548037939E-02  0.18009480983E-01  0.10199507540E+01  0.10196688366E+01 0.  0.
     999903    2    3    3    0    0  0.14601514940E-01 -0.12713988957E+00 -0.18741537363E-01  0.13089944160E+00  0.20141073230E-01 0.  0.
         14    1    1    2    0    0 -0.14628813486E-01  0.60548037939E-02 -0.18009480983E-01  0.23979245990E-01  0.00000000000E+00 0. -1.
     999901    1    3    3    0    0  0.27298546334E-04  0.12108508578E+00  0.36751018346E-01  0.88905131241E+00  0.88000000000E+00 0.  1.
        -11    1    4    4    0    0  0.12585733063E-01 -0.42940411913E-01 -0.65669765933E-03  0.44754575463E-01  0.51100000000E-03 0. -1.
         11    1    4    4    0    0  0.20157818762E-02 -0.84199477657E-01 -0.18084839704E-01  0.86144866140E-01  0.51100000000E-03 0.  1.
</event>
<event>
 8    1  0.1112171E+005  0.1043930E+01  0.7957747E-01            NaN
         13   -1    0    0    0    0  0.00000000000E+00  0.00000000000E+00  0.74505805969E-08  0.10566000000E+00  0.10566000000E+00 0.  1.
     999900   -1    0    0    0    0 -0.00000000000E+00 -0.00000000000E+00 -0.74505805969E-08  0.93827000000E+00  0.93827000000E+00 0. -1.
     999902    2    1    2    0    0 -0.10300452634E-01  0.21111711116E-02  0.21296528790E-01  0.10201792420E+01  0.10199027342E+01 0.  0.
     999903    2    3    3    0    0 -0.74086019576E-01  0.41126853630E-01 -0.95496954057E-01  0.12931924194E+00  0.20582558553E-01 0.  0.
         14    1    1    2    0    0  0.10300452634E-01 -0.21111711116E-02 -0.21296528790E-01  0.23750758018E-01  0.00000000000E+00 0. -1.
     999901    1    3    3    0    0  0.63785566942E-01 -0.39015682518E-01  0.11679348285E+00  0.89086000004E+00  0.88000000000E+00 0.  1.
        -11    1    4    4    0    0 -0.44842620221E-01  0.19614576087E-01 -0.67952826639E-01  0.83746283217E-01  0.51100000000E-03 0. -1.
         11    1    4    4    0    0 -0.29243399355E-01  0.21512277543E-01 -0.27544127418E-01  0.45572958727E-01  0.51100000000E-03 0.  1.
</event>
<event>
 8    1  0.1112171E+005  0.1043930E+01  0.7957747E-01            NaN
         13   -1    0    0    0    0  0.00000000000E+00  0.00000000000E+00  0.74505805969E-08  0.10566000000E+00  0.10566000000E+00 0. -1.
     999900   -1    0    0    0    0 -0.00000000000E+00 -0.00000000000E+00 -0.74505805969E-08  0.93827000000E+00  0.93827000000E+00 0. -1.
     999902    2    1    2    0    0  0.20887721159E-01 -0.71674096272E-02 -0.80938834538E-02  0.10204102295E+01  0.10201391360E+01 0.  0.
     999903    2    3    3    0    0 -0.75808097716E-01  0.61340683218E-01  0.80617275002E-01  0.12804645287E+00  0.19677448172E-01 0.  0.
         14    1    1    2    0    0 -0.20887721159E-01  0.71674096272E-02  0.80938834538E-02  0.23519770520E-01  0.00000000000E+00 0.  1.
     999901    1    3    3    0    0  0.96695818875E-01 -0.68508092845E-01 -0.88711158455E-01  0.89236377661E+00  0.88000000000E+00 0. -1.
        -11    1    4    4    0    0 -0.20508615222E-01  0.27402244133E-01  0.22712114030E-01  0.41080257139E-01  0.51100000000E-03 0.  1.
         11    1    4    4    0    0 -0.55299482494E-01  0.33938439085E-01  0.57905160971E-01  0.86966195730E-01  0.51100000000E-03 0. -1.
</event>
<event>
 8    1  0.1112171E+005  0.1043930E+01  0.7957747E-01            NaN
         13   -1    0    0    0    0  0.00000000000E+00  0.00000000000E+00  0.74505805969E-08  0.10566000000E+00  0.10566000000E+00 0. -1.
     999900   -1    0    0    0    0 -0.00000000000E+00 -0.00000000000E+00 -0.74505805969E-08  0.93827000000E+00  0.93827000000E+00 0.  1.
     999902    2    1    2    0    0  0.17909567460E-01  0.72791705131E-02  0.13892704132E-01  0.10201235690E+01  0.10198457481E+01 0.  0.
     999903    2    3    3    0    0 -0.20244474806E-01 -0.19964679780E-01 -0.12338595104E+00  0.12824723927E+00  0.20367480633E-01 0.  0.
         14    1    1    2    0    0 -0.17909567460E-01 -0.72791705131E-02 -0.13892704132E-01  0.23806431023E-01  0.00000000000E+00 0.  1.
     999901    1    3    3    0    0  0.38154042266E-01  0.27243850293E-01  0.13727865517E+00  0.89187632970E+00  0.88000000000E+00 0. -1.
        -11    1    4    4    0    0 -0.17125406339E-01 -0.27094981136E-02 -0.65865971822E-01  0.68111733845E-01  0.51100000000E-03 0.  1.
         11    1    4    4    0    0 -0.31190684666E-02 -0.17255181666E-01 -0.57519979221E-01  0.60135505427E-01  0.51100000000E-03 0. -1.
</event>
<event>
 8    1  0.1237897E+005  0.1043930E+01  0.7957747E-01            NaN
         13   -1    0    0    0    0  0.00000000000E+00  0.00000000000E+00  0.74505805969E-08  0.10566000000E+00  0.10566000000E+00 0. -1.
     999900   -1    0    0    0    0 -0.00000000000E+00 -0.00000000000E+00 -0.74505805969E-08  0.93827000000E+00  0.93827000000E+00 0.  1.
     999902    2    1    2    0    0 -0.12069455562E-01 -0.78109401434E-02 -0.18310125369E-01  0.10206503257E+01  0.10203848020E+01 0.  0.
     999903    2    3    3    0    0 -0.66332414090E-02 -0.15651701162E-01 -0.13071221339E+00  0.13344952582E+00  0.20835488241E-01 0.  0.
         14    1    1    2    0    0  0.12069455562E-01  0.78109401434E-02  0.18310125369E-01  0.23279674279E-01  0.00000000000E+00 0. -1.
     999901    1    3    3    0    0 -0.54362141525E-02  0.78407610187E-02  0.11240208802E+00  0.88720079990E+00  0.88000000000E+00 0. -1.
        -11    1    4    4    0    0 -0.12329420335E-01 -0.14872434511E-01 -0.75407518211E-01  0.77844452839E-01  0.51100000000E-03 0. -1.
         11    1    4    4    0    0  0.56961789260E-02 -0.77926665078E-03 -0.55304695182E-01  0.55605072979E-01  0.51100000000E-03 0.  1.
</event>
<event>
 8    1  0.1112171E+005  0.1043930E+01  0.7957747E-01            NaN
         13   -1    0    0    0    0  0.00000000000E+00  0.00000000000E+00  0.74505805969E-08  0.10566000000E+00  0.10566000000E+00 0. -1.
     999900   -1    0    0    0    0 -0.00000000000E+00 -0.00000000000E+00 -0.74505805969E-08  0.93827000000E+00  0.93827000000E+00 0.  1.
     999902    2    1    2    0    0 -0.16702130902E-01  0.15879399770E-01 -0.33458752155E-02  0.10206424197E+01  0.10203767136E+01 0.  0.
     999903    2    3    3    0    0 -0.12644200290E+00  0.37450301284E-01 -0.70339914554E-02  0.13355632160E+00  0.19942638759E-01 0.  0.
         14    1    1    2    0    0  0.16702130902E-01 -0.15879399770E-01  0.33458752155E-02  0.23287580266E-01  0.00000000000E+00 0. -1.
     999901    1    3    3    0    0  0.10973987200E+00 -0.21570901515E-01  0.36881162399E-02  0.88708609813E+00  0.88000000000E+00 0.  1.
        -11    1    4    4    0    0 -0.39959845008E-01  0.23489180449E-02 -0.16812940586E-02  0.40067374505E-01  0.51100000000E-03 0. -1.
         11    1    4    4    0    0 -0.86482157891E-01  0.35101383239E-01 -0.53526973968E-02  0.93488947096E-01  0.51100000000E-03 0.  1.
</event>
<event>
 8    1  0.1112171E+005  0.1043930E+01  0.7957747E-01            NaN
         13   -1    0    0    0    0  0.00000000000E+00  0.00000000000E+00  0.74505805969E-08  0.10566000000E+00  0.10566000000E+00 0.  1.
     999900   -1    0    0    0    0 -0.00000000000E+00 -0.00000000000E+00 -0.74505805969E-08  0.93827000000E+00  0.93827000000E+00 0.  1.
     999902    2    1    2    0    0  0.20151877137E-01 -0.61729863808E-02 -0.58018757223E-02  0.10220698610E+01  0.10218360608E+01 0.  0.
     999903    2    3    3    0    0  0.97078937526E-01  0.39833685755E-01  0.79796826253E-01  0.13338458252E+00  0.20319220976E-01 0.  0.
         14    1    1    2    0    0 -0.20151877137E-01  0.61729863808E-02  0.58018757223E-02  0.21860138950E-01  0.00000000000E+00 0.  1.
     999901    1    3    3    0    0 -0.76927060389E-01 -0.46006672136E-01 -0.85598701976E-01  0.88868527853E+00  0.88000000000E+00 0. -1.
        -11    1    4    4    0    0  0.71346173798E-01  0.29085867959E-01  0.46677087754E-01  0.90084825985E-01  0.51100000000E-03 0.  1.
         11    1    4    4    0    0  0.25732763728E-01  0.10747817796E-01  0.33119738499E-01  0.43299756532E-01  0.51100000000E-03 0. -1.
</event>
<event>
 8    1  0.1112171E+005  0.1043930E+01  0.7957747E-01            NaN
         13   -1    0    0    0    0  0.00000000000E+00  0.00000000000E+00  0.74505805969E-08  0.10566000000E+00  0.10566000000E+00 0. -1.
     999900   -1    0    0    0    0 -0.00000000000E+00 -0.00000000000E+00 -0.74505805969E-08  0.93827000000E+00  0.93827000000E+00 0. -1.
     999902    2    1    2    0    0 -0.71738411820E-02 -0.13038791465E-01  0.18569061521E-01  0.10201332749E+01  0.10198556831E+01 0.  0.
     999903    2    3    3    0    0  0.47838190650E-01 -0.11773260341E+00 -0.25574995493E-01  0.13112494215E+00  0.19753776059E-01 0.  0.
         14    1    1    2    0    0  0.71738411820E-02  0.13038791465E-01 -0.18569061521E-01  0.23796725110E-01  0.00000000000E+00 0. -1.
     999901    1    3    3    0    0 -0.55012031832E-01  0.10469381195E+00  0.44144057014E-01  0.88900833274E+00  0.88000000000E+00 0.  1.
        -11    1    4    4    0    0 -0.62552424551E-04 -0.90270099878E-02  0.17999393599E-02  0.92190956620E-02  0.51100000000E-03 0. -1.
         11    1    4    4    0    0  0.47900743075E-01 -0.10870559343E+00 -0.27374934853E-01  0.12190584649E+00  0.51100000000E-03 0.  1.
</event>
<event>
 8    1  0.1112171E+005  0.1043930E+01  0.7957747E-01            NaN
         13   -1    0    0    0    0  0.00000000000E+00  0.00000000000E+00  0.74505805969E-08  0.10566000000E+00  0.10566000000E+00 0.  1.
     999900   -1    0    0    0    0 -0.00000000000E+00 -0.00000000000E+00 -0.74505805969E-08  0.93827000000E+00  0.93827000000E+00 0.  1.
     999902    2    1    2    0    0 -0.22733268614E-01 -0.82919137126E-03 -0.57445569692E-02  0.10204674981E+01  0.10201977385E+01 0.  0.
     999903    2    3    3    0    0 -0.83320865875E-01 -0.82481262393E-01  0.58156501968E-01  0.13231139529E+00  0.19457678843E-01 0.  0.
         14    1    1    2    0    0  0.22733268614E-01  0.82919137126E-03  0.57445569692E-02  0.23462501891E-01  0.00000000000E+00 0.  1.
     999901    1    3    3    0    0  0.60587597261E-01  0.81652071022E-01 -0.63901058937E-01  0.88815610282E+00  0.88000000000E+00 0. -1.
        -11    1    4    4    0    0 -0.59434378440E-01 -0.63742285384E-01  0.51478621244E-01  0.10122170643E+00  0.51100000000E-03 0. -1.
         11    1    4    4    0    0 -0.23886487435E-01 -0.18738977009E-01  0.66778807237E-02  0.31089688858E-01  0.51100000000E-03 0.  1.
</event>
<event>
 8    1  0.1112171E+005  0.1043930E+01  0.7957747E-01            NaN
         13   -1    0    0    0    0  0.00000000000E+00  0.00000000000E+00  0.74505805969E-08  0.10566000000E+00  0.10566000000E+00 0. -1.
     999900   -1    0    0    0    0 -0.00000000000E+00 -0.00000000000E+00 -0.74505805969E-08  0.93827000000E+00  0.93827000000E+00 0.  1.
     999902    2    1    2    0    0 -0.18322677628E-01  0.50723830668E-02 -0.15064446548E-01  0.10196733074E+01  0.10193847491E+01 0.  0.
     999903    2    3    3    0    0  0.88705707669E-01 -0.48741441542E-01 -0.78682606422E-01  0.12928110549E+00  0.16679957641E-01 0.  0.
         14    1    1    2    0    0  0.18322677628E-01 -0.50723830668E-02  0.15064446548E-01  0.24256692586E-01  0.00000000000E+00 0. -1.
     999901    1    3    3    0    0 -0.10702838530E+00  0.53813824609E-01  0.63618159874E-01  0.89039220192E+00  0.88000000000E+00 0. -1.
        -11    1    4    4    0    0  0.56174389309E-01 -0.38098947091E-01 -0.58029459210E-01  0.89301573564E-01  0.51100000000E-03 0.  1.
         11    1    4    4    0    0  0.32531318360E-01 -0.10642494451E-01 -0.20653147212E-01  0.39979531927E-01  0.51100000000E-03 0. -1.
</event>
<event>
 8    1  0.1112171E+005  0.1043930E+01  0.7957747E-01            NaN
         13   -1    0    0    0    0  0.00000000000E+00  0.00000000000E+00  0.74505805969E-08  0.10566000000E+00  0.10566000000E+00 0.  1.
     999900   -1    0    0    0    0 -0.00000000000E+00 -0.00000000000E+00 -0.74505805969E-08  0.93827000000E+00  0.93827000000E+00 0. -1.
     999902    2    1    2    0    0  0.28381929893E-02 -0.33453206267E-02  0.21571583855E-01  0.10219168280E+01  0.10216797070E+01 0.  0.
     999903    2    3    3    0    0 -0.74355887363E-01  0.96664603976E-01 -0.42269968880E-01  0.13060506726E+00  0.19952184773E-01 0.  0.
         14    1    1    2    0    0 -0.28381929893E-02  0.33453206267E-02 -0.21571583855E-01  0.22013171955E-01  0.00000000000E+00 0. -1.
     999901    1    3    3    0    0  0.77194080352E-01 -0.10000992460E+00  0.63841552734E-01  0.89131176079E+00  0.88000000000E+00 0.  1.
        -11    1    4    4    0    0 -0.45834446541E-01  0.56198661631E-01 -0.14909492498E-01  0.74038099289E-01  0.51100000000E-03 0.  1.
         11    1    4    4    0    0 -0.28521440822E-01  0.40465942345E-01 -0.27360476381E-01  0.56566967969E-01  0.51100000000E-03 0. -1.
</event>
<event>
 8    1  0.1112171E+005  0.1043930E+01  0.7957747E-01            NaN
         13   -1    0    0    0    0  0.00000000000E+00  0.00000000000E+00  0.74505805969E-08  0.10566000000E+00  0.10566000000E+00 0.  1.
     999900   -1    0    0    0    0 -0.00000000000E+00 -0.00000000000E+00 -0.74505805969E-08  0.93827000000E+00  0.93827000000E+00 0. -1.
     999902    2    1    2    0    0 -0.13664509866E-01 -0.92383374277E-02 -0.17054507752E-01  0.10202040239E+01  0.10199280996E+01 0.  0.
     999903    2    3    3    0    0 -0.48169857750E-01  0.61590208802E-01 -0.10485733253E+00  0.13233205223E+00  0.20075428916E-01 0.  0.
         14    1    1    2    0    0  0.13664509866E-01  0.92383374277E-02  0.17054507752E-01  0.23725976123E-01  0.00000000000E+00 0. -1.
     999901    1    3    3    0    0  0.34505347884E-01 -0.70828546230E-01  0.87802824780E-01  0.88787197165E+00  0.88000000000E+00 0.  1.
        -11    1    4    4    0    0 -0.20875450126E-01  0.40988950164E-01 -0.67491845477E-01  0.81677957739E-01  0.51100000000E-03 0. -1.
         11    1    4    4    0    0 -0.27294407624E-01  0.20601258638E-01 -0.37365487056E-01  0.50654094494E-01  0.51100000000E-03 0.  1.
</event>
<event>
 8    1  0.1112171E+005  0.1043930E+01  0.7957747E-01            NaN
         13   -1    0    0    0    0  0.00000000000E+00  0.00000000000E+00  0.74505805969E-08  0.10566000000E+00  0.10566000000E+00 0. -1.
     999900   -1    0    0    0    0 -0.00000000000E+00 -0.00000000000E+00 -0.74505805969E-08  0.93827000000E+00  0.93827000000E+00 0.  1.
     999902    2    1    2    0    0 -0.19350118999E-01  0.12947895120E-01 -0.40283108091E-02  0.10203015768E+01  0.10200279434E+01 0.  0.
     999903    2    3    3    0    0  0.39711628525E-01 -0.11126050991E-01 -0.12177344260E+00  0.13017138357E+00  0.20371924953E-01 0.  0.
         14    1    1    2    0    0  0.19350118999E-01 -0.12947895120E-01  0.40283108091E-02  0.23628423165E-01  0.00000000000E+00 0. -1.
     999901    1    3    3    0    0 -0.59061747524E-01  0.24073946111E-01  0.11774513179E+00  0.89013019327E+00  0.88000000000E+00 0. -1.
        -11    1    4    4    0    0  0.32064837687E-01 -0.10058294132E-01 -0.68089290981E-01  0.75932442105E-01  0.51100000000E-03 0. -1.
         11    1    4    4    0    0  0.76467908381E-02 -0.10677568595E-02 -0.53684151622E-01  0.54238941464E-01  0.51100000000E-03 0.  1.
</event>
<event>
 8    1  0.1112171E+005  0.1043930E+01  0.7957747E-01            NaN
         13   -1    0    0    0    0  0.00000000000E+00  0.00000000000E+00  0.74505805969E-08  0.10566000000E+00  0.10566000000E+00 0. -1.
     999900   -1    0    0    0    0 -0.00000000000E+00 -0.00000000000E+00 -0.74505805969E-08  0.93827000000E+00  0.93827000000E+00 0.  1.
     999902    2    1    2    0    0 -0.12482253494E-01  0.19261755103E-01  0.50345260168E-02  0.10204317381E+01  0.10201611460E+01 0.  0.
     999903    2    3    3    0    0  0.87505448438E-01 -0.63338683579E-01  0.67151694983E-01  0.12875976043E+00  0.20018327190E-01 0.  0.
         14    1    1    2    0    0  0.12482253494E-01 -0.19261755103E-01 -0.50345260168E-02  0.23498261939E-01  0.00000000000E+00 0. -1.
     999901    1    3    3    0    0 -0.99987701932E-01  0.82600438683E-01 -0.62117168966E-01  0.89167197763E+00  0.88000000000E+00 0.  1.
        -11    1    4    4    0    0  0.19709493898E-01 -0.53824090218E-02  0.15862917561E-01  0.25871369333E-01  0.51100000000E-03 0. -1.
         11    1    4    4    0    0  0.67795954540E-01 -0.57956274557E-01  0.51288777422E-01  0.10288839110E+00  0.51100000000E-03 0.  1.
</event>
<event>
 8    1  0.1112171E+005  0.1043930E+01  0.7957747E-01            NaN
         13   -1    0    0    0    0  0.00000000000E+00  0.00000000000E+00  0.74505805969E-08  0.10566000000E+00  0.10566000000E+00 0. -1.
     999900   -1    0    0    0    0 -0.00000000000E+00 -0.00000000000E+00 -0.74505805969E-08  0.93827000000E+00  0.93827000000E+00 0. -1.
     999902    2    1    2    0    0 -0.18896644085E-01  0.13335548597E-01 -0.27515935330E-02  0.10206385578E+01  0.10203727624E+01 0.  0.
     999903    2    3    3    0    0  0.74347867722E-01  0.10061302187E+00 -0.32321537555E-01  0.13092721250E+00  0.21134511519E-01 0.  0.
         14    1    1    2    0    0  0.18896644085E-01 -0.13335548597E-01  0.27515935330E-02  0.23291442228E-01  0.00000000000E+00 0. -1.
     999901    1    3    3    0    0 -0.93244511807E-01 -0.87277473274E-01  0.29569944022E-01  0.88971134528E+00  0.88000000000E+00 0.  1.
        -11    1    4    4    0    0  0.28723859633E-01  0.29162132764E-01 -0.18924971443E-01  0.45098844384E-01  0.51100000000E-03 0. -1.
         11    1    4    4    0    0  0.45624008089E-01  0.71450889107E-01 -0.13396566112E-01  0.85828368113E-01  0.51100000000E-03 0.  1.
</event>
<event>
 8    1  0.1112171E+005  0.1043930E+01  0.7957747E-01            NaN
         13   -1    0    0    0    0  0.00000000000E+00  0.00000000000E+00  0.74505805969E-08  0.10566000000E+00  0.10566000000E+00 0. -1.
     999900   -1    0    0    0    0 -0.00000000000E+00 -0.00000000000E+00 -0.74505805969E-08  0.93827000000E+00  0.93827000000E+00 0.  1.
     999902    2    1    2    0    0 -0.20330128780E-01 -0.31748475924E-02  0.46934693140E-02  0.10228249663E+01  0.10226072018E+01 0.  0.
     999903    2    3    3    0    0  0.14016552577E-01  0.43890102360E-01 -0.12190712410E+00  0.13185778717E+00  0.20058023320E-01 0.  0.
         14    1    1    2    0    0  0.20330128780E-01  0.31748475924E-02 -0.46934693140E-02  0.21105033704E-01  0.00000000000E+00 0. -1.
     999901    1    3    3    0    0 -0.34346681358E-01 -0.47064949953E-01  0.12660059341E+00  0.89096717913E+00  0.88000000000E+00 0. -1.
        -11    1    4    4    0    0  0.17337705917E-01  0.21869355706E-01 -0.64524631527E-01  0.70303299782E-01  0.51100000000E-03 0.  1.
         11    1    4    4    0    0 -0.33211533392E-02  0.22020746654E-01 -0.57382492569E-01  0.61554487384E-01  0.51100000000E-03 0. -1.
</event>
<event>
 8    1  0.1112171E+005  0.1043930E+01  0.7957747E-01            NaN
         13   -1    0    0    0    0  0.00000000000E+00  0.00000000000E+00  0.74505805969E-08  0.10566000000E+00  0.10566000000E+00 0.  1.
     999900   -1    0    0    0    0 -0.00000000000E+00 -0.00000000000E+00 -0.74505805969E-08  0.93827000000E+00  0.93827000000E+00 0. -1.
     999902    2    1    2    0    0 -0.23767192113E-01  0.25406774893E-01  0.28319665507E-02  0.10090243605E+01  0.10084204265E+01 0.  0.
     999903    2    3    3    0    0  0.23463285358E-03  0.94745876654E-01  0.75852121283E-01  0.12295667598E+00  0.19696793356E-01 0.  0.
         14    1    1    2    0    0  0.23767192113E-01 -0.25406774893E-01 -0.28319665507E-02  0.34905639458E-01  0.00000000000E+00 0.  1.
     999901    1    3    3    0    0 -0.24001824967E-01 -0.69339101762E-01 -0.73020154733E-01  0.88606768457E+00  0.88000000000E+00 0.  1.
        -11    1    4    4    0    0 -0.45670730415E-02  0.34076776173E-01  0.17254736300E-01  0.38471702280E-01  0.51100000000E-03 0. -1.
         11    1    4    4    0    0  0.48017058951E-02  0.60669100481E-01  0.58597384983E-01  0.84484973697E-01  0.51100000000E-03 0.  1.
</event>
<event>
 8    1  0.1112171E+005  0.1043930E+01  0.7957747E-01            NaN
         13   -1    0    0    0    0  0.00000000000E+00  0.00000000000E+00  0.74505805969E-08  0.10566000000E+00  0.10566000000E+00 0. -1.
     999900   -1    0    0    0    0 -0.00000000000E+00 -0.00000000000E+00 -0.74505805969E-08  0.93827000000E+00  0.93827000000E+00 0.  1.
     999902    2    1    2    0    0  0.63536424981E-02 -0.21557621791E-01 -0.72863579035E-02  0.10203039372E+01  0.10200303591E+01 0.  0.
     999903    2    3    3    0    0  0.48101644464E-01  0.25311173972E-01 -0.11767456982E+00  0.13118913193E+00  0.20220292408E-01 0.  0.
         14    1    1    2    0    0 -0.63536424981E-02  0.21557621791E-01  0.72863579035E-02  0.23626062765E-01  0.00000000000E+00 0. -1.
     999901    1    3    3    0    0 -0.41748001966E-01 -0.46868795762E-01  0.11038821192E+00  0.88911480531E+00  0.88000000000E+00 0. -1.
        -11    1    4    4    0    0  0.13566713535E-01  0.49272643896E-02 -0.14374423733E-01  0.20376919030E-01  0.51100000000E-03 0.  1.
         11    1    4    4    0    0  0.34534930929E-01  0.20383909582E-01 -0.10330014609E+00  0.11081221290E+00  0.51100000000E-03 0. -1.
</event>
<event>
 8    1  0.1112171E+005  0.1043930E+01  0.7957747E-01            NaN
         13   -1    0    0    0    0  0.00000000000E+00  0.00000000000E+00  0.74505805969E-08  0.10566000000E+00  0.10566000000E+00 0. -1.
     999900   -1    0    0    0    0 -0.00000000000E+00 -0.00000000000E+00 -0.74505805969E-08  0.93827000000E+00  0.93827000000E+00 0. -1.
     999902    2    1    2    0    0  0.17117587133E-02  0.20294524804E-01 -0.13519443920E-01  0.10194846892E+01  0.10191915710E+01 0.  0.
     999903    2    3    3    0    0  0.14896421071E-01  0.11426791536E+00 -0.63232019067E-01  0.13298811643E+00  0.20211161115E-01 0.  0.
         14    1    1    2    0    0 -0.17117587133E-02 -0.20294524804E-01  0.13519443920E-01  0.24445310774E-01  0.00000000000E+00 0. -1.
     999901    1    3    3    0    0 -0.13184662358E-01 -0.93973390559E-01  0.49712575147E-01  0.88649657280E+00  0.88000000000E+00 0.  1.
        -11    1    4    4    0    0  0.51450917811E-02  0.36610216557E-01 -0.31347142666E-01  0.48473543301E-01  0.51100000000E-03 0. -1.
         11    1    4    4    0    0  0.97513292900E-02  0.77657698807E-01 -0.31884876401E-01  0.84514573128E-01  0.51100000000E-03 0.  1.
</event>
<event>
 8    1  0.1112171E+005  0.1043930E+01  0.7957747E-01            NaN
         13   -1    0    0    0    0  0.00000000000E+00  0.00000000000E+00  0.74505805969E-08  0.10566000000E+00  0.10566000000E+00 0.  1.
     999900   -1    0    0    0    0 -0.00000000000E+00 -0.00000000000E+00 -0.74505805969E-08  0.93827000000E+00  0.93827000000E+00 0. -1.
     999902    2    1    2    0    0 -0.16618388868E-01  0.51860427415E-02 -0.14030486415E-01  0.10215710994E+01  0.10213263879E+01 0.  0.
     999903    2    3    3    0    0  0.12267996195E+00 -0.95571890855E-02  0.33957733586E-01  0.12920107373E+00  0.19951863467E-01 0.  0.
         14    1    1    2    0    0  0.16618388868E-01 -0.51860427415E-02  0.14030486415E-01  0.22358900620E-01  0.00000000000E+00 0.  1.
     999901    1    3    3    0    0 -0.13929835081E+00  0.14743231827E-01 -0.47988220001E-01  0.89237002565E+00  0.88000000000E+00 0. -1.
        -11    1    4    4    0    0  0.19728095617E-01 -0.87561206510E-02  0.79847190775E-02  0.23019215132E-01  0.51100000000E-03 0. -1.
         11    1    4    4    0    0  0.10295186633E+00 -0.80106843445E-03  0.25973014508E-01  0.10618185860E+00  0.51100000000E-03 0.  1.
</event>
<event>
 8    1  0.1112171E+005  0.1043930E+01  0.7957747E-01            NaN
         13   -1    0    0    0    0  0.00000000000E+00  0.00000000000E+00  0.74505805969E-08  0.10566000000E+00  0.10566000000E+00 0. -1.
     999900   -1    0    0    0    0 -0.00000000000E+00 -0.00000000000E+00 -0.74505805969E-08  0.93827000000E+00  0.93827000000E+00 0. -1.
     999902    2    1    2    0    0 -0.20928264097E-01  0.55863269366E-02 -0.80040790661E-02  0.10208374781E+01  0.10205762549E+01 0.  0.
     999903    2    3    3    0    0 -0.11950753677E+00  0.56299322964E-01 -0.23474618645E-02  0.13386415363E+00  0.21504323775E-01 0.  0.
         14    1    1    2    0    0  0.20928264097E-01 -0.55863269366E-02  0.80040790661E-02  0.23092521916E-01  0.00000000000E+00 0. -1.
     999901    1    3    3    0    0  0.98579272669E-01 -0.50712996028E-01 -0.56566172017E-02  0.88697332445E+00  0.88000000000E+00 0. -1.
        -11    1    4    4    0    0 -0.64667319495E-01  0.27880295381E-01 -0.11709697655E-01  0.71390133922E-01  0.51100000000E-03 0.  1.
         11    1    4    4    0    0 -0.54840217271E-01  0.28419027583E-01  0.93622357904E-02  0.62474019713E-01  0.51100000000E-03 0. -1.
</event>
<event>
 8    1  0.1112171E+005  0.1043930E+01  0.7957747E-01            NaN
         13   -1    0    0    0    0  0.00000000000E+00  0.00000000000E+00  0.74505805969E-08  0.10566000000E+00  0.10566000000E+00 0. -1.
     999900   -1    0    0    0    0 -0.00000000000E+00 -0.00000000000E+00 -0.74505805969E-08  0.93827000000E+00  0.93827000000E+00 0.  1.
     999902    2    1    2    0    0  0.90007839254E-02  0.21767822768E-01 -0.30887694441E-02  0.10201730491E+01  0.10198963954E+01 0.  0.
     999903    2    3    3    0    0  0.21169223013E-01  0.18877340929E-01 -0.12678285800E+00  0.13143424982E+00  0.19914289867E-01 0.  0.
         14    1    1    2    0    0 -0.90007839254E-02 -0.21767822768E-01  0.30887694441E-02  0.23756950899E-01  0.00000000000E+00 0. -1.
     999901    1    3    3    0    0 -0.12168439087E-01  0.28904818393E-02  0.12369408856E+00  0.88873879928E+00  0.88000000000E+00 0. -1.
        -11    1    4    4    0    0  0.21740244854E-01  0.76115531668E-02 -0.93123063955E-01  0.95930913418E-01  0.51100000000E-03 0. -1.
         11    1    4    4    0    0 -0.57102184139E-03  0.11265787762E-01 -0.33659794045E-01  0.35503336407E-01  0.51100000000E-03 0.  1.
</event>
<event>
 8    1  0.1112171E+005  0.1043930E+01  0.7957747E-01            NaN
         13   -1    0    0    0    0  0.00000000000E+00  0.00000000000E+00  0.74505805969E-08  0.10566000000E+00  0.10566000000E+00 0. -1.
     999900   -1    0    0    0    0 -0.00000000000E+00 -0.00000000000E+00 -0.74505805969E-08  0.93827000000E+00  0.93827000000E+00 0. -1.
     999902    2    1    2    0    0 -0.12934495578E-01  0.23569195238E-01  0.22652436761E-02  0.10169496466E+01  0.10165916802E+01 0.  0.
     999903    2    3    3    0    0  0.97307769088E-01 -0.75014572877E-01  0.50514460765E-02  0.12460448964E+00  0.20118987579E-01 0.  0.
         14    1    1    2    0    0  0.12934495578E-01 -0.23569195238E-01 -0.22652436761E-02  0.26980353388E-01  0.00000000000E+00 0. -1.
     999901    1    3    3    0    0 -0.11024226467E+00  0.98583768115E-01 -0.27862024004E-02  0.89234515698E+00  0.88000000000E+00 0. -1.
        -11    1    4    4    0    0  0.55561528847E-01 -0.30208527626E-01  0.15922467479E-02  0.63264800638E-01  0.51100000000E-03 0.  1.
         11    1    4    4    0    0  0.41746240241E-01 -0.44806045252E-01  0.34591993286E-02  0.61339688998E-01  0.51100000000E-03 0. -1.
</event>
<event>
 8    1  0.1112171E+005  0.1043930E+01  0.7957747E-01            NaN
         13   -1    0    0    0    0  0.00000000000E+00  0.00000000000E+00  0.74505805969E-08  0.10566000000E+00  0.10566000000E+00 0.  1.
     999900   -1    0    0    0    0 -0.00000000000E+00 -0.00000000000E+00 -0.74505805969E-08  0.93827000000E+00  0.93827000000E+00 0.  1.
     999902    2    1    2    0    0 -0.44422958445E-03  0.22713793074E-01 -0.67133340509E-02  0.10202407073E+01  0.10199656456E+01 0.  0.
     999903    2    3    3    0    0  0.11686769508E+00 -0.40876298341E-01 -0.32277552657E-01  0.12981422706E+00  0.21930873701E-01 0.  0.
         14    1    1    2    0    0  0.44422958445E-03 -0.22713793074E-01  0.67133340509E-02  0.23689292725E-01  0.00000000000E+00 0.  1.
     999901    1    3    3    0    0 -0.11731192467E+00  0.63590091415E-01  0.25564218606E-01  0.89042648022E+00  0.88000000000E+00 0.  1.
        -11    1    4    4    0    0  0.60877584304E-01 -0.27441339801E-01 -0.26860960408E-01  0.71978328098E-01  0.51100000000E-03 0.  1.
         11    1    4    4    0    0  0.55990110780E-01 -0.13434958541E-01 -0.54165922496E-02  0.57835898962E-01  0.51100000000E-03 0. -1.
</event>
<event>
 8    1  0.1112171E+005  0.1043930E+01  0.7957747E-01            NaN
         13   -1    0    0    0    0  0.00000000000E+00  0.00000000000E+00  0.74505805969E-08  0.10566000000E+00  0.10566000000E+00 0.  1.
     999900   -1    0    0    0    0 -0.00000000000E+00 -0.00000000000E+00 -0.74505805969E-08  0.93827000000E+00  0.93827000000E+00 0. -1.
     999902    2    1    2    0    0  0.19791684837E-01 -0.82046414970E-02  0.13213008008E-01  0.10187583788E+01  0.10184473594E+01 0.  0.
     999903    2    3    3    0    0 -0.32380860440E-01  0.12173172632E+00  0.26990783645E-03  0.12759455664E+00  0.20326453667E-01 0.  0.
         14    1    1    2    0    0 -0.19791684837E-01  0.82046414970E-02 -0.13213008008E-01  0.25171621152E-01  0.00000000000E+00 0.  1.
     999901    1    3    3    0    0  0.52172545278E-01 -0.12993636782E+00  0.12943100171E-01  0.89116382220E+00  0.88000000000E+00 0. -1.
        -11    1    4    4    0    0 -0.15300617812E-01  0.72963140964E-01  0.93206605917E-02  0.75132314483E-01  0.51100000000E-03 0.  1.
         11    1    4    4    0    0 -0.17080242628E-01  0.48768585359E-01 -0.90507527552E-02  0.52462242161E-01  0.51100000000E-03 0. -1.
</event>
<event>
 8    1  0.1112171E+005  0.1043930E+01  0.7957747E-01            NaN
         13   -1    0    0    0    0  0.00000000000E+00  0.00000000000E+00  0.74505805969E-08  0.10566000000E+00  0.10566000000E+00 0. -1.
     999900   -1    0    0    0    0 -0.00000000000E+00 -0.00000000000E+00 -0.74505805969E-08  0.93827000000E+00  0.93827000000E+00 0.  1.
     999902    2    1    2    0    0  0.13366376140E-01 -0.47243080666E-03 -0.19546142370E-01  0.10202459361E+01  0.10199709972E+01 0.  0.
     999903    2    3    3    0    0  0.60471977831E-01  0.10769998995E+00 -0.42235811981E-01  0.13208208215E+00  0.20141119002E-01 0.  0.
         14    1    1    2    0    0 -0.13366376140E-01  0.47243080666E-03  0.19546142370E-01  0.23684063914E-01  0.00000000000E+00 0. -1.
     999901    1    3    3    0    0 -0.47105601692E-01 -0.10817242076E+00  0.22689669612E-01  0.88816385393E+00  0.88000000000E+00 0. -1.
        -11    1    4    4    0    0  0.15808790459E-01  0.46083163972E-01 -0.21128665915E-01  0.53106096654E-01  0.51100000000E-03 0. -1.
         11    1    4    4    0    0  0.44663187372E-01  0.61616825977E-01 -0.21107146066E-01  0.78975985501E-01  0.51100000000E-03 0.  1.
</event>
<event>
 8    1  0.1112171E+005  0.1043930E+01  0.7957747E-01            NaN
         13   -1    0    0    0    0  0.00000000000E+00  0.00000000000E+00  0.74505805969E-08  0.10566000000E+00  0.10566000000E+00 0.  1.
     999900   -1    0    0    0    0 -0.00000000000E+00 -0.00000000000E+00 -0.74505805969E-08  0.93827000000E+00  0.93827000000E+00 0.  1.
     999902    2    1    2    0    0  0.44520098288E-02  0.10713550113E-01 -0.20314704263E-01  0.10205358179E+01  0.10202676452E+01 0.  0.
     999903    2    3    3    0    0 -0.86519522346E-01 -0.81164605941E-01 -0.50687874552E-01  0.13056955746E+00  0.20145165757E-01 0.  0.
         14    1    1    2    0    0 -0.44520098288E-02 -0.10713550113E-01  0.20314704263E-01  0.23394182115E-01  0.00000000000E+00 0.  1.
     999901    1    3    3    0    0  0.90971532175E-01  0.91878156054E-01  0.30373170288E-01  0.88996626043E+00  0.88000000000E+00 0.  1.
        -11    1    4    4    0    0 -0.61777896957E-01 -0.69223877601E-01 -0.37233018996E-01  0.99975059926E-01  0.51100000000E-03 0.  1.
         11    1    4    4    0    0 -0.24741625389E-01 -0.11940728340E-01 -0.13454855555E-01  0.30594497532E-01  0.51100000000E-03 0. -1.
</event>
<event>
 8    1  0.1112171E+005  0.1043930E+01  0.7957747E-01            NaN
         13   -1    0    0    0    0  0.00000000000E+00  0.00000000000E+00  0.74505805969E-08  0.10566000000E+00  0.10566000000E+00 0.  1.
     999900   -1    0    0    0    0 -0.00000000000E+00 -0.00000000000E+00 -0.74505805969E-08  0.93827000000E+00  0.93827000000E+00 0.  1.
     999902    2    1    2    0    0  0.79277166498E-02 -0.22177204400E-01 -0.26941430064E-02  0.10202248214E+01  0.10199493863E+01 0.  0.
     999903    2    3    3    0    0  0.58375214772E-01 -0.10673271700E+00 -0.50997619706E-01  0.13341716996E+00  0.19996135784E-01 0.  0.
         14    1    1    2    0    0 -0.79277166498E-02  0.22177204400E-01  0.26941430064E-02  0.23705178607E-01  0.00000000000E+00 0.  1.
     999901    1    3    3    0    0 -0.50447498122E-01  0.84555512602E-01  0.48303476700E-01  0.88680765143E+00  0.88000000000E+00 0. -1.
        -11    1    4    4    0    0  0.15494460661E-01 -0.40787111598E-01 -0.10227225900E-01  0.44816560045E-01  0.51100000000E-03 0.  1.
         11    1    4    4    0    0  0.42880754111E-01 -0.65945605404E-01 -0.40770393807E-01  0.88600609915E-01  0.51100000000E-03 0. -1.
</event>
<event>
 8    1  0.1112171E+005  0.1043930E+01  0.7957747E-01            NaN
         13   -1    0    0    0    0  0.00000000000E+00  0.00000000000E+00  0.74505805969E-08  0.10566000000E+00  0.10566000000E+00 0. -1.
     999900   -1    0    0    0    0 -0.00000000000E+00 -0.00000000000E+00 -0.74505805969E-08  0.93827000000E+00  0.93827000000E+00 0. -1.
     999902    2    1    2    0    0 -0.12785399073E-01 -0.18703582703E-01 -0.24534360651E-02  0.10211416305E+01  0.10208873198E+01 0.  0.
     999903    2    3    3    0    0  0.11859571999E+00  0.16217718282E-02  0.48302067327E-01  0.12971006297E+00  0.20592129202E-01 0.  0.
         14    1    1    2    0    0  0.12785399073E-01  0.18703582703E-01  0.24534360651E-02  0.22788369488E-01  0.00000000000E+00 0. -1.
     999901    1    3    3    0    0 -0.13138111906E+00 -0.20325354531E-01 -0.50755503392E-01  0.89143156754E+00  0.88000000000E+00 0. -1.
        -11    1    4    4    0    0  0.11135968572E+00  0.62426535956E-04  0.50043818122E-01  0.12208860861E+00  0.51100000000E-03 0. -1.
         11    1    4    4    0    0  0.72360342709E-02  0.15593452922E-02 -0.17417507954E-02  0.76214543588E-02  0.51100000000E-03 0.  1.
</event>
<event>
 8    1  0.1112171E+005  0.1043930E+01  0.7957747E-01            NaN
         13   -1    0    0    0    0  0.00000000000E+00  0.00000000000E+00  0.74505805969E-08  0.10566000000E+00  0.10566000000E+00 0. -1.
     999900   -1    0    0    0    0 -0.00000000000E+00 -0.00000000000E+00 -0.74505805969E-08  0.93827000000E+00  0.93827000000E+00 0.  1.
     999902    2    1    2    0    0  0.20013451201E-02  0.25587725645E-01 -0.94195773314E-02  0.10165901843E+01  0.10162224841E+01 0.  0.
     999903    2    3    3    0    0  0.68578558377E-01  0.70992505002E-01 -0.82136131902E-01  0.12992124008E+00  0.19754240686E-01 0.  0.
         14    1    1    2    0    0 -0.20013451201E-02 -0.25587725645E-01  0.94195773314E-02  0.27339815710E-01  0.00000000000E+00 0. -1.
     999901    1    3    3    0    0 -0.66577213257E-01 -0.45404779358E-01  0.72716554571E-01  0.88666894421E+00  0.88000000000E+00 0. -1.
        -11    1    4    4    0    0  0.25061188565E-01  0.37190168717E-01 -0.44570426695E-01  0.63229390937E-01  0.51100000000E-03 0.  1.
         11    1    4    4    0    0  0.43517369812E-01  0.33802336285E-01 -0.37565705207E-01  0.66691849145E-01  0.51100000000E-03 0. -1.
</event>
<event>
 8    1  0.1112171E+005  0.1043930E+01  0.7957747E-01            NaN
         13   -1    0    0    0    0  0.00000000000E+00  0.00000000000E+00  0.74505805969E-08  0.10566000000E+00  0.10566000000E+00 0.  1.
     999900   -1    0    0    0    0 -0.00000000000E+00 -0.00000000000E+00 -0.74505805969E-08  0.93827000000E+00  0.93827000000E+00 0.  1.
     999902    2    1    2    0    0  0.65175527329E-02  0.71577679714E-02 -0.21827094194E-01  0.10200525174E+01  0.10197730159E+01 0.  0.
     999903    2    3    3    0    0  0.98232060279E-01 -0.10163437473E-01 -0.86643547533E-01  0.13274606091E+00  0.19015236758E-01 0.  0.
         14    1    1    2    0    0 -0.65175527329E-02 -0.71577679714E-02  0.21827094194E-01  0.23877482634E-01  0.00000000000E+00 0.  1.
     999901    1    3    3    0    0 -0.91714507546E-01  0.17321205444E-01  0.64816453339E-01  0.88730645646E+00  0.88000000000E+00 0. -1.
        -11    1    4    4    0    0  0.32387921291E-01  0.72611502616E-03 -0.18257506801E-01  0.37190084218E-01  0.51100000000E-03 0. -1.
         11    1    4    4    0    0  0.65844138988E-01 -0.10889552499E-01 -0.68386040732E-01  0.95555976688E-01  0.51100000000E-03 0.  1.
</event>
<event>
 8    1  0.1112171E+005  0.1043930E+01  0.7957747E-01            NaN
         13   -1    0    0    0    0  0.00000000000E+00  0.00000000000E+00  0.74505805969E-08  0.10566000000E+00  0.10566000000E+00 0. -1.
     999900   -1    0    0    0    0 -0.00000000000E+00 -0.00000000000E+00 -0.74505805969E-08  0.93827000000E+00  0.93827000000E+00 0. -1.
     999902    2    1    2    0    0 -0.23199671143E-02 -0.62686277687E-02  0.19754306164E-01  0.10230754908E+01  0.10228629182E+01 0.  0.
     999903    2    3    3    0    0  0.18480200464E-01 -0.71579203504E-02 -0.12743596711E+00  0.13060789232E+00  0.20633521011E-01 0.  0.
         14    1    1    2    0    0  0.23199671143E-02  0.62686277687E-02 -0.19754306164E-01  0.20854509190E-01  0.00000000000E+00 0.  1.
     999901    1    3    3    0    0 -0.20800167578E-01  0.88929258176E-03  0.14719027327E+00  0.89246759849E+00  0.88000000000E+00 0.  1.
        -11    1    4    4    0    0  0.18962851422E-01 -0.14698954506E-02 -0.60365812884E-01  0.63293307805E-01  0.51100000000E-03 0. -1.
         11    1    4    4    0    0 -0.48265095814E-03 -0.56880248999E-02 -0.67070154226E-01  0.67314584513E-01  0.51100000000E-03 0.  1.
</event>
<event>
 8    1  0.1112171E+005  0.1043930E+01  0.7957747E-01            NaN
         13   -1    0    0    0    0  0.00000000000E+00  0.00000000000E+00  0.74505805969E-08  0.10566000000E+00  0.10566000000E+00 0.  1.
     999900   -1    0    0    0    0 -0.00000000000E+00 -0.00000000000E+00 -0.74505805969E-08  0.93827000000E+00  0.93827000000E+00 0.  1.
     999902    2    1    2    0    0 -0.31175820295E-02 -0.17710296066E-01 -0.14828905590E-01  0.10206218395E+01  0.10203556581E+01 0.  0.
     999903    2    3    3    0    0  0.78367423622E-01  0.24099487418E-01  0.97358681813E-01  0.12878445584E+00  0.19608283015E-01 0.  0.
         14    1    1    2    0    0  0.31175820295E-02  0.17710296066E-01  0.14828905590E-01  0.23308160491E-01  0.00000000000E+00 0.  1.
     999901    1    3    3    0    0 -0.81485005652E-01 -0.41809783484E-01 -0.11218758740E+00  0.89183738367E+00  0.88000000000E+00 0.  1.
        -11    1    4    4    0    0  0.49895237309E-01  0.20003134349E-01  0.75353215376E-01  0.92563644474E-01  0.51100000000E-03 0.  1.
         11    1    4    4    0    0  0.28472186313E-01  0.40963530689E-02  0.22005466438E-01  0.36220811366E-01  0.51100000000E-03 0. -1.
</event>
<event>
 8    1  0.1112171E+005  0.1043930E+01  0.7957747E-01            NaN
         13   -1    0    0    0    0  0.00000000000E+00  0.00000000000E+00  0.74505805969E-08  0.10566000000E+00  0.10566000000E+00 0.  1.
     999900   -1    0    0    0    0 -0.00000000000E+00 -0.00000000000E+00 -0.74505805969E-08  0.93827000000E+00  0.93827000000E+00 0.  1.
     999902    2    1    2    0    0 -0.15185160661E-01  0.63369266359E-02 -0.15875464480E-01  0.10210657022E+01  0.10208096747E+01 0.  0.
     999903    2    3    3    0    0 -0.37253163664E-01  0.11363257602E+00 -0.55664779191E-01  0.13338189432E+00  0.19799029086E-01 0.  0.
         14    1    1    2    0    0  0.15185160661E-01 -0.63369266359E-02  0.15875464480E-01  0.22864297845E-01  0.00000000000E+00 0.  1.
     999901    1    3    3    0    0  0.22068003003E-01 -0.10729564939E+00  0.39789314710E-01  0.88768380784E+00  0.88000000000E+00 0.  1.
        -11    1    4    4    0    0 -0.32968544224E-01  0.74594908565E-01 -0.32574953634E-01  0.87822058831E-01  0.51100000000E-03 0.  1.
         11    1    4    4    0    0 -0.42846194402E-02  0.39037667457E-01 -0.23089825557E-01  0.45559835485E-01  0.51100000000E-03 0. -1.
</event>
<event>
 8    1  0.1112171E+005  0.1043930E+01  0.7957747E-01            NaN
         13   -1    0    0    0    0  0.00000000000E+00  0.00000000000E+00  0.74505805969E-08  0.10566000000E+00  0.10566000000E+00 0.  1.
     999900   -1    0    0    0    0 -0.00000000000E+00 -0.00000000000E+00 -0.74505805969E-08  0.93827000000E+00  0.93827000000E+00 0.  1.
     999902    2    1    2    0    0 -0.46419083820E-02  0.21665345331E-01  0.80341557705E-02  0.10203613310E+01  0.10200890959E+01 0.  0.
     999903    2    3    3    0    0  0.11117370178E+00 -0.57230663050E-01  0.24819981720E-01  0.12911523719E+00  0.20488343551E-01 0.  0.
         14    1    1    2    0    0  0.46419083820E-02 -0.21665345331E-01 -0.80341557705E-02  0.23568669047E-01  0.00000000000E+00 0. -1.
     999901    1    3    3    0    0 -0.11581561016E+00  0.78896008381E-01 -0.16785825949E-01  0.89124609376E+00  0.88000000000E+00 0. -1.
        -11    1    4    4    0    0  0.29765028342E-01 -0.12903599897E-01  0.15482225865E-01  0.35950246748E-01  0.51100000000E-03 0. -1.
         11    1    4    4    0    0  0.81408673437E-01 -0.44327063153E-01  0.93377558550E-02  0.93164990441E-01  0.51100000000E-03 0.  1.
</event>
<event>
 8    1  0.1112171E+005  0.1043930E+01  0.7957747E-01            NaN
         13   -1    0    0    0    0  0.00000000000E+00  0.00000000000E+00  0.74505805969E-08  0.10566000000E+00  0.10566000000E+00 0. -1.
     999900   -1    0    0    0    0 -0.00000000000E+00 -0.00000000000E+00 -0.74505805969E-08  0.93827000000E+00  0.93827000000E+00 0. -1.
     999902    2    1    2    0    0  0.10233225489E-01  0.35521752295E-02  0.21066286022E-01  0.10202419174E+01  0.10199668841E+01 0.  0.
     999903    2    3    3    0    0 -0.55063807624E-01 -0.85517593138E-01  0.80542329949E-01  0.13134680207E+00  0.20484966546E-01 0.  0.
         14    1    1    2    0    0 -0.10233225489E-01 -0.35521752295E-02 -0.21066286022E-01  0.23688082648E-01  0.00000000000E+00 0.  1.
     999901    1    3    3    0    0  0.65297033112E-01  0.89069768368E-01 -0.59476043927E-01  0.88889511528E+00  0.88000000000E+00 0. -1.
        -11    1    4    4    0    0 -0.26020550582E-01 -0.58458534085E-01  0.47423511776E-01  0.79647472340E-01  0.51100000000E-03 0.  1.
         11    1    4    4    0    0 -0.29043257042E-01 -0.27059059053E-01  0.33118818173E-01  0.51699329731E-01  0.51100000000E-03 0. -1.
</event>
<event>
 8    1  0.1112171E+005  0.1043930E+01  0.7957747E-01            NaN
         13   -1    0    0    0    0  0.00000000000E+00  0.00000000000E+00  0.74505805969E-08  0.10566000000E+00  0.10566000000E+00 0. -1.
     999900   -1    0    0    0    0 -0.00000000000E+00 -0.00000000000E+00 -0.74505805969E-08  0.93827000000E+00  0.93827000000E+00 0. -1.
     999902    2    1    2    0    0 -0.11944186226E-01 -0.60128563532E-02 -0.17555654507E-01  0.10218614923E+01  0.10216231646E+01 0.  0.
     999903    2    3    3    0    0 -0.48881452340E-01 -0.10398370193E+00 -0.66526791365E-01  0.13430258134E+00  0.20232714510E-01 0.  0.
         14    1    1    2    0    0  0.11944186226E-01  0.60128563532E-02  0.17555654507E-01  0.22068507681E-01  0.00000000000E+00 0. -1.
     999901    1    3    3    0    0  0.36937266114E-01  0.97970845573E-01  0.48971136859E-01  0.88755891098E+00  0.88000000000E+00 0. -1.
        -11    1    4    4    0    0 -0.38091569103E-01 -0.83230983336E-01 -0.43029876713E-01  0.10114442958E+00  0.51100000000E-03 0.  1.
         11    1    4    4    0    0 -0.10789883237E-01 -0.20752718590E-01 -0.23496914653E-01  0.33158151763E-01  0.51100000000E-03 0. -1.
</event>
<event>
 8    1  0.1112171E+005  0.1043930E+01  0.7957747E-01            NaN
         13   -1    0    0    0    0  0.00000000000E+00  0.00000000000E+00  0.74505805969E-08  0.10566000000E+00  0.10566000000E+00 0. -1.
     999900   -1    0    0    0    0 -0.00000000000E+00 -0.00000000000E+00 -0.74505805969E-08  0.93827000000E+00  0.93827000000E+00 0. -1.
     999902    2    1    2    0    0 -0.21925689274E-01 -0.85725074848E-02  0.47017292334E-02  0.10199231261E+01  0.10196405510E+01 0.  0.
     999903    2    3    3    0    0 -0.19332091173E-01  0.10964804429E+00 -0.62777507155E-01  0.12945343381E+00  0.20512258638E-01 0.  0.
         14    1    1    2    0    0  0.21925689274E-01  0.85725074848E-02 -0.47017292334E-02  0.24006873859E-01  0.00000000000E+00 0.  1.
     999901    1    3    3    0    0 -0.25935981010E-02 -0.11822055178E+00  0.67479236389E-01  0.89046969233E+00  0.88000000000E+00 0.  1.
        -11    1    4    4    0    0 -0.19943659536E-01  0.72753032480E-01 -0.49523655942E-01  0.90241935427E-01  0.51100000000E-03 0. -1.
         11    1    4    4    0    0  0.61156836355E-03  0.36895011813E-01 -0.13253851214E-01  0.39211498384E-01  0.51100000000E-03 0.  1.
</event>
<event>
 8    1  0.1112171E+005  0.1043930E+01  0.7957747E-01            NaN
         13   -1    0    0    0    0  0.00000000000E+00  0.00000000000E+00  0.74505805969E-08  0.10566000000E+00  0.10566000000E+00 0.  1.
     999900   -1    0    0    0    0 -0.00000000000E+00 -0.00000000000E+00 -0.74505805969E-08  0.93827000000E+00  0.93827000000E+00 0. -1.
     999902    2    1    2    0    0  0.63518151308E-02  0.14700445606E-01 -0.16430300101E-01  0.10209865169E+01  0.10207286928E+01 0.  0.
     999903    2    3    3    0    0 -0.85550378571E-02 -0.71496719253E-01  0.10441637922E+00  0.12843058843E+00  0.20165967827E-01 0.  0.
         14    1    1    2    0    0 -0.63518151308E-02 -0.14700445606E-01  0.16430300101E-01  0.22943483124E-01  0.00000000000E+00 0. -1.
     999901    1    3    3    0    0  0.14906852988E-01  0.86197164859E-01 -0.12084667932E+00  0.89255592844E+00  0.88000000000E+00 0. -1.
        -11    1    4    4    0    0 -0.46450420876E-02 -0.45106935930E-01  0.81458449084E-01  0.93230639455E-01  0.51100000000E-03 0.  1.
         11    1    4    4    0    0 -0.39099957695E-02 -0.26389783323E-01  0.22957930139E-01  0.35199948977E-01  0.51100000000E-03 0. -1.
</event>
<event>
 8    1  0.1112171E+005  0.1043930E+01  0.7957747E-01            NaN
         13   -1    0    0    0    0  0.00000000000E+00  0.00000000000E+00  0.74505805969E-08  0.10566000000E+00  0.10566000000E+00 0. -1.
     999900   -1    0    0    0    0 -0.00000000000E+00 -0.00000000000E+00 -0.74505805969E-08  0.93827000000E+00  0.93827000000E+00 0. -1.
     999902    2    1    2    0    0  0.76537265249E-02  0.15678516391E-01  0.12629962355E-01  0.10223913985E+01  0.10221644977E+01 0.  0.
     999903    2    3    3    0    0  0.11704828306E+00  0.42533448610E-01  0.46940508942E-01  0.13454818598E+00  0.19758748784E-01 0.  0.
         14    1    1    2    0    0 -0.76537265249E-02 -0.15678516391E-01 -0.12629962355E-01  0.21538601510E-01  0.00000000000E+00 0.  1.
     999901    1    3    3    0    0 -0.10939455654E+00 -0.26854932220E-01 -0.34310546587E-01  0.88784321251E+00  0.88000000000E+00 0.  1.
        -11    1    4    4    0    0  0.78176974576E-01  0.34421809725E-01  0.24185734295E-01  0.88779002039E-01  0.51100000000E-03 0. -1.
         11    1    4    4    0    0  0.38871308486E-01  0.81116388854E-02  0.22754774647E-01  0.45769183946E-01  0.51100000000E-03 0.  1.
</event>
<event>
 8    1  0.1112171E+005  0.1043930E+01  0.7957747E-01            NaN
         13   -1    0    0    0    0  0.00000000000E+00  0.00000000000E+00  0.74505805969E-08  0.10566000000E+00  0.10566000000E+00 0. -1.
     999900   -1    0    0    0    0 -0.00000000000E+00 -0.00000000000E+00 -0.74505805969E-08  0.93827000000E+00  0.93827000000E+00 0. -1.
     999902    2    1    2    0    0  0.11216401893E-01 -0.12639448198E-01  0.16845587946E-01  0.10200692130E+01  0.10197901069E+01 0.  0.
     999903    2    3    3    0    0  0.11459697481E+00 -0.11802355335E-01 -0.58505086503E-01  0.13081898517E+00  0.20469477446E-01 0.  0.
         14    1    1    2    0    0 -0.11216401893E-01  0.12639448198E-01 -0.16845587946E-01  0.23860786983E-01  0.00000000000E+00 0.  1.
     999901    1    3    3    0    0 -0.10338057292E+00 -0.83709286324E-03  0.75350674449E-01  0.88925022784E+00  0.88000000000E+00 0.  1.
        -11    1    4    4    0    0  0.91254704927E-01 -0.16701361843E-01 -0.50679184628E-01  0.10571186090E+00  0.51100000000E-03 0. -1.
         11    1    4    4    0    0  0.23342269887E-01  0.48990065078E-02 -0.78259018745E-02  0.25107124276E-01  0.51100000000E-03 0.  1.
</event>
<event>
 8    1  0.1112171E+005  0.1043930E+01  0.7957747E-01            NaN
         13   -1    0    0    0    0  0.00000000000E+00  0.00000000000E+00  0.74505805969E-08  0.10566000000E+00  0.10566000000E+00 0. -1.
     999900   -1    0    0    0    0 -0.00000000000E+00 -0.00000000000E+00 -0.74505805969E-08  0.93827000000E+00  0.93827000000E+00 0.  1.
     999902    2    1    2    0    0 -0.63098738689E-04  0.21703090972E-01  0.19244122091E-01  0.10149237184E+01  0.10145091373E+01 0.  0.
     999903    2    3    3    0    0 -0.98816078106E-01  0.50769586270E-01  0.60498784476E-01  0.12796320106E+00  0.19295328999E-01 0.  0.
         14    1    1    2    0    0  0.63098738689E-04 -0.21703090972E-01 -0.19244122091E-01  0.29006281635E-01  0.00000000000E+00 0.  1.
     999901    1    3    3    0    0  0.98752979367E-01 -0.29066495298E-01 -0.41254662384E-01  0.88696051730E+00  0.88000000000E+00 0. -1.
        -11    1    4    4    0    0 -0.48445682114E-01  0.34003448517E-01  0.37757556992E-01  0.70207641020E-01  0.51100000000E-03 0. -1.
         11    1    4    4    0    0 -0.50370395992E-01  0.16766137753E-01  0.22741227483E-01  0.57755560044E-01  0.51100000000E-03 0.  1.
</event>
<event>
 8    1  0.1112171E+005  0.1043930E+01  0.7957747E-01            NaN
         13   -1    0    0    0    0  0.00000000000E+00  0.00000000000E+00  0.74505805969E-08  0.10566000000E+00  0.10566000000E+00 0. -1.
     999900   -1    0    0    0    0 -0.00000000000E+00 -0.00000000000E+00 -0.74505805969E-08  0.93827000000E+00  0.93827000000E+00 0.  1.
     999902    2    1    2    0    0  0.30407000284E-03 -0.10434922961E-01 -0.20107801585E-01  0.10212737920E+01  0.10210224554E+01 0.  0.
     999903    2    3    3    0    0  0.16048004099E-01 -0.14532766670E-01 -0.13092901774E+00  0.13417401987E+00  0.19786868857E-01 0.  0.
         14    1    1    2    0    0 -0.30407000284E-03  0.10434922961E-01  0.20107801585E-01  0.22656207987E-01  0.00000000000E+00 0. -1.
     999901    1    3    3    0    0 -0.15743934096E-01  0.40978437093E-02  0.11082121616E+00  0.88709977214E+00  0.88000000000E+00 0. -1.
        -11    1    4    4    0    0  0.19988184916E-01 -0.11919316782E-01 -0.89682496458E-01  0.92654244051E-01  0.51100000000E-03 0.  1.
         11    1    4    4    0    0 -0.39401808170E-02 -0.26134498878E-02 -0.41246521283E-01  0.41519775820E-01  0.51100000000E-03 0. -1.
</event>
<event>
 8    1  0.1112171E+005  0.1043930E+01  0.7957747E-01            NaN
         13   -1    0    0    0    0  0.00000000000E+00  0.00000000000E+00  0.74505805969E-08  0.10566000000E+00  0.10566000000E+00 0. -1.
     999900   -1    0    0    0    0 -0.00000000000E+00 -0.00000000000E+00 -0.74505805969E-08  0.93827000000E+00  0.93827000000E+00 0. -1.
     999902    2    1    2    0    0  0.17064234877E-01  0.80815911969E-02 -0.13918760784E-01  0.10204729727E+01  0.10202033405E+01 0.  0.
     999903    2    3    3    0    0 -0.99102403874E-01 -0.70573287462E-01  0.34816630521E-01  0.12802890371E+00  0.19424908455E-01 0.  0.
         14    1    1    2    0    0 -0.17064234877E-01 -0.80815911969E-02  0.13918760784E-01  0.23457027305E-01  0.00000000000E+00 0. -1.
     999901    1    3    3    0    0  0.11616663875E+00  0.78654878658E-01 -0.48735391305E-01  0.89244406898E+00  0.88000000000E+00 0. -1.
        -11    1    4    4    0    0 -0.28867789422E-01 -0.31815441891E-01  0.13250377424E-01  0.44960040388E-01  0.51100000000E-03 0.  1.
         11    1    4    4    0    0 -0.70234614452E-01 -0.38757845571E-01  0.21566253097E-01  0.83068863325E-01  0.51100000000E-03 0. -1.
</event>
<event>
 8    1  0.1112171E+005  0.1043930E+01  0.7957747E-01            NaN
         13   -1    0    0    0    0  0.00000000000E+00  0.00000000000E+00  0.74505805969E-08  0.10566000000E+00  0.10566000000E+00 0. -1.
     999900   -1    0    0    0    0 -0.00000000000E+00 -0.00000000000E+00 -0.74505805969E-08  0.93827000000E+00  0.93827000000E+00 0. -1.
     999902    2    1    2    0    0 -0.12663401193E-01  0.38908241731E-02 -0.19728379633E-01  0.10201663890E+01  0.10198895784E+01 0.  0.
     999903    2    3    3    0    0 -0.45155485113E-01  0.11811325894E+00  0.27252785047E-01  0.13094778265E+00  0.20367810803E-01 0.  0.
         14    1    1    2    0    0  0.12663401193E-01 -0.38908241731E-02  0.19728379633E-01  0.23763610952E-01  0.00000000000E+00 0.  1.
     999901    1    3    3    0    0  0.32492083920E-01 -0.11422243476E+00 -0.46981164681E-01  0.88921860639E+00  0.88000000000E+00 0. -1.
        -11    1    4    4    0    0 -0.13594632501E-01  0.29288367139E-01 -0.16902116299E-02  0.32337909933E-01  0.51100000000E-03 0.  1.
         11    1    4    4    0    0 -0.31560852612E-01  0.88824891798E-01  0.28942996677E-01  0.98609872722E-01  0.51100000000E-03 0. -1.
</event>
<event>
 8    1  0.1112171E+005  0.1043930E+01  0.7957747E-01            NaN
         13   -1    0    0    0    0  0.00000000000E+00  0.00000000000E+00  0.74505805969E-08  0.10566000000E+00  0.10566000000E+00 0. -1.
     999900   -1    0    0    0    0 -0.00000000000E+00 -0.00000000000E+00 -0.74505805969E-08  0.93827000000E+00  0.93827000000E+00 0. -1.
     999902    2    1    2    0    0 -0.10750888206E-01  0.20768902637E-01 -0.34043573381E-02  0.10202970027E+01  0.10200232620E+01 0.  0.
     999903    2    3    3    0    0 -0.14461609364E-01  0.11837535711E+00 -0.56349373235E-01  0.13331111546E+00  0.19358159098E-01 0.  0.
         14    1    1    2    0    0  0.10750888206E-01 -0.20768902637E-01  0.34043573381E-02  0.23632997331E-01  0.00000000000E+00 0.  1.
     999901    1    3    3    0    0  0.37107211583E-02 -0.97606454474E-01  0.52945015897E-01  0.88698588721E+00  0.88000000000E+00 0.  1.
        -11    1    4    4    0    0 -0.11717222352E-01  0.86898927884E-01 -0.50453349452E-01  0.10116579738E+00  0.51100000000E-03 0. -1.
         11    1    4    4    0    0 -0.27443870121E-02  0.31476429227E-01 -0.58960237831E-02  0.32145318079E-01  0.51100000000E-03 0.  1.
</event>
<event>
 8    1  0.1112171E+005  0.1043930E+01  0.7957747E-01            NaN
         13   -1    0    0    0    0  0.00000000000E+00  0.00000000000E+00  0.74505805969E-08  0.10566000000E+00  0.10566000000E+00 0.  1.
     999900   -1    0    0    0    0 -0.00000000000E+00 -0.00000000000E+00 -0.74505805969E-08  0.93827000000E+00  0.93827000000E+00 0. -1.
     999902    2    1    2    0    0 -0.19460660823E-01 -0.12632906805E-01 -0.57706877919E-02  0.10200216648E+01  0.10197414320E+01 0.  0.
     999903    2    3    3    0    0 -0.12094218917E+00 -0.90072554768E-02 -0.50657289018E-01  0.13304564883E+00  0.20660105754E-01 0.  0.
         14    1    1    2    0    0  0.19460660823E-01  0.12632906805E-01  0.57706877919E-02  0.23908335191E-01  0.00000000000E+00 0. -1.
     999901    1    3    3    0    0  0.10148152835E+00 -0.36256513278E-02  0.44886601226E-01  0.88697601597E+00  0.88000000000E+00 0. -1.
        -11    1    4    4    0    0 -0.82887199624E-01 -0.14172449752E-01 -0.28992150931E-01  0.88949154746E-01  0.51100000000E-03 0.  1.
         11    1    4    4    0    0 -0.38054989550E-01  0.51651942753E-02 -0.21665138087E-01  0.44096494089E-01  0.51100000000E-03 0. -1.
</event>
<event>
 8    1  0.1112171E+005  0.1043930E+01  0.7957747E-01            NaN
         13   -1    0    0    0    0  0.00000000000E+00  0.00000000000E+00  0.74505805969E-08  0.10566000000E+00  0.10566000000E+00 0. -1.
     999900   -1    0    0    0    0 -0.00000000000E+00 -0.00000000000E+00 -0.74505805969E-08  0.93827000000E+00  0.93827000000E+00 0.  1.
     999902    2    1    2    0    0  0.11972453487E-01  0.95480022711E-02  0.21930370364E-01  0.10171821938E+01  0.10168304531E+01 0.  0.
     999903    2    3    3    0    0  0.28626201067E-01 -0.49662681870E-01  0.11506766995E+00  0.13013213381E+00  0.20198074820E-01 0.  0.
         14    1    1    2    0    0 -0.11972453487E-01 -0.95480022711E-02 -0.21930370364E-01  0.26747806156E-01  0.00000000000E+00 0. -1.
     999901    1    3    3    0    0 -0.16653747580E-01  0.59210684141E-01 -0.93137299581E-01  0.88705006003E+00  0.88000000000E+00 0.  1.
        -11    1    4    4    0    0  0.20980887611E-01 -0.48724035806E-01  0.99873925509E-01  0.11308974944E+00  0.51100000000E-03 0. -1.
         11    1    4    4    0    0  0.76453134562E-02 -0.93864606415E-03  0.15193744436E-01  0.17042384378E-01  0.51100000000E-03 0.  1.
</event>
<event>
 8    1  0.1112171E+005  0.1043930E+01  0.7957747E-01            NaN
         13   -1    0    0    0    0  0.00000000000E+00  0.00000000000E+00  0.74505805969E-08  0.10566000000E+00  0.10566000000E+00 0. -1.
     999900   -1    0    0    0    0 -0.00000000000E+00 -0.00000000000E+00 -0.74505805969E-08  0.93827000000E+00  0.93827000000E+00 0.  1.
     999902    2    1    2    0    0 -0.17365429732E-01 -0.95221052889E-02  0.99160506473E-02  0.10217814854E+01  0.10215414075E+01 0.  0.
     999903    2    3    3    0    0 -0.26411993047E-01 -0.52019788543E-01  0.11895973566E+00  0.13398735462E+00  0.19938423039E-01 0.  0.
         14    1    1    2    0    0  0.17365429732E-01  0.95221052889E-02 -0.99160506473E-02  0.22148514608E-01  0.00000000000E+00 0.  1.
     999901    1    3    3    0    0  0.90465633149E-02  0.42497683254E-01 -0.10904368501E+00  0.88779413077E+00  0.88000000000E+00 0.  1.
        -11    1    4    4    0    0 -0.15493727793E-01 -0.43901973834E-01  0.10283293200E+00  0.11288184944E+00  0.51100000000E-03 0. -1.
         11    1    4    4    0    0 -0.10918265254E-01 -0.81178147089E-02  0.16126803658E-01  0.21105505182E-01  0.51100000000E-03 0.  1.
</event>
<event>
 8    1  0.1112171E+005  0.1043930E+01  0.7957747E-01            NaN
         13   -1    0    0    0    0  0.00000000000E+00  0.00000000000E+00  0.74505805969E-08  0.10566000000E+00  0.10566000000E+00 0.  1.
     999900   -1    0    0    0    0 -0.00000000000E+00 -0.00000000000E+00 -0.74505805969E-08  0.93827000000E+00  0.93827000000E+00 0.  1.
     999902    2    1    2    0    0 -0.12633325528E-01 -0.74681717276E-02 -0.18598935692E-01  0.10202383367E+01  0.10199632193E+01 0.  0.
     999903    2    3    3    0    0  0.42348072859E-01  0.11503906848E+00 -0.38707821215E-01  0.12982531713E+00  0.18137557539E-01 0.  0.
         14    1    1    2    0    0  0.12633325528E-01  0.74681717276E-02  0.18598935692E-01  0.23691663338E-01  0.00000000000E+00 0.  1.
     999901    1    3    3    0    0 -0.54981398387E-01 -0.12250724021E+00  0.20108885524E-01  0.89041301953E+00  0.88000000000E+00 0. -1.
        -11    1    4    4    0    0  0.19207743261E-01  0.53415304759E-01 -0.85041813283E-02  0.57399602828E-01  0.51100000000E-03 0. -1.
         11    1    4    4    0    0  0.23140329598E-01  0.61623763721E-01 -0.30203639887E-01  0.72425714304E-01  0.51100000000E-03 0.  1.
</event>
<event>
 8    1  0.1112171E+005  0.1043930E+01  0.7957747E-01            NaN
         13   -1    0    0    0    0  0.00000000000E+00  0.00000000000E+00  0.74505805969E-08  0.10566000000E+00  0.10566000000E+00 0.  1.
     999900   -1    0    0    0    0 -0.00000000000E+00 -0.00000000000E+00 -0.74505805969E-08  0.93827000000E+00  0.93827000000E+00 0.  1.
     999902    2    1    2    0    0  0.10596455768E-01  0.22236156713E-01  0.29401339083E-02  0.10191232282E+01  0.10188212691E+01 0.  0.
     999903    2    3    3    0    0 -0.20222500698E-01  0.12362003038E+00 -0.35981171269E-01  0.13191222402E+00  0.20379615213E-01 0.  0.
         14    1    1    2    0    0 -0.10596455768E-01 -0.22236156713E-01 -0.29401339083E-02  0.24806771809E-01  0.00000000000E+00 0.  1.
     999901    1    3    3    0    0  0.30818956466E-01 -0.10138387366E+00  0.38921305178E-01  0.88721100417E+00  0.88000000000E+00 0.  1.
        -11    1    4    4    0    0 -0.15469265937E-01  0.56071938328E-01 -0.24986813664E-01  0.63308470481E-01  0.51100000000E-03 0.  1.
         11    1    4    4    0    0 -0.47532347618E-02  0.67548092049E-01 -0.10994357605E-01  0.68603753544E-01  0.51100000000E-03 0. -1.
</event>
<event>
 8    1  0.1112171E+005  0.1043930E+01  0.7957747E-01            NaN
         13   -1    0    0    0    0  0.00000000000E+00  0.00000000000E+00  0.74505805969E-08  0.10566000000E+00  0.10566000000E+00 0.  1.
     999900   -1    0    0    0    0 -0.00000000000E+00 -0.00000000000E+00 -0.74505805969E-08  0.93827000000E+00  0.93827000000E+00 0.  1.
     999902    2    1    2    0    0 -0.19672735703E-01 -0.45353148222E-02  0.11105443469E-01  0.10208883749E+01  0.10206283151E+01 0.  0.
     999903    2    3    3    0    0  0.57494085514E-01  0.10443274769E+00  0.48016109552E-01  0.13005104175E+00  0.19898694039E-01 0.  0.
         14    1    1    2    0    0  0.19672735703E-01  0.45353148222E-02 -0.11105443469E-01  0.23041625056E-01  0.00000000000E+00 0. -1.
     999901    1    3    3    0    0 -0.77166821217E-01 -0.10896806251E+00 -0.36910666083E-01  0.89083733320E+00  0.88000000000E+00 0.  1.
        -11    1    4    4    0    0  0.16703945739E-01  0.44028448660E-01  0.11268241199E-01  0.48422726848E-01  0.51100000000E-03 0.  1.
         11    1    4    4    0    0  0.40790139775E-01  0.60404299028E-01  0.36747868354E-01  0.81628314900E-01  0.51100000000E-03 0. -1.
</event>
<event>
 8    1  0.1112171E+005  0.1043930E+01  0.7957747E-01            NaN
         13   -1    0    0    0    0  0.00000000000E+00  0.00000000000E+00  0.74505805969E-08  0.10566000000E+00  0.10566000000E+00 0. -1.
     999900   -1    0    0    0    0 -0.00000000000E+00 -0.00000000000E+00 -0.74505805969E-08  0.93827000000E+00  0.93827000000E+00 0.  1.
     999902    2    1    2    0    0 -0.19578450140E-01 -0.13801464155E-01 -0.90019848830E-02  0.10183403174E+01  0.10180187475E+01 0.  0.
     999903    2    3    3    0    0  0.77079228269E-01 -0.27391885357E-01  0.94916310432E-01  0.12686602253E+00  0.19858471072E-01 0.  0.
         14    1    1    2    0    0  0.19578450140E-01  0.13801464155E-01  0.90019848830E-02  0.25589682580E-01  0.00000000000E+00 0. -1.
     999901    1    3    3    0    0 -0.96657678409E-01  0.13590421202E-01 -0.10391829531E+00  0.89147429489E+00  0.88000000000E+00 0.  1.
        -11    1    4    4    0    0  0.20207090678E-01 -0.15596762306E-01  0.35974346747E-01  0.44113492867E-01  0.51100000000E-03 0.  1.
         11    1    4    4    0    0  0.56872137592E-01 -0.11795123052E-01  0.58941963685E-01  0.82752529666E-01  0.51100000000E-03 0. -1.
</event>
<event>
 8    1  0.1112171E+005  0.1043930E+01  0.7957747E-01            NaN
         13   -1    0    0    0    0  0.00000000000E+00  0.00000000000E+00  0.74505805969E-08  0.10566000000E+00  0.10566000000E+00 0.  1.
     999900   -1    0    0    0    0 -0.00000000000E+00 -0.00000000000E+00 -0.74505805969E-08  0.93827000000E+00  0.93827000000E+00 0.  1.
     999902    2    1    2    0    0  0.47262585676E-02 -0.23869749679E-01  0.27678165879E-02  0.10194399351E+01  0.10191457295E+01 0.  0.
     999903    2    3    3    0    0 -0.30451467416E-01  0.50916132696E-01  0.11248532343E+00  0.12878381072E+00  0.20312003321E-01 0.  0.
         14    1    1    2    0    0 -0.47262585676E-02  0.23869749679E-01 -0.27678165879E-02  0.24490064892E-01  0.00000000000E+00 0. -1.
     999901    1    3    3    0    0  0.35177725984E-01 -0.74785882374E-01 -0.10971750684E+00  0.89065612439E+00  0.88000000000E+00 0.  1.
        -11    1    4    4    0    0 -0.96374969502E-02  0.14049825801E-01  0.15830882765E-01  0.23262779770E-01  0.51100000000E-03 0.  1.
         11    1    4    4    0    0 -0.20813970466E-01  0.36866306894E-01  0.96654440666E-01  0.10552103095E+00  0.51100000000E-03 0. -1.
</event>
<event>
 8    1  0.1112171E+005  0.1043930E+01  0.7957747E-01            NaN
         13   -1    0    0    0    0  0.00000000000E+00  0.00000000000E+00  0.74505805969E-08  0.10566000000E+00  0.10566000000E+00 0. -1.
     999900   -1    0    0    0    0 -0.00000000000E+00 -0.00000000000E+00 -0.74505805969E-08  0.93827000000E+00  0.93827000000E+00 0. -1.
     999902    2    1    2    0    0 -0.32947441870E-02 -0.22241750322E-02 -0.23606464323E-01  0.10199911727E+01  0.10197102162E+01 0.  0.
     999903    2    3    3    0    0  0.11286520214E+00  0.31910941484E-01 -0.55134738870E-01  0.13114227026E+00  0.20039799815E-01 0.  0.
         14    1    1    2    0    0  0.32947441870E-02  0.22241750322E-02  0.23606464323E-01  0.23938827283E-01  0.00000000000E+00 0. -1.
     999901    1    3    3    0    0 -0.11615994633E+00 -0.34135116517E-01  0.31528274547E-01  0.88884890246E+00  0.88000000000E+00 0. -1.
        -11    1    4    4    0    0  0.56078934289E-01  0.61207285006E-02 -0.22351498381E-01  0.60680810717E-01  0.51100000000E-03 0.  1.
         11    1    4    4    0    0  0.56786267853E-01  0.25790212984E-01 -0.32783240489E-01  0.70461459539E-01  0.51100000000E-03 0. -1.
</event>
<event>
 8    1  0.1112171E+005  0.1043930E+01  0.7957747E-01            NaN
         13   -1    0    0    0    0  0.00000000000E+00  0.00000000000E+00  0.74505805969E-08  0.10566000000E+00  0.10566000000E+00 0.  1.
     999900   -1    0    0    0    0 -0.00000000000E+00 -0.00000000000E+00 -0.74505805969E-08  0.93827000000E+00  0.93827000000E+00 0.  1.
     999902    2    1    2    0    0 -0.55774231817E-02  0.23374809533E-02  0.21959245927E-01  0.10211532586E+01  0.10208992103E+01 0.  0.
     999903    2    3    3    0    0  0.36236600164E-02  0.16830351638E-01 -0.12635171327E+00  0.12857785908E+00  0.16465684034E-01 0.  0.
         14    1    1    2    0    0  0.55774231817E-02 -0.23374809533E-02 -0.21959245927E-01  0.22776741387E-01  0.00000000000E+00 0. -1.
     999901    1    3    3    0    0 -0.92010831981E-02 -0.14492870685E-01  0.14831095920E+00  0.89257539953E+00  0.88000000000E+00 0. -1.
        -11    1    4    4    0    0  0.42323451389E-02  0.84232159285E-02 -0.22728969401E-01  0.24611592452E-01  0.51100000000E-03 0. -1.
         11    1    4    4    0    0 -0.60868512253E-03  0.84071357094E-02 -0.10362274387E+00  0.10396626663E+00  0.51100000000E-03 0.  1.
</event>
<event>
 8    1  0.1112171E+005  0.1043930E+01  0.7957747E-01            NaN
         13   -1    0    0    0    0  0.00000000000E+00  0.00000000000E+00  0.74505805969E-08  0.10566000000E+00  0.10566000000E+00 0. -1.
     999900   -1    0    0    0    0 -0.00000000000E+00 -0.00000000000E+00 -0.74505805969E-08  0.93827000000E+00  0.93827000000E+00 0. -1.
     999902    2    1    2    0    0 -0.53885927533E-02  0.97792660508E-02 -0.20414692804E-01  0.10206613374E+01  0.10203960677E+01 0.  0.
     999903    2    3    3    0    0  0.53370700121E-01  0.87452117892E-01  0.77025445157E-01  0.12994235429E+00  0.21349278232E-01 0.  0.
         14    1    1    2    0    0  0.53885927533E-02 -0.97792660508E-02  0.20414692804E-01  0.23268662588E-01  0.00000000000E+00 0.  1.
     999901    1    3    3    0    0 -0.58759292875E-01 -0.77672851841E-01 -0.97440137961E-01  0.89071898312E+00  0.88000000000E+00 0. -1.
        -11    1    4    4    0    0  0.11777380307E-01  0.34361262436E-01  0.35182598853E-01  0.50571527821E-01  0.51100000000E-03 0.  1.
         11    1    4    4    0    0  0.41593319814E-01  0.53090855456E-01  0.41842846304E-01  0.79370826467E-01  0.51100000000E-03 0. -1.
</event>
<event>
 8    1  0.1112171E+005  0.1043930E+01  0.7957747E-01            NaN
         13   -1    0    0    0    0  0.00000000000E+00  0.00000000000E+00  0.74505805969E-08  0.10566000000E+00  0.10566000000E+00 0. -1.
     999900   -1    0    0    0    0 -0.00000000000E+00 -0.00000000000E+00 -0.74505805969E-08  0.93827000000E+00  0.93827000000E+00 0. -1.
     999902    2    1    2    0    0  0.93028733804E-02  0.47094708191E-03  0.24216060965E-01  0.10179842325E+01  0.10176535337E+01 0.  0.
     999903    2    3    3    0    0 -0.11701221692E+00 -0.27424006922E-01  0.40396901849E-01  0.12838013507E+00  0.20139869338E-01 0.  0.
         14    1    1    2    0    0 -0.93028733804E-02 -0.47094708191E-03 -0.24216060965E-01  0.25945767534E-01  0.00000000000E+00 0.  1.
     999901    1    3    3    0    0  0.12631509030E+00  0.27894954004E-01 -0.16180840884E-01  0.88960409740E+00  0.88000000000E+00 0.  1.
        -11    1    4    4    0    0 -0.49307862340E-01 -0.12783370139E-01  0.27599506641E-01  0.57936808063E-01  0.51100000000E-03 0.  1.
         11    1    4    4    0    0 -0.67704354579E-01 -0.14640636783E-01  0.12797395208E-01  0.70443327005E-01  0.51100000000E-03 0. -1.
</event>
<event>
 8    1  0.1112171E+005  0.1043930E+01  0.7957747E-01            NaN
         13   -1    0    0    0    0  0.00000000000E+00  0.00000000000E+00  0.74505805969E-08  0.10566000000E+00  0.10566000000E+00 0.  1.
     999900   -1    0    0    0    0 -0.00000000000E+00 -0.00000000000E+00 -0.74505805969E-08  0.93827000000E+00  0.93827000000E+00 0.  1.
     999902    2    1    2    0    0 -0.21277445342E-01  0.86644038098E-02 -0.24106569964E-02  0.10208299385E+01  0.10205685428E+01 0.  0.
     999903    2    3    3    0    0 -0.10176978254E+00  0.81891137512E-01  0.20734045305E-01  0.13382551455E+00  0.20399035965E-01 0.  0.
         14    1    1    2    0    0  0.21277445342E-01 -0.86644038098E-02  0.24106569964E-02  0.23100061489E-01  0.00000000000E+00 0.  1.
     999901    1    3    3    0    0  0.80492337203E-01 -0.73226733702E-01 -0.23144702302E-01  0.88700442396E+00  0.88000000000E+00 0.  1.
        -11    1    4    4    0    0 -0.28292445078E-01  0.32177443176E-01  0.60551467140E-03  0.42854148770E-01  0.51100000000E-03 0.  1.
         11    1    4    4    0    0 -0.73477337467E-01  0.49713694336E-01  0.20128530634E-01  0.90971365782E-01  0.51100000000E-03 0. -1.
</event>
<event>
 8    1  0.1112171E+005  0.1043930E+01  0.7957747E-01            NaN
         13   -1    0    0    0    0  0.00000000000E+00  0.00000000000E+00  0.74505805969E-08  0.10566000000E+00  0.10566000000E+00 0. -1.
     999900   -1    0    0    0    0 -0.00000000000E+00 -0.00000000000E+00 -0.74505805969E-08  0.93827000000E+00  0.93827000000E+00 0. -1.
     999902    2    1    2    0    0  0.17826268372E-01  0.10255308376E-01 -0.12263202967E-01  0.10199856198E+01  0.10197045314E+01 0.  0.
     999903    2    3    3    0    0  0.85838020004E-01 -0.80494147034E-01 -0.54672944560E-01  0.13169532484E+00  0.22517866977E-01 0.  0.
         14    1    1    2    0    0 -0.17826268372E-01 -0.10255308376E-01  0.12263202967E-01  0.23944380154E-01  0.00000000000E+00 0.  1.
     999901    1    3    3    0    0 -0.68011751633E-01  0.90749455410E-01  0.42409741594E-01  0.88829029500E+00  0.88000000000E+00 0.  1.
        -11    1    4    4    0    0  0.41072424386E-01 -0.29630452865E-01 -0.33424205911E-01  0.60682340460E-01  0.51100000000E-03 0.  1.
         11    1    4    4    0    0  0.44765595618E-01 -0.50863694168E-01 -0.21248738650E-01  0.71012984381E-01  0.51100000000E-03 0. -1.
</event>
<event>
 8    1  0.1112171E+005  0.1043930E+01  0.7957747E-01            NaN
         13   -1    0    0    0    0  0.00000000000E+00  0.00000000000E+00  0.74505805969E-08  0.10566000000E+00  0.10566000000E+00 0.  1.
     999900   -1    0    0    0    0 -0.00000000000E+00 -0.00000000000E+00 -0.74505805969E-08  0.93827000000E+00  0.93827000000E+00 0.  1.
     999902    2    1    2    0    0  0.20431504276E-01  0.10102124019E-01  0.11708321710E-02  0.10211074207E+01  0.10208523373E+01 0.  0.
     999903    2    3    3    0    0 -0.41296936292E-01  0.97295845176E-01 -0.76027921981E-01  0.13129126386E+00  0.16888830896E-01 0.  0.
         14    1    1    2    0    0 -0.20431504276E-01 -0.10102124019E-01 -0.11708321710E-02  0.22822579272E-01  0.00000000000E+00 0. -1.
     999901    1    3    3    0    0  0.61728440567E-01 -0.87193721157E-01  0.77198754152E-01  0.88981615687E+00  0.88000000000E+00 0. -1.
        -11    1    4    4    0    0  0.57677909602E-03  0.57645445761E-02 -0.13840723598E-02  0.59782460298E-02  0.51100000000E-03 0.  1.
         11    1    4    4    0    0 -0.41873715388E-01  0.91531300600E-01 -0.74643849621E-01  0.12531301783E+00  0.51100000000E-03 0. -1.
</event>
<event>
 8    1  0.1112171E+005  0.1043930E+01  0.7957747E-01            NaN
         13   -1    0    0    0    0  0.00000000000E+00  0.00000000000E+00  0.74505805969E-08  0.10566000000E+00  0.10566000000E+00 0. -1.
     999900   -1    0    0    0    0 -0.00000000000E+00 -0.00000000000E+00 -0.74505805969E-08  0.93827000000E+00  0.93827000000E+00 0. -1.
     999902    2    1    2    0    0 -0.89500239187E-02  0.19059970994E-01  0.10779346548E-01  0.10202745623E+01  0.10200002954E+01 0.  0.
     999903    2    3    3    0    0 -0.62083136452E-01 -0.52356197923E-01 -0.97891376041E-01  0.12913331489E+00  0.22298076549E-01 0.  0.
         14    1    1    2    0    0  0.89500239187E-02 -0.19059970994E-01 -0.10779346548E-01  0.23655437736E-01  0.00000000000E+00 0.  1.
     999901    1    3    3    0    0  0.53133112533E-01  0.71416168917E-01  0.10867072259E+00  0.89114124738E+00  0.88000000000E+00 0. -1.
        -11    1    4    4    0    0 -0.13447518691E-01 -0.84853318089E-02 -0.77210827390E-02  0.17683688940E-01  0.51100000000E-03 0.  1.
         11    1    4    4    0    0 -0.48635617761E-01 -0.43870866114E-01 -0.90170293302E-01  0.11144962595E+00  0.51100000000E-03 0. -1.
</event>
<event>
 8    1  0.1112171E+005  0.1043930E+01  0.7957747E-01            NaN
         13   -1    0    0    0    0  0.00000000000E+00  0.00000000000E+00  0.74505805969E-08  0.10566000000E+00  0.10566000000E+00 0. -1.
     999900   -1    0    0    0    0 -0.00000000000E+00 -0.00000000000E+00 -0.74505805969E-08  0.93827000000E+00  0.93827000000E+00 0. -1.
     999902    2    1    2    0    0  0.21575534631E-01  0.10891960342E-01 -0.18551808535E-02  0.10196899466E+01  0.10194017888E+01 0.  0.
     999903    2    3    3    0    0  0.56948243593E-01  0.40337482191E-01  0.10965754211E+00  0.13145948397E+00  0.19662259925E-01 0.  0.
         14    1    1    2    0    0 -0.21575534631E-01 -0.10891960342E-01  0.18551808535E-02  0.24240053439E-01  0.00000000000E+00 0. -1.
     999901    1    3    3    0    0 -0.35372708961E-01 -0.29445521849E-01 -0.11151272296E+00  0.88823046259E+00  0.88000000000E+00 0. -1.
        -11    1    4    4    0    0  0.40690197449E-01  0.34849224240E-01  0.94143693391E-01  0.10832108163E+00  0.51100000000E-03 0. -1.
         11    1    4    4    0    0  0.16258046144E-01  0.54882579506E-02  0.15513848720E-01  0.23138402340E-01  0.51100000000E-03 0.  1.
</event>
<event>
 8    1  0.1112171E+005  0.1043930E+01  0.7957747E-01            NaN
         13   -1    0    0    0    0  0.00000000000E+00  0.00000000000E+00  0.74505805969E-08  0.10566000000E+00  0.10566000000E+00 0.  1.
     999900   -1    0    0    0    0 -0.00000000000E+00 -0.00000000000E+00 -0.74505805969E-08  0.93827000000E+00  0.93827000000E+00 0.  1.
     999902    2    1    2    0    0 -0.79718455617E-03  0.20390985175E-01  0.11753720429E-01  0.10203805260E+01  0.10201087394E+01 0.  0.
     999903    2    3    3    0    0 -0.51411813175E-01 -0.10063547545E+00  0.59746948557E-01  0.12936279628E+00  0.19858543420E-01 0.  0.
         14    1    1    2    0    0  0.79718455617E-03 -0.20390985175E-01 -0.11753720429E-01  0.23549473954E-01  0.00000000000E+00 0. -1.
     999901    1    3    3    0    0  0.50614628619E-01  0.12102646063E+00 -0.47993228128E-01  0.89101772976E+00  0.88000000000E+00 0.  1.
        -11    1    4    4    0    0 -0.27393019298E-01 -0.32614108521E-01  0.22760823179E-01  0.48294655747E-01  0.51100000000E-03 0.  1.
         11    1    4    4    0    0 -0.24018793877E-01 -0.68021366933E-01  0.36986125378E-01  0.81068140538E-01  0.51100000000E-03 0. -1.
</event>
<event>
 8    1  0.1112171E+005  0.1043930E+01  0.7957747E-01            NaN
         13   -1    0    0    0    0  0.00000000000E+00  0.00000000000E+00  0.74505805969E-08  0.10566000000E+00  0.10566000000E+00 0. -1.
     999900   -1    0    0    0    0 -0.00000000000E+00 -0.00000000000E+00 -0.74505805969E-08  0.93827000000E+00  0.93827000000E+00 0.  1.
     999902    2    1    2    0    0  0.22578782600E-01 -0.30232858778E-02  0.34798600267E-02  0.10208854539E+01  0.10206253273E+01 0.  0.
     999903    2    3    3    0    0 -0.10153530456E+00  0.71855388745E-01 -0.25239782545E-01  0.12856491705E+00  0.20476237669E-01 0.  0.
         14    1    1    2    0    0 -0.22578782600E-01  0.30232858778E-02 -0.34798600267E-02  0.23044546144E-01  0.00000000000E+00 0.  1.
     999901    1    3    3    0    0  0.12411408716E+00 -0.74878674623E-01  0.28719642572E-01  0.89232053681E+00  0.88000000000E+00 0. -1.
        -11    1    4    4    0    0 -0.42778568229E-01  0.42598755274E-01 -0.13905196449E-01  0.61953817154E-01  0.51100000000E-03 0. -1.
         11    1    4    4    0    0 -0.58756736327E-01  0.29256633471E-01 -0.11334586096E-01  0.66611099892E-01  0.51100000000E-03 0.  1.
</event>
<event>
 8    1  0.1112171E+005  0.1043930E+01  0.7957747E-01            NaN
         13   -1    0    0    0    0  0.00000000000E+00  0.00000000000E+00  0.74505805969E-08  0.10566000000E+00  0.10566000000E+00 0. -1.
     999900   -1    0    0    0    0 -0.00000000000E+00 -0.00000000000E+00 -0.74505805969E-08  0.93827000000E+00  0.93827000000E+00 0.  1.
     999902    2    1    2    0    0 -0.35455417934E-02 -0.11465941462E-01  0.18584023863E-01  0.10218075087E+01  0.10215680007E+01 0.  0.
     999903    2    3    3    0    0 -0.11838925865E+00 -0.43940230002E-01  0.37047474436E-01  0.13355948151E+00  0.22778484646E-01 0.  0.
         14    1    1    2    0    0  0.35455417934E-02  0.11465941462E-01 -0.18584023863E-01  0.22122491342E-01  0.00000000000E+00 0.  1.
     999901    1    3    3    0    0  0.11484371686E+00  0.32474288540E-01 -0.18463450573E-01  0.88824802714E+00  0.88000000000E+00 0. -1.
        -11    1    4    4    0    0 -0.91895483746E-01 -0.38753024525E-01  0.20278685385E-01  0.10177456973E+00  0.51100000000E-03 0. -1.
         11    1    4    4    0    0 -0.26493774909E-01 -0.51872054766E-02  0.16768789051E-01  0.31784911780E-01  0.51100000000E-03 0.  1.
</event>
<event>
 8    1  0.1112171E+005  0.1043930E+01  0.7957747E-01            NaN
         13   -1    0    0    0    0  0.00000000000E+00  0.00000000000E+00  0.74505805969E-08  0.10566000000E+00  0.10566000000E+00 0.  1.
     999900   -1    0    0    0    0 -0.00000000000E+00 -0.00000000000E+00 -0.74505805969E-08  0.93827000000E+00  0.93827000000E+00 0.  1.
     999902    2    1    2    0    0  0.13775755206E-01 -0.17475279716E-01 -0.59706442730E-02  0.10208907850E+01  0.10206307802E+01 0.  0.
     999903    2    3    3    0    0 -0.49525161339E-01  0.45420705319E-01  0.10834055777E+00  0.12902198198E+00  0.19829606636E-01 0.  0.
         14    1    1    2    0    0 -0.13775755206E-01  0.17475279716E-01  0.59706442730E-02  0.23039214954E-01  0.00000000000E+00 0. -1.
     999901    1    3    3    0    0  0.63300916545E-01 -0.62895985035E-01 -0.11431120204E+00  0.89186880307E+00  0.88000000000E+00 0.  1.
        -11    1    4    4    0    0 -0.18749868463E-01  0.11873569593E-01  0.52315742937E-01  0.56830777774E-01  0.51100000000E-03 0.  1.
         11    1    4    4    0    0 -0.30775292875E-01  0.33547135727E-01  0.56024814831E-01  0.72191204207E-01  0.51100000000E-03 0. -1.
</event>
<event>
 8    1  0.1112171E+005  0.1043930E+01  0.7957747E-01            NaN
         13   -1    0    0    0    0  0.00000000000E+00  0.00000000000E+00  0.74505805969E-08  0.10566000000E+00  0.10566000000E+00 0. -1.
     999900   -1    0    0    0    0 -0.00000000000E+00 -0.00000000000E+00 -0.74505805969E-08  0.93827000000E+00  0.93827000000E+00 0. -1.
     999902    2    1    2    0    0 -0.42865542212E-02 -0.22377924441E-01 -0.95611043333E-02  0.10192204722E+01  0.10189209047E+01 0.  0.
     999903    2    3    3    0    0  0.27135335577E-01 -0.11465743724E-01 -0.12605058201E+00  0.13092085535E+00  0.19589063862E-01 0.  0.
         14    1    1    2    0    0  0.42865542212E-02  0.22377924441E-01  0.95611043333E-02  0.24709527827E-01  0.00000000000E+00 0. -1.
     999901    1    3    3    0    0 -0.31421889798E-01 -0.10912180716E-01  0.11648947768E+00  0.88829961683E+00  0.88000000000E+00 0.  1.
        -11    1    4    4    0    0 -0.12660346433E-02  0.27616928742E-02 -0.19257321489E-01  0.19502188164E-01  0.51100000000E-03 0.  1.
         11    1    4    4    0    0  0.28401370220E-01 -0.14227436599E-01 -0.10679326052E+00  0.11141866718E+00  0.51100000000E-03 0. -1.
</event>
<event>
 8    1  0.1112171E+005  0.1043930E+01  0.7957747E-01            NaN
         13   -1    0    0    0    0  0.00000000000E+00  0.00000000000E+00  0.74505805969E-08  0.10566000000E+00  0.10566000000E+00 0. -1.
     999900   -1    0    0    0    0 -0.00000000000E+00 -0.00000000000E+00 -0.74505805969E-08  0.93827000000E+00  0.93827000000E+00 0.  1.
     999902    2    1    2    0    0  0.13227069233E-01  0.57731275615E-02 -0.17507177141E-01  0.10212411125E+01  0.10209890422E+01 0.  0.
     999903    2    3    3    0    0 -0.26247032445E-01  0.94120786879E-01 -0.88179941132E-01  0.13312053899E+00  0.19943586635E-01 0.  0.
         14    1    1    2    0    0 -0.13227069233E-01 -0.57731275615E-02  0.17507177141E-01  0.22688887451E-01  0.00000000000E+00 0. -1.
     999901    1    3    3    0    0  0.39474101678E-01 -0.88347659317E-01  0.70672763991E-01  0.88812057356E+00  0.88000000000E+00 0. -1.
        -11    1    4    4    0    0 -0.21566801443E-01  0.82639087791E-01 -0.66916315879E-01  0.10850069220E+00  0.51100000000E-03 0.  1.
         11    1    4    4    0    0 -0.46802310020E-02  0.11481699088E-01 -0.21263625253E-01  0.24619846792E-01  0.51100000000E-03 0. -1.
</event>
<event>
 8    1  0.1112171E+005  0.1043930E+01  0.7957747E-01            NaN
         13   -1    0    0    0    0  0.00000000000E+00  0.00000000000E+00  0.74505805969E-08  0.10566000000E+00  0.10566000000E+00 0.  1.
     999900   -1    0    0    0    0 -0.00000000000E+00 -0.00000000000E+00 -0.74505805969E-08  0.93827000000E+00  0.93827000000E+00 0.  1.
     999902    2    1    2    0    0 -0.17273228787E-01  0.14420537771E-02  0.16056419241E-01  0.10203026313E+01  0.10200290226E+01 0.  0.
     999903    2    3    3    0    0  0.43295576109E-01  0.49114367525E-01 -0.10858555494E+00  0.12818332800E+00  0.18799330535E-01 0.  0.
         14    1    1    2    0    0  0.17273228787E-01 -0.14420537771E-02 -0.16056419241E-01  0.23627368679E-01  0.00000000000E+00 0. -1.
     999901    1    3    3    0    0 -0.60568804896E-01 -0.47672313748E-01  0.12464197418E+00  0.89211930332E+00  0.88000000000E+00 0. -1.
        -11    1    4    4    0    0  0.26792056940E-01  0.42151659931E-01 -0.84576303434E-01  0.98224177133E-01  0.51100000000E-03 0. -1.
         11    1    4    4    0    0  0.16503519169E-01  0.69627075942E-02 -0.24009251506E-01  0.29959150870E-01  0.51100000000E-03 0.  1.
</event>
<event>
 8    1  0.1112171E+005  0.1043930E+01  0.7957747E-01            NaN
         13   -1    0    0    0    0  0.00000000000E+00  0.00000000000E+00  0.74505805969E-08  0.10566000000E+00  0.10566000000E+00 0. -1.
     999900   -1    0    0    0    0 -0.00000000000E+00 -0.00000000000E+00 -0.74505805969E-08  0.93827000000E+00  0.93827000000E+00 0.  1.
     999902    2    1    2    0    0 -0.26563523703E-02 -0.51032993445E-02 -0.23151841837E-01  0.10200740227E+01  0.10197950305E+01 0.  0.
     999903    2    3    3    0    0  0.22158614912E-01 -0.12610398083E+00 -0.13431890543E-01  0.13139442635E+00  0.26284242370E-01 0.  0.
         14    1    1    2    0    0  0.26563523703E-02  0.51032993445E-02  0.23151841837E-01  0.23855977292E-01  0.00000000000E+00 0. -1.
     999901    1    3    3    0    0 -0.24814967282E-01  0.12100068149E+00 -0.97199512935E-02  0.88867959635E+00  0.88000000000E+00 0. -1.
        -11    1    4    4    0    0  0.24939354124E-01 -0.87841708636E-01 -0.16921549164E-01  0.92869462728E-01  0.51100000000E-03 0. -1.
         11    1    4    4    0    0 -0.27807392117E-02 -0.38262272196E-01  0.34896586209E-02  0.38524963627E-01  0.51100000000E-03 0.  1.
</event>
<event>
 8    1  0.1112171E+005  0.1043930E+01  0.7957747E-01            NaN
         13   -1    0    0    0    0  0.00000000000E+00  0.00000000000E+00  0.74505805969E-08  0.10566000000E+00  0.10566000000E+00 0. -1.
     999900   -1    0    0    0    0 -0.00000000000E+00 -0.00000000000E+00 -0.74505805969E-08  0.93827000000E+00  0.93827000000E+00 0.  1.
     999902    2    1    2    0    0 -0.74527173375E-02 -0.20785861996E-01 -0.10846699261E-01  0.10193282533E+01  0.10190313254E+01 0.  0.
     999903    2    3    3    0    0  0.63599343072E-01 -0.78854863273E-01 -0.81694205825E-01  0.13172486589E+00  0.20360037512E-01 0.  0.
         14    1    1    2    0    0  0.74527173375E-02  0.20785861996E-01  0.10846699261E-01  0.24601746676E-01  0.00000000000E+00 0.  1.
     999901    1    3    3    0    0 -0.71052060409E-01  0.58069001276E-01  0.70847506563E-01  0.88760338743E+00  0.88000000000E+00 0.  1.
        -11    1    4    4    0    0  0.26443921672E-01 -0.43894875325E-01 -0.50368092653E-01  0.71855737083E-01  0.51100000000E-03 0. -1.
         11    1    4    4    0    0  0.37155421400E-01 -0.34959987948E-01 -0.31326113172E-01  0.59869128807E-01  0.51100000000E-03 0.  1.
</event>
<event>
 8    1  0.1112171E+005  0.1043930E+01  0.7957747E-01            NaN
         13   -1    0    0    0    0  0.00000000000E+00  0.00000000000E+00  0.74505805969E-08  0.10566000000E+00  0.10566000000E+00 0. -1.
     999900   -1    0    0    0    0 -0.00000000000E+00 -0.00000000000E+00 -0.74505805969E-08  0.93827000000E+00  0.93827000000E+00 0. -1.
     999902    2    1    2    0    0  0.19038826373E-01  0.12772204732E-01  0.57776959562E-02  0.10202870752E+01  0.10200131018E+01 0.  0.
     999903    2    3    3    0    0 -0.87042180308E-02 -0.85752761014E-01  0.94980250573E-01  0.12987484417E+00  0.20418807897E-01 0.  0.
         14    1    1    2    0    0 -0.19038826373E-01 -0.12772204732E-01 -0.57776959562E-02  0.23642924818E-01  0.00000000000E+00 0.  1.
     999901    1    3    3    0    0  0.27743044404E-01  0.98524965746E-01 -0.89202554616E-01  0.89041223101E+00  0.88000000000E+00 0. -1.
        -11    1    4    4    0    0  0.23053769506E-02 -0.33563043401E-01  0.49070847468E-01  0.59497914564E-01  0.51100000000E-03 0. -1.
         11    1    4    4    0    0 -0.11009594981E-01 -0.52189717613E-01  0.45909403104E-01  0.70376929605E-01  0.51100000000E-03 0.  1.
</event>
<event>
 8    1  0.1112171E+005  0.1043930E+01  0.7957747E-01            NaN
         13   -1    0    0    0    0  0.00000000000E+00  0.00000000000E+00  0.74505805969E-08  0.10566000000E+00  0.10566000000E+00 0. -1.
     999900   -1    0    0    0    0 -0.00000000000E+00 -0.00000000000E+00 -0.74505805969E-08  0.93827000000E+00  0.93827000000E+00 0. -1.
     999902    2    1    2    0    0  0.78919799658E-02  0.21662578038E-01 -0.89697434883E-02  0.10191912261E+01  0.10188909404E+01 0.  0.
     999903    2    3    3    0    0  0.94814596284E-01  0.52695561625E-01 -0.73054844533E-01  0.13204665646E+00  0.18239498030E-01 0.  0.
         14    1    1    2    0    0 -0.78919799658E-02 -0.21662578038E-01  0.89697434883E-02  0.24738773884E-01  0.00000000000E+00 0. -1.
     999901    1    3    3    0    0 -0.86922616319E-01 -0.31032983588E-01  0.64085101045E-01  0.88714456966E+00  0.88000000000E+00 0.  1.
        -11    1    4    4    0    0  0.29590069080E-01  0.22587594904E-01 -0.33251636079E-01  0.49916971609E-01  0.51100000000E-03 0. -1.
         11    1    4    4    0    0  0.65224527204E-01  0.30107966722E-01 -0.39803208454E-01  0.82129684849E-01  0.51100000000E-03 0.  1.
</event>
<event>
 7    1  0.1112171E+005  0.1043930E+01  0.7957747E-01            NaN
         13   -1    0    0    0    0  0.00000000000E+00  0.00000000000E+00  0.74505805969E-08  0.10566000000E+00  0.10566000000E+00 0. -1.
     999900   -1    0    0    0    0 -0.00000000000E+00 -0.00000000000E+00 -0.74505805969E-08  0.93827000000E+00  0.93827000000E+00 0. -1.
     999903    2    1    2    0    0  0.40949523912E-02 -0.10840045391E+00 -0.42173261465E-01  0.11792899312E+00  0.19006219865E-01 0.  0.
         14    1    1    2    0    0  0.20249101879E-01 -0.11899542512E-02  0.33102515188E-01  0.38822913721E-01  0.00000000000E+00 0. -1.
     999901    1    1    2    0    0 -0.24344054270E-01  0.10959040816E+00  0.90707462764E-02  0.88717809316E+00  0.88000000000E+00 0.  1.
        -11    1    3    3    0    0  0.11511493723E-02 -0.85077018743E-01 -0.40832438867E-01  0.94376763284E-01  0.51100000000E-03 0. -1.
         11    1    3    3    0    0  0.29438030189E-02 -0.23323435165E-01 -0.13408225983E-02  0.23552229838E-01  0.51100000000E-03 0.  1.
</event>
<event>
 8    1  0.1112171E+005  0.1043930E+01  0.7957747E-01            NaN
         13   -1    0    0    0    0  0.00000000000E+00  0.00000000000E+00  0.74505805969E-08  0.10566000000E+00  0.10566000000E+00 0. -1.
     999900   -1    0    0    0    0 -0.00000000000E+00 -0.00000000000E+00 -0.74505805969E-08  0.93827000000E+00  0.93827000000E+00 0.  1.
     999902    2    1    2    0    0  0.23097901412E-01  0.28351580012E-02 -0.31303814055E-02  0.10204491470E+01  0.10201789603E+01 0.  0.
     999903    2    3    3    0    0  0.85496821540E-01 -0.95476707641E-01  0.26352266685E-01  0.13228920942E+00  0.19506018919E-01 0.  0.
         14    1    1    2    0    0 -0.23097901412E-01 -0.28351580012E-02  0.31303814055E-02  0.23480853014E-01  0.00000000000E+00 0. -1.
     999901    1    3    3    0    0 -0.62398920129E-01  0.98311865642E-01 -0.29482648091E-01  0.88815993757E+00  0.88000000000E+00 0.  1.
        -11    1    4    4    0    0  0.24841186464E-01 -0.34151060443E-01  0.17003076812E-01  0.45527411704E-01  0.51100000000E-03 0. -1.
         11    1    4    4    0    0  0.60655635076E-01 -0.61325647198E-01  0.93491898736E-02  0.86761797717E-01  0.51100000000E-03 0.  1.
</event>
<event>
 8    1  0.1112171E+005  0.1043930E+01  0.7957747E-01            NaN
         13   -1    0    0    0    0  0.00000000000E+00  0.00000000000E+00  0.74505805969E-08  0.10566000000E+00  0.10566000000E+00 0. -1.
     999900   -1    0    0    0    0 -0.00000000000E+00 -0.00000000000E+00 -0.74505805969E-08  0.93827000000E+00  0.93827000000E+00 0. -1.
     999902    2    1    2    0    0 -0.15528170331E-01 -0.26437442338E-01 -0.10710925516E-01  0.10114525254E+01  0.10109309693E+01 0.  0.
     999903    2    3    3    0    0 -0.52706900003E-01 -0.10979137288E+00  0.25211957219E-01  0.12600315407E+00  0.20223480942E-01 0.  0.
         14    1    1    2    0    0  0.15528170331E-01  0.26437442338E-01  0.10710925516E-01  0.32477474603E-01  0.00000000000E+00 0. -1.
     999901    1    3    3    0    0  0.37178729672E-01  0.83353930545E-01 -0.35922882735E-01  0.88544937133E+00  0.88000000000E+00 0.  1.
        -11    1    4    4    0    0 -0.26664152353E-01 -0.75842277302E-01  0.12470955201E-01  0.81356093144E-01  0.51100000000E-03 0.  1.
         11    1    4    4    0    0 -0.26042747650E-01 -0.33949095582E-01  0.12741002018E-01  0.44647060927E-01  0.51100000000E-03 0. -1.
</event>
<event>
 8    1  0.1133560E+005  0.1043930E+01  0.7957747E-01            NaN
         13   -1    0    0    0    0  0.00000000000E+00  0.00000000000E+00  0.74505805969E-08  0.10566000000E+00  0.10566000000E+00 0.  1.
     999900   -1    0    0    0    0 -0.00000000000E+00 -0.00000000000E+00 -0.74505805969E-08  0.93827000000E+00  0.93827000000E+00 0. -1.
     999902    2    1    2    0    0 -0.13910050239E-01  0.14814769600E-01  0.11529804233E-01  0.10205654268E+01  0.10202979403E+01 0.  0.
     999903    2    3    3    0    0  0.40425795129E-01 -0.21238259355E-01 -0.11863481728E+00  0.12860408587E+00  0.19480309510E-01 0.  0.
         14    1    1    2    0    0  0.13910050239E-01 -0.14814769600E-01 -0.11529804233E-01  0.23364573217E-01  0.00000000000E+00 0. -1.
     999901    1    3    3    0    0 -0.54335845369E-01  0.36053028955E-01  0.13016462152E+00  0.89196134091E+00  0.88000000000E+00 0.  1.
        -11    1    4    4    0    0  0.19214465004E-01 -0.15100696287E-01 -0.39560310166E-01  0.46502752125E-01  0.51100000000E-03 0.  1.
         11    1    4    4    0    0  0.21211330126E-01 -0.61375630684E-02 -0.79074507116E-01  0.82101333745E-01  0.51100000000E-03 0. -1.
</event>
<event>
 7    1  0.1112171E+005  0.1043930E+01  0.7957747E-01            NaN
         13   -1    0    0    0    0  0.00000000000E+00  0.00000000000E+00  0.74505805969E-08  0.10566000000E+00  0.10566000000E+00 0. -1.
     999900   -1    0    0    0    0 -0.00000000000E+00 -0.00000000000E+00 -0.74505805969E-08  0.93827000000E+00  0.93827000000E+00 0. -1.
     999903    2    1    2    0    0  0.73516572039E-03  0.10410114205E+00  0.58650571288E-01  0.12124978347E+00  0.20592042947E-01 0.  0.
         14    1    1    2    0    0  0.16023966649E-01 -0.24836063500E-01 -0.24346742376E-01  0.38293098878E-01  0.00000000000E+00 0. -1.
     999901    1    1    2    0    0 -0.16759132369E-01 -0.79265078554E-01 -0.34303828912E-01  0.88438711765E+00  0.88000000000E+00 0. -1.
        -11    1    3    3    0    0  0.87207640751E-02  0.45543797573E-01  0.19202715713E-01  0.50192575499E-01  0.51100000000E-03 0. -1.
         11    1    3    3    0    0 -0.79855983547E-02  0.58557344481E-01  0.39447855575E-01  0.71057207968E-01  0.51100000000E-03 0.  1.
</event>
<event>
 8    1  0.1112171E+005  0.1043930E+01  0.7957747E-01            NaN
         13   -1    0    0    0    0  0.00000000000E+00  0.00000000000E+00  0.74505805969E-08  0.10566000000E+00  0.10566000000E+00 0.  1.
     999900   -1    0    0    0    0 -0.00000000000E+00 -0.00000000000E+00 -0.74505805969E-08  0.93827000000E+00  0.93827000000E+00 0.  1.
     999902    2    1    2    0    0 -0.15282305323E-01 -0.10324462166E-01  0.14556104406E-01  0.10204348186E+01  0.10201642982E+01 0.  0.
     999903    2    3    3    0    0 -0.54886202546E-01  0.59098916690E-01 -0.99432278487E-01  0.12949069819E+00  0.19387772648E-01 0.  0.
         14    1    1    2    0    0  0.15282305323E-01  0.10324462166E-01 -0.14556104406E-01  0.23495181431E-01  0.00000000000E+00 0. -1.
     999901    1    3    3    0    0  0.39603897223E-01 -0.69423378856E-01  0.11398838289E+00  0.89094412038E+00  0.88000000000E+00 0. -1.
        -11    1    4    4    0    0 -0.17723859074E-01  0.23510001015E-01 -0.50635132237E-01  0.58575020835E-01  0.51100000000E-03 0. -1.
         11    1    4    4    0    0 -0.37162343471E-01  0.35588915675E-01 -0.48797146250E-01  0.70915677353E-01  0.51100000000E-03 0.  1.
</event>
<event>
 8    1  0.1112171E+005  0.1043930E+01  0.7957747E-01            NaN
         13   -1    0    0    0    0  0.00000000000E+00  0.00000000000E+00  0.74505805969E-08  0.10566000000E+00  0.10566000000E+00 0.  1.
     999900   -1    0    0    0    0 -0.00000000000E+00 -0.00000000000E+00 -0.74505805969E-08  0.93827000000E+00  0.93827000000E+00 0. -1.
     999902    2    1    2    0    0  0.14815499176E-01  0.13308971002E-01 -0.12718542767E-01  0.10202997428E+01  0.10200260664E+01 0.  0.
     999903    2    3    3    0    0  0.61697262480E-01 -0.39456945516E-01  0.10508214431E+00  0.12964877663E+00  0.20078483060E-01 0.  0.
         14    1    1    2    0    0 -0.14815499176E-01 -0.13308971002E-01  0.12718542767E-01  0.23630257195E-01  0.00000000000E+00 0.  1.
     999901    1    3    3    0    0 -0.46881763304E-01  0.52765916519E-01 -0.11780068707E+00  0.89065096618E+00  0.88000000000E+00 0. -1.
        -11    1    4    4    0    0  0.13553726872E-01 -0.16720185003E-01  0.20664071447E-01  0.29841800690E-01  0.51100000000E-03 0.  1.
         11    1    4    4    0    0  0.48143535609E-01 -0.22736760513E-01  0.84418072860E-01  0.99806975938E-01  0.51100000000E-03 0. -1.
</event>
<event>
 8    1  0.1112171E+005  0.1043930E+01  0.7957747E-01            NaN
         13   -1    0    0    0    0  0.00000000000E+00  0.00000000000E+00  0.74505805969E-08  0.10566000000E+00  0.10566000000E+00 0. -1.
     999900   -1    0    0    0    0 -0.00000000000E+00 -0.00000000000E+00 -0.74505805969E-08  0.93827000000E+00  0.93827000000E+00 0. -1.
     999902    2    1    2    0    0  0.69793722965E-02  0.23249678195E-01 -0.37324791861E-02  0.10193700616E+01  0.10190741543E+01 0.  0.
     999903    2    3    3    0    0  0.13071719043E-01  0.42989486047E-01  0.12065191276E+00  0.13038285490E+00  0.20587351709E-01 0.  0.
         14    1    1    2    0    0 -0.69793722965E-02 -0.23249678195E-01  0.37324791861E-02  0.24559938410E-01  0.00000000000E+00 0.  1.
     999901    1    3    3    0    0 -0.60923467465E-02 -0.19739807852E-01 -0.12438439194E+00  0.88898720669E+00  0.88000000000E+00 0. -1.
        -11    1    4    4    0    0 -0.28267211492E-02  0.26888045752E-02  0.25873807390E-01  0.26171263867E-01  0.51100000000E-03 0.  1.
         11    1    4    4    0    0  0.15898440192E-01  0.40300681471E-01  0.94778105366E-01  0.10421159103E+00  0.51100000000E-03 0. -1.
</event>
<event>
 8    1  0.1112171E+005  0.1043930E+01  0.7957747E-01            NaN
         13   -1    0    0    0    0  0.00000000000E+00  0.00000000000E+00  0.74505805969E-08  0.10566000000E+00  0.10566000000E+00 0.  1.
     999900   -1    0    0    0    0 -0.00000000000E+00 -0.00000000000E+00 -0.74505805969E-08  0.93827000000E+00  0.93827000000E+00 0.  1.
     999902    2    1    2    0    0  0.68175608061E-03  0.18644571587E-01  0.13256703492E-01  0.10210427759E+01  0.10207862289E+01 0.  0.
     999903    2    3    3    0    0  0.12515315101E+00  0.36357721655E-01  0.79561456116E-02  0.13209115752E+00  0.19989460002E-01 0.  0.
         14    1    1    2    0    0 -0.68175608061E-03 -0.18644571587E-01 -0.13256703492E-01  0.22887224133E-01  0.00000000000E+00 0. -1.
     999901    1    3    3    0    0 -0.12447139493E+00 -0.17713150068E-01  0.53005578805E-02  0.88895161834E+00  0.88000000000E+00 0. -1.
        -11    1    4    4    0    0  0.30139945304E-01  0.12080076654E-01  0.10073237966E-01  0.34001114673E-01  0.51100000000E-03 0.  1.
         11    1    4    4    0    0  0.95013205707E-01  0.24277645002E-01 -0.21170923544E-02  0.98090042851E-01  0.51100000000E-03 0. -1.
</event>
<event>
 8    1  0.1112171E+005  0.1043930E+01  0.7957747E-01            NaN
         13   -1    0    0    0    0  0.00000000000E+00  0.00000000000E+00  0.74505805969E-08  0.10566000000E+00  0.10566000000E+00 0.  1.
     999900   -1    0    0    0    0 -0.00000000000E+00 -0.00000000000E+00 -0.74505805969E-08  0.93827000000E+00  0.93827000000E+00 0. -1.
     999902    2    1    2    0    0  0.37836106846E-02  0.20740413602E-01  0.10738457370E-01  0.10202700141E+01  0.10199956405E+01 0.  0.
     999903    2    3    3    0    0  0.99240627970E-01  0.61754573047E-01 -0.56978302378E-01  0.13157447401E+00  0.20074504643E-01 0.  0.
         14    1    1    2    0    0 -0.37836106846E-02 -0.20740413602E-01 -0.10738457370E-01  0.23659985902E-01  0.00000000000E+00 0. -1.
     999901    1    3    3    0    0 -0.95457017286E-01 -0.41014159446E-01  0.67716759748E-01  0.88869554009E+00  0.88000000000E+00 0.  1.
        -11    1    4    4    0    0  0.10897119143E-01  0.15100095036E-01 -0.10516495867E-01  0.21392005096E-01  0.51100000000E-03 0. -1.
         11    1    4    4    0    0  0.88343508828E-01  0.46654478011E-01 -0.46461806511E-01  0.11018246891E+00  0.51100000000E-03 0.  1.
</event>
<event>
 8    1  0.1112171E+005  0.1043930E+01  0.7957747E-01            NaN
         13   -1    0    0    0    0  0.00000000000E+00  0.00000000000E+00  0.74505805969E-08  0.10566000000E+00  0.10566000000E+00 0.  1.
     999900   -1    0    0    0    0 -0.00000000000E+00 -0.00000000000E+00 -0.74505805969E-08  0.93827000000E+00  0.93827000000E+00 0. -1.
     999902    2    1    2    0    0 -0.88352806153E-02  0.19949991192E-01  0.86245310212E-02  0.10204683959E+01  0.10201986572E+01 0.  0.
     999903    2    3    3    0    0 -0.10371259767E+00 -0.20042785700E-01 -0.74185869554E-01  0.13060397367E+00  0.19895691019E-01 0.  0.
         14    1    1    2    0    0  0.88352806153E-02 -0.19949991192E-01 -0.86245310212E-02  0.23461604111E-01  0.00000000000E+00 0.  1.
     999901    1    3    3    0    0  0.94877317058E-01  0.39992776891E-01  0.82810400575E-01  0.88986442222E+00  0.88000000000E+00 0.  1.
        -11    1    4    4    0    0 -0.43585924246E-01 -0.15259333627E-01 -0.23505548905E-01  0.51820382143E-01  0.51100000000E-03 0. -1.
         11    1    4    4    0    0 -0.60126673428E-01 -0.47834520721E-02 -0.50680320649E-01  0.78783591523E-01  0.51100000000E-03 0.  1.
</event>
<event>
 8    1  0.1112171E+005  0.1043930E+01  0.7957747E-01            NaN
         13   -1    0    0    0    0  0.00000000000E+00  0.00000000000E+00  0.74505805969E-08  0.10566000000E+00  0.10566000000E+00 0. -1.
     999900   -1    0    0    0    0 -0.00000000000E+00 -0.00000000000E+00 -0.74505805969E-08  0.93827000000E+00  0.93827000000E+00 0. -1.
     999902    2    1    2    0    0 -0.12354442607E-01  0.30225686968E-02  0.19566220441E-01  0.10205932231E+01  0.10203263801E+01 0.  0.
     999903    2    3    3    0    0 -0.12990550093E+00 -0.96197850375E-02  0.14522922352E-01  0.13267232838E+00  0.20568228169E-01 0.  0.
         14    1    1    2    0    0  0.12354442607E-01 -0.30225686968E-02 -0.19566220441E-01  0.23336776898E-01  0.00000000000E+00 0.  1.
     999901    1    3    3    0    0  0.11755105832E+00  0.12642353734E-01  0.50432980892E-02  0.88792089472E+00  0.88000000000E+00 0. -1.
        -11    1    4    4    0    0 -0.69507759962E-01 -0.67947881729E-02 -0.24023241923E-02  0.69882259006E-01  0.51100000000E-03 0. -1.
         11    1    4    4    0    0 -0.60397740964E-01 -0.28249968646E-02  0.16925246544E-01  0.62790069378E-01  0.51100000000E-03 0.  1.
</event>
<event>
 8    1  0.1112171E+005  0.1043930E+01  0.7957747E-01            NaN
         13   -1    0    0    0    0  0.00000000000E+00  0.00000000000E+00  0.74505805969E-08  0.10566000000E+00  0.10566000000E+00 0. -1.
     999900   -1    0    0    0    0 -0.00000000000E+00 -0.00000000000E+00 -0.74505805969E-08  0.93827000000E+00  0.93827000000E+00 0. -1.
     999902    2    1    2    0    0 -0.41813861105E-02  0.23589704057E-01  0.26437002517E-02  0.10198271521E+01  0.10195422859E+01 0.  0.
     999903    2    3    3    0    0  0.58177880422E-01 -0.19577946103E-01  0.11344297044E+00  0.12964256311E+00  0.13035523892E-01 0.  0.
         14    1    1    2    0    0  0.41813861105E-02 -0.23589704057E-01 -0.26437002517E-02  0.24102847930E-01  0.00000000000E+00 0.  1.
     999901    1    3    3    0    0 -0.62359266532E-01  0.43167650160E-01 -0.11079927019E+00  0.89018458896E+00  0.88000000000E+00 0. -1.
        -11    1    4    4    0    0  0.29971537335E-01 -0.36084557244E-02  0.59084894276E-01  0.66352090061E-01  0.51100000000E-03 0. -1.
         11    1    4    4    0    0  0.28206343087E-01 -0.15969490378E-01  0.54358076169E-01  0.63290473051E-01  0.51100000000E-03 0.  1.
</event>
<event>
 8    1  0.1112171E+005  0.1043930E+01  0.7957747E-01            NaN
         13   -1    0    0    0    0  0.00000000000E+00  0.00000000000E+00  0.74505805969E-08  0.10566000000E+00  0.10566000000E+00 0. -1.
     999900   -1    0    0    0    0 -0.00000000000E+00 -0.00000000000E+00 -0.74505805969E-08  0.93827000000E+00  0.93827000000E+00 0. -1.
     999902    2    1    2    0    0  0.13673650539E-01 -0.37926589971E-02  0.18772693204E-01  0.10203977457E+01  0.10201263610E+01 0.  0.
     999903    2    3    3    0    0 -0.54117517624E-01  0.11477886187E+00  0.18527645272E-01  0.12986144209E+00  0.20440833068E-01 0.  0.
         14    1    1    2    0    0 -0.13673650539E-01  0.37926589971E-02 -0.18772693204E-01  0.23532254279E-01  0.00000000000E+00 0.  1.
     999901    1    3    3    0    0  0.67791168163E-01 -0.11857152086E+00  0.24504793175E-03  0.89053630363E+00  0.88000000000E+00 0.  1.
        -11    1    4    4    0    0 -0.40478553156E-01  0.62850336811E-01  0.85001910700E-02  0.75240896273E-01  0.51100000000E-03 0.  1.
         11    1    4    4    0    0 -0.13638964469E-01  0.51928525056E-01  0.10027454202E-01  0.54620545814E-01  0.51100000000E-03 0. -1.
</event>
<event>
 8    1  0.1112171E+005  0.1043930E+01  0.7957747E-01            NaN
         13   -1    0    0    0    0  0.00000000000E+00  0.00000000000E+00  0.74505805969E-08  0.10566000000E+00  0.10566000000E+00 0. -1.
     999900   -1    0    0    0    0 -0.00000000000E+00 -0.00000000000E+00 -0.74505805969E-08  0.93827000000E+00  0.93827000000E+00 0.  1.
     999902    2    1    2    0    0  0.19931646980E-02 -0.24364236129E-01  0.14611275122E-01  0.10154505676E+01  0.10150511205E+01 0.  0.
     999903    2    3    3    0    0  0.10661643164E+00  0.45544315691E-01  0.45232471166E-01  0.12597269199E+00  0.19539562208E-01 0.  0.
         14    1    1    2    0    0 -0.19931646980E-02  0.24364236129E-01 -0.14611275122E-01  0.28479432374E-01  0.00000000000E+00 0.  1.
     999901    1    3    3    0    0 -0.10462326694E+00 -0.69908551820E-01 -0.30621196043E-01  0.88947787564E+00  0.88000000000E+00 0. -1.
        -11    1    4    4    0    0  0.94287723231E-01  0.38664731057E-01  0.32531301111E-01  0.10697515063E+00  0.51100000000E-03 0.  1.
         11    1    4    4    0    0  0.12328708409E-01  0.68795846348E-02  0.12701170054E-01  0.18997541355E-01  0.51100000000E-03 0. -1.
</event>
<event>
 8    1  0.1112171E+005  0.1043930E+01  0.7957747E-01            NaN
         13   -1    0    0    0    0  0.00000000000E+00  0.00000000000E+00  0.74505805969E-08  0.10566000000E+00  0.10566000000E+00 0. -1.
     999900   -1    0    0    0    0 -0.00000000000E+00 -0.00000000000E+00 -0.74505805969E-08  0.93827000000E+00  0.93827000000E+00 0.  1.
     999902    2    1    2    0    0 -0.17685996286E-01  0.49687314728E-02  0.14709177313E-01  0.10203961381E+01  0.10201247159E+01 0.  0.
     999903    2    3    3    0    0 -0.48389087978E-02 -0.11389343311E+00  0.61553056114E-01  0.13107751649E+00  0.19935081320E-01 0.  0.
         14    1    1    2    0    0  0.17685996286E-01 -0.49687314728E-02 -0.14709177313E-01  0.23533861865E-01  0.00000000000E+00 0.  1.
     999901    1    3    3    0    0 -0.12847087488E-01  0.11886216458E+00 -0.46843878802E-01  0.88931862165E+00  0.88000000000E+00 0.  1.
        -11    1    4    4    0    0  0.56117129972E-02 -0.74301179637E-01  0.43885238981E-01  0.86477349287E-01  0.51100000000E-03 0. -1.
         11    1    4    4    0    0 -0.10450621795E-01 -0.39592253475E-01  0.17667817133E-01  0.44600167201E-01  0.51100000000E-03 0.  1.
</event>
<event>
 8    1  0.1112171E+005  0.1043930E+01  0.7957747E-01            NaN
         13   -1    0    0    0    0  0.00000000000E+00  0.00000000000E+00  0.74505805969E-08  0.10566000000E+00  0.10566000000E+00 0. -1.
     999900   -1    0    0    0    0 -0.00000000000E+00 -0.00000000000E+00 -0.74505805969E-08  0.93827000000E+00  0.93827000000E+00 0.  1.
     999902    2    1    2    0    0 -0.13982583243E-01  0.16820964219E-01 -0.31849472681E-02  0.10218256710E+01  0.10215865605E+01 0.  0.
     999903    2    3    3    0    0  0.10034406542E+00  0.14181058555E-01 -0.80522231243E-01  0.13106273554E+00  0.20580987278E-01 0.  0.
         14    1    1    2    0    0  0.13982583243E-01 -0.16820964219E-01  0.31849472681E-02  0.22104328999E-01  0.00000000000E+00 0.  1.
     999901    1    3    3    0    0 -0.11432664866E+00  0.26399056635E-02  0.77337283975E-01  0.89076293546E+00  0.88000000000E+00 0. -1.
        -11    1    4    4    0    0  0.32500357249E-02  0.42482156715E-02 -0.72185126982E-02  0.89987840945E-02  0.51100000000E-03 0. -1.
         11    1    4    4    0    0  0.97094029691E-01  0.99328428839E-02 -0.73303718545E-01  0.12206395145E+00  0.51100000000E-03 0.  1.
</event>
<event>
 8    1  0.1112171E+005  0.1043930E+01  0.7957747E-01            NaN
         13   -1    0    0    0    0  0.00000000000E+00  0.00000000000E+00  0.74505805969E-08  0.10566000000E+00  0.10566000000E+00 0.  1.
     999900   -1    0    0    0    0 -0.00000000000E+00 -0.00000000000E+00 -0.74505805969E-08  0.93827000000E+00  0.93827000000E+00 0.  1.
     999902    2    1    2    0    0  0.14837239105E-02 -0.11185901994E-01 -0.23002808276E-01  0.10183086216E+01  0.10179862445E+01 0.  0.
     999903    2    3    3    0    0  0.48838971199E-01 -0.11741528863E+00  0.16065061992E-01  0.12979666308E+00  0.20432631175E-01 0.  0.
         14    1    1    2    0    0 -0.14837239105E-02  0.11185901994E-01  0.23002808276E-01  0.25621378352E-01  0.00000000000E+00 0.  1.
     999901    1    3    3    0    0 -0.47355247289E-01  0.10622938664E+00 -0.39067870268E-01  0.88851195857E+00  0.88000000000E+00 0.  1.
        -11    1    4    4    0    0  0.47747322962E-01 -0.10134934336E+00  0.96292233298E-02  0.11244767366E+00  0.51100000000E-03 0.  1.
         11    1    4    4    0    0  0.10916482374E-02 -0.16065945278E-01  0.64358386621E-02  0.17348989418E-01  0.51100000000E-03 0. -1.
</event>
<event>
 8    1  0.1112171E+005  0.1043930E+01  0.7957747E-01            NaN
         13   -1    0    0    0    0  0.00000000000E+00  0.00000000000E+00  0.74505805969E-08  0.10566000000E+00  0.10566000000E+00 0.  1.
     999900   -1    0    0    0    0 -0.00000000000E+00 -0.00000000000E+00 -0.74505805969E-08  0.93827000000E+00  0.93827000000E+00 0.  1.
     999902    2    1    2    0    0  0.17632283046E-01 -0.17818947184E-02 -0.71167609719E-02  0.10248323341E+01  0.10246543770E+01 0.  0.
     999903    2    3    3    0    0  0.57065317399E-01  0.11680831183E+00 -0.33388957797E-01  0.13561423401E+00  0.19384679581E-01 0.  0.
         14    1    1    2    0    0 -0.17632283046E-01  0.17818947184E-02  0.71167609719E-02  0.19097665851E-01  0.00000000000E+00 0. -1.
     999901    1    3    3    0    0 -0.39433034353E-01 -0.11859020654E+00  0.26272196825E-01  0.88921810014E+00  0.88000000000E+00 0. -1.
        -11    1    4    4    0    0  0.27266396052E-01  0.65180367813E-01 -0.27085387717E-01  0.75669122175E-01  0.51100000000E-03 0.  1.
         11    1    4    4    0    0  0.29798921347E-01  0.51627944013E-01 -0.63035700797E-02  0.59945111837E-01  0.51100000000E-03 0. -1.
</event>
<event>
 8    1  0.1112171E+005  0.1043930E+01  0.7957747E-01            NaN
         13   -1    0    0    0    0  0.00000000000E+00  0.00000000000E+00  0.74505805969E-08  0.10566000000E+00  0.10566000000E+00 0. -1.
     999900   -1    0    0    0    0 -0.00000000000E+00 -0.00000000000E+00 -0.74505805969E-08  0.93827000000E+00  0.93827000000E+00 0.  1.
     999902    2    1    2    0    0  0.31204470554E-02  0.20917640644E-01  0.11990791100E-01  0.10196181932E+01  0.10193283062E+01 0.  0.
     999903    2    3    3    0    0 -0.56828033476E-01 -0.97472805554E-01 -0.54978074885E-01  0.12715253721E+00  0.20366781503E-01 0.  0.
         14    1    1    2    0    0 -0.31204470554E-02 -0.20917640644E-01 -0.11990791100E-01  0.24311806826E-01  0.00000000000E+00 0.  1.
     999901    1    3    3    0    0  0.59948480532E-01  0.11839044620E+00  0.66968865986E-01  0.89246565597E+00  0.88000000000E+00 0. -1.
        -11    1    4    4    0    0 -0.59097244537E-02 -0.22021803193E-01 -0.51515092130E-02  0.23381270863E-01  0.51100000000E-03 0.  1.
         11    1    4    4    0    0 -0.50918309023E-01 -0.75451002360E-01 -0.49826565672E-01  0.10377126634E+00  0.51100000000E-03 0. -1.
</event>
<event>
 8    1  0.1112171E+005  0.1043930E+01  0.7957747E-01            NaN
         13   -1    0    0    0    0  0.00000000000E+00  0.00000000000E+00  0.74505805969E-08  0.10566000000E+00  0.10566000000E+00 0. -1.
     999900   -1    0    0    0    0 -0.00000000000E+00 -0.00000000000E+00 -0.74505805969E-08  0.93827000000E+00  0.93827000000E+00 0.  1.
     999902    2    1    2    0    0 -0.26843324265E-02  0.11099550374E-01 -0.21043561295E-01  0.10199876290E+01  0.10197065882E+01 0.  0.
     999903    2    3    3    0    0  0.12530797251E+00 -0.13738590871E-01  0.21937823759E-01  0.12934383774E+00  0.18913576993E-01 0.  0.
         14    1    1    2    0    0  0.26843324265E-02 -0.11099550374E-01  0.21043561295E-01  0.23942371040E-01  0.00000000000E+00 0. -1.
     999901    1    3    3    0    0 -0.12799230494E+00  0.24838141245E-01 -0.42981385054E-01  0.89064379122E+00  0.88000000000E+00 0.  1.
        -11    1    4    4    0    0  0.75165192103E-01 -0.62057197324E-02  0.39009923328E-02  0.75523479286E-01  0.51100000000E-03 0.  1.
         11    1    4    4    0    0  0.50142780409E-01 -0.75328711390E-02  0.18036831426E-01  0.53820358450E-01  0.51100000000E-03 0. -1.
</event>
<event>
 8    1  0.1112171E+005  0.1043930E+01  0.7957747E-01            NaN
         13   -1    0    0    0    0  0.00000000000E+00  0.00000000000E+00  0.74505805969E-08  0.10566000000E+00  0.10566000000E+00 0.  1.
     999900   -1    0    0    0    0 -0.00000000000E+00 -0.00000000000E+00 -0.74505805969E-08  0.93827000000E+00  0.93827000000E+00 0. -1.
     999902    2    1    2    0    0 -0.50251313144E-02 -0.21080338922E-01 -0.96733161230E-02  0.10201980452E+01  0.10199219802E+01 0.  0.
     999903    2    3    3    0    0 -0.29865672825E-01 -0.12803830989E+00  0.86506868025E-02  0.13318461287E+00  0.19430375919E-01 0.  0.
         14    1    1    2    0    0  0.50251313144E-02  0.21080338922E-01  0.96733161230E-02  0.23731954800E-01  0.00000000000E+00 0. -1.
     999901    1    3    3    0    0  0.24840541510E-01  0.10695797097E+00 -0.18324002925E-01  0.88701343233E+00  0.88000000000E+00 0.  1.
        -11    1    4    4    0    0 -0.30890577980E-01 -0.96117236467E-01  0.68247030492E-02  0.10119085258E+00  0.51100000000E-03 0. -1.
         11    1    4    4    0    0  0.10249051554E-02 -0.31921073428E-01  0.18259837532E-02  0.31993760283E-01  0.51100000000E-03 0.  1.
</event>
<event>
 8    1  0.1112171E+005  0.1043930E+01  0.7957747E-01            NaN
         13   -1    0    0    0    0  0.00000000000E+00  0.00000000000E+00  0.74505805969E-08  0.10566000000E+00  0.10566000000E+00 0.  1.
     999900   -1    0    0    0    0 -0.00000000000E+00 -0.00000000000E+00 -0.74505805969E-08  0.93827000000E+00  0.93827000000E+00 0. -1.
     999902    2    1    2    0    0 -0.35861456580E-02 -0.85557973351E-02  0.21097763378E-01  0.10208827067E+01  0.10206225174E+01 0.  0.
     999903    2    3    3    0    0 -0.45137511541E-01  0.89868732246E-01  0.83112211193E-01  0.13225472168E+00  0.21676894922E-01 0.  0.
         14    1    1    2    0    0  0.35861456580E-02  0.85557973351E-02 -0.21097763378E-01  0.23047293296E-01  0.00000000000E+00 0. -1.
     999901    1    3    3    0    0  0.41551365883E-01 -0.98424529582E-01 -0.62014447815E-01  0.88862798502E+00  0.88000000000E+00 0. -1.
        -11    1    4    4    0    0 -0.25368015440E-01  0.60779727728E-01  0.65611255458E-01  0.92966711643E-01  0.51100000000E-03 0.  1.
         11    1    4    4    0    0 -0.19769496101E-01  0.29089004519E-01  0.17500955735E-01  0.39288010036E-01  0.51100000000E-03 0. -1.
</event>
<event>
 8    1  0.1112171E+005  0.1043930E+01  0.7957747E-01            NaN
         13   -1    0    0    0    0  0.00000000000E+00  0.00000000000E+00  0.74505805969E-08  0.10566000000E+00  0.10566000000E+00 0.  1.
     999900   -1    0    0    0    0 -0.00000000000E+00 -0.00000000000E+00 -0.74505805969E-08  0.93827000000E+00  0.93827000000E+00 0. -1.
     999902    2    1    2    0    0 -0.15757329465E-01 -0.13695749275E-01  0.12469249873E-01  0.10196123280E+01  0.10193222995E+01 0.  0.
     999903    2    3    3    0    0 -0.82690641913E-01 -0.10092012808E+00 -0.11975363866E-01  0.13243382299E+00  0.19305274417E-01 0.  0.
         14    1    1    2    0    0  0.15757329465E-01  0.13695749275E-01 -0.12469249873E-01  0.24317672020E-01  0.00000000000E+00 0.  1.
     999901    1    3    3    0    0  0.66933312447E-01  0.87224378806E-01  0.24444613740E-01  0.88717850499E+00  0.88000000000E+00 0.  1.
        -11    1    4    4    0    0 -0.53616063120E-01 -0.78497864559E-01 -0.62203345128E-02  0.95265684521E-01  0.51100000000E-03 0.  1.
         11    1    4    4    0    0 -0.29074578793E-01 -0.22422263522E-01 -0.57550293534E-02  0.37168138470E-01  0.51100000000E-03 0. -1.
</event>
<event>
 8    1  0.1112171E+005  0.1043930E+01  0.7957747E-01            NaN
         13   -1    0    0    0    0  0.00000000000E+00  0.00000000000E+00  0.74505805969E-08  0.10566000000E+00  0.10566000000E+00 0. -1.
     999900   -1    0    0    0    0 -0.00000000000E+00 -0.00000000000E+00 -0.74505805969E-08  0.93827000000E+00  0.93827000000E+00 0. -1.
     999902    2    1    2    0    0  0.66846642198E-02 -0.21884946789E-01  0.57605380216E-02  0.10203329784E+01  0.10200600802E+01 0.  0.
     999903    2    3    3    0    0 -0.53140356653E-01  0.72582870550E-01 -0.89010238464E-01  0.12820927522E+00  0.20557847631E-01 0.  0.
         14    1    1    2    0    0 -0.66846642198E-02  0.21884946789E-01 -0.57605380216E-02  0.23597021633E-01  0.00000000000E+00 0. -1.
     999901    1    3    3    0    0  0.59825020873E-01 -0.94467817338E-01  0.94770776486E-01  0.89212370314E+00  0.88000000000E+00 0.  1.
        -11    1    4    4    0    0 -0.31495300204E-01  0.26055044303E-01 -0.36854072973E-01  0.55039105046E-01  0.51100000000E-03 0.  1.
         11    1    4    4    0    0 -0.21645056450E-01  0.46527826247E-01 -0.52156165492E-01  0.73170170177E-01  0.51100000000E-03 0. -1.
</event>
<event>
 8    1  0.1112171E+005  0.1043930E+01  0.7957747E-01            NaN
         13   -1    0    0    0    0  0.00000000000E+00  0.00000000000E+00  0.74505805969E-08  0.10566000000E+00  0.10566000000E+00 0. -1.
     999900   -1    0    0    0    0 -0.00000000000E+00 -0.00000000000E+00 -0.74505805969E-08  0.93827000000E+00  0.93827000000E+00 0. -1.
     999902    2    1    2    0    0 -0.40078549590E-02  0.42112617899E-02 -0.22769018210E-01  0.10204305145E+01  0.10201598939E+01 0.  0.
     999903    2    3    3    0    0 -0.11070179074E+00  0.64710785919E-01 -0.22641750475E-01  0.13192401227E+00  0.21187823445E-01 0.  0.
         14    1    1    2    0    0  0.40078549590E-02 -0.42112617899E-02  0.22769018210E-01  0.23499485473E-01  0.00000000000E+00 0. -1.
     999901    1    3    3    0    0  0.10669393578E+00 -0.60499524129E-01 -0.12726773506E-03  0.88850650225E+00  0.88000000000E+00 0.  1.
        -11    1    4    4    0    0 -0.94781701948E-01  0.47942014436E-01 -0.13573414105E-01  0.10708177466E+00  0.51100000000E-03 0.  1.
         11    1    4    4    0    0 -0.15920088790E-01  0.16768771483E-01 -0.90683363708E-02  0.24842237614E-01  0.51100000000E-03 0. -1.
</event>
<event>
 8    1  0.1112171E+005  0.1043930E+01  0.7957747E-01            NaN
         13   -1    0    0    0    0  0.00000000000E+00  0.00000000000E+00  0.74505805969E-08  0.10566000000E+00  0.10566000000E+00 0. -1.
     999900   -1    0    0    0    0 -0.00000000000E+00 -0.00000000000E+00 -0.74505805969E-08  0.93827000000E+00  0.93827000000E+00 0. -1.
     999902    2    1    2    0    0 -0.16132285081E-01  0.16960609520E-01  0.27175800806E-02  0.10203652352E+01  0.10200930914E+01 0.  0.
     999903    2    3    3    0    0 -0.32947530358E-01  0.59164754638E-01 -0.11137685906E+00  0.13183752976E+00  0.19756557709E-01 0.  0.
         14    1    1    2    0    0  0.16132285081E-01 -0.16960609520E-01 -0.27175800806E-02  0.23564764771E-01  0.00000000000E+00 0. -1.
     999901    1    3    3    0    0  0.16815245277E-01 -0.42204145118E-01  0.11409443914E+00  0.88852770547E+00  0.88000000000E+00 0.  1.
        -11    1    4    4    0    0 -0.25489639713E-01  0.25510735521E-01 -0.56388777206E-01  0.66936347938E-01  0.51100000000E-03 0.  1.
         11    1    4    4    0    0 -0.74578906453E-02  0.33654019117E-01 -0.54988081851E-01  0.64901181825E-01  0.51100000000E-03 0. -1.
</event>
<event>
 8    1  0.1112171E+005  0.1043930E+01  0.7957747E-01            NaN
         13   -1    0    0    0    0  0.00000000000E+00  0.00000000000E+00  0.74505805969E-08  0.10566000000E+00  0.10566000000E+00 0. -1.
     999900   -1    0    0    0    0 -0.00000000000E+00 -0.00000000000E+00 -0.74505805969E-08  0.93827000000E+00  0.93827000000E+00 0. -1.
     999902    2    1    2    0    0 -0.86037431271E-02  0.14139453024E-01  0.16600458806E-01  0.10204880769E+01  0.10202187958E+01 0.  0.
     999903    2    3    3    0    0 -0.57131721245E-01 -0.67619577442E-01  0.95797782948E-01  0.13183082017E+00  0.19123522265E-01 0.  0.
         14    1    1    2    0    0  0.86037431271E-02 -0.14139453024E-01 -0.16600458806E-01  0.23441923134E-01  0.00000000000E+00 0.  1.
     999901    1    3    3    0    0  0.48527978117E-01  0.81759030466E-01 -0.79197324142E-01  0.88865725669E+00  0.88000000000E+00 0. -1.
        -11    1    4    4    0    0 -0.43348358430E-01 -0.55135501301E-01  0.85430883797E-01  0.11053370848E+00  0.51100000000E-03 0.  1.
         11    1    4    4    0    0 -0.13783362815E-01 -0.12484076141E-01  0.10366899151E-01  0.21297111696E-01  0.51100000000E-03 0. -1.
</event>
<event>
 8    1  0.1112171E+005  0.1043930E+01  0.7957747E-01            NaN
         13   -1    0    0    0    0  0.00000000000E+00  0.00000000000E+00  0.74505805969E-08  0.10566000000E+00  0.10566000000E+00 0.  1.
     999900   -1    0    0    0    0 -0.00000000000E+00 -0.00000000000E+00 -0.74505805969E-08  0.93827000000E+00  0.93827000000E+00 0. -1.
     999902    2    1    2    0    0 -0.14533270620E-01 -0.81288177531E-02  0.16531873160E-01  0.10204652080E+01  0.10201953952E+01 0.  0.
     999903    2    3    3    0    0  0.11378278692E+00 -0.14616223049E-01 -0.53879708344E-01  0.12835260981E+00  0.20278385035E-01 0.  0.
         14    1    1    2    0    0  0.14533270620E-01  0.81288177531E-02 -0.16531873160E-01  0.23464791991E-01  0.00000000000E+00 0. -1.
     999901    1    3    3    0    0 -0.12831605754E+00  0.64874052956E-02  0.70411581505E-01  0.89211259820E+00  0.88000000000E+00 0.  1.
        -11    1    4    4    0    0  0.25530075146E-01 -0.98061547142E-02 -0.19142409337E-01  0.33386200195E-01  0.51100000000E-03 0.  1.
         11    1    4    4    0    0  0.88252711772E-01 -0.48100683345E-02 -0.34737299007E-01  0.94966409618E-01  0.51100000000E-03 0. -1.
</event>
<event>
 8    1  0.1112171E+005  0.1043930E+01  0.7957747E-01            NaN
         13   -1    0    0    0    0  0.00000000000E+00  0.00000000000E+00  0.74505805969E-08  0.10566000000E+00  0.10566000000E+00 0. -1.
     999900   -1    0    0    0    0 -0.00000000000E+00 -0.00000000000E+00 -0.74505805969E-08  0.93827000000E+00  0.93827000000E+00 0.  1.
     999902    2    1    2    0    0 -0.19254938808E-01  0.13496792308E-01 -0.43730211085E-02  0.10200126551E+01  0.10197322086E+01 0.  0.
     999903    2    3    3    0    0 -0.11173325275E+00  0.39859665218E-01  0.56223078174E-01  0.13270260400E+00  0.19386436219E-01 0.  0.
         14    1    1    2    0    0  0.19254938808E-01 -0.13496792308E-01  0.43730211085E-02  0.23917344851E-01  0.00000000000E+00 0.  1.
     999901    1    3    3    0    0  0.92478313938E-01 -0.26362872911E-01 -0.60596099282E-01  0.88731005115E+00  0.88000000000E+00 0.  1.
        -11    1    4    4    0    0 -0.82618282046E-01  0.29629942479E-01  0.31839452879E-01  0.93368762979E-01  0.51100000000E-03 0.  1.
         11    1    4    4    0    0 -0.29114970700E-01  0.10229722739E-01  0.24383625295E-01  0.39333841024E-01  0.51100000000E-03 0. -1.
</event>
<event>
 8    1  0.1112171E+005  0.1043930E+01  0.7957747E-01            NaN
         13   -1    0    0    0    0  0.00000000000E+00  0.00000000000E+00  0.74505805969E-08  0.10566000000E+00  0.10566000000E+00 0.  1.
     999900   -1    0    0    0    0 -0.00000000000E+00 -0.00000000000E+00 -0.74505805969E-08  0.93827000000E+00  0.93827000000E+00 0.  1.
     999902    2    1    2    0    0  0.88711926522E-02 -0.15632773134E-01  0.15392041587E-01  0.10202657527E+01  0.10199912792E+01 0.  0.
     999903    2    3    3    0    0 -0.49931327422E-01 -0.10812321055E+00  0.54175669867E-01  0.13261920865E+00  0.21658374346E-01 0.  0.
         14    1    1    2    0    0 -0.88711926522E-02  0.15632773134E-01 -0.15392041587E-01  0.23664247276E-01  0.00000000000E+00 0. -1.
     999901    1    3    3    0    0  0.58802520074E-01  0.92490437420E-01 -0.38783628279E-01  0.88764654407E+00  0.88000000000E+00 0.  1.
        -11    1    4    4    0    0 -0.13248114190E-01 -0.41215397065E-01  0.29626909761E-01  0.52461761196E-01  0.51100000000E-03 0.  1.
         11    1    4    4    0    0 -0.36683213232E-01 -0.66907813489E-01  0.24548760106E-01  0.80157447455E-01  0.51100000000E-03 0. -1.
</event>
<event>
 8    1  0.1112171E+005  0.1043930E+01  0.7957747E-01            NaN
         13   -1    0    0    0    0  0.00000000000E+00  0.00000000000E+00  0.74505805969E-08  0.10566000000E+00  0.10566000000E+00 0. -1.
     999900   -1    0    0    0    0 -0.00000000000E+00 -0.00000000000E+00 -0.74505805969E-08  0.93827000000E+00  0.93827000000E+00 0. -1.
     999902    2    1    2    0    0  0.27355252833E-01  0.45475031517E-02 -0.55842325018E-02  0.10156426655E+01  0.10152486644E+01 0.  0.
     999903    2    3    3    0    0  0.12492771814E+00 -0.11164102956E-01  0.25795367401E-01  0.12955467895E+00  0.19683543973E-01 0.  0.
         14    1    1    2    0    0 -0.27355252833E-01 -0.45475031517E-02  0.55842325018E-02  0.28287334535E-01  0.00000000000E+00 0. -1.
     999901    1    3    3    0    0 -0.97572465312E-01  0.15711606108E-01 -0.31379599903E-01  0.88608798651E+00  0.88000000000E+00 0. -1.
        -11    1    4    4    0    0  0.59039533026E-01 -0.20301936052E-02  0.21602449910E-01  0.62902425303E-01  0.51100000000E-03 0. -1.
         11    1    4    4    0    0  0.65888185119E-01 -0.91339093510E-02  0.41929174910E-02  0.66652253648E-01  0.51100000000E-03 0.  1.
</event>
<event>
 8    1  0.1112171E+005  0.1043930E+01  0.7957747E-01            NaN
         13   -1    0    0    0    0  0.00000000000E+00  0.00000000000E+00  0.74505805969E-08  0.10566000000E+00  0.10566000000E+00 0.  1.
     999900   -1    0    0    0    0 -0.00000000000E+00 -0.00000000000E+00 -0.74505805969E-08  0.93827000000E+00  0.93827000000E+00 0. -1.
     999902    2    1    2    0    0 -0.10817959500E-01 -0.11478593785E-01  0.17263563465E-01  0.10205458817E+01  0.10202779424E+01 0.  0.
     999903    2    3    3    0    0 -0.47578349175E-02  0.12663211528E+00  0.18913055039E-01  0.12975184613E+00  0.20481901980E-01 0.  0.
         14    1    1    2    0    0  0.10817959500E-01  0.11478593785E-01 -0.17263563465E-01  0.23384118255E-01  0.00000000000E+00 0. -1.
     999901    1    3    3    0    0 -0.60601245822E-02 -0.13811070907E+00 -0.16494915733E-02  0.89079403562E+00  0.88000000000E+00 0.  1.
        -11    1    4    4    0    0 -0.11709230855E-01  0.48245239004E-01  0.84709701979E-02  0.50365937208E-01  0.51100000000E-03 0.  1.
         11    1    4    4    0    0  0.69513959378E-02  0.78386876279E-01  0.10442084841E-01  0.79385908920E-01  0.51100000000E-03 0. -1.
</event>
<event>
 8    1  0.1112171E+005  0.1043930E+01  0.7957747E-01            NaN
         13   -1    0    0    0    0  0.00000000000E+00  0.00000000000E+00  0.74505805969E-08  0.10566000000E+00  0.10566000000E+00 0. -1.
     999900   -1    0    0    0    0 -0.00000000000E+00 -0.00000000000E+00 -0.74505805969E-08  0.93827000000E+00  0.93827000000E+00 0. -1.
     999902    2    1    2    0    0 -0.22556965458E-01  0.67219766560E-02 -0.54581968575E-02  0.10197681794E+01  0.10194819009E+01 0.  0.
     999903    2    3    3    0    0  0.12020557551E+00  0.13963161402E-01 -0.34718515724E-01  0.12775374898E+00  0.21709324824E-01 0.  0.
         14    1    1    2    0    0  0.22556965458E-01 -0.67219766560E-02  0.54581968575E-02  0.24161820581E-01  0.00000000000E+00 0.  1.
     999901    1    3    3    0    0 -0.14276254096E+00 -0.72411847464E-02  0.29260318867E-01  0.89201443044E+00  0.88000000000E+00 0.  1.
        -11    1    4    4    0    0  0.87316472983E-01  0.19803436889E-01 -0.25659430235E-01  0.93139733991E-01  0.51100000000E-03 0.  1.
         11    1    4    4    0    0  0.32889102522E-01 -0.58402754871E-02 -0.90590854896E-02  0.34614014985E-01  0.51100000000E-03 0. -1.
</event>
<event>
 8    1  0.1112171E+005  0.1043930E+01  0.7957747E-01            NaN
         13   -1    0    0    0    0  0.00000000000E+00  0.00000000000E+00  0.74505805969E-08  0.10566000000E+00  0.10566000000E+00 0.  1.
     999900   -1    0    0    0    0 -0.00000000000E+00 -0.00000000000E+00 -0.74505805969E-08  0.93827000000E+00  0.93827000000E+00 0. -1.
     999902    2    1    2    0    0 -0.78628455601E-02  0.15874832892E-01  0.15165991956E-01  0.10206095804E+01  0.10203431156E+01 0.  0.
     999903    2    3    3    0    0 -0.99713894994E-01  0.85465779159E-01  0.64379193244E-02  0.13305355716E+00  0.20360304663E-01 0.  0.
         14    1    1    2    0    0  0.78628455601E-02 -0.15874832892E-01 -0.15165991956E-01  0.23320419629E-01  0.00000000000E+00 0. -1.
     999901    1    3    3    0    0  0.91851049433E-01 -0.69590946267E-01  0.87280726312E-02  0.88755602321E+00  0.88000000000E+00 0. -1.
        -11    1    4    4    0    0 -0.53971424450E-01  0.44118377571E-01  0.13440965827E-01  0.70994834883E-01  0.51100000000E-03 0. -1.
         11    1    4    4    0    0 -0.45742470544E-01  0.41347401588E-01 -0.70030465028E-02  0.62058722279E-01  0.51100000000E-03 0.  1.
</event>
<event>
 8    1  0.1112171E+005  0.1043930E+01  0.7957747E-01            NaN
         13   -1    0    0    0    0  0.00000000000E+00  0.00000000000E+00  0.74505805969E-08  0.10566000000E+00  0.10566000000E+00 0. -1.
     999900   -1    0    0    0    0 -0.00000000000E+00 -0.00000000000E+00 -0.74505805969E-08  0.93827000000E+00  0.93827000000E+00 0. -1.
     999902    2    1    2    0    0 -0.28201387539E-01  0.13572808318E-01  0.18228704147E-01  0.10077108747E+01  0.10070597708E+01 0.  0.
     999903    2    3    3    0    0  0.45119402692E-01 -0.10349196486E+00  0.22921140868E-01  0.11692351600E+00  0.19984559217E-01 0.  0.
         14    1    1    2    0    0  0.28201387539E-01 -0.13572808318E-01 -0.18228704147E-01  0.36219125329E-01  0.00000000000E+00 0. -1.
     999901    1    3    3    0    0 -0.73320790231E-01  0.11706477317E+00 -0.46924367207E-02  0.89078735867E+00  0.88000000000E+00 0.  1.
        -11    1    4    4    0    0  0.26231665351E-01 -0.73976699297E-01  0.23298700659E-01  0.81876387802E-01  0.51100000000E-03 0.  1.
         11    1    4    4    0    0  0.18887737341E-01 -0.29515265558E-01 -0.37755979131E-03  0.35047128202E-01  0.51100000000E-03 0. -1.
</event>
<event>
 8    1  0.1112171E+005  0.1043930E+01  0.7957747E-01            NaN
         13   -1    0    0    0    0  0.00000000000E+00  0.00000000000E+00  0.74505805969E-08  0.10566000000E+00  0.10566000000E+00 0.  1.
     999900   -1    0    0    0    0 -0.00000000000E+00 -0.00000000000E+00 -0.74505805969E-08  0.93827000000E+00  0.93827000000E+00 0. -1.
     999902    2    1    2    0    0 -0.54904659506E-02 -0.15308668686E-01 -0.16805030771E-01  0.10205439013E+01  0.10202759160E+01 0.  0.
     999903    2    3    3    0    0 -0.11766054599E+00 -0.30193432270E-01  0.45323984617E-01  0.13112628420E+00  0.19600800822E-01 0.  0.
         14    1    1    2    0    0  0.54904659506E-02  0.15308668686E-01  0.16805030771E-01  0.23386098702E-01  0.00000000000E+00 0.  1.
     999901    1    3    3    0    0  0.11217008004E+00  0.14884763584E-01 -0.62129015388E-01  0.88941761709E+00  0.88000000000E+00 0.  1.
        -11    1    4    4    0    0 -0.21653026021E-01 -0.90138504860E-02  0.15689740430E-02  0.23512248659E-01  0.51100000000E-03 0. -1.
         11    1    4    4    0    0 -0.96007519968E-01 -0.21179581784E-01  0.43755010574E-01  0.10761403555E+00  0.51100000000E-03 0.  1.
</event>
<event>
 8    1  0.1112171E+005  0.1043930E+01  0.7957747E-01            NaN
         13   -1    0    0    0    0  0.00000000000E+00  0.00000000000E+00  0.74505805969E-08  0.10566000000E+00  0.10566000000E+00 0.  1.
     999900   -1    0    0    0    0 -0.00000000000E+00 -0.00000000000E+00 -0.74505805969E-08  0.93827000000E+00  0.93827000000E+00 0.  1.
     999902    2    1    2    0    0  0.15969806648E-01 -0.15188910136E-01 -0.94777067594E-02  0.10199390717E+01  0.10196568763E+01 0.  0.
     999903    2    3    3    0    0  0.96237557014E-01  0.84338998778E-01  0.14164726394E-01  0.13038430607E+00  0.20608097941E-01 0.  0.
         14    1    1    2    0    0 -0.15969806648E-01  0.15188910136E-01  0.94777067594E-02  0.23990928304E-01  0.00000000000E+00 0.  1.
     999901    1    3    3    0    0 -0.80267750366E-01 -0.99527908914E-01 -0.23642433154E-01  0.88955476563E+00  0.88000000000E+00 0.  1.
        -11    1    4    4    0    0  0.17517443017E-01  0.87083119375E-02 -0.32534603002E-02  0.19837883747E-01  0.51100000000E-03 0. -1.
         11    1    4    4    0    0  0.78720113997E-01  0.75630686840E-01  0.17418186695E-01  0.11054642232E+00  0.51100000000E-03 0.  1.
</event>
<event>
 8    1  0.1112171E+005  0.1043930E+01  0.7957747E-01            NaN
         13   -1    0    0    0    0  0.00000000000E+00  0.00000000000E+00  0.74505805969E-08  0.10566000000E+00  0.10566000000E+00 0.  1.
     999900   -1    0    0    0    0 -0.00000000000E+00 -0.00000000000E+00 -0.74505805969E-08  0.93827000000E+00  0.93827000000E+00 0.  1.
     999902    2    1    2    0    0 -0.85196220829E-02  0.62473374615E-02  0.20614213103E-01  0.10207662575E+01  0.10205034020E+01 0.  0.
     999903    2    3    3    0    0 -0.10459846483E+00 -0.70399132961E-01 -0.28159277798E-01  0.13088723263E+00  0.21015374679E-01 0.  0.
         14    1    1    2    0    0  0.85196220829E-02 -0.62473374615E-02 -0.20614213103E-01  0.23163742522E-01  0.00000000000E+00 0. -1.
     999901    1    3    3    0    0  0.96078842746E-01  0.76646470422E-01  0.48773490901E-01  0.88987902485E+00  0.88000000000E+00 0. -1.
        -11    1    4    4    0    0 -0.51572960634E-01 -0.37778549751E-01 -0.24686820814E-01  0.68532396228E-01  0.51100000000E-03 0. -1.
         11    1    4    4    0    0 -0.53025504195E-01 -0.32620583210E-01 -0.34724569844E-02  0.62354836401E-01  0.51100000000E-03 0.  1.
</event>
<event>
 8    1  0.1112171E+005  0.1043930E+01  0.7957747E-01            NaN
         13   -1    0    0    0    0  0.00000000000E+00  0.00000000000E+00  0.74505805969E-08  0.10566000000E+00  0.10566000000E+00 0.  1.
     999900   -1    0    0    0    0 -0.00000000000E+00 -0.00000000000E+00 -0.74505805969E-08  0.93827000000E+00  0.93827000000E+00 0.  1.
     999902    2    1    2    0    0  0.14889214711E-01  0.11255859995E-01  0.11855717836E-01  0.10218179864E+01  0.10215787078E+01 0.  0.
     999903    2    3    3    0    0  0.12826634761E+00 -0.20323460945E-01  0.27897676502E-01  0.13383770950E+00  0.16399790721E-01 0.  0.
         14    1    1    2    0    0 -0.14889214711E-01 -0.11255859995E-01 -0.11855717836E-01  0.22112013575E-01  0.00000000000E+00 0. -1.
     999901    1    3    3    0    0 -0.11337713290E+00  0.31579320940E-01 -0.16041958666E-01  0.88798027693E+00  0.88000000000E+00 0. -1.
        -11    1    4    4    0    0  0.55603041493E-01 -0.45846652084E-02  0.19081596698E-01  0.58966819754E-01  0.51100000000E-03 0.  1.
         11    1    4    4    0    0  0.72663306114E-01 -0.15738795736E-01  0.88160798044E-02  0.74870889743E-01  0.51100000000E-03 0. -1.
</event>
<event>
 8    1  0.1112171E+005  0.1043930E+01  0.7957747E-01            NaN
         13   -1    0    0    0    0  0.00000000000E+00  0.00000000000E+00  0.74505805969E-08  0.10566000000E+00  0.10566000000E+00 0.  1.
     999900   -1    0    0    0    0 -0.00000000000E+00 -0.00000000000E+00 -0.74505805969E-08  0.93827000000E+00  0.93827000000E+00 0. -1.
     999902    2    1    2    0    0 -0.33793842143E-02 -0.54541930984E-02  0.13975865036E-01  0.10285516625E+01  0.10284366919E+01 0.  0.
     999903    2    3    3    0    0 -0.23024302399E-01  0.81673403939E-01 -0.10456359540E+00  0.13612309695E+00  0.19881866811E-01 0.  0.
         14    1    1    2    0    0  0.33793842143E-02  0.54541930984E-02 -0.13975865036E-01  0.15378337476E-01  0.00000000000E+00 0. -1.
     999901    1    3    3    0    0  0.19644918185E-01 -0.87127597037E-01  0.11853946044E+00  0.89242856558E+00  0.88000000000E+00 0.  1.
        -11    1    4    4    0    0 -0.16228510856E-01  0.27150071029E-01 -0.30884307316E-01  0.44210773358E-01  0.51100000000E-03 0.  1.
         11    1    4    4    0    0 -0.67957915432E-02  0.54523332910E-01 -0.73679288082E-01  0.91912323590E-01  0.51100000000E-03 0. -1.
</event>
<event>
 8    1  0.1112171E+005  0.1043930E+01  0.7957747E-01            NaN
         13   -1    0    0    0    0  0.00000000000E+00  0.00000000000E+00  0.74505805969E-08  0.10566000000E+00  0.10566000000E+00 0. -1.
     999900   -1    0    0    0    0 -0.00000000000E+00 -0.00000000000E+00 -0.74505805969E-08  0.93827000000E+00  0.93827000000E+00 0. -1.
     999902    2    1    2    0    0  0.22901116635E-02  0.23614616845E-01  0.40762727027E-02  0.10198569707E+01  0.10195728174E+01 0.  0.
     999903    2    3    3    0    0  0.34101816047E-01 -0.64259016196E-01 -0.10389912391E+00  0.12834564369E+00  0.19632149303E-01 0.  0.
         14    1    1    2    0    0 -0.22901116635E-02 -0.23614616845E-01 -0.40762727027E-02  0.24073029293E-01  0.00000000000E+00 0.  1.
     999901    1    3    3    0    0 -0.31811704384E-01  0.87873633041E-01  0.10797539661E+00  0.89151132701E+00  0.88000000000E+00 0. -1.
        -11    1    4    4    0    0  0.18784336200E-02 -0.12577412586E-01 -0.90188004834E-02  0.15598708388E-01  0.51100000000E-03 0. -1.
         11    1    4    4    0    0  0.32223382427E-01 -0.51681603610E-01 -0.94880323424E-01  0.11274693531E+00  0.51100000000E-03 0.  1.
</event>
<event>
 7    1  0.1701213E+005  0.1043930E+01  0.7957747E-01            NaN
         13   -1    0    0    0    0  0.00000000000E+00  0.00000000000E+00  0.74505805969E-08  0.10566000000E+00  0.10566000000E+00 0. -1.
     999900   -1    0    0    0    0 -0.00000000000E+00 -0.00000000000E+00 -0.74505805969E-08  0.93827000000E+00  0.93827000000E+00 0. -1.
     999903    2    1    2    0    0 -0.40874306618E-01  0.95173290629E-01 -0.17871282913E-01  0.10694722828E+00  0.19739875696E-01 0.  0.
         14    1    1    2    0    0 -0.33552582782E-01 -0.30040036934E-01  0.24806260647E-01  0.51415272027E-01  0.00000000000E+00 0. -1.
     999901    1    1    2    0    0  0.74426889400E-01 -0.65133253695E-01 -0.69349777339E-02  0.88556749970E+00  0.88000000000E+00 0. -1.
        -11    1    3    3    0    0 -0.35543923827E-01  0.59389328232E-01 -0.13233912124E-01  0.70468861066E-01  0.51100000000E-03 0.  1.
         11    1    3    3    0    0 -0.53303827912E-02  0.35783962397E-01 -0.46373707886E-02  0.36478367211E-01  0.51100000000E-03 0. -1.
</event>
<event>
 8    1  0.1112171E+005  0.1043930E+01  0.7957747E-01            NaN
         13   -1    0    0    0    0  0.00000000000E+00  0.00000000000E+00  0.74505805969E-08  0.10566000000E+00  0.10566000000E+00 0. -1.
     999900   -1    0    0    0    0 -0.00000000000E+00 -0.00000000000E+00 -0.74505805969E-08  0.93827000000E+00  0.93827000000E+00 0.  1.
     999902    2    1    2    0    0  0.88539499721E-02 -0.15286181644E-01  0.14414237535E-01  0.10211302188E+01  0.10208756505E+01 0.  0.
     999903    2    3    3    0    0  0.11178228132E+00  0.17030991188E-02  0.70185953699E-01  0.13321504189E+00  0.17944367532E-01 0.  0.
         14    1    1    2    0    0 -0.88539499721E-02  0.15286181644E-01 -0.14414237535E-01  0.22799781206E-01  0.00000000000E+00 0.  1.
     999901    1    3    3    0    0 -0.10292833134E+00 -0.16989280762E-01 -0.55771716164E-01  0.88791517690E+00  0.88000000000E+00 0.  1.
        -11    1    4    4    0    0  0.11593942300E-01 -0.15716050067E-02  0.14168351815E-01  0.18381859387E-01  0.51100000000E-03 0. -1.
         11    1    4    4    0    0  0.10018833902E+00  0.32747041255E-02  0.56017601884E-01  0.11483318250E+00  0.51100000000E-03 0.  1.
</event>
<event>
 8    1  0.1112171E+005  0.1043930E+01  0.7957747E-01            NaN
         13   -1    0    0    0    0  0.00000000000E+00  0.00000000000E+00  0.74505805969E-08  0.10566000000E+00  0.10566000000E+00 0. -1.
     999900   -1    0    0    0    0 -0.00000000000E+00 -0.00000000000E+00 -0.74505805969E-08  0.93827000000E+00  0.93827000000E+00 0. -1.
     999902    2    1    2    0    0  0.22902714289E-01  0.38005216319E-02 -0.38267278681E-02  0.10204008238E+01  0.10201295109E+01 0.  0.
     999903    2    3    3    0    0 -0.11173564353E-01 -0.25001896238E-01 -0.12621035457E+00  0.13081186022E+00  0.20802543501E-01 0.  0.
         14    1    1    2    0    0 -0.22902714289E-01 -0.38005216319E-02  0.38267278681E-02  0.23529176200E-01  0.00000000000E+00 0. -1.
     999901    1    3    3    0    0  0.34076278642E-01  0.28802417870E-01  0.12238362671E+00  0.88958896358E+00  0.88000000000E+00 0.  1.
        -11    1    4    4    0    0 -0.26028991956E-02 -0.25385982261E-01 -0.10106620295E+00  0.10423944397E+00  0.51100000000E-03 0. -1.
         11    1    4    4    0    0 -0.85706651578E-02  0.38408602323E-03 -0.25144151623E-01  0.26572416246E-01  0.51100000000E-03 0.  1.
</event>
<event>
 8    1  0.1112171E+005  0.1043930E+01  0.7957747E-01            NaN
         13   -1    0    0    0    0  0.00000000000E+00  0.00000000000E+00  0.74505805969E-08  0.10566000000E+00  0.10566000000E+00 0. -1.
     999900   -1    0    0    0    0 -0.00000000000E+00 -0.00000000000E+00 -0.74505805969E-08  0.93827000000E+00  0.93827000000E+00 0.  1.
     999902    2    1    2    0    0 -0.19696592507E-01  0.14224868242E-01  0.30971784981E-03  0.10196318816E+01  0.10193423249E+01 0.  0.
     999903    2    3    3    0    0 -0.71135627459E-01  0.38000758826E-02 -0.10866811644E+00  0.13135781410E+00  0.19271681901E-01 0.  0.
         14    1    1    2    0    0  0.19696592507E-01 -0.14224868242E-01 -0.30971784981E-03  0.24298118406E-01  0.00000000000E+00 0. -1.
     999901    1    3    3    0    0  0.51439034952E-01  0.10424792360E-01  0.10897783429E+00  0.88827406749E+00  0.88000000000E+00 0.  1.
        -11    1    4    4    0    0 -0.20756766270E-01  0.59271556983E-02 -0.20421985536E-01  0.29720247894E-01  0.51100000000E-03 0. -1.
         11    1    4    4    0    0 -0.50378861189E-01 -0.21270798157E-02 -0.88246130908E-01  0.10163756621E+00  0.51100000000E-03 0.  1.
</event>
<event>
 8    1  0.1112171E+005  0.1043930E+01  0.7957747E-01            NaN
         13   -1    0    0    0    0  0.00000000000E+00  0.00000000000E+00  0.74505805969E-08  0.10566000000E+00  0.10566000000E+00 0.  1.
     999900   -1    0    0    0    0 -0.00000000000E+00 -0.00000000000E+00 -0.74505805969E-08  0.93827000000E+00  0.93827000000E+00 0.  1.
     999902    2    1    2    0    0  0.12712624806E-01  0.35579823803E-02 -0.20065272644E-01  0.10199115647E+01  0.10196287141E+01 0.  0.
     999903    2    3    3    0    0  0.10082076264E+00  0.78292292665E-01 -0.27875680670E-01  0.13232536406E+00  0.20938938166E-01 0.  0.
         14    1    1    2    0    0 -0.12712624806E-01 -0.35579823803E-02  0.20065272644E-01  0.24018435302E-01  0.00000000000E+00 0.  1.
     999901    1    3    3    0    0 -0.88108137832E-01 -0.74734310285E-01  0.78104080255E-02  0.88758620064E+00  0.88000000000E+00 0. -1.
        -11    1    4    4    0    0  0.62436368155E-01  0.59843375032E-01 -0.14570269053E-01  0.87704523628E-01  0.51100000000E-03 0.  1.
         11    1    4    4    0    0  0.38384394484E-01  0.18448917633E-01 -0.13305411616E-01  0.44620840433E-01  0.51100000000E-03 0. -1.
</event>
<event>
 8    1  0.1112171E+005  0.1043930E+01  0.7957747E-01            NaN
         13   -1    0    0    0    0  0.00000000000E+00  0.00000000000E+00  0.74505805969E-08  0.10566000000E+00  0.10566000000E+00 0.  1.
     999900   -1    0    0    0    0 -0.00000000000E+00 -0.00000000000E+00 -0.74505805969E-08  0.93827000000E+00  0.93827000000E+00 0.  1.
     999902    2    1    2    0    0  0.12271364522E-01  0.15964086571E-01 -0.13227060954E-01  0.10198386408E+01  0.10195540494E+01 0.  0.
     999903    2    3    3    0    0  0.34549851337E-01 -0.92247894507E-01 -0.82810517131E-01  0.13020499642E+00  0.19808914045E-01 0.  0.
         14    1    1    2    0    0 -0.12271364522E-01 -0.15964086571E-01  0.13227060954E-01  0.24091359213E-01  0.00000000000E+00 0.  1.
     999901    1    3    3    0    0 -0.22278486816E-01  0.10821198108E+00  0.69583456177E-01  0.88963364437E+00  0.88000000000E+00 0.  1.
        -11    1    4    4    0    0  0.23890928924E-01 -0.46684214793E-01 -0.33539097452E-01  0.62252104981E-01  0.51100000000E-03 0.  1.
         11    1    4    4    0    0  0.10658922413E-01 -0.45563679714E-01 -0.49271419679E-01  0.67952891434E-01  0.51100000000E-03 0. -1.
</event>
<event>
 8    1  0.1112171E+005  0.1043930E+01  0.7957747E-01            NaN
         13   -1    0    0    0    0  0.00000000000E+00  0.00000000000E+00  0.74505805969E-08  0.10566000000E+00  0.10566000000E+00 0. -1.
     999900   -1    0    0    0    0 -0.00000000000E+00 -0.00000000000E+00 -0.74505805969E-08  0.93827000000E+00  0.93827000000E+00 0. -1.
     999902    2    1    2    0    0 -0.61313769303E-02 -0.21620253432E-01 -0.71622496351E-02  0.10203434156E+01  0.10200707617E+01 0.  0.
     999903    2    3    3    0    0 -0.11029452044E+00 -0.64854262692E-01  0.27088850921E-01  0.13248516237E+00  0.21155514101E-01 0.  0.
         14    1    1    2    0    0  0.61313769303E-02  0.21620253432E-01  0.71622496351E-02  0.23586584351E-01  0.00000000000E+00 0. -1.
     999901    1    3    3    0    0  0.10416314351E+00  0.43234009261E-01 -0.34251100556E-01  0.88785825328E+00  0.88000000000E+00 0.  1.
        -11    1    4    4    0    0 -0.71068431852E-01 -0.32975334271E-01  0.23558343928E-01  0.81812904641E-01  0.51100000000E-03 0. -1.
         11    1    4    4    0    0 -0.39226088585E-01 -0.31878928422E-01  0.35305069930E-02  0.50672257731E-01  0.51100000000E-03 0.  1.
</event>
<event>
 8    1  0.1112171E+005  0.1043930E+01  0.7957747E-01            NaN
         13   -1    0    0    0    0  0.00000000000E+00  0.00000000000E+00  0.74505805969E-08  0.10566000000E+00  0.10566000000E+00 0.  1.
     999900   -1    0    0    0    0 -0.00000000000E+00 -0.00000000000E+00 -0.74505805969E-08  0.93827000000E+00  0.93827000000E+00 0. -1.
     999902    2    1    2    0    0 -0.72036550351E-02  0.21669543478E-01 -0.29629861447E-02  0.10209030365E+01  0.10206433113E+01 0.  0.
     999903    2    3    3    0    0 -0.10232463045E+00  0.44161801652E-01 -0.69476848489E-01  0.13299651242E+00  0.20986784386E-01 0.  0.
         14    1    1    2    0    0  0.72036550351E-02 -0.21669543478E-01  0.29629861447E-02  0.23026963485E-01  0.00000000000E+00 0.  1.
     999901    1    3    3    0    0  0.95120975415E-01 -0.22492258174E-01  0.66513862344E-01  0.88790652409E+00  0.88000000000E+00 0.  1.
        -11    1    4    4    0    0 -0.48649129757E-01  0.26913234037E-01 -0.23991022166E-01  0.60554853299E-01  0.51100000000E-03 0.  1.
         11    1    4    4    0    0 -0.53675500693E-01  0.17248567615E-01 -0.45485826323E-01  0.72441659124E-01  0.51100000000E-03 0. -1.
</event>
<event>
 8    1  0.1112171E+005  0.1043930E+01  0.7957747E-01            NaN
         13   -1    0    0    0    0  0.00000000000E+00  0.00000000000E+00  0.74505805969E-08  0.10566000000E+00  0.10566000000E+00 0. -1.
     999900   -1    0    0    0    0 -0.00000000000E+00 -0.00000000000E+00 -0.74505805969E-08  0.93827000000E+00  0.93827000000E+00 0. -1.
     999902    2    1    2    0    0 -0.10173955622E-01 -0.15222352007E-01  0.13832040749E-01  0.10209832197E+01  0.10207253207E+01 0.  0.
     999903    2    3    3    0    0 -0.88498630908E-01  0.91982241457E-01 -0.14336943780E-01  0.13057821564E+00  0.23502808899E-01 0.  0.
         14    1    1    2    0    0  0.10173955622E-01  0.15222352007E-01 -0.13832040749E-01  0.22946780273E-01  0.00000000000E+00 0.  1.
     999901    1    3    3    0    0  0.78324675286E-01 -0.10720459346E+00  0.28168984528E-01  0.89040500409E+00  0.88000000000E+00 0.  1.
        -11    1    4    4    0    0 -0.24245108025E-01  0.20206797374E-01 -0.13257521577E-01  0.34236864965E-01  0.51100000000E-03 0. -1.
         11    1    4    4    0    0 -0.64253522883E-01  0.71775444083E-01 -0.10794222027E-02  0.96341350673E-01  0.51100000000E-03 0.  1.
</event>
<event>
 8    1  0.1112171E+005  0.1043930E+01  0.7957747E-01            NaN
         13   -1    0    0    0    0  0.00000000000E+00  0.00000000000E+00  0.74505805969E-08  0.10566000000E+00  0.10566000000E+00 0. -1.
     999900   -1    0    0    0    0 -0.00000000000E+00 -0.00000000000E+00 -0.74505805969E-08  0.93827000000E+00  0.93827000000E+00 0. -1.
     999902    2    1    2    0    0 -0.35576864508E-02  0.52469262347E-02 -0.17990427161E-01  0.10248553352E+01  0.10246778105E+01 0.  0.
     999903    2    3    3    0    0  0.70402094451E-01 -0.42055711955E-01  0.10191179635E+00  0.13239573837E+00  0.20432314908E-01 0.  0.
         14    1    1    2    0    0  0.35576864508E-02 -0.52469262347E-02  0.17990427161E-01  0.19074664799E-01  0.00000000000E+00 0. -1.
     999901    1    3    3    0    0 -0.73959780902E-01  0.47302638189E-01 -0.11990222351E+00  0.89245959683E+00  0.88000000000E+00 0. -1.
        -11    1    4    4    0    0  0.21987367425E-01 -0.29912743545E-02  0.29788196646E-01  0.37148214344E-01  0.51100000000E-03 0. -1.
         11    1    4    4    0    0  0.48414727026E-01 -0.39064437600E-01  0.72123599703E-01  0.95247524027E-01  0.51100000000E-03 0.  1.
</event>
<event>
 8    1  0.1112171E+005  0.1043930E+01  0.7957747E-01            NaN
         13   -1    0    0    0    0  0.00000000000E+00  0.00000000000E+00  0.74505805969E-08  0.10566000000E+00  0.10566000000E+00 0. -1.
     999900   -1    0    0    0    0 -0.00000000000E+00 -0.00000000000E+00 -0.74505805969E-08  0.93827000000E+00  0.93827000000E+00 0.  1.
     999902    2    1    2    0    0 -0.92834916613E-02 -0.12004878138E-01  0.18390843191E-01  0.10200862706E+01  0.10198075682E+01 0.  0.
     999903    2    3    3    0    0  0.10277412192E+00  0.73451371040E-01  0.14154270557E-01  0.12886372389E+00  0.21163457078E-01 0.  0.
         14    1    1    2    0    0  0.92834916613E-02  0.12004878138E-01 -0.18390843191E-01  0.23843729360E-01  0.00000000000E+00 0.  1.
     999901    1    3    3    0    0 -0.11205761358E+00 -0.85456249178E-01  0.42365726341E-02  0.89122254675E+00  0.88000000000E+00 0. -1.
        -11    1    4    4    0    0  0.34092876105E-01  0.22718351677E-01  0.14536259061E-01  0.43474264255E-01  0.51100000000E-03 0. -1.
         11    1    4    4    0    0  0.68681245817E-01  0.50733019363E-01 -0.38198850416E-03  0.85389459636E-01  0.51100000000E-03 0.  1.
</event>
<event>
 8    1  0.1112171E+005  0.1043930E+01  0.7957747E-01            NaN
         13   -1    0    0    0    0  0.00000000000E+00  0.00000000000E+00  0.74505805969E-08  0.10566000000E+00  0.10566000000E+00 0. -1.
     999900   -1    0    0    0    0 -0.00000000000E+00 -0.00000000000E+00 -0.74505805969E-08  0.93827000000E+00  0.93827000000E+00 0.  1.
     999902    2    1    2    0    0 -0.72048811089E-02 -0.24501534447E-01 -0.76853577962E-03  0.10183795372E+01  0.10180589647E+01 0.  0.
     999903    2    3    3    0    0 -0.96967932717E-02  0.68024812694E-01  0.10512969922E+00  0.12721077051E+00  0.20221857838E-01 0.  0.
         14    1    1    2    0    0  0.72048811089E-02  0.24501534447E-01  0.76853577962E-03  0.25550462800E-01  0.00000000000E+00 0.  1.
     999901    1    3    3    0    0  0.24919121628E-02 -0.92526347141E-01 -0.10589823500E+00  0.89116876669E+00  0.88000000000E+00 0.  1.
        -11    1    4    4    0    0  0.47154050435E-02  0.31168855572E-01  0.54314959586E-01  0.62802138166E-01  0.51100000000E-03 0.  1.
         11    1    4    4    0    0 -0.14412198315E-01  0.36855957121E-01  0.50814739635E-01  0.64408632347E-01  0.51100000000E-03 0. -1.
</event>
<event>
 8    1  0.1112171E+005  0.1043930E+01  0.7957747E-01            NaN
         13   -1    0    0    0    0  0.00000000000E+00  0.00000000000E+00  0.74505805969E-08  0.10566000000E+00  0.10566000000E+00 0.  1.
     999900   -1    0    0    0    0 -0.00000000000E+00 -0.00000000000E+00 -0.74505805969E-08  0.93827000000E+00  0.93827000000E+00 0.  1.
     999902    2    1    2    0    0 -0.60827686895E-02 -0.21538560399E-01  0.88719171706E-02  0.10198546895E+01  0.10195704817E+01 0.  0.
     999903    2    3    3    0    0 -0.48156090392E-01  0.90329401245E-01 -0.74203277753E-01  0.12789836032E+00  0.19324967580E-01 0.  0.
         14    1    1    2    0    0  0.60827686895E-02  0.21538560399E-01 -0.88719171706E-02  0.24075310451E-01  0.00000000000E+00 0. -1.
     999901    1    3    3    0    0  0.42073321703E-01 -0.11186796164E+00  0.83075194924E-01  0.89195632923E+00  0.88000000000E+00 0. -1.
        -11    1    4    4    0    0 -0.24321552913E-01  0.59491389641E-01 -0.37801447740E-01  0.74565232849E-01  0.51100000000E-03 0. -1.
         11    1    4    4    0    0 -0.23834537479E-01  0.30838011604E-01 -0.36401830013E-01  0.53333127471E-01  0.51100000000E-03 0.  1.
</event>
<event>
 8    1  0.1112171E+005  0.1043930E+01  0.7957747E-01            NaN
         13   -1    0    0    0    0  0.00000000000E+00  0.00000000000E+00  0.74505805969E-08  0.10566000000E+00  0.10566000000E+00 0.  1.
     999900   -1    0    0    0    0 -0.00000000000E+00 -0.00000000000E+00 -0.74505805969E-08  0.93827000000E+00  0.93827000000E+00 0. -1.
     999902    2    1    2    0    0 -0.35060807406E-02 -0.13045990084E-01  0.19406281599E-01  0.10202848266E+01  0.10200108005E+01 0.  0.
     999903    2    3    3    0    0 -0.69786131918E-01  0.57230247666E-01 -0.89154509145E-01  0.12836709494E+00  0.19600487376E-01 0.  0.
         14    1    1    2    0    0  0.35060807406E-02  0.13045990084E-01 -0.19406281599E-01  0.23645173396E-01  0.00000000000E+00 0. -1.
     999901    1    3    3    0    0  0.66280051178E-01 -0.70276237750E-01  0.10856079074E+00  0.89191773167E+00  0.88000000000E+00 0.  1.
        -11    1    4    4    0    0 -0.24229835818E-01  0.32418124541E-01 -0.38602442012E-01  0.55932364449E-01  0.51100000000E-03 0.  1.
         11    1    4    4    0    0 -0.45556296100E-01  0.24812123125E-01 -0.50552067133E-01  0.72434730487E-01  0.51100000000E-03 0. -1.
</event>
<event>
 8    1  0.1112171E+005  0.1043930E+01  0.7957747E-01            NaN
         13   -1    0    0    0    0  0.00000000000E+00  0.00000000000E+00  0.74505805969E-08  0.10566000000E+00  0.10566000000E+00 0.  1.
     999900   -1    0    0    0    0 -0.00000000000E+00 -0.00000000000E+00 -0.74505805969E-08  0.93827000000E+00  0.93827000000E+00 0. -1.
     999902    2    1    2    0    0 -0.20824678334E-01  0.53440151401E-02 -0.21230817319E-01  0.10137145515E+01  0.10132641406E+01 0.  0.
     999903    2    3    3    0    0 -0.51139026604E-01  0.11009561120E+00  0.25836460127E-01  0.12573528077E+00  0.20139377140E-01 0.  0.
         14    1    1    2    0    0  0.20824678334E-01 -0.53440151401E-02  0.21230817319E-01  0.30215448525E-01  0.00000000000E+00 0.  1.
     999901    1    3    3    0    0  0.30314348270E-01 -0.10475159606E+00 -0.47067277446E-01  0.88797927070E+00  0.88000000000E+00 0. -1.
        -11    1    4    4    0    0 -0.53987737363E-02  0.32315578392E-01  0.84849664783E-02  0.33848177821E-01  0.51100000000E-03 0. -1.
         11    1    4    4    0    0 -0.45740252868E-01  0.77780032810E-01  0.17351493648E-01  0.91887102953E-01  0.51100000000E-03 0.  1.
</event>
<event>
 8    1  0.1112171E+005  0.1043930E+01  0.7957747E-01            NaN
         13   -1    0    0    0    0  0.00000000000E+00  0.00000000000E+00  0.74505805969E-08  0.10566000000E+00  0.10566000000E+00 0. -1.
     999900   -1    0    0    0    0 -0.00000000000E+00 -0.00000000000E+00 -0.74505805969E-08  0.93827000000E+00  0.93827000000E+00 0. -1.
     999902    2    1    2    0    0  0.17689996949E-01  0.26992279585E-02 -0.14147858890E-01  0.10211180791E+01  0.10208632366E+01 0.  0.
     999903    2    3    3    0    0 -0.11606895220E+00 -0.28836101018E-01 -0.45205025563E-01  0.12991076257E+00  0.23017156813E-01 0.  0.
         14    1    1    2    0    0 -0.17689996949E-01 -0.26992279585E-02  0.14147858890E-01  0.22811920893E-01  0.00000000000E+00 0. -1.
     999901    1    3    3    0    0  0.13375894915E+00  0.31535328976E-01  0.31057166672E-01  0.89120731654E+00  0.88000000000E+00 0. -1.
        -11    1    4    4    0    0 -0.51709376735E-01 -0.24156372484E-01 -0.24790551688E-01  0.62227184959E-01  0.51100000000E-03 0.  1.
         11    1    4    4    0    0 -0.64359575466E-01 -0.46797285336E-02 -0.20414473875E-01  0.67683577609E-01  0.51100000000E-03 0. -1.
</event>
<event>
 8    1  0.1112171E+005  0.1043930E+01  0.7957747E-01            NaN
         13   -1    0    0    0    0  0.00000000000E+00  0.00000000000E+00  0.74505805969E-08  0.10566000000E+00  0.10566000000E+00 0. -1.
     999900   -1    0    0    0    0 -0.00000000000E+00 -0.00000000000E+00 -0.74505805969E-08  0.93827000000E+00  0.93827000000E+00 0. -1.
     999902    2    1    2    0    0 -0.39848861599E-03 -0.67365012017E-02  0.22547375460E-01  0.10203944231E+01  0.10201229608E+01 0.  0.
     999903    2    3    3    0    0 -0.32052594945E-01 -0.11389642370E+00 -0.50707276519E-01  0.13030932855E+00  0.20236823878E-01 0.  0.
         14    1    1    2    0    0  0.39848861599E-03  0.67365012017E-02 -0.22547375460E-01  0.23535576937E-01  0.00000000000E+00 0.  1.
     999901    1    3    3    0    0  0.31654106329E-01  0.10715992250E+00  0.73254651979E-01  0.89008509451E+00  0.88000000000E+00 0. -1.
        -11    1    4    4    0    0 -0.26054415174E-01 -0.56575359003E-01 -0.23500448873E-01  0.66574289441E-01  0.51100000000E-03 0.  1.
         11    1    4    4    0    0 -0.59981797713E-02 -0.57321064698E-01 -0.27206827646E-01  0.63735039109E-01  0.51100000000E-03 0. -1.
</event>
<event>
 8    1  0.1112171E+005  0.1043930E+01  0.7957747E-01            NaN
         13   -1    0    0    0    0  0.00000000000E+00  0.00000000000E+00  0.74505805969E-08  0.10566000000E+00  0.10566000000E+00 0.  1.
     999900   -1    0    0    0    0 -0.00000000000E+00 -0.00000000000E+00 -0.74505805969E-08  0.93827000000E+00  0.93827000000E+00 0. -1.
     999902    2    1    2    0    0  0.18529886723E-01  0.13796295918E-01  0.16277101769E-02  0.10207708998E+01  0.10205081508E+01 0.  0.
     999903    2    3    3    0    0 -0.95027070477E-01  0.59121726306E-01  0.63249584598E-01  0.13018298576E+00  0.20532344864E-01 0.  0.
         14    1    1    2    0    0 -0.18529886723E-01 -0.13796295918E-01 -0.16277101769E-02  0.23159100230E-01  0.00000000000E+00 0. -1.
     999901    1    3    3    0    0  0.11355695720E+00 -0.45325430388E-01 -0.61621874421E-01  0.89058791401E+00  0.88000000000E+00 0. -1.
        -11    1    4    4    0    0 -0.59325047972E-01  0.31390570553E-01  0.27452130263E-01  0.72516962247E-01  0.51100000000E-03 0.  1.
         11    1    4    4    0    0 -0.35702022504E-01  0.27731155753E-01  0.35797454334E-01  0.57666023516E-01  0.51100000000E-03 0. -1.
</event>
<event>
 8    1  0.1112171E+005  0.1043930E+01  0.7957747E-01            NaN
         13   -1    0    0    0    0  0.00000000000E+00  0.00000000000E+00  0.74505805969E-08  0.10566000000E+00  0.10566000000E+00 0. -1.
     999900   -1    0    0    0    0 -0.00000000000E+00 -0.00000000000E+00 -0.74505805969E-08  0.93827000000E+00  0.93827000000E+00 0. -1.
     999902    2    1    2    0    0  0.65494567896E-02  0.40740790373E-03 -0.23500280373E-01  0.10195307266E+01  0.10192387247E+01 0.  0.
     999903    2    3    3    0    0 -0.60942490531E-01  0.80009467604E-02 -0.11485930525E+00  0.13219804027E+00  0.22486874972E-01 0.  0.
         14    1    1    2    0    0 -0.65494567896E-02 -0.40740790373E-03  0.23500280373E-01  0.24399273412E-01  0.00000000000E+00 0. -1.
     999901    1    3    3    0    0  0.67491947321E-01 -0.75935388567E-02  0.91359024880E-01  0.88733268632E+00  0.88000000000E+00 0.  1.
        -11    1    4    4    0    0 -0.14370930701E-01  0.43377007532E-02 -0.50390202717E-01  0.52581108279E-01  0.51100000000E-03 0.  1.
         11    1    4    4    0    0 -0.46571559830E-01  0.36632460072E-02 -0.64469102536E-01  0.79616931988E-01  0.51100000000E-03 0. -1.
</event>
<event>
 8    1  0.1470966E+005  0.1043930E+01  0.7957747E-01            NaN
         13   -1    0    0    0    0  0.00000000000E+00  0.00000000000E+00  0.74505805969E-08  0.10566000000E+00  0.10566000000E+00 0.  1.
     999900   -1    0    0    0    0 -0.00000000000E+00 -0.00000000000E+00 -0.74505805969E-08  0.93827000000E+00  0.93827000000E+00 0.  1.
     999902    2    1    2    0    0 -0.88107315362E-02 -0.93187686772E-02  0.19476414724E-01  0.10206104981E+01  0.10203440545E+01 0.  0.
     999903    2    3    3    0    0  0.60080990575E-01 -0.42539673796E-01  0.10887641718E+00  0.13278052654E+00  0.18900918871E-01 0.  0.
         14    1    1    2    0    0  0.88107315362E-02  0.93187686772E-02 -0.19476414724E-01  0.23319501933E-01  0.00000000000E+00 0. -1.
     999901    1    3    3    0    0 -0.68891722111E-01  0.33220905118E-01 -0.89400002454E-01  0.88782997153E+00  0.88000000000E+00 0.  1.
        -11    1    4    4    0    0  0.19670599278E-01 -0.20006417895E-01  0.55125338095E-01  0.61856715513E-01  0.51100000000E-03 0. -1.
         11    1    4    4    0    0  0.40410391297E-01 -0.22533255900E-01  0.53751079083E-01  0.70923811022E-01  0.51100000000E-03 0.  1.
</event>
<event>
 8    1  0.1112171E+005  0.1043930E+01  0.7957747E-01            NaN
         13   -1    0    0    0    0  0.00000000000E+00  0.00000000000E+00  0.74505805969E-08  0.10566000000E+00  0.10566000000E+00 0.  1.
     999900   -1    0    0    0    0 -0.00000000000E+00 -0.00000000000E+00 -0.74505805969E-08  0.93827000000E+00  0.93827000000E+00 0. -1.
     999902    2    1    2    0    0  0.20620380602E-01  0.23594551302E-01  0.58710520476E-02  0.10120494072E+01  0.10115471469E+01 0.  0.
     999903    2    3    3    0    0  0.18286980491E-01 -0.11184081919E+00  0.37359651669E-01  0.12112869451E+00  0.20823894156E-01 0.  0.
         14    1    1    2    0    0 -0.20620380602E-01 -0.23594551302E-01 -0.58710520476E-02  0.31880592835E-01  0.00000000000E+00 0.  1.
     999901    1    3    3    0    0  0.23334001113E-02  0.13543537049E+00 -0.31488599621E-01  0.89092071266E+00  0.88000000000E+00 0.  1.
        -11    1    4    4    0    0 -0.97066816127E-03 -0.12361312920E-02  0.34894362450E-02  0.38610236412E-02  0.51100000000E-03 0.  1.
         11    1    4    4    0    0  0.19257648652E-01 -0.11060468790E+00  0.33870215424E-01  0.11726767087E+00  0.51100000000E-03 0. -1.
</event>
<event>
 8    1  0.1112171E+005  0.1043930E+01  0.7957747E-01            NaN
         13   -1    0    0    0    0  0.00000000000E+00  0.00000000000E+00  0.74505805969E-08  0.10566000000E+00  0.10566000000E+00 0.  1.
     999900   -1    0    0    0    0 -0.00000000000E+00 -0.00000000000E+00 -0.74505805969E-08  0.93827000000E+00  0.93827000000E+00 0.  1.
     999902    2    1    2    0    0 -0.75807249828E-03  0.77062229752E-03  0.18735256743E-01  0.10251635838E+01  0.10249918025E+01 0.  0.
     999903    2    3    3    0    0 -0.20051244903E-01  0.27920236750E-01 -0.12651247309E+00  0.13263558361E+00  0.20129583894E-01 0.  0.
         14    1    1    2    0    0  0.75807249828E-03 -0.77062229752E-03 -0.18735256743E-01  0.18766416223E-01  0.00000000000E+00 0. -1.
     999901    1    3    3    0    0  0.19293172405E-01 -0.27149614452E-01  0.14524772984E+00  0.89252800017E+00  0.88000000000E+00 0. -1.
        -11    1    4    4    0    0 -0.20189342798E-01  0.20759831358E-01 -0.11798548291E+00  0.12148833466E+00  0.51100000000E-03 0.  1.
         11    1    4    4    0    0  0.13809789517E-03  0.71604053919E-02 -0.85269901854E-02  0.11147248944E-01  0.51100000000E-03 0. -1.
</event>
<event>
 8    1  0.1112171E+005  0.1043930E+01  0.7957747E-01            NaN
         13   -1    0    0    0    0  0.00000000000E+00  0.00000000000E+00  0.74505805969E-08  0.10566000000E+00  0.10566000000E+00 0. -1.
     999900   -1    0    0    0    0 -0.00000000000E+00 -0.00000000000E+00 -0.74505805969E-08  0.93827000000E+00  0.93827000000E+00 0.  1.
     999902    2    1    2    0    0 -0.20513954523E-01 -0.18362140154E-01 -0.51692817959E-04  0.10163983238E+01  0.10160253734E+01 0.  0.
     999903    2    3    3    0    0  0.42011223719E-01 -0.76926233943E-01 -0.90671558436E-01  0.12760638470E+00  0.19479977421E-01 0.  0.
         14    1    1    2    0    0  0.20513954523E-01  0.18362140154E-01  0.51692817959E-04  0.27531676181E-01  0.00000000000E+00 0.  1.
     999901    1    3    3    0    0 -0.62525178242E-01  0.58564093789E-01  0.90619865618E-01  0.88879193912E+00  0.88000000000E+00 0. -1.
        -11    1    4    4    0    0  0.13244087800E-01 -0.21540311465E-01 -0.14582431904E-01  0.29194165871E-01  0.51100000000E-03 0.  1.
         11    1    4    4    0    0  0.28767135919E-01 -0.55385922478E-01 -0.76089126532E-01  0.98412218831E-01  0.51100000000E-03 0. -1.
</event>
<event>
 8    1  0.1112171E+005  0.1043930E+01  0.7957747E-01            NaN
         13   -1    0    0    0    0  0.00000000000E+00  0.00000000000E+00  0.74505805969E-08  0.10566000000E+00  0.10566000000E+00 0. -1.
     999900   -1    0    0    0    0 -0.00000000000E+00 -0.00000000000E+00 -0.74505805969E-08  0.93827000000E+00  0.93827000000E+00 0. -1.
     999902    2    1    2    0    0  0.18841262019E-02  0.68523859879E-03  0.32574728820E-01  0.10112936331E+01  0.10107668772E+01 0.  0.
     999903    2    3    3    0    0  0.29039491295E-01 -0.79803946578E-01  0.89951591315E-01  0.12534328063E+00  0.20191267283E-01 0.  0.
         14    1    1    2    0    0 -0.18841262019E-02 -0.68523859879E-03 -0.32574728820E-01  0.32636366850E-01  0.00000000000E+00 0.  1.
     999901    1    3    3    0    0 -0.27155365093E-01  0.80489185177E-01 -0.57376862495E-01  0.88595035252E+00  0.88000000000E+00 0. -1.
        -11    1    4    4    0    0  0.84292007920E-02 -0.49963638358E-01  0.46847688238E-01  0.69010025346E-01  0.51100000000E-03 0. -1.
         11    1    4    4    0    0  0.20610290503E-01 -0.29840308220E-01  0.43103903077E-01  0.56333255282E-01  0.51100000000E-03 0.  1.
</event>
<event>
 8    1  0.1112171E+005  0.1043930E+01  0.7957747E-01            NaN
         13   -1    0    0    0    0  0.00000000000E+00  0.00000000000E+00  0.74505805969E-08  0.10566000000E+00  0.10566000000E+00 0. -1.
     999900   -1    0    0    0    0 -0.00000000000E+00 -0.00000000000E+00 -0.74505805969E-08  0.93827000000E+00  0.93827000000E+00 0.  1.
     999902    2    1    2    0    0  0.53658832850E-02  0.17052723781E-02 -0.23012741444E-01  0.10202385052E+01  0.10199633918E+01 0.  0.
     999903    2    3    3    0    0 -0.22430241571E-01  0.48911409383E-01  0.11435332515E+00  0.12789861469E+00  0.19645125663E-01 0.  0.
         14    1    1    2    0    0 -0.53658832850E-02 -0.17052723781E-02  0.23012741444E-01  0.23691494805E-01  0.00000000000E+00 0. -1.
     999901    1    3    3    0    0  0.27796124856E-01 -0.47206137005E-01 -0.13736606660E+00  0.89233989050E+00  0.88000000000E+00 0.  1.
        -11    1    4    4    0    0 -0.15036580504E-01  0.42378440413E-01  0.10529046534E+00  0.11449180834E+00  0.51100000000E-03 0.  1.
         11    1    4    4    0    0 -0.73936610669E-02  0.65329689700E-02  0.90628598110E-02  0.13406806349E-01  0.51100000000E-03 0. -1.
</event>
<event>
 8    1  0.1112171E+005  0.1043930E+01  0.7957747E-01            NaN
         13   -1    0    0    0    0  0.00000000000E+00  0.00000000000E+00  0.74505805969E-08  0.10566000000E+00  0.10566000000E+00 0.  1.
     999900   -1    0    0    0    0 -0.00000000000E+00 -0.00000000000E+00 -0.74505805969E-08  0.93827000000E+00  0.93827000000E+00 0. -1.
     999902    2    1    2    0    0 -0.28381126692E-02 -0.18838627990E-01  0.14249079118E-01  0.10201395598E+01  0.10198621164E+01 0.  0.
     999903    2    3    3    0    0  0.12684598450E+00  0.83693520068E-02 -0.16751151878E-01  0.12967942396E+00  0.19395929267E-01 0.  0.
         14    1    1    2    0    0  0.28381126692E-02  0.18838627990E-01 -0.14249079118E-01  0.23790440176E-01  0.00000000000E+00 0.  1.
     999901    1    3    3    0    0 -0.12968409717E+00 -0.27207979997E-01  0.31000230996E-01  0.89046013586E+00  0.88000000000E+00 0.  1.
        -11    1    4    4    0    0  0.66172753592E-01  0.74467074959E-02  0.49379271383E-03  0.66594231902E-01  0.51100000000E-03 0. -1.
         11    1    4    4    0    0  0.60673230913E-01  0.92264451097E-03 -0.17244944592E-01  0.63085192061E-01  0.51100000000E-03 0.  1.
</event>
<event>
 8    1  0.1112171E+005  0.1043930E+01  0.7957747E-01            NaN
         13   -1    0    0    0    0  0.00000000000E+00  0.00000000000E+00  0.74505805969E-08  0.10566000000E+00  0.10566000000E+00 0. -1.
     999900   -1    0    0    0    0 -0.00000000000E+00 -0.00000000000E+00 -0.74505805969E-08  0.93827000000E+00  0.93827000000E+00 0.  1.
     999902    2    1    2    0    0  0.19513795517E-01  0.38399050380E-02 -0.12372023794E-01  0.10205077871E+01  0.10202389639E+01 0.  0.
     999903    2    3    3    0    0 -0.45113552223E-01 -0.10952901167E+00  0.46675337295E-01  0.12892728245E+00  0.20293350092E-01 0.  0.
         14    1    1    2    0    0 -0.19513795517E-01 -0.38399050380E-02  0.12372023794E-01  0.23422212939E-01  0.00000000000E+00 0. -1.
     999901    1    3    3    0    0  0.64627347740E-01  0.11336891670E+00 -0.59047361089E-01  0.89158050461E+00  0.88000000000E+00 0. -1.
        -11    1    4    4    0    0 -0.34892749756E-01 -0.81777939867E-01  0.44070144448E-01  0.99234944385E-01  0.51100000000E-03 0. -1.
         11    1    4    4    0    0 -0.10220802467E-01 -0.27751071798E-01  0.26051928465E-02  0.29692338065E-01  0.51100000000E-03 0.  1.
</event>
<event>
 8    1  0.1112171E+005  0.1043930E+01  0.7957747E-01            NaN
         13   -1    0    0    0    0  0.00000000000E+00  0.00000000000E+00  0.74505805969E-08  0.10566000000E+00  0.10566000000E+00 0. -1.
     999900   -1    0    0    0    0 -0.00000000000E+00 -0.00000000000E+00 -0.74505805969E-08  0.93827000000E+00  0.93827000000E+00 0.  1.
     999902    2    1    2    0    0  0.16239927826E-01  0.22824786091E-02 -0.18741819595E-01  0.10190261696E+01  0.10187218137E+01 0.  0.
     999903    2    3    3    0    0  0.78007642408E-01 -0.10190604681E+00 -0.13621770096E-01  0.13071501116E+00  0.20756369425E-01 0.  0.
         14    1    1    2    0    0 -0.16239927826E-01 -0.22824786091E-02  0.18741819595E-01  0.24903830351E-01  0.00000000000E+00 0. -1.
     999901    1    3    3    0    0 -0.61767714582E-01  0.10418852542E+00 -0.51200494998E-02  0.88831115849E+00  0.88000000000E+00 0. -1.
        -11    1    4    4    0    0  0.53422626494E-01 -0.83645879541E-01 -0.12817251668E-01  0.10007573755E+00  0.51100000000E-03 0.  1.
         11    1    4    4    0    0  0.24585015914E-01 -0.18260167266E-01 -0.80451842759E-03  0.30639273604E-01  0.51100000000E-03 0. -1.
</event>
<event>
 8    1  0.1112171E+005  0.1043930E+01  0.7957747E-01            NaN
         13   -1    0    0    0    0  0.00000000000E+00  0.00000000000E+00  0.74505805969E-08  0.10566000000E+00  0.10566000000E+00 0.  1.
     999900   -1    0    0    0    0 -0.00000000000E+00 -0.00000000000E+00 -0.74505805969E-08  0.93827000000E+00  0.93827000000E+00 0. -1.
     999902    2    1    2    0    0 -0.15617673789E-01 -0.10688230705E-01  0.15969595076E-01  0.10191675692E+01  0.10188667019E+01 0.  0.
     999903    2    3    3    0    0 -0.12253482550E+00  0.31771119100E-02  0.40466608058E-01  0.13224951852E+00  0.28766495780E-01 0.  0.
         14    1    1    2    0    0  0.15617673789E-01  0.10688230705E-01 -0.15969595076E-01  0.24762430759E-01  0.00000000000E+00 0. -1.
     999901    1    3    3    0    0  0.10691715171E+00 -0.13865342615E-01 -0.24497012982E-01  0.88691805072E+00  0.88000000000E+00 0. -1.
        -11    1    4    4    0    0 -0.15480263532E-01  0.44538713544E-02  0.15399323846E-01  0.22290711630E-01  0.51100000000E-03 0.  1.
         11    1    4    4    0    0 -0.10705456197E+00 -0.12767594444E-02  0.25067284212E-01  0.10995880689E+00  0.51100000000E-03 0. -1.
</event>
<event>
 8    1  0.1112171E+005  0.1043930E+01  0.7957747E-01            NaN
         13   -1    0    0    0    0  0.00000000000E+00  0.00000000000E+00  0.74505805969E-08  0.10566000000E+00  0.10566000000E+00 0. -1.
     999900   -1    0    0    0    0 -0.00000000000E+00 -0.00000000000E+00 -0.74505805969E-08  0.93827000000E+00  0.93827000000E+00 0.  1.
     999902    2    1    2    0    0  0.10237650931E-01 -0.10413879816E-01 -0.18904442915E-01  0.10200420040E+01  0.10197622535E+01 0.  0.
     999903    2    3    3    0    0 -0.12586687288E+00  0.14286417813E-01 -0.15981599025E-01  0.12923164873E+00  0.19970881337E-01 0.  0.
         14    1    1    2    0    0 -0.10237650931E-01  0.10413879816E-01  0.18904442915E-01  0.23887995967E-01  0.00000000000E+00 0. -1.
     999901    1    3    3    0    0  0.13610452382E+00 -0.24700297629E-01 -0.29228438899E-02  0.89081035531E+00  0.88000000000E+00 0.  1.
        -11    1    4    4    0    0 -0.28838349110E-01  0.13845669805E-03  0.41215931010E-02  0.29136200857E-01  0.51100000000E-03 0. -1.
         11    1    4    4    0    0 -0.97028523774E-01  0.14147961115E-01 -0.20103192126E-01  0.10009544787E+00  0.51100000000E-03 0.  1.
</event>
<event>
 8    1  0.1112171E+005  0.1043930E+01  0.7957747E-01            NaN
         13   -1    0    0    0    0  0.00000000000E+00  0.00000000000E+00  0.74505805969E-08  0.10566000000E+00  0.10566000000E+00 0. -1.
     999900   -1    0    0    0    0 -0.00000000000E+00 -0.00000000000E+00 -0.74505805969E-08  0.93827000000E+00  0.93827000000E+00 0.  1.
     999902    2    1    2    0    0 -0.16010331645E-02 -0.63024941963E-02  0.24085285988E-01  0.10189823400E+01  0.10186768984E+01 0.  0.
     999903    2    3    3    0    0  0.11496358147E+00 -0.50240996316E-01 -0.21222276429E-01  0.12905499654E+00  0.21541224189E-01 0.  0.
         14    1    1    2    0    0  0.16010331645E-02  0.63024941963E-02 -0.24085285988E-01  0.24947660039E-01  0.00000000000E+00 0.  1.
     999901    1    3    3    0    0 -0.11656461464E+00  0.43938502119E-01  0.45307562417E-01  0.88992734342E+00  0.88000000000E+00 0. -1.
        -11    1    4    4    0    0  0.22083437640E-01 -0.19264765309E-01 -0.30001228545E-02  0.29463049037E-01  0.51100000000E-03 0.  1.
         11    1    4    4    0    0  0.92880143834E-01 -0.30976231007E-01 -0.18222153574E-01  0.99591947505E-01  0.51100000000E-03 0. -1.
</event>
<event>
 8    1  0.1112171E+005  0.1043930E+01  0.7957747E-01            NaN
         13   -1    0    0    0    0  0.00000000000E+00  0.00000000000E+00  0.74505805969E-08  0.10566000000E+00  0.10566000000E+00 0.  1.
     999900   -1    0    0    0    0 -0.00000000000E+00 -0.00000000000E+00 -0.74505805969E-08  0.93827000000E+00  0.93827000000E+00 0. -1.
     999902    2    1    2    0    0 -0.10986923446E-01 -0.12734849170E-01 -0.17468737237E-01  0.10196803474E+01  0.10193919586E+01 0.  0.
     999903    2    3    3    0    0 -0.45063760538E-01  0.11455620530E+00  0.30656787329E-01  0.12856850847E+00  0.20884349991E-01 0.  0.
         14    1    1    2    0    0  0.10986923446E-01  0.12734849170E-01  0.17468737237E-01  0.24249652592E-01  0.00000000000E+00 0.  1.
     999901    1    3    3    0    0  0.34076837093E-01 -0.12729105447E+00 -0.48125524565E-01  0.89111183893E+00  0.88000000000E+00 0. -1.
        -11    1    4    4    0    0 -0.20955123351E-01  0.52069995271E-01  0.24704622245E-01  0.61326838199E-01  0.51100000000E-03 0.  1.
         11    1    4    4    0    0 -0.24108637187E-01  0.62486210031E-01  0.59521650837E-02  0.67241670274E-01  0.51100000000E-03 0. -1.
</event>
<event>
 8    1  0.1112171E+005  0.1043930E+01  0.7957747E-01            NaN
         13   -1    0    0    0    0  0.00000000000E+00  0.00000000000E+00  0.74505805969E-08  0.10566000000E+00  0.10566000000E+00 0.  1.
     999900   -1    0    0    0    0 -0.00000000000E+00 -0.00000000000E+00 -0.74505805969E-08  0.93827000000E+00  0.93827000000E+00 0. -1.
     999902    2    1    2    0    0  0.49946021402E-02 -0.25205156181E-01  0.12490595809E-01  0.10153597194E+01  0.10149576833E+01 0.  0.
     999903    2    3    3    0    0 -0.26544210803E-01  0.11630198078E+00 -0.21726115191E-01  0.12284095220E+00  0.19675609124E-01 0.  0.
         14    1    1    2    0    0 -0.49946021402E-02  0.25205156181E-01 -0.12490595809E-01  0.28570280578E-01  0.00000000000E+00 0.  1.
     999901    1    3    3    0    0  0.31538812943E-01 -0.14150713696E+00  0.34216711000E-01  0.89251876722E+00  0.88000000000E+00 0. -1.
        -11    1    4    4    0    0 -0.15568449287E-01  0.50100003639E-01 -0.53986805582E-03  0.52468462492E-01  0.51100000000E-03 0.  1.
         11    1    4    4    0    0 -0.10975761516E-01  0.66201977145E-01 -0.21186247135E-01  0.70372489706E-01  0.51100000000E-03 0. -1.
</event>
<event>
 8    1  0.1112171E+005  0.1043930E+01  0.7957747E-01            NaN
         13   -1    0    0    0    0  0.00000000000E+00  0.00000000000E+00  0.74505805969E-08  0.10566000000E+00  0.10566000000E+00 0.  1.
     999900   -1    0    0    0    0 -0.00000000000E+00 -0.00000000000E+00 -0.74505805969E-08  0.93827000000E+00  0.93827000000E+00 0. -1.
     999902    2    1    2    0    0 -0.65534569404E-02 -0.18066375616E-01  0.18913670260E-01  0.10169657895E+01  0.10166082571E+01 0.  0.
     999903    2    3    3    0    0  0.10634186295E+00 -0.36660357117E-01  0.58933512858E-01  0.12865690334E+00  0.20660741515E-01 0.  0.
         14    1    1    2    0    0  0.65534569404E-02  0.18066375616E-01 -0.18913670260E-01  0.26964210511E-01  0.00000000000E+00 0. -1.
     999901    1    3    3    0    0 -0.11289531989E+00  0.18593981501E-01 -0.40019842598E-01  0.88830888614E+00  0.88000000000E+00 0. -1.
        -11    1    4    4    0    0  0.58753616786E-01 -0.22480528253E-01  0.21544380042E-01  0.66496489143E-01  0.51100000000E-03 0.  1.
         11    1    4    4    0    0  0.47588246168E-01 -0.14179828864E-01  0.37389132816E-01  0.62160414202E-01  0.51100000000E-03 0. -1.
</event>
<event>
 8    1  0.1271393E+005  0.1043930E+01  0.7957747E-01            NaN
         13   -1    0    0    0    0  0.00000000000E+00  0.00000000000E+00  0.74505805969E-08  0.10566000000E+00  0.10566000000E+00 0.  1.
     999900   -1    0    0    0    0 -0.00000000000E+00 -0.00000000000E+00 -0.74505805969E-08  0.93827000000E+00  0.93827000000E+00 0. -1.
     999902    2    1    2    0    0 -0.19190417218E-01 -0.53930155754E-02  0.11754248098E-01  0.10207887149E+01  0.10205263746E+01 0.  0.
     999903    2    3    3    0    0 -0.31632929962E-01 -0.15446579627E-03 -0.12481052328E+00  0.13015287720E+00  0.19011538710E-01 0.  0.
         14    1    1    2    0    0  0.19190417218E-01  0.53930155754E-02 -0.11754248098E-01  0.23141285149E-01  0.00000000000E+00 0.  1.
     999901    1    3    3    0    0  0.12442512744E-01 -0.52385497791E-02  0.13656477138E+00  0.89063583765E+00  0.88000000000E+00 0.  1.
        -11    1    4    4    0    0 -0.17805238585E-02  0.24695477518E-02 -0.41505982449E-01  0.41620627474E-01  0.51100000000E-03 0.  1.
         11    1    4    4    0    0 -0.29852406103E-01 -0.26240135481E-02 -0.83304540832E-01  0.88532249725E-01  0.51100000000E-03 0. -1.
</event>
<event>
 8    1  0.1112171E+005  0.1043930E+01  0.7957747E-01            NaN
         13   -1    0    0    0    0  0.00000000000E+00  0.00000000000E+00  0.74505805969E-08  0.10566000000E+00  0.10566000000E+00 0.  1.
     999900   -1    0    0    0    0 -0.00000000000E+00 -0.00000000000E+00 -0.74505805969E-08  0.93827000000E+00  0.93827000000E+00 0.  1.
     999902    2    1    2    0    0  0.22165611017E-01  0.27572881689E-02  0.81920477318E-02  0.10201386865E+01  0.10198612225E+01 0.  0.
     999903    2    3    3    0    0 -0.41399201938E-01 -0.61227745928E-01  0.10529519320E+00  0.13021532417E+00  0.20154953376E-01 0.  0.
         14    1    1    2    0    0 -0.22165611017E-01 -0.27572881689E-02 -0.81920477318E-02  0.23791313453E-01  0.00000000000E+00 0.  1.
     999901    1    3    3    0    0  0.63564812955E-01  0.63985034097E-01 -0.97103145472E-01  0.88992336237E+00  0.88000000000E+00 0.  1.
        -11    1    4    4    0    0 -0.21570918301E-01 -0.17911464056E-01  0.29590415465E-01  0.40767375061E-01  0.51100000000E-03 0. -1.
         11    1    4    4    0    0 -0.19828283638E-01 -0.43316281872E-01  0.75704777739E-01  0.89447949114E-01  0.51100000000E-03 0.  1.
</event>
<event>
 8    1  0.1112171E+005  0.1043930E+01  0.7957747E-01            NaN
         13   -1    0    0    0    0  0.00000000000E+00  0.00000000000E+00  0.74505805969E-08  0.10566000000E+00  0.10566000000E+00 0.  1.
     999900   -1    0    0    0    0 -0.00000000000E+00 -0.00000000000E+00 -0.74505805969E-08  0.93827000000E+00  0.93827000000E+00 0. -1.
     999902    2    1    2    0    0  0.22924288310E-01  0.64581536086E-02  0.26342043362E-03  0.10201119368E+01  0.10198338411E+01 0.  0.
     999903    2    3    3    0    0 -0.10711596231E-01  0.96451645099E-01  0.84799286884E-01  0.13085577916E+00  0.22686069486E-01 0.  0.
         14    1    1    2    0    0 -0.22924288310E-01 -0.64581536086E-02 -0.26342043362E-03  0.23818063164E-01  0.00000000000E+00 0.  1.
     999901    1    3    3    0    0  0.33635884541E-01 -0.89993491490E-01 -0.84535866451E-01  0.88925615767E+00  0.88000000000E+00 0. -1.
        -11    1    4    4    0    0 -0.17291660851E-02  0.42415378224E-01  0.51524804856E-01  0.66761672850E-01  0.51100000000E-03 0. -1.
         11    1    4    4    0    0 -0.89824301456E-02  0.54036266875E-01  0.33274482028E-01  0.64094106315E-01  0.51100000000E-03 0.  1.
</event>
<event>
 8    1  0.1112171E+005  0.1043930E+01  0.7957747E-01            NaN
         13   -1    0    0    0    0  0.00000000000E+00  0.00000000000E+00  0.74505805969E-08  0.10566000000E+00  0.10566000000E+00 0. -1.
     999900   -1    0    0    0    0 -0.00000000000E+00 -0.00000000000E+00 -0.74505805969E-08  0.93827000000E+00  0.93827000000E+00 0. -1.
     999902    2    1    2    0    0  0.54474154474E-02 -0.22737215751E-01 -0.60076841230E-02  0.10197898346E+01  0.10195040752E+01 0.  0.
     999903    2    3    3    0    0 -0.83668260330E-01  0.19794489712E-01 -0.95126561637E-01  0.12979392231E+00  0.20129578461E-01 0.  0.
         14    1    1    2    0    0 -0.54474154474E-02  0.22737215751E-01  0.60076841230E-02  0.24140165362E-01  0.00000000000E+00 0. -1.
     999901    1    3    3    0    0  0.89115675777E-01 -0.42531705463E-01  0.89118877514E-01  0.88999591233E+00  0.88000000000E+00 0.  1.
        -11    1    4    4    0    0 -0.33234263158E-01  0.16933581459E-01 -0.47180150607E-01  0.60145574742E-01  0.51100000000E-03 0.  1.
         11    1    4    4    0    0 -0.50433997172E-01  0.28609082533E-02 -0.47946411030E-01  0.69648347564E-01  0.51100000000E-03 0. -1.
</event>
<event>
 8    1  0.1112171E+005  0.1043930E+01  0.7957747E-01            NaN
         13   -1    0    0    0    0  0.00000000000E+00  0.00000000000E+00  0.74505805969E-08  0.10566000000E+00  0.10566000000E+00 0.  1.
     999900   -1    0    0    0    0 -0.00000000000E+00 -0.00000000000E+00 -0.74505805969E-08  0.93827000000E+00  0.93827000000E+00 0.  1.
     999902    2    1    2    0    0  0.20542754238E-01  0.99800704337E-02 -0.46531797453E-02  0.10206220906E+01  0.10203559150E+01 0.  0.
     999903    2    3    3    0    0  0.61202404996E-01  0.73332639755E-01  0.90180539498E-01  0.13233149091E+00  0.15990101686E-01 0.  0.
         14    1    1    2    0    0 -0.20542754238E-01 -0.99800704337E-02  0.46531797453E-02  0.23307909372E-01  0.00000000000E+00 0. -1.
     999901    1    3    3    0    0 -0.40659650757E-01 -0.63352569321E-01 -0.94833719243E-01  0.88829059972E+00  0.88000000000E+00 0.  1.
        -11    1    4    4    0    0  0.28536204366E-01  0.39186292877E-01  0.55637885555E-01  0.73795094275E-01  0.51100000000E-03 0.  1.
         11    1    4    4    0    0  0.32666200630E-01  0.34146346878E-01  0.34542653943E-01  0.58536396636E-01  0.51100000000E-03 0. -1.
</event>
<event>
 8    1  0.1112171E+005  0.1043930E+01  0.7957747E-01            NaN
         13   -1    0    0    0    0  0.00000000000E+00  0.00000000000E+00  0.74505805969E-08  0.10566000000E+00  0.10566000000E+00 0. -1.
     999900   -1    0    0    0    0 -0.00000000000E+00 -0.00000000000E+00 -0.74505805969E-08  0.93827000000E+00  0.93827000000E+00 0. -1.
     999902    2    1    2    0    0  0.17383525294E-01  0.17135015174E-01 -0.66391298025E-02  0.10186342743E+01  0.10183201417E+01 0.  0.
     999903    2    3    3    0    0  0.43765596358E-01  0.87472193800E-01  0.85015057621E-01  0.13069068232E+00  0.16902139247E-01 0.  0.
         14    1    1    2    0    0 -0.17383525294E-01 -0.17135015174E-01  0.66391298025E-02  0.25295725750E-01  0.00000000000E+00 0. -1.
     999901    1    3    3    0    0 -0.26382071063E-01 -0.70337178626E-01 -0.91654187424E-01  0.88794359193E+00  0.88000000000E+00 0. -1.
        -11    1    4    4    0    0  0.37743732808E-01  0.58600349249E-01  0.61735396545E-01  0.93113428709E-01  0.51100000000E-03 0. -1.
         11    1    4    4    0    0  0.60218635501E-02  0.28871844551E-01  0.23279661076E-01  0.37577253615E-01  0.51100000000E-03 0.  1.
</event>
<event>
 8    1  0.1112171E+005  0.1043930E+01  0.7957747E-01            NaN
         13   -1    0    0    0    0  0.00000000000E+00  0.00000000000E+00  0.74505805969E-08  0.10566000000E+00  0.10566000000E+00 0. -1.
     999900   -1    0    0    0    0 -0.00000000000E+00 -0.00000000000E+00 -0.74505805969E-08  0.93827000000E+00  0.93827000000E+00 0. -1.
     999902    2    1    2    0    0 -0.22304047280E-01 -0.41324387723E-04 -0.37900485288E-02  0.10213061917E+01  0.10210555815E+01 0.  0.
     999903    2    3    3    0    0  0.79842477858E-01  0.66043108045E-01 -0.75913175550E-01  0.13001341702E+00  0.20103855131E-01 0.  0.
         14    1    1    2    0    0  0.22304047280E-01  0.41324387723E-04  0.37900485288E-02  0.22623808270E-01  0.00000000000E+00 0. -1.
     999901    1    3    3    0    0 -0.10214652514E+00 -0.66084432433E-01  0.72123127021E-01  0.89129277471E+00  0.88000000000E+00 0.  1.
        -11    1    4    4    0    0  0.56171379729E-01  0.38970753419E-01 -0.40110441172E-01  0.79265705918E-01  0.51100000000E-03 0. -1.
         11    1    4    4    0    0  0.23671098129E-01  0.27072354626E-01 -0.35802734378E-01  0.50747711097E-01  0.51100000000E-03 0.  1.
</event>
<event>
 8    1  0.1112171E+005  0.1043930E+01  0.7957747E-01            NaN
         13   -1    0    0    0    0  0.00000000000E+00  0.00000000000E+00  0.74505805969E-08  0.10566000000E+00  0.10566000000E+00 0. -1.
     999900   -1    0    0    0    0 -0.00000000000E+00 -0.00000000000E+00 -0.74505805969E-08  0.93827000000E+00  0.93827000000E+00 0. -1.
     999902    2    1    2    0    0  0.33693784676E-02  0.21290419780E-01  0.11695027525E-01  0.10194063715E+01  0.10191113491E+01 0.  0.
     999903    2    3    3    0    0 -0.99517333954E-02  0.10558871353E+00  0.77573944672E-01  0.13282660292E+00  0.19421022825E-01 0.  0.
         14    1    1    2    0    0 -0.33693784676E-02 -0.21290419780E-01 -0.11695027525E-01  0.24523628493E-01  0.00000000000E+00 0.  1.
     999901    1    3    3    0    0  0.13321111863E-01 -0.84298293751E-01 -0.65878917147E-01  0.88657976859E+00  0.88000000000E+00 0. -1.
        -11    1    4    4    0    0 -0.52500407488E-02  0.96402265595E-01  0.64272070065E-01  0.11598327401E+00  0.51100000000E-03 0. -1.
         11    1    4    4    0    0 -0.47016926466E-02  0.91864479362E-02  0.13301874607E-01  0.16843328902E-01  0.51100000000E-03 0.  1.
</event>
<event>
 8    1  0.1112171E+005  0.1043930E+01  0.7957747E-01            NaN
         13   -1    0    0    0    0  0.00000000000E+00  0.00000000000E+00  0.74505805969E-08  0.10566000000E+00  0.10566000000E+00 0. -1.
     999900   -1    0    0    0    0 -0.00000000000E+00 -0.00000000000E+00 -0.74505805969E-08  0.93827000000E+00  0.93827000000E+00 0. -1.
     999902    2    1    2    0    0 -0.12880856462E-01 -0.12705874522E-01  0.15967805204E-01  0.10197985576E+01  0.10195130070E+01 0.  0.
     999903    2    3    3    0    0  0.85430606932E-01  0.76902863953E-01 -0.50929849572E-01  0.12729076150E+00  0.19916056329E-01 0.  0.
         14    1    1    2    0    0  0.12880856462E-01  0.12705874522E-01 -0.15967805204E-01  0.24131442426E-01  0.00000000000E+00 0. -1.
     999901    1    3    3    0    0 -0.98311463394E-01 -0.89608738475E-01  0.66897654775E-01  0.89250779608E+00  0.88000000000E+00 0. -1.
        -11    1    4    4    0    0  0.36915470905E-01  0.42068520653E-01 -0.16511813682E-01  0.58355921157E-01  0.51100000000E-03 0.  1.
         11    1    4    4    0    0  0.48515136028E-01  0.34834343299E-01 -0.34418035890E-01  0.68934840338E-01  0.51100000000E-03 0. -1.
</event>
<event>
 8    1  0.1112171E+005  0.1043930E+01  0.7957747E-01            NaN
         13   -1    0    0    0    0  0.00000000000E+00  0.00000000000E+00  0.74505805969E-08  0.10566000000E+00  0.10566000000E+00 0. -1.
     999900   -1    0    0    0    0 -0.00000000000E+00 -0.00000000000E+00 -0.74505805969E-08  0.93827000000E+00  0.93827000000E+00 0.  1.
     999902    2    1    2    0    0  0.24846761050E-01  0.50226714617E-02  0.35943536545E-02  0.10183271068E+01  0.10180052005E+01 0.  0.
     999903    2    3    3    0    0 -0.26813801230E-01  0.12355645697E+00  0.13008901915E-01  0.12882853695E+00  0.21032888733E-01 0.  0.
         14    1    1    2    0    0 -0.24846761050E-01 -0.50226714617E-02 -0.35943536545E-02  0.25602893225E-01  0.00000000000E+00 0.  1.
     999901    1    3    3    0    0  0.51660562280E-01 -0.11853378551E+00 -0.94145482601E-02  0.88949856983E+00  0.88000000000E+00 0.  1.
        -11    1    4    4    0    0 -0.13084811080E-01  0.99786746672E-01  0.84278507116E-02  0.10099453887E+00  0.51100000000E-03 0.  1.
         11    1    4    4    0    0 -0.13728990150E-01  0.23769710298E-01  0.45810512030E-02  0.27833998083E-01  0.51100000000E-03 0. -1.
</event>
<event>
 8    1  0.1112171E+005  0.1043930E+01  0.7957747E-01            NaN
         13   -1    0    0    0    0  0.00000000000E+00  0.00000000000E+00  0.74505805969E-08  0.10566000000E+00  0.10566000000E+00 0.  1.
     999900   -1    0    0    0    0 -0.00000000000E+00 -0.00000000000E+00 -0.74505805969E-08  0.93827000000E+00  0.93827000000E+00 0. -1.
     999902    2    1    2    0    0  0.22692913386E-01  0.18544334598E-02  0.35890832249E-02  0.10208802981E+01  0.10206200538E+01 0.  0.
     999903    2    3    3    0    0 -0.54659301693E-01 -0.26804060309E-01  0.11328027803E+00  0.13024185701E+00  0.20601529467E-01 0.  0.
         14    1    1    2    0    0 -0.22692913386E-01 -0.18544334598E-02 -0.35890832249E-02  0.23049701946E-01  0.00000000000E+00 0.  1.
     999901    1    3    3    0    0  0.77352215079E-01  0.28658493769E-01 -0.10969119481E+00  0.89063844104E+00  0.88000000000E+00 0. -1.
        -11    1    4    4    0    0 -0.20823117935E-01 -0.18364255140E-01  0.64990311639E-01  0.70674251572E-01  0.51100000000E-03 0.  1.
         11    1    4    4    0    0 -0.33836183758E-01 -0.84398051693E-02  0.48289966393E-01  0.59567605440E-01  0.51100000000E-03 0. -1.
</event>
<event>
 8    1  0.1112171E+005  0.1043930E+01  0.7957747E-01            NaN
         13   -1    0    0    0    0  0.00000000000E+00  0.00000000000E+00  0.74505805969E-08  0.10566000000E+00  0.10566000000E+00 0.  1.
     999900   -1    0    0    0    0 -0.00000000000E+00 -0.00000000000E+00 -0.74505805969E-08  0.93827000000E+00  0.93827000000E+00 0.  1.
     999902    2    1    2    0    0  0.18381019801E-01 -0.10058575503E-01 -0.95283937954E-02  0.10209120262E+01  0.10206525060E+01 0.  0.
     999903    2    3    3    0    0 -0.18229025036E-01  0.66809860311E-01 -0.10983016263E+00  0.13113143715E+00  0.18355772823E-01 0.  0.
         14    1    1    2    0    0 -0.18381019801E-01  0.10058575503E-01  0.95283937954E-02  0.23017973811E-01  0.00000000000E+00 0. -1.
     999901    1    3    3    0    0  0.36610044837E-01 -0.76868435814E-01  0.10030176883E+00  0.88978058904E+00  0.88000000000E+00 0. -1.
        -11    1    4    4    0    0  0.34413900503E-02  0.78633849866E-02 -0.10004093045E-01  0.13191625661E-01  0.51100000000E-03 0. -1.
         11    1    4    4    0    0 -0.21670415087E-01  0.58946475324E-01 -0.99826069585E-01  0.11793981148E+00  0.51100000000E-03 0.  1.
</event>
<event>
 8    1  0.1112171E+005  0.1043930E+01  0.7957747E-01            NaN
         13   -1    0    0    0    0  0.00000000000E+00  0.00000000000E+00  0.74505805969E-08  0.10566000000E+00  0.10566000000E+00 0.  1.
     999900   -1    0    0    0    0 -0.00000000000E+00 -0.00000000000E+00 -0.74505805969E-08  0.93827000000E+00  0.93827000000E+00 0. -1.
     999902    2    1    2    0    0  0.16842071168E-01  0.11932913381E-01 -0.11183085961E-01  0.10204542424E+01  0.10201841744E+01 0.  0.
     999903    2    3    3    0    0 -0.11727153351E+00  0.46667918185E-01  0.16142189880E-01  0.12919690010E+00  0.22377701874E-01 0.  0.
         14    1    1    2    0    0 -0.16842071168E-01 -0.11932913381E-01  0.11183085961E-01  0.23475757594E-01  0.00000000000E+00 0.  1.
     999901    1    3    3    0    0  0.13411360468E+00 -0.34735004803E-01 -0.27325275841E-01  0.89125734231E+00  0.88000000000E+00 0. -1.
        -11    1    4    4    0    0 -0.47725857777E-01  0.78317337167E-02  0.92463590047E-02  0.49242764234E-01  0.51100000000E-03 0. -1.
         11    1    4    4    0    0 -0.69545675734E-01  0.38836184468E-01  0.68958308753E-02  0.79954135864E-01  0.51100000000E-03 0.  1.
</event>
<event>
 8    1  0.1112171E+005  0.1043930E+01  0.7957747E-01            NaN
         13   -1    0    0    0    0  0.00000000000E+00  0.00000000000E+00  0.74505805969E-08  0.10566000000E+00  0.10566000000E+00 0. -1.
     999900   -1    0    0    0    0 -0.00000000000E+00 -0.00000000000E+00 -0.74505805969E-08  0.93827000000E+00  0.93827000000E+00 0.  1.
     999902    2    1    2    0    0  0.46682124962E-02  0.76603268149E-02  0.22189052488E-01  0.10199961983E+01  0.10197153611E+01 0.  0.
     999903    2    3    3    0    0  0.10260677373E-01 -0.55107524009E-01 -0.11336428489E+00  0.12739002194E+00  0.15317829419E-01 0.  0.
         14    1    1    2    0    0 -0.46682124962E-02 -0.76603268149E-02 -0.22189052488E-01  0.23933801727E-01  0.00000000000E+00 0.  1.
     999901    1    3    3    0    0 -0.55924648765E-02  0.62767850824E-01  0.13555333738E+00  0.89260617634E+00  0.88000000000E+00 0. -1.
        -11    1    4    4    0    0  0.92318816772E-02 -0.15207098289E-01 -0.28391865271E-01  0.33508843792E-01  0.51100000000E-03 0. -1.
         11    1    4    4    0    0  0.10287956955E-02 -0.39900425721E-01 -0.84972419617E-01  0.93881178145E-01  0.51100000000E-03 0.  1.
</event>
<event>
 8    1  0.1112171E+005  0.1043930E+01  0.7957747E-01            NaN
         13   -1    0    0    0    0  0.00000000000E+00  0.00000000000E+00  0.74505805969E-08  0.10566000000E+00  0.10566000000E+00 0.  1.
     999900   -1    0    0    0    0 -0.00000000000E+00 -0.00000000000E+00 -0.74505805969E-08  0.93827000000E+00  0.93827000000E+00 0. -1.
     999902    2    1    2    0    0  0.21527321747E-01  0.14740428325E-01  0.64628202618E-02  0.10170511262E+01  0.10166958835E+01 0.  0.
     999903    2    3    3    0    0 -0.10066724090E+00  0.73374277620E-01  0.11231559191E-01  0.12666234582E+00  0.19988094483E-01 0.  0.
         14    1    1    2    0    0 -0.21527321747E-01 -0.14740428325E-01 -0.64628202618E-02  0.26878873759E-01  0.00000000000E+00 0. -1.
     999901    1    3    3    0    0  0.12219456265E+00 -0.58633849294E-01 -0.47687389292E-02  0.89038878042E+00  0.88000000000E+00 0.  1.
        -11    1    4    4    0    0 -0.21329932515E-01  0.23805219523E-01  0.84711871119E-02  0.33070782115E-01  0.51100000000E-03 0. -1.
         11    1    4    4    0    0 -0.79337308384E-01  0.49569058097E-01  0.27603720791E-02  0.93591563708E-01  0.51100000000E-03 0.  1.
</event>
<event>
 8    1  0.1112171E+005  0.1043930E+01  0.7957747E-01            NaN
         13   -1    0    0    0    0  0.00000000000E+00  0.00000000000E+00  0.74505805969E-08  0.10566000000E+00  0.10566000000E+00 0.  1.
     999900   -1    0    0    0    0 -0.00000000000E+00 -0.00000000000E+00 -0.74505805969E-08  0.93827000000E+00  0.93827000000E+00 0. -1.
     999902    2    1    2    0    0  0.11814424541E-01  0.19233325045E-01 -0.65477828660E-02  0.10204273431E+01  0.10201566486E+01 0.  0.
     999903    2    3    3    0    0  0.11867506448E+00 -0.21758859306E-02 -0.54797349634E-01  0.13239267524E+00  0.20894150381E-01 0.  0.
         14    1    1    2    0    0 -0.11814424541E-01 -0.19233325045E-01  0.65477828660E-02  0.23502656871E-01  0.00000000000E+00 0.  1.
     999901    1    3    3    0    0 -0.10686063994E+00  0.21409210976E-01  0.48249566768E-01  0.88803466789E+00  0.88000000000E+00 0.  1.
        -11    1    4    4    0    0  0.63051947831E-01 -0.11563344371E-01 -0.28727514614E-01  0.70248062430E-01  0.51100000000E-03 0.  1.
         11    1    4    4    0    0  0.55623116652E-01  0.93874584403E-02 -0.26069835020E-01  0.62144612807E-01  0.51100000000E-03 0. -1.
</event>
<event>
 8    1  0.1112171E+005  0.1043930E+01  0.7957747E-01            NaN
         13   -1    0    0    0    0  0.00000000000E+00  0.00000000000E+00  0.74505805969E-08  0.10566000000E+00  0.10566000000E+00 0.  1.
     999900   -1    0    0    0    0 -0.00000000000E+00 -0.00000000000E+00 -0.74505805969E-08  0.93827000000E+00  0.93827000000E+00 0. -1.
     999902    2    1    2    0    0  0.21196845449E-01 -0.45415756215E-02 -0.12691265828E-01  0.10188102788E+01  0.10185005566E+01 0.  0.
     999903    2    3    3    0    0 -0.11506575979E+00  0.40704475296E-01 -0.28656552170E-01  0.12703138629E+00  0.20464401673E-01 0.  0.
         14    1    1    2    0    0 -0.21196845449E-01  0.45415756215E-02  0.12691265828E-01  0.25119721225E-01  0.00000000000E+00 0.  1.
     999901    1    3    3    0    0  0.13626260524E+00 -0.45246050917E-01  0.15965286342E-01  0.89177889248E+00  0.88000000000E+00 0. -1.
        -11    1    4    4    0    0 -0.43515435841E-01  0.24425140841E-01 -0.61798130164E-02  0.50285503592E-01  0.51100000000E-03 0. -1.
         11    1    4    4    0    0 -0.71550323949E-01  0.16279334455E-01 -0.22476739154E-01  0.76745882700E-01  0.51100000000E-03 0.  1.
</event>
<event>
 8    1  0.1112171E+005  0.1043930E+01  0.7957747E-01            NaN
         13   -1    0    0    0    0  0.00000000000E+00  0.00000000000E+00  0.74505805969E-08  0.10566000000E+00  0.10566000000E+00 0. -1.
     999900   -1    0    0    0    0 -0.00000000000E+00 -0.00000000000E+00 -0.74505805969E-08  0.93827000000E+00  0.93827000000E+00 0.  1.
     999902    2    1    2    0    0  0.16021845362E-01  0.83696052350E-02 -0.15517432043E-01  0.10201068911E+01  0.10198286762E+01 0.  0.
     999903    2    3    3    0    0  0.32392689228E-02 -0.51533643309E-01  0.11571652872E+00  0.12826938016E+00  0.19912549113E-01 0.  0.
         14    1    1    2    0    0 -0.16021845362E-01 -0.83696052350E-02  0.15517432043E-01  0.23823108903E-01  0.00000000000E+00 0. -1.
     999901    1    3    3    0    0  0.12782576439E-01  0.59903248544E-01 -0.13123396077E+00  0.89183751093E+00  0.88000000000E+00 0.  1.
        -11    1    4    4    0    0  0.27113064887E-02 -0.25513940859E-01  0.80402022310E-01  0.84398214872E-01  0.51100000000E-03 0.  1.
         11    1    4    4    0    0  0.52796243408E-03 -0.26019702450E-01  0.35314506413E-01  0.43871165293E-01  0.51100000000E-03 0. -1.
</event>
<event>
 8    1  0.1112171E+005  0.1043930E+01  0.7957747E-01            NaN
         13   -1    0    0    0    0  0.00000000000E+00  0.00000000000E+00  0.74505805969E-08  0.10566000000E+00  0.10566000000E+00 0. -1.
     999900   -1    0    0    0    0 -0.00000000000E+00 -0.00000000000E+00 -0.74505805969E-08  0.93827000000E+00  0.93827000000E+00 0. -1.
     999902    2    1    2    0    0 -0.48871970742E-02  0.68647032103E-02  0.22381733546E-01  0.10200145062E+01  0.10197341036E+01 0.  0.
     999903    2    3    3    0    0  0.68299731407E-01 -0.85520552538E-01  0.68997490480E-01  0.13093386266E+00  0.20109810622E-01 0.  0.
         14    1    1    2    0    0  0.48871970742E-02 -0.68647032103E-02 -0.22381733546E-01  0.23915493763E-01  0.00000000000E+00 0.  1.
     999901    1    3    3    0    0 -0.73186928481E-01  0.92385255748E-01 -0.46615756934E-01  0.88908064357E+00  0.88000000000E+00 0. -1.
        -11    1    4    4    0    0  0.23038211207E-01 -0.32277311451E-01  0.14187853080E-01  0.42120544942E-01  0.51100000000E-03 0.  1.
         11    1    4    4    0    0  0.45261520200E-01 -0.53243241086E-01  0.54809637399E-01  0.88813317723E-01  0.51100000000E-03 0. -1.
</event>
<event>
 8    1  0.1112171E+005  0.1043930E+01  0.7957747E-01            NaN
         13   -1    0    0    0    0  0.00000000000E+00  0.00000000000E+00  0.74505805969E-08  0.10566000000E+00  0.10566000000E+00 0.  1.
     999900   -1    0    0    0    0 -0.00000000000E+00 -0.00000000000E+00 -0.74505805969E-08  0.93827000000E+00  0.93827000000E+00 0.  1.
     999902    2    1    2    0    0  0.82121261265E-03  0.18763730432E-01 -0.15909987574E-01  0.10193153768E+01  0.10190181342E+01 0.  0.
     999903    2    3    3    0    0 -0.76010847228E-01 -0.75085572303E-01  0.65287131430E-01  0.12729305132E+00  0.22926389173E-01 0.  0.
         14    1    1    2    0    0 -0.82121261265E-03 -0.18763730432E-01  0.15909987574E-01  0.24614623183E-01  0.00000000000E+00 0.  1.
     999901    1    3    3    0    0  0.76832059840E-01  0.93849302735E-01 -0.81197119004E-01  0.89202232549E+00  0.88000000000E+00 0.  1.
        -11    1    4    4    0    0 -0.51779698403E-01 -0.37663036237E-01  0.31546556260E-01  0.71379883708E-01  0.51100000000E-03 0. -1.
         11    1    4    4    0    0 -0.24231148825E-01 -0.37422536066E-01  0.33740575171E-01  0.55913167616E-01  0.51100000000E-03 0.  1.
</event>
<event>
 8    1  0.1112171E+005  0.1043930E+01  0.7957747E-01            NaN
         13   -1    0    0    0    0  0.00000000000E+00  0.00000000000E+00  0.74505805969E-08  0.10566000000E+00  0.10566000000E+00 0.  1.
     999900   -1    0    0    0    0 -0.00000000000E+00 -0.00000000000E+00 -0.74505805969E-08  0.93827000000E+00  0.93827000000E+00 0. -1.
     999902    2    1    2    0    0  0.57057394545E-02 -0.44590136364E-02 -0.23381448582E-01  0.10194528596E+01  0.10191589682E+01 0.  0.
     999903    2    3    3    0    0  0.92181265051E-01  0.66694275316E-01 -0.62844088151E-01  0.13147870062E+00  0.19792860214E-01 0.  0.
         14    1    1    2    0    0 -0.57057394545E-02  0.44590136364E-02  0.23381448582E-01  0.24477140419E-01  0.00000000000E+00 0.  1.
     999901    1    3    3    0    0 -0.86475525597E-01 -0.71153288952E-01  0.39462639569E-01  0.88797415896E+00  0.88000000000E+00 0.  1.
        -11    1    4    4    0    0  0.19702935595E-01  0.14945747318E-01 -0.23494848078E-01  0.34115246462E-01  0.51100000000E-03 0. -1.
         11    1    4    4    0    0  0.72478329457E-01  0.51748527997E-01 -0.39349240073E-01  0.97363454160E-01  0.51100000000E-03 0.  1.
</event>
<event>
 8    1  0.1112171E+005  0.1043930E+01  0.7957747E-01            NaN
         13   -1    0    0    0    0  0.00000000000E+00  0.00000000000E+00  0.74505805969E-08  0.10566000000E+00  0.10566000000E+00 0.  1.
     999900   -1    0    0    0    0 -0.00000000000E+00 -0.00000000000E+00 -0.74505805969E-08  0.93827000000E+00  0.93827000000E+00 0.  1.
     999902    2    1    2    0    0  0.16465571312E-01  0.16474303432E-01 -0.21441088348E-02  0.10205395123E+01  0.10202714253E+01 0.  0.
     999903    2    3    3    0    0  0.64906936749E-01 -0.10088440131E+00  0.46166610309E-01  0.13011626628E+00  0.20206780470E-01 0.  0.
         14    1    1    2    0    0 -0.16465571312E-01 -0.16474303432E-01  0.21441088348E-02  0.23390487701E-01  0.00000000000E+00 0.  1.
     999901    1    3    3    0    0 -0.48441365437E-01  0.11735870475E+00 -0.48310719144E-01  0.89042324602E+00  0.88000000000E+00 0.  1.
        -11    1    4    4    0    0  0.23574739539E-01 -0.23961791251E-01  0.19236060826E-01  0.38732711516E-01  0.51100000000E-03 0. -1.
         11    1    4    4    0    0  0.41332197210E-01 -0.76922610062E-01  0.26930549483E-01  0.91383554765E-01  0.51100000000E-03 0.  1.
</event>
<event>
 8    1  0.1112171E+005  0.1043930E+01  0.7957747E-01            NaN
         13   -1    0    0    0    0  0.00000000000E+00  0.00000000000E+00  0.74505805969E-08  0.10566000000E+00  0.10566000000E+00 0. -1.
     999900   -1    0    0    0    0 -0.00000000000E+00 -0.00000000000E+00 -0.74505805969E-08  0.93827000000E+00  0.93827000000E+00 0. -1.
     999902    2    1    2    0    0  0.15530183125E-01 -0.10428057777E-01  0.14617308386E-01  0.10201898087E+01  0.10199135498E+01 0.  0.
     999903    2    3    3    0    0  0.80938490003E-01 -0.45529974799E-01  0.93922106109E-01  0.13351081263E+00  0.19487362685E-01 0.  0.
         14    1    1    2    0    0 -0.15530183125E-01  0.10428057777E-01 -0.14617308386E-01  0.23740191266E-01  0.00000000000E+00 0.  1.
     999901    1    3    3    0    0 -0.65408306878E-01  0.35101917023E-01 -0.79304797723E-01  0.88667899610E+00  0.88000000000E+00 0. -1.
        -11    1    4    4    0    0  0.22825735764E-01 -0.53260474522E-02  0.31179639903E-01  0.39010409638E-01  0.51100000000E-03 0.  1.
         11    1    4    4    0    0  0.58112754239E-01 -0.40203927347E-01  0.62742466206E-01  0.94500402994E-01  0.51100000000E-03 0. -1.
</event>
<event>
 8    1  0.1112171E+005  0.1043930E+01  0.7957747E-01            NaN
         13   -1    0    0    0    0  0.00000000000E+00  0.00000000000E+00  0.74505805969E-08  0.10566000000E+00  0.10566000000E+00 0. -1.
     999900   -1    0    0    0    0 -0.00000000000E+00 -0.00000000000E+00 -0.74505805969E-08  0.93827000000E+00  0.93827000000E+00 0.  1.
     999902    2    1    2    0    0  0.10139958653E-02 -0.78949015463E-02 -0.22923517051E-01  0.10196638653E+01  0.10193750796E+01 0.  0.
     999903    2    3    3    0    0  0.46855292568E-01  0.38509538353E-01 -0.11594417065E+00  0.13236028789E+00  0.19944726577E-01 0.  0.
         14    1    1    2    0    0 -0.10139958653E-02  0.78949015463E-02  0.22923517051E-01  0.24266134675E-01  0.00000000000E+00 0. -1.
     999901    1    3    3    0    0 -0.45841296702E-01 -0.46404439899E-01  0.93020653598E-01  0.88730357743E+00  0.88000000000E+00 0. -1.
        -11    1    4    4    0    0  0.20801678341E-01  0.27573621910E-01 -0.75428593188E-01  0.82962330237E-01  0.51100000000E-03 0. -1.
         11    1    4    4    0    0  0.26053614227E-01  0.10935916442E-01 -0.40515577462E-01  0.49397957658E-01  0.51100000000E-03 0.  1.
</event>
<event>
 8    1  0.1112171E+005  0.1043930E+01  0.7957747E-01            NaN
         13   -1    0    0    0    0  0.00000000000E+00  0.00000000000E+00  0.74505805969E-08  0.10566000000E+00  0.10566000000E+00 0. -1.
     999900   -1    0    0    0    0 -0.00000000000E+00 -0.00000000000E+00 -0.74505805969E-08  0.93827000000E+00  0.93827000000E+00 0.  1.
     999902    2    1    2    0    0 -0.34653321083E-02  0.10726425683E-01 -0.32225816056E-01  0.10097895847E+01  0.10092122856E+01 0.  0.
     999903    2    3    3    0    0  0.19853910901E-01 -0.58792541860E-01  0.97452801554E-01  0.11726887471E+00  0.20104718071E-01 0.  0.
         14    1    1    2    0    0  0.34653321083E-02 -0.10726425683E-01  0.32225816056E-01  0.34140415273E-01  0.00000000000E+00 0. -1.
     999901    1    3    3    0    0 -0.23319243009E-01  0.69518967542E-01 -0.12967861761E+00  0.89252071002E+00  0.88000000000E+00 0.  1.
        -11    1    4    4    0    0  0.48164309836E-02 -0.41999855572E-01  0.69587328566E-01  0.81423849660E-01  0.51100000000E-03 0.  1.
         11    1    4    4    0    0  0.15037479917E-01 -0.16792686288E-01  0.27865472988E-01  0.35845025051E-01  0.51100000000E-03 0. -1.
</event>
<event>
 8    1  0.1112171E+005  0.1043930E+01  0.7957747E-01            NaN
         13   -1    0    0    0    0  0.00000000000E+00  0.00000000000E+00  0.74505805969E-08  0.10566000000E+00  0.10566000000E+00 0.  1.
     999900   -1    0    0    0    0 -0.00000000000E+00 -0.00000000000E+00 -0.74505805969E-08  0.93827000000E+00  0.93827000000E+00 0. -1.
     999902    2    1    2    0    0  0.63252750233E-02 -0.32914678519E-02  0.13707741550E-01  0.10284786233E+01  0.10283625496E+01 0.  0.
     999903    2    3    3    0    0  0.10500562855E+00  0.81551839433E-01 -0.30415847088E-01  0.13781421394E+00  0.19767378856E-01 0.  0.
         14    1    1    2    0    0 -0.63252750233E-02  0.32914678519E-02 -0.13707741550E-01  0.15451376739E-01  0.00000000000E+00 0. -1.
     999901    1    3    3    0    0 -0.98680353526E-01 -0.84843307285E-01  0.44123588638E-01  0.89066440932E+00  0.88000000000E+00 0.  1.
        -11    1    4    4    0    0  0.92682376952E-01  0.69912123917E-01 -0.19702483183E-01  0.11775473253E+00  0.51100000000E-03 0. -1.
         11    1    4    4    0    0  0.12323251597E-01  0.11639715517E-01 -0.10713363905E-01  0.20059481409E-01  0.51100000000E-03 0.  1.
</event>
<event>
 8    1  0.1112171E+005  0.1043930E+01  0.7957747E-01            NaN
         13   -1    0    0    0    0  0.00000000000E+00  0.00000000000E+00  0.74505805969E-08  0.10566000000E+00  0.10566000000E+00 0.  1.
     999900   -1    0    0    0    0 -0.00000000000E+00 -0.00000000000E+00 -0.74505805969E-08  0.93827000000E+00  0.93827000000E+00 0. -1.
     999902    2    1    2    0    0 -0.80589052482E-02 -0.26107377045E-01  0.23355734431E-02  0.10165074547E+01  0.10161374953E+01 0.  0.
     999903    2    3    3    0    0  0.26126945783E-01 -0.10234540158E+00 -0.72050304834E-01  0.12942562772E+00  0.20063602945E-01 0.  0.
         14    1    1    2    0    0  0.80589052482E-02  0.26107377045E-01 -0.23355734431E-02  0.27422545347E-01  0.00000000000E+00 0.  1.
     999901    1    3    3    0    0 -0.34185851031E-01  0.76238024532E-01  0.74385878277E-01  0.88708182694E+00  0.88000000000E+00 0.  1.
        -11    1    4    4    0    0  0.12040765416E-01 -0.18070808243E-01 -0.10539521195E-01  0.24142840976E-01  0.51100000000E-03 0. -1.
         11    1    4    4    0    0  0.14086180367E-01 -0.84274593334E-01 -0.61510783639E-01  0.10528278674E+00  0.51100000000E-03 0.  1.
</event>
<event>
 8    1  0.1112171E+005  0.1043930E+01  0.7957747E-01            NaN
         13   -1    0    0    0    0  0.00000000000E+00  0.00000000000E+00  0.74505805969E-08  0.10566000000E+00  0.10566000000E+00 0. -1.
     999900   -1    0    0    0    0 -0.00000000000E+00 -0.00000000000E+00 -0.74505805969E-08  0.93827000000E+00  0.93827000000E+00 0. -1.
     999902    2    1    2    0    0  0.17400960843E-01  0.10500296028E-01 -0.11295805651E-01  0.10206782284E+01  0.10204133482E+01 0.  0.
     999903    2    3    3    0    0  0.23462548127E-01 -0.12244964048E+00  0.30278354868E-01  0.12970076561E+00  0.19002742149E-01 0.  0.
         14    1    1    2    0    0 -0.17400960843E-01 -0.10500296028E-01  0.11295805651E-01  0.23251771551E-01  0.00000000000E+00 0.  1.
     999901    1    3    3    0    0 -0.60615872840E-02  0.13294993651E+00 -0.41574160519E-01  0.89097746284E+00  0.88000000000E+00 0.  1.
        -11    1    4    4    0    0  0.18561289391E-01 -0.47921456922E-01  0.13802190527E-01  0.53214181208E-01  0.51100000000E-03 0.  1.
         11    1    4    4    0    0  0.49012587359E-02 -0.74528183558E-01  0.16476164341E-01  0.76486584405E-01  0.51100000000E-03 0. -1.
</event>
<event>
 8    1  0.1112171E+005  0.1043930E+01  0.7957747E-01            NaN
         13   -1    0    0    0    0  0.00000000000E+00  0.00000000000E+00  0.74505805969E-08  0.10566000000E+00  0.10566000000E+00 0.  1.
     999900   -1    0    0    0    0 -0.00000000000E+00 -0.00000000000E+00 -0.74505805969E-08  0.93827000000E+00  0.93827000000E+00 0.  1.
     999902    2    1    2    0    0 -0.32286140564E-02  0.19063540364E-01  0.61514117180E-02  0.10236400422E+01  0.10234389350E+01 0.  0.
     999903    2    3    3    0    0 -0.89073472833E-01 -0.17580595243E-01 -0.95181506552E-01  0.13292095477E+00  0.19112826467E-01 0.  0.
         14    1    1    2    0    0  0.32286140564E-02 -0.19063540364E-01 -0.61514117180E-02  0.20289957764E-01  0.00000000000E+00 0. -1.
     999901    1    3    3    0    0  0.85844858776E-01  0.36644135607E-01  0.10133291827E+00  0.89071908747E+00  0.88000000000E+00 0. -1.
        -11    1    4    4    0    0 -0.27764249028E-01  0.12687467275E-02 -0.37328689209E-01  0.46541974619E-01  0.51100000000E-03 0. -1.
         11    1    4    4    0    0 -0.61309223805E-01 -0.18849341971E-01 -0.57852817343E-01  0.86378980150E-01  0.51100000000E-03 0.  1.
</event>
<event>
 8    1  0.1112171E+005  0.1043930E+01  0.7957747E-01            NaN
         13   -1    0    0    0    0  0.00000000000E+00  0.00000000000E+00  0.74505805969E-08  0.10566000000E+00  0.10566000000E+00 0.  1.
     999900   -1    0    0    0    0 -0.00000000000E+00 -0.00000000000E+00 -0.74505805969E-08  0.93827000000E+00  0.93827000000E+00 0.  1.
     999902    2    1    2    0    0 -0.29781453170E-02  0.10845504576E-01 -0.21939069187E-01  0.10192760535E+01  0.10189778488E+01 0.  0.
     999903    2    3    3    0    0  0.13492960430E-01 -0.87867244642E-01  0.87982861555E-01  0.12680849949E+00  0.20897343214E-01 0.  0.
         14    1    1    2    0    0  0.29781453170E-02 -0.10845504576E-01  0.21939069187E-01  0.24653946455E-01  0.00000000000E+00 0.  1.
     999901    1    3    3    0    0 -0.16471105747E-01  0.98712749217E-01 -0.10992193074E+00  0.89246755405E+00  0.88000000000E+00 0.  1.
        -11    1    4    4    0    0  0.12129693091E-01 -0.72660151245E-01  0.82436582056E-01  0.11055622197E+00  0.51100000000E-03 0.  1.
         11    1    4    4    0    0  0.13632673394E-02 -0.15207093397E-01  0.55462794988E-02  0.16252277524E-01  0.51100000000E-03 0. -1.
</event>
<event>
 8    1  0.1112171E+005  0.1043930E+01  0.7957747E-01            NaN
         13   -1    0    0    0    0  0.00000000000E+00  0.00000000000E+00  0.74505805969E-08  0.10566000000E+00  0.10566000000E+00 0.  1.
     999900   -1    0    0    0    0 -0.00000000000E+00 -0.00000000000E+00 -0.74505805969E-08  0.93827000000E+00  0.93827000000E+00 0. -1.
     999902    2    1    2    0    0 -0.28647066672E-01  0.15979317520E-01  0.27518843630E-02  0.10110124380E+01  0.10104764144E+01 0.  0.
     999903    2    3    3    0    0 -0.97419676476E-01  0.26224571446E-01  0.71976799839E-01  0.12555960135E+00  0.20155204406E-01 0.  0.
         14    1    1    2    0    0  0.28647066672E-01 -0.15979317520E-01 -0.27518843630E-02  0.32917561952E-01  0.00000000000E+00 0. -1.
     999901    1    3    3    0    0  0.68772609804E-01 -0.10245253926E-01 -0.69224915477E-01  0.88545283669E+00  0.88000000000E+00 0. -1.
        -11    1    4    4    0    0 -0.72502033639E-01  0.12177646087E-01  0.44762053620E-01  0.86074052485E-01  0.51100000000E-03 0. -1.
         11    1    4    4    0    0 -0.24917642837E-01  0.14046925359E-01  0.27214746219E-01  0.39485548868E-01  0.51100000000E-03 0.  1.
</event>
<event>
 8    1  0.1112171E+005  0.1043930E+01  0.7957747E-01            NaN
         13   -1    0    0    0    0  0.00000000000E+00  0.00000000000E+00  0.74505805969E-08  0.10566000000E+00  0.10566000000E+00 0. -1.
     999900   -1    0    0    0    0 -0.00000000000E+00 -0.00000000000E+00 -0.74505805969E-08  0.93827000000E+00  0.93827000000E+00 0.  1.
     999902    2    1    2    0    0  0.63896483377E-02  0.12771708470E-01  0.94230450502E-02  0.10268204143E+01  0.10266778586E+01 0.  0.
     999903    2    3    3    0    0 -0.11753237778E+00 -0.11791873155E-02  0.65887034050E-01  0.13623662935E+00  0.20101433045E-01 0.  0.
         14    1    1    2    0    0 -0.63896483377E-02 -0.12771708470E-01 -0.94230450502E-02  0.17109585651E-01  0.00000000000E+00 0.  1.
     999901    1    3    3    0    0  0.12392202612E+00  0.13950895786E-01 -0.56463988999E-01  0.89058378500E+00  0.88000000000E+00 0. -1.
        -11    1    4    4    0    0 -0.63428871529E-01  0.92260759544E-02  0.33481664273E-01  0.72316147467E-01  0.51100000000E-03 0.  1.
         11    1    4    4    0    0 -0.54103506254E-01 -0.10405263270E-01  0.32405369776E-01  0.63920481882E-01  0.51100000000E-03 0. -1.
</event>
<event>
 8    1  0.1112171E+005  0.1043930E+01  0.7957747E-01            NaN
         13   -1    0    0    0    0  0.00000000000E+00  0.00000000000E+00  0.74505805969E-08  0.10566000000E+00  0.10566000000E+00 0. -1.
     999900   -1    0    0    0    0 -0.00000000000E+00 -0.00000000000E+00 -0.74505805969E-08  0.93827000000E+00  0.93827000000E+00 0.  1.
     999902    2    1    2    0    0  0.20633292592E-01  0.94968186311E-02  0.57364754394E-02  0.10205028901E+01  0.10202339532E+01 0.  0.
     999903    2    3    3    0    0 -0.40848392298E-01  0.12165838458E+00 -0.13475891074E-01  0.13104837779E+00  0.22863157946E-01 0.  0.
         14    1    1    2    0    0 -0.20633292592E-01 -0.94968186311E-02 -0.57364754394E-02  0.23427109889E-01  0.00000000000E+00 0.  1.
     999901    1    3    3    0    0  0.61481684890E-01 -0.11216156595E+00  0.19212366513E-01  0.88945451232E+00  0.88000000000E+00 0.  1.
        -11    1    4    4    0    0 -0.27590487214E-01  0.58259115754E-01 -0.15281156034E-01  0.66250542668E-01  0.51100000000E-03 0. -1.
         11    1    4    4    0    0 -0.13257905084E-01  0.63399268823E-01  0.18052649599E-02  0.64797835126E-01  0.51100000000E-03 0.  1.
</event>
<event>
 8    1  0.1112171E+005  0.1043930E+01  0.7957747E-01            NaN
         13   -1    0    0    0    0  0.00000000000E+00  0.00000000000E+00  0.74505805969E-08  0.10566000000E+00  0.10566000000E+00 0.  1.
     999900   -1    0    0    0    0 -0.00000000000E+00 -0.00000000000E+00 -0.74505805969E-08  0.93827000000E+00  0.93827000000E+00 0. -1.
     999902    2    1    2    0    0  0.10979927928E-01 -0.12920261074E-03 -0.21271705863E-01  0.10199913079E+01  0.10197103545E+01 0.  0.
     999903    2    3    3    0    0  0.83240670526E-01  0.93734643797E-01 -0.35036861358E-01  0.13194766250E+00  0.21619697193E-01 0.  0.
         14    1    1    2    0    0 -0.10979927928E-01  0.12920261074E-03  0.21271705863E-01  0.23938692131E-01  0.00000000000E+00 0. -1.
     999901    1    3    3    0    0 -0.72260742599E-01 -0.93863846407E-01  0.13765155495E-01  0.88804364537E+00  0.88000000000E+00 0.  1.
        -11    1    4    4    0    0  0.27418773358E-01  0.46606530771E-01 -0.12632578236E-01  0.55531981748E-01  0.51100000000E-03 0. -1.
         11    1    4    4    0    0  0.55821897168E-01  0.47128113026E-01 -0.22404283123E-01  0.76415680748E-01  0.51100000000E-03 0.  1.
</event>
<event>
 8    1  0.1112171E+005  0.1043930E+01  0.7957747E-01            NaN
         13   -1    0    0    0    0  0.00000000000E+00  0.00000000000E+00  0.74505805969E-08  0.10566000000E+00  0.10566000000E+00 0.  1.
     999900   -1    0    0    0    0 -0.00000000000E+00 -0.00000000000E+00 -0.74505805969E-08  0.93827000000E+00  0.93827000000E+00 0. -1.
     999902    2    1    2    0    0  0.22447219828E-02 -0.21146960902E-01 -0.86015688232E-02  0.10209905205E+01  0.10207327874E+01 0.  0.
     999903    2    3    3    0    0  0.32869557157E-01 -0.11018657069E+00 -0.65683076878E-01  0.13412850691E+00  0.21323733925E-01 0.  0.
         14    1    1    2    0    0 -0.22447219828E-02  0.21146960902E-01  0.86015688232E-02  0.22939479471E-01  0.00000000000E+00 0.  1.
     999901    1    3    3    0    0 -0.30624835174E-01  0.89039609791E-01  0.57081508055E-01  0.88686201362E+00  0.88000000000E+00 0.  1.
        -11    1    4    4    0    0  0.31196316579E-01 -0.10736497019E+00 -0.58434629254E-01  0.12615591151E+00  0.51100000000E-03 0. -1.
         11    1    4    4    0    0  0.16732405777E-02 -0.28216005049E-02 -0.72484476244E-02  0.79725953995E-02  0.51100000000E-03 0.  1.
</event>
<event>
 8    1  0.1112171E+005  0.1043930E+01  0.7957747E-01            NaN
         13   -1    0    0    0    0  0.00000000000E+00  0.00000000000E+00  0.74505805969E-08  0.10566000000E+00  0.10566000000E+00 0.  1.
     999900   -1    0    0    0    0 -0.00000000000E+00 -0.00000000000E+00 -0.74505805969E-08  0.93827000000E+00  0.93827000000E+00 0.  1.
     999902    2    1    2    0    0 -0.13069968759E-01  0.70311383989E-02 -0.15608737651E-01  0.10223918088E+01  0.10221649167E+01 0.  0.
     999903    2    3    3    0    0 -0.82566317710E-01 -0.56438440644E-01  0.82993255951E-01  0.13189729271E+00  0.22506018948E-01 0.  0.
         14    1    1    2    0    0  0.13069968759E-01 -0.70311383989E-02  0.15608737651E-01  0.21538191233E-01  0.00000000000E+00 0.  1.
     999901    1    3    3    0    0  0.69496348952E-01  0.63469579043E-01 -0.98601993602E-01  0.89049451605E+00  0.88000000000E+00 0.  1.
        -11    1    4    4    0    0 -0.26038950618E-01 -0.30770748843E-01  0.29621956332E-01  0.50025866825E-01  0.51100000000E-03 0. -1.
         11    1    4    4    0    0 -0.56527367092E-01 -0.25667691801E-01  0.53371299619E-01  0.81871425887E-01  0.51100000000E-03 0.  1.
</event>
<event>
 8    1  0.1229115E+005  0.1043930E+01  0.7957747E-01            NaN
         13   -1    0    0    0    0  0.00000000000E+00  0.00000000000E+00  0.74505805969E-08  0.10566000000E+00  0.10566000000E+00 0.  1.
     999900   -1    0    0    0    0 -0.00000000000E+00 -0.00000000000E+00 -0.74505805969E-08  0.93827000000E+00  0.93827000000E+00 0. -1.
     999902    2    1    2    0    0  0.16552567409E-01 -0.16352913342E-01 -0.67548374206E-03  0.10206520804E+01  0.10203865972E+01 0.  0.
     999903    2    3    3    0    0  0.11997918591E+00 -0.41420624221E-01 -0.35351405760E-01  0.13356252736E+00  0.21875869426E-01 0.  0.
         14    1    1    2    0    0 -0.16552567409E-01  0.16352913342E-01  0.67548374206E-03  0.23277919599E-01  0.00000000000E+00 0.  1.
     999901    1    3    3    0    0 -0.10342661850E+00  0.25067710880E-01  0.34675922018E-01  0.88708955304E+00  0.88000000000E+00 0.  1.
        -11    1    4    4    0    0  0.48199383804E-01 -0.19405075964E-01 -0.37353537752E-02  0.52095600208E-01  0.51100000000E-03 0.  1.
         11    1    4    4    0    0  0.71779802107E-01 -0.22015548258E-01 -0.31616051985E-01  0.81466927153E-01  0.51100000000E-03 0. -1.
</event>
<event>
 8    1  0.1112171E+005  0.1043930E+01  0.7957747E-01            NaN
         13   -1    0    0    0    0  0.00000000000E+00  0.00000000000E+00  0.74505805969E-08  0.10566000000E+00  0.10566000000E+00 0. -1.
     999900   -1    0    0    0    0 -0.00000000000E+00 -0.00000000000E+00 -0.74505805969E-08  0.93827000000E+00  0.93827000000E+00 0. -1.
     999902    2    1    2    0    0  0.18637001704E-01  0.11138361488E-01  0.83683891658E-02  0.10206613329E+01  0.10203960632E+01 0.  0.
     999903    2    3    3    0    0 -0.87050562611E-02  0.48080369838E-01  0.12094030522E+00  0.13230063121E+00  0.22122378319E-01 0.  0.
         14    1    1    2    0    0 -0.18637001704E-01 -0.11138361488E-01 -0.83683891658E-02  0.23268667052E-01  0.00000000000E+00 0.  1.
     999901    1    3    3    0    0  0.27342057965E-01 -0.36942008350E-01 -0.11257191605E+00  0.88836070174E+00  0.88000000000E+00 0. -1.
        -11    1    4    4    0    0  0.69576948742E-02  0.20902036499E-01  0.43981846087E-01  0.49193175889E-01  0.51100000000E-03 0. -1.
         11    1    4    4    0    0 -0.15662751135E-01  0.27178333339E-01  0.76958459133E-01  0.83107455317E-01  0.51100000000E-03 0.  1.
</event>
<event>
 8    1  0.1112171E+005  0.1043930E+01  0.7957747E-01            NaN
         13   -1    0    0    0    0  0.00000000000E+00  0.00000000000E+00  0.74505805969E-08  0.10566000000E+00  0.10566000000E+00 0.  1.
     999900   -1    0    0    0    0 -0.00000000000E+00 -0.00000000000E+00 -0.74505805969E-08  0.93827000000E+00  0.93827000000E+00 0.  1.
     999902    2    1    2    0    0 -0.18067504873E-01  0.93589371389E-02  0.17244904245E-01  0.10172577080E+01  0.10169079768E+01 0.  0.
     999903    2    3    3    0    0  0.64243889548E-02  0.11382996444E+00 -0.54182979930E-01  0.12786691032E+00  0.20386707962E-01 0.  0.
         14    1    1    2    0    0  0.18067504873E-01 -0.93589371389E-02 -0.17244904245E-01  0.26672291974E-01  0.00000000000E+00 0.  1.
     999901    1    3    3    0    0 -0.24491893828E-01 -0.10447102730E+00  0.71427884176E-01  0.88939079771E+00  0.88000000000E+00 0. -1.
        -11    1    4    4    0    0  0.13184776206E-01  0.80742848295E-01 -0.34633182284E-01  0.88842356512E-01  0.51100000000E-03 0.  1.
         11    1    4    4    0    0 -0.67603872508E-02  0.33087116148E-01 -0.19549797646E-01  0.39024553806E-01  0.51100000000E-03 0. -1.
</event>
<event>
 8    1  0.1112171E+005  0.1043930E+01  0.7957747E-01            NaN
         13   -1    0    0    0    0  0.00000000000E+00  0.00000000000E+00  0.74505805969E-08  0.10566000000E+00  0.10566000000E+00 0.  1.
     999900   -1    0    0    0    0 -0.00000000000E+00 -0.00000000000E+00 -0.74505805969E-08  0.93827000000E+00  0.93827000000E+00 0. -1.
     999902    2    1    2    0    0 -0.10568956184E-01 -0.20246590453E-01 -0.66827075671E-02  0.10201332389E+01  0.10198556463E+01 0.  0.
     999903    2    3    3    0    0  0.12067706694E+00 -0.61142474857E-02 -0.42686121072E-01  0.12955955439E+00  0.19058716985E-01 0.  0.
         14    1    1    2    0    0  0.10568956184E-01  0.20246590453E-01  0.66827075671E-02  0.23796761128E-01  0.00000000000E+00 0. -1.
     999901    1    3    3    0    0 -0.13124602313E+00 -0.14132342967E-01  0.36003413505E-01  0.89057368448E+00  0.88000000000E+00 0. -1.
        -11    1    4    4    0    0  0.30998473275E-01 -0.78446384376E-02 -0.17202700643E-01  0.36313051759E-01  0.51100000000E-03 0.  1.
         11    1    4    4    0    0  0.89678593670E-01  0.17303909520E-02 -0.25483420429E-01  0.93246502633E-01  0.51100000000E-03 0. -1.
</event>
<event>
 8    1  0.1112171E+005  0.1043930E+01  0.7957747E-01            NaN
         13   -1    0    0    0    0  0.00000000000E+00  0.00000000000E+00  0.74505805969E-08  0.10566000000E+00  0.10566000000E+00 0.  1.
     999900   -1    0    0    0    0 -0.00000000000E+00 -0.00000000000E+00 -0.74505805969E-08  0.93827000000E+00  0.93827000000E+00 0.  1.
     999902    2    1    2    0    0  0.22676884026E-01  0.67311899969E-02  0.20582672448E-02  0.10201858122E+01  0.10199094592E+01 0.  0.
     999903    2    3    3    0    0 -0.12021389526E+00 -0.20232321943E-01 -0.31197707311E-01  0.12763286389E+00  0.21357048915E-01 0.  0.
         14    1    1    2    0    0 -0.22676884026E-01 -0.67311899969E-02 -0.20582672448E-02  0.23744187751E-01  0.00000000000E+00 0. -1.
     999901    1    3    3    0    0  0.14289077929E+00  0.26963511940E-01  0.33255974556E-01  0.89255294836E+00  0.88000000000E+00 0. -1.
        -11    1    4    4    0    0 -0.11376750859E+00 -0.15398402983E-01 -0.25106462914E-01  0.11751915770E+00  0.51100000000E-03 0. -1.
         11    1    4    4    0    0 -0.64463866723E-02 -0.48339189604E-02 -0.60912443979E-02  0.10113706193E-01  0.51100000000E-03 0.  1.
</event>
<event>
 8    1  0.1112171E+005  0.1043930E+01  0.7957747E-01            NaN
         13   -1    0    0    0    0  0.00000000000E+00  0.00000000000E+00  0.74505805969E-08  0.10566000000E+00  0.10566000000E+00 0.  1.
     999900   -1    0    0    0    0 -0.00000000000E+00 -0.00000000000E+00 -0.74505805969E-08  0.93827000000E+00  0.93827000000E+00 0. -1.
     999902    2    1    2    0    0 -0.20060880566E-01 -0.12350154813E-01  0.59342931595E-02  0.10196363570E+01  0.10193469083E+01 0.  0.
     999903    2    3    3    0    0 -0.34636103684E-01 -0.10142502485E+00 -0.73195983980E-01  0.13148751233E+00  0.21085978342E-01 0.  0.
         14    1    1    2    0    0  0.20060880566E-01  0.12350154813E-01 -0.59342931595E-02  0.24293642960E-01  0.00000000000E+00 0.  1.
     999901    1    3    3    0    0  0.14575223118E-01  0.89074870040E-01  0.79130277140E-01  0.88814884471E+00  0.88000000000E+00 0.  1.
        -11    1    4    4    0    0 -0.77553758461E-02 -0.30388959415E-01 -0.10746419705E-01  0.33156920338E-01  0.51100000000E-03 0.  1.
         11    1    4    4    0    0 -0.26880727838E-01 -0.71036065438E-01 -0.62449564275E-01  0.98330591990E-01  0.51100000000E-03 0. -1.
</event>
<event>
 8    1  0.1112171E+005  0.1043930E+01  0.7957747E-01            NaN
         13   -1    0    0    0    0  0.00000000000E+00  0.00000000000E+00  0.74505805969E-08  0.10566000000E+00  0.10566000000E+00 0.  1.
     999900   -1    0    0    0    0 -0.00000000000E+00 -0.00000000000E+00 -0.74505805969E-08  0.93827000000E+00  0.93827000000E+00 0. -1.
     999902    2    1    2    0    0 -0.10831672388E-02 -0.81912406721E-02  0.21790431414E-01  0.10206256533E+01  0.10203595599E+01 0.  0.
     999903    2    3    3    0    0  0.85140493553E-01  0.97021808826E-02  0.99348717265E-01  0.13283627402E+00  0.20791154777E-01 0.  0.
         14    1    1    2    0    0  0.10831672388E-02  0.81912406721E-02 -0.21790431414E-01  0.23304346724E-01  0.00000000000E+00 0. -1.
     999901    1    3    3    0    0 -0.86223660792E-01 -0.17893421555E-01 -0.77558285851E-01  0.88778937926E+00  0.88000000000E+00 0. -1.
        -11    1    4    4    0    0  0.19171330981E-01  0.26066722541E-02  0.10728492739E-01  0.22129083787E-01  0.51100000000E-03 0. -1.
         11    1    4    4    0    0  0.65969162573E-01  0.70955086285E-02  0.88620224526E-01  0.11070719023E+00  0.51100000000E-03 0.  1.
</event>
<event>
 8    1  0.1112171E+005  0.1043930E+01  0.7957747E-01            NaN
         13   -1    0    0    0    0  0.00000000000E+00  0.00000000000E+00  0.74505805969E-08  0.10566000000E+00  0.10566000000E+00 0. -1.
     999900   -1    0    0    0    0 -0.00000000000E+00 -0.00000000000E+00 -0.74505805969E-08  0.93827000000E+00  0.93827000000E+00 0. -1.
     999902    2    1    2    0    0  0.19621573892E-01 -0.11434748779E-01 -0.64776526117E-02  0.10203139117E+01  0.10200405673E+01 0.  0.
     999903    2    3    3    0    0 -0.38163490423E-02 -0.41956769923E-01 -0.12315012982E+00  0.13177950219E+00  0.20614258651E-01 0.  0.
         14    1    1    2    0    0 -0.19621573892E-01  0.11434748779E-01  0.64776526117E-02  0.23616088266E-01  0.00000000000E+00 0.  1.
     999901    1    3    3    0    0  0.23437922935E-01  0.30522021144E-01  0.11667247721E+00  0.88853440954E+00  0.88000000000E+00 0.  1.
        -11    1    4    4    0    0 -0.88001377314E-02 -0.30866832136E-01 -0.66570259421E-01  0.73905779953E-01  0.51100000000E-03 0.  1.
         11    1    4    4    0    0  0.49837886891E-02 -0.11089937787E-01 -0.56579870401E-01  0.57873722236E-01  0.51100000000E-03 0. -1.
</event>
<event>
 8    1  0.1112171E+005  0.1043930E+01  0.7957747E-01            NaN
         13   -1    0    0    0    0  0.00000000000E+00  0.00000000000E+00  0.74505805969E-08  0.10566000000E+00  0.10566000000E+00 0.  1.
     999900   -1    0    0    0    0 -0.00000000000E+00 -0.00000000000E+00 -0.74505805969E-08  0.93827000000E+00  0.93827000000E+00 0.  1.
     999902    2    1    2    0    0  0.17077288200E-01  0.78844305720E-02 -0.15805501110E-01  0.10193614859E+01  0.10190653694E+01 0.  0.
     999903    2    3    3    0    0  0.34836433488E-01 -0.60897663240E-01 -0.11002718065E+00  0.13148531858E+00  0.16134002428E-01 0.  0.
         14    1    1    2    0    0 -0.17077288200E-01 -0.78844305720E-02  0.15805501110E-01  0.24568514059E-01  0.00000000000E+00 0.  1.
     999901    1    3    3    0    0 -0.17759145288E-01  0.68782093812E-01  0.94221679540E-01  0.88787616736E+00  0.88000000000E+00 0.  1.
        -11    1    4    4    0    0  0.67111627701E-02 -0.29276095525E-02 -0.84224764932E-02  0.11171832200E-01  0.51100000000E-03 0. -1.
         11    1    4    4    0    0  0.28125270718E-01 -0.57970053687E-01 -0.10160470416E+00  0.12031348638E+00  0.51100000000E-03 0.  1.
</event>
<event>
 8    1  0.1112171E+005  0.1043930E+01  0.7957747E-01            NaN
         13   -1    0    0    0    0  0.00000000000E+00  0.00000000000E+00  0.74505805969E-08  0.10566000000E+00  0.10566000000E+00 0. -1.
     999900   -1    0    0    0    0 -0.00000000000E+00 -0.00000000000E+00 -0.74505805969E-08  0.93827000000E+00  0.93827000000E+00 0. -1.
     999902    2    1    2    0    0  0.16460152096E-01 -0.26929528733E-01 -0.48582677377E-02  0.10119966492E+01  0.10114926985E+01 0.  0.
     999903    2    3    3    0    0 -0.67800200949E-02  0.10509194624E+00 -0.54153718412E-01  0.12048118841E+00  0.22199227623E-01 0.  0.
         14    1    1    2    0    0 -0.16460152096E-01  0.26929528733E-01  0.48582677377E-02  0.31933350751E-01  0.00000000000E+00 0.  1.
     999901    1    3    3    0    0  0.23240172191E-01 -0.13202147497E+00  0.49295450674E-01  0.89151546084E+00  0.88000000000E+00 0. -1.
        -11    1    4    4    0    0 -0.23504519663E-02  0.10131576149E+00 -0.53507544448E-01  0.11460247199E+00  0.51100000000E-03 0. -1.
         11    1    4    4    0    0 -0.44295681286E-02  0.37761847407E-02 -0.64617396411E-03  0.58787164240E-02  0.51100000000E-03 0.  1.
</event>
<event>
 8    1  0.1112171E+005  0.1043930E+01  0.7957747E-01            NaN
         13   -1    0    0    0    0  0.00000000000E+00  0.00000000000E+00  0.74505805969E-08  0.10566000000E+00  0.10566000000E+00 0.  1.
     999900   -1    0    0    0    0 -0.00000000000E+00 -0.00000000000E+00 -0.74505805969E-08  0.93827000000E+00  0.93827000000E+00 0.  1.
     999902    2    1    2    0    0 -0.76439642550E-02 -0.83251346318E-03  0.21792023613E-01  0.10208212233E+01  0.10205596280E+01 0.  0.
     999903    2    3    3    0    0  0.52899311733E-01 -0.10986902662E+00  0.48425161704E-01  0.13162845818E+00  0.10560043761E-01 0.  0.
         14    1    1    2    0    0  0.76439642550E-02  0.83251346318E-03 -0.21792023613E-01  0.23108776717E-01  0.00000000000E+00 0. -1.
     999901    1    3    3    0    0 -0.60543275988E-01  0.10903651316E+00 -0.26633138091E-01  0.88919276510E+00  0.88000000000E+00 0.  1.
        -11    1    4    4    0    0  0.14047629998E-01 -0.39231161589E-01  0.19094157216E-01  0.45839588883E-01  0.51100000000E-03 0. -1.
         11    1    4    4    0    0  0.38851681735E-01 -0.70637865031E-01  0.29331004488E-01  0.85788869296E-01  0.51100000000E-03 0.  1.
</event>
<event>
 8    1  0.1112171E+005  0.1043930E+01  0.7957747E-01            NaN
         13   -1    0    0    0    0  0.00000000000E+00  0.00000000000E+00  0.74505805969E-08  0.10566000000E+00  0.10566000000E+00 0. -1.
     999900   -1    0    0    0    0 -0.00000000000E+00 -0.00000000000E+00 -0.74505805969E-08  0.93827000000E+00  0.93827000000E+00 0.  1.
     999902    2    1    2    0    0  0.15708656559E-01 -0.17692727505E-01 -0.23199404565E-02  0.10201565564E+01  0.10198795139E+01 0.  0.
     999903    2    3    3    0    0  0.12846751205E+00 -0.23162368774E-01 -0.14596464018E-01  0.13285999407E+00  0.19958063140E-01 0.  0.
         14    1    1    2    0    0 -0.15708656559E-01  0.17692727505E-01  0.23199404565E-02  0.23773443612E-01  0.00000000000E+00 0. -1.
     999901    1    3    3    0    0 -0.11275885549E+00  0.54696412684E-02  0.12276523562E-01  0.88729656232E+00  0.88000000000E+00 0.  1.
        -11    1    4    4    0    0  0.77813264476E-01 -0.52689016639E-02 -0.39641368437E-02  0.78093795881E-01  0.51100000000E-03 0.  1.
         11    1    4    4    0    0  0.50654247570E-01 -0.17893467110E-01 -0.10632327174E-01  0.54766198191E-01  0.51100000000E-03 0. -1.
</event>
<event>
 8    1  0.1112171E+005  0.1043930E+01  0.7957747E-01            NaN
         13   -1    0    0    0    0  0.00000000000E+00  0.00000000000E+00  0.74505805969E-08  0.10566000000E+00  0.10566000000E+00 0.  1.
     999900   -1    0    0    0    0 -0.00000000000E+00 -0.00000000000E+00 -0.74505805969E-08  0.93827000000E+00  0.93827000000E+00 0.  1.
     999902    2    1    2    0    0 -0.20531330763E-01  0.82896985349E-02  0.39509420459E-02  0.10214385663E+01  0.10211909127E+01 0.  0.
     999903    2    3    3    0    0 -0.71260432825E-01  0.89490333919E-01  0.66707026258E-01  0.13402360643E+00  0.20638085584E-01 0.  0.
         14    1    1    2    0    0  0.20531330763E-01 -0.82896985349E-02 -0.39509420459E-02  0.22491433652E-01  0.00000000000E+00 0. -1.
     999901    1    3    3    0    0  0.50729102062E-01 -0.81200635384E-01 -0.62756084212E-01  0.88741495992E+00  0.88000000000E+00 0.  1.
        -11    1    4    4    0    0 -0.43377273107E-01  0.67567011605E-01  0.51749234587E-01  0.95525563494E-01  0.51100000000E-03 0. -1.
         11    1    4    4    0    0 -0.27883159718E-01  0.21923322313E-01  0.14957791671E-01  0.38498042935E-01  0.51100000000E-03 0.  1.
</event>
<event>
 8    1  0.1112171E+005  0.1043930E+01  0.7957747E-01            NaN
         13   -1    0    0    0    0  0.00000000000E+00  0.00000000000E+00  0.74505805969E-08  0.10566000000E+00  0.10566000000E+00 0.  1.
     999900   -1    0    0    0    0 -0.00000000000E+00 -0.00000000000E+00 -0.74505805969E-08  0.93827000000E+00  0.93827000000E+00 0. -1.
     999902    2    1    2    0    0 -0.39072442719E-02  0.12686884632E-01  0.19681245314E-01  0.10201902650E+01  0.10199140169E+01 0.  0.
     999903    2    3    3    0    0  0.56297809716E-01 -0.53383787322E-01  0.10447162292E+00  0.13160746621E+00  0.19670613568E-01 0.  0.
         14    1    1    2    0    0  0.39072442719E-02 -0.12686884632E-01 -0.19681245314E-01  0.23739734973E-01  0.00000000000E+00 0. -1.
     999901    1    3    3    0    0 -0.60205053988E-01  0.66070671954E-01 -0.84790377611E-01  0.88858279882E+00  0.88000000000E+00 0. -1.
        -11    1    4    4    0    0  0.18564374004E-02 -0.10660322702E-01  0.14269117488E-01  0.17915291648E-01  0.51100000000E-03 0.  1.
         11    1    4    4    0    0  0.54441372316E-01 -0.42723464620E-01  0.90202505436E-01  0.11369217456E+00  0.51100000000E-03 0. -1.
</event>
<event>
 8    1  0.1112171E+005  0.1043930E+01  0.7957747E-01            NaN
         13   -1    0    0    0    0  0.00000000000E+00  0.00000000000E+00  0.74505805969E-08  0.10566000000E+00  0.10566000000E+00 0. -1.
     999900   -1    0    0    0    0 -0.00000000000E+00 -0.00000000000E+00 -0.74505805969E-08  0.93827000000E+00  0.93827000000E+00 0. -1.
     999902    2    1    2    0    0 -0.13290371917E-01  0.40512355015E-02  0.81902590990E-02  0.10278015519E+01  0.10276749988E+01 0.  0.
     999903    2    3    3    0    0 -0.29646343201E-01 -0.57574509101E-01  0.12069968902E+00  0.13835024797E+00  0.19458839166E-01 0.  0.
         14    1    1    2    0    0  0.13290371917E-01 -0.40512355015E-02 -0.81902590990E-02  0.16128448124E-01  0.00000000000E+00 0.  1.
     999901    1    3    3    0    0  0.16355971284E-01  0.61625744602E-01 -0.11250942992E+00  0.88945130390E+00  0.88000000000E+00 0.  1.
        -11    1    4    4    0    0 -0.13263075622E-01 -0.41132919094E-01  0.90191363399E-01  0.10001284598E+00  0.51100000000E-03 0. -1.
         11    1    4    4    0    0 -0.16383267579E-01 -0.16441590006E-01  0.30508325619E-01  0.38337401993E-01  0.51100000000E-03 0.  1.
</event>
<event>
 8    1  0.1112171E+005  0.1043930E+01  0.7957747E-01            NaN
         13   -1    0    0    0    0  0.00000000000E+00  0.00000000000E+00  0.74505805969E-08  0.10566000000E+00  0.10566000000E+00 0.  1.
     999900   -1    0    0    0    0 -0.00000000000E+00 -0.00000000000E+00 -0.74505805969E-08  0.93827000000E+00  0.93827000000E+00 0.  1.
     999902    2    1    2    0    0  0.27634803557E-03  0.23980945073E-01  0.37251441568E-02  0.10196598786E+01  0.10193709968E+01 0.  0.
     999903    2    3    3    0    0 -0.98790253183E-01  0.15503179929E-01  0.81557269105E-01  0.13064699698E+00  0.20425155166E-01 0.  0.
         14    1    1    2    0    0 -0.27634803557E-03 -0.23980945073E-01 -0.37251441568E-02  0.24270121421E-01  0.00000000000E+00 0. -1.
     999901    1    3    3    0    0  0.99066601218E-01  0.84777651432E-02 -0.77832124948E-01  0.88901288160E+00  0.88000000000E+00 0.  1.
        -11    1    4    4    0    0 -0.26916801057E-01  0.85429379063E-02  0.13066069753E-01  0.31120399532E-01  0.51100000000E-03 0. -1.
         11    1    4    4    0    0 -0.71873452125E-01  0.69602420232E-02  0.68491199352E-01  0.99526597446E-01  0.51100000000E-03 0.  1.
</event>
<event>
 8    1  0.1112171E+005  0.1043930E+01  0.7957747E-01            NaN
         13   -1    0    0    0    0  0.00000000000E+00  0.00000000000E+00  0.74505805969E-08  0.10566000000E+00  0.10566000000E+00 0. -1.
     999900   -1    0    0    0    0 -0.00000000000E+00 -0.00000000000E+00 -0.74505805969E-08  0.93827000000E+00  0.93827000000E+00 0.  1.
     999902    2    1    2    0    0 -0.15450624323E-01  0.16394621095E-01 -0.71374675543E-02  0.10202984779E+01  0.10200247719E+01 0.  0.
     999903    2    3    3    0    0  0.41035213417E-02 -0.12595609946E+00 -0.18272201560E-01  0.12857538494E+00  0.17775780821E-01 0.  0.
         14    1    1    2    0    0  0.15450624323E-01 -0.16394621095E-01  0.71374675543E-02  0.23631522082E-01  0.00000000000E+00 0. -1.
     999901    1    3    3    0    0 -0.19554145664E-01  0.14235072055E+00  0.11134734006E-01  0.89172309298E+00  0.88000000000E+00 0. -1.
        -11    1    4    4    0    0  0.32421894298E-02 -0.10678176732E+00 -0.88794059203E-02  0.10720057181E+00  0.51100000000E-03 0. -1.
         11    1    4    4    0    0  0.86133191195E-03 -0.19174332134E-01 -0.93927956395E-02  0.21374813131E-01  0.51100000000E-03 0.  1.
</event>
<event>
 8    1  0.1499835E+005  0.1043930E+01  0.7957747E-01            NaN
         13   -1    0    0    0    0  0.00000000000E+00  0.00000000000E+00  0.74505805969E-08  0.10566000000E+00  0.10566000000E+00 0.  1.
     999900   -1    0    0    0    0 -0.00000000000E+00 -0.00000000000E+00 -0.74505805969E-08  0.93827000000E+00  0.93827000000E+00 0.  1.
     999902    2    1    2    0    0  0.10223264286E-01 -0.21294294604E-01 -0.71825604032E-03  0.10202978607E+01  0.10200241402E+01 0.  0.
     999903    2    3    3    0    0  0.10161194518E-01 -0.12484158966E+00 -0.40990662286E-01  0.13331200239E+00  0.20079422412E-01 0.  0.
         14    1    1    2    0    0 -0.10223264286E-01  0.21294294604E-01  0.71825604032E-03  0.23632139283E-01  0.00000000000E+00 0.  1.
     999901    1    3    3    0    0  0.62069767716E-04  0.10354729505E+00  0.40272406246E-01  0.88698585833E+00  0.88000000000E+00 0.  1.
        -11    1    4    4    0    0 -0.48754371190E-02 -0.62898660512E-01 -0.21583561148E-01  0.66679251751E-01  0.51100000000E-03 0. -1.
         11    1    4    4    0    0  0.15036631637E-01 -0.61942929146E-01 -0.19407101138E-01  0.66632750640E-01  0.51100000000E-03 0.  1.
</event>
<event>
 8    1  0.1112171E+005  0.1043930E+01  0.7957747E-01            NaN
         13   -1    0    0    0    0  0.00000000000E+00  0.00000000000E+00  0.74505805969E-08  0.10566000000E+00  0.10566000000E+00 0. -1.
     999900   -1    0    0    0    0 -0.00000000000E+00 -0.00000000000E+00 -0.74505805969E-08  0.93827000000E+00  0.93827000000E+00 0. -1.
     999902    2    1    2    0    0  0.18773588365E-01 -0.95648452200E-02 -0.10238135012E-01  0.10205045162E+01  0.10202356170E+01 0.  0.
     999903    2    3    3    0    0 -0.61108301120E-01  0.11118675906E+00 -0.50165120539E-02  0.12865849159E+00  0.20763482637E-01 0.  0.
         14    1    1    2    0    0 -0.18773588365E-01  0.95648452200E-02  0.10238135012E-01  0.23425483831E-01  0.00000000000E+00 0.  1.
     999901    1    3    3    0    0  0.79881889485E-01 -0.12075160428E+00 -0.52216229583E-02  0.89184602457E+00  0.88000000000E+00 0.  1.
        -11    1    4    4    0    0 -0.27748110324E-01  0.60324832283E-01 -0.11835217095E-01  0.67449065977E-01  0.51100000000E-03 0.  1.
         11    1    4    4    0    0 -0.33360190797E-01  0.50861926772E-01  0.68187050415E-02  0.61209425617E-01  0.51100000000E-03 0. -1.
</event>
<event>
 8    1  0.1112171E+005  0.1043930E+01  0.7957747E-01            NaN
         13   -1    0    0    0    0  0.00000000000E+00  0.00000000000E+00  0.74505805969E-08  0.10566000000E+00  0.10566000000E+00 0. -1.
     999900   -1    0    0    0    0 -0.00000000000E+00 -0.00000000000E+00 -0.74505805969E-08  0.93827000000E+00  0.93827000000E+00 0.  1.
     999902    2    1    2    0    0  0.21539895316E-01 -0.64885374568E-02  0.44734229828E-02  0.10209935722E+01  0.10207359084E+01 0.  0.
     999903    2    3    3    0    0 -0.11102481044E+00 -0.61612075821E-01  0.13838090089E-01  0.12930993842E+00  0.20174514036E-01 0.  0.
         14    1    1    2    0    0 -0.21539895316E-01  0.64885374568E-02 -0.44734229828E-02  0.22936427833E-01  0.00000000000E+00 0. -1.
     999901    1    3    3    0    0  0.13256470576E+00  0.55123538364E-01 -0.93646671059E-02  0.89168363374E+00  0.88000000000E+00 0.  1.
        -11    1    4    4    0    0 -0.53115323982E-01 -0.40383404502E-01  0.39516508361E-02  0.66842603677E-01  0.51100000000E-03 0.  1.
         11    1    4    4    0    0 -0.57909486463E-01 -0.21228671319E-01  0.98864392526E-02  0.62467334747E-01  0.51100000000E-03 0. -1.
</event>
<event>
 8    1  0.1112171E+005  0.1043930E+01  0.7957747E-01            NaN
         13   -1    0    0    0    0  0.00000000000E+00  0.00000000000E+00  0.74505805969E-08  0.10566000000E+00  0.10566000000E+00 0. -1.
     999900   -1    0    0    0    0 -0.00000000000E+00 -0.00000000000E+00 -0.74505805969E-08  0.93827000000E+00  0.93827000000E+00 0. -1.
     999902    2    1    2    0    0 -0.26329737587E-02  0.13525186970E-01  0.19734633091E-01  0.10198609540E+01  0.10195768958E+01 0.  0.
     999903    2    3    3    0    0  0.10441107077E+00  0.76384953598E-01  0.35712406269E-02  0.13100155396E+00  0.20305677663E-01 0.  0.
         14    1    1    2    0    0  0.26329737587E-02 -0.13525186970E-01 -0.19734633091E-01  0.24069046027E-01  0.00000000000E+00 0.  1.
     999901    1    3    3    0    0 -0.10704404453E+00 -0.62859766628E-01  0.16163392464E-01  0.88885940001E+00  0.88000000000E+00 0.  1.
        -11    1    4    4    0    0  0.82678227604E-01  0.52978362750E-01 -0.35964193018E-02  0.98262869855E-01  0.51100000000E-03 0.  1.
         11    1    4    4    0    0  0.21732843168E-01  0.23406590848E-01  0.71676599288E-02  0.32738684108E-01  0.51100000000E-03 0. -1.
</event>
<event>
 8    1  0.1112171E+005  0.1043930E+01  0.7957747E-01            NaN
         13   -1    0    0    0    0  0.00000000000E+00  0.00000000000E+00  0.74505805969E-08  0.10566000000E+00  0.10566000000E+00 0. -1.
     999900   -1    0    0    0    0 -0.00000000000E+00 -0.00000000000E+00 -0.74505805969E-08  0.93827000000E+00  0.93827000000E+00 0. -1.
     999902    2    1    2    0    0  0.22591995620E-01  0.74184499357E-02  0.71563764775E-03  0.10201404266E+01  0.10198630036E+01 0.  0.
     999903    2    3    3    0    0  0.96508716410E-01 -0.87720638145E-01 -0.19902791783E-02  0.13192736112E+00  0.19799613669E-01 0.  0.
         14    1    1    2    0    0 -0.22591995620E-01 -0.74184499357E-02 -0.71563764775E-03  0.23789573405E-01  0.00000000000E+00 0. -1.
     999901    1    3    3    0    0 -0.73916720789E-01  0.95139088081E-01  0.27059168261E-02  0.88821306547E+00  0.88000000000E+00 0. -1.
        -11    1    4    4    0    0  0.24157743492E-01 -0.34288668975E-01 -0.17357362435E-02  0.41983131040E-01  0.51100000000E-03 0.  1.
         11    1    4    4    0    0  0.72350972918E-01 -0.53431969171E-01 -0.25454293485E-03  0.89944230080E-01  0.51100000000E-03 0. -1.
</event>
<event>
 8    1  0.1112171E+005  0.1043930E+01  0.7957747E-01            NaN
         13   -1    0    0    0    0  0.00000000000E+00  0.00000000000E+00  0.74505805969E-08  0.10566000000E+00  0.10566000000E+00 0. -1.
     999900   -1    0    0    0    0 -0.00000000000E+00 -0.00000000000E+00 -0.74505805969E-08  0.93827000000E+00  0.93827000000E+00 0.  1.
     999902    2    1    2    0    0  0.34401679658E-02 -0.12309802679E-01 -0.19654877741E-01  0.10204847400E+01  0.10202153814E+01 0.  0.
     999903    2    3    3    0    0  0.11017048152E+00  0.52631280457E-01 -0.43643725336E-01  0.13133673830E+00  0.20904004033E-01 0.  0.
         14    1    1    2    0    0 -0.34401679658E-02  0.12309802679E-01  0.19654877741E-01  0.23445260004E-01  0.00000000000E+00 0. -1.
     999901    1    3    3    0    0 -0.10673031356E+00 -0.64941083136E-01  0.23988847594E-01  0.88914800170E+00  0.88000000000E+00 0.  1.
        -11    1    4    4    0    0  0.64643122900E-01  0.21195839237E-01 -0.18106666365E-01  0.70399640816E-01  0.51100000000E-03 0.  1.
         11    1    4    4    0    0  0.45527358623E-01  0.31435441221E-01 -0.25537058970E-01  0.60937097484E-01  0.51100000000E-03 0. -1.
</event>
<event>
 8    1  0.1112171E+005  0.1043930E+01  0.7957747E-01            NaN
         13   -1    0    0    0    0  0.00000000000E+00  0.00000000000E+00  0.74505805969E-08  0.10566000000E+00  0.10566000000E+00 0.  1.
     999900   -1    0    0    0    0 -0.00000000000E+00 -0.00000000000E+00 -0.74505805969E-08  0.93827000000E+00  0.93827000000E+00 0.  1.
     999902    2    1    2    0    0 -0.13371035710E-01  0.49143370569E-02  0.19366640288E-01  0.10198883266E+01  0.10196049218E+01 0.  0.
     999903    2    3    3    0    0 -0.57861368901E-02 -0.25958008248E-01 -0.12328887851E+00  0.12783382744E+00  0.20833681888E-01 0.  0.
         14    1    1    2    0    0  0.13371035710E-01 -0.49143370569E-02 -0.19366640288E-01  0.24041673417E-01  0.00000000000E+00 0. -1.
     999901    1    3    3    0    0 -0.75848988203E-02  0.30872345305E-01  0.14265551880E+00  0.89205449914E+00  0.88000000000E+00 0. -1.
        -11    1    4    4    0    0  0.54035896445E-02 -0.14872879031E-01 -0.39119822865E-01  0.42202167879E-01  0.51100000000E-03 0.  1.
         11    1    4    4    0    0 -0.11189726535E-01 -0.11085129217E-01 -0.84169055647E-01  0.85631659562E-01  0.51100000000E-03 0. -1.
</event>
<event>
 8    1  0.1112171E+005  0.1043930E+01  0.7957747E-01            NaN
         13   -1    0    0    0    0  0.00000000000E+00  0.00000000000E+00  0.74505805969E-08  0.10566000000E+00  0.10566000000E+00 0.  1.
     999900   -1    0    0    0    0 -0.00000000000E+00 -0.00000000000E+00 -0.74505805969E-08  0.93827000000E+00  0.93827000000E+00 0.  1.
     999902    2    1    2    0    0 -0.10177066068E-01 -0.15565237225E-01 -0.14816988674E-01  0.10201520178E+01  0.10198748683E+01 0.  0.
     999903    2    3    3    0    0 -0.49094132796E-02  0.52498664052E-01  0.11487638212E+00  0.12803049400E+00  0.20371847209E-01 0.  0.
         14    1    1    2    0    0  0.10177066068E-01  0.15565237225E-01  0.14816988674E-01  0.23777982189E-01  0.00000000000E+00 0.  1.
     999901    1    3    3    0    0 -0.52676527881E-02 -0.68063901276E-01 -0.12969337079E+00  0.89212152381E+00  0.88000000000E+00 0.  1.
        -11    1    4    4    0    0 -0.10788827053E-01  0.40333581358E-01  0.73891746696E-01  0.84873128404E-01  0.51100000000E-03 0. -1.
         11    1    4    4    0    0  0.58794137730E-02  0.12165082694E-01  0.40984635424E-01  0.43157365595E-01  0.51100000000E-03 0.  1.
</event>
<event>
 8    1  0.1112171E+005  0.1043930E+01  0.7957747E-01            NaN
         13   -1    0    0    0    0  0.00000000000E+00  0.00000000000E+00  0.74505805969E-08  0.10566000000E+00  0.10566000000E+00 0.  1.
     999900   -1    0    0    0    0 -0.00000000000E+00 -0.00000000000E+00 -0.74505805969E-08  0.93827000000E+00  0.93827000000E+00 0. -1.
     999902    2    1    2    0    0 -0.60934026240E-02 -0.20133008809E-01 -0.10444113411E-01  0.10204449600E+01  0.10201746759E+01 0.  0.
     999903    2    3    3    0    0  0.85890155081E-01  0.97441709946E-02 -0.96426319764E-01  0.13098076140E+00  0.19643245821E-01 0.  0.
         14    1    1    2    0    0  0.60934026240E-02  0.20133008809E-01  0.10444113411E-01  0.23485040008E-01  0.00000000000E+00 0. -1.
     999901    1    3    3    0    0 -0.91983557705E-01 -0.29877179803E-01  0.85982206353E-01  0.88946419859E+00  0.88000000000E+00 0. -1.
        -11    1    4    4    0    0  0.61131863013E-01  0.14327312213E-01 -0.75792069884E-01  0.98422942086E-01  0.51100000000E-03 0.  1.
         11    1    4    4    0    0  0.24758292069E-01 -0.45831412185E-02 -0.20634249880E-01  0.32557819317E-01  0.51100000000E-03 0. -1.
</event>
<event>
 8    1  0.1112171E+005  0.1043930E+01  0.7957747E-01            NaN
         13   -1    0    0    0    0  0.00000000000E+00  0.00000000000E+00  0.74505805969E-08  0.10566000000E+00  0.10566000000E+00 0. -1.
     999900   -1    0    0    0    0 -0.00000000000E+00 -0.00000000000E+00 -0.74505805969E-08  0.93827000000E+00  0.93827000000E+00 0.  1.
     999902    2    1    2    0    0  0.11826934476E-01 -0.19029366527E-01  0.77920325640E-02  0.10202085131E+01  0.10199326945E+01 0.  0.
     999903    2    3    3    0    0 -0.34507699038E-01 -0.12000987134E+00 -0.38077188693E-01  0.13203738878E+00  0.19769907000E-01 0.  0.
         14    1    1    2    0    0 -0.11826934476E-01  0.19029366527E-01 -0.77920325640E-02  0.23721486905E-01  0.00000000000E+00 0. -1.
     999901    1    3    3    0    0  0.46334633514E-01  0.10098050482E+00  0.45869221257E-01  0.88817112432E+00  0.88000000000E+00 0.  1.
        -11    1    4    4    0    0 -0.71929414825E-02 -0.40813008010E-01 -0.21297365937E-01  0.46596984310E-01  0.51100000000E-03 0.  1.
         11    1    4    4    0    0 -0.27314757555E-01 -0.79196863335E-01 -0.16779822756E-01  0.85440404465E-01  0.51100000000E-03 0. -1.
</event>
<event>
 8    1  0.1112171E+005  0.1043930E+01  0.7957747E-01            NaN
         13   -1    0    0    0    0  0.00000000000E+00  0.00000000000E+00  0.74505805969E-08  0.10566000000E+00  0.10566000000E+00 0. -1.
     999900   -1    0    0    0    0 -0.00000000000E+00 -0.00000000000E+00 -0.74505805969E-08  0.93827000000E+00  0.93827000000E+00 0.  1.
     999902    2    1    2    0    0  0.94978809828E-02  0.14308554949E-01 -0.15920921554E-01  0.10205116262E+01  0.10202428922E+01 0.  0.
     999903    2    3    3    0    0 -0.39293043848E-01 -0.62927454936E-02  0.12045280645E+00  0.12843384843E+00  0.20070697548E-01 0.  0.
         14    1    1    2    0    0 -0.94978809828E-02 -0.14308554949E-01  0.15920921554E-01  0.23418373791E-01  0.00000000000E+00 0. -1.
     999901    1    3    3    0    0  0.48790924831E-01  0.20601300442E-01 -0.13637372800E+00  0.89207777778E+00  0.88000000000E+00 0.  1.
        -11    1    4    4    0    0 -0.39317440943E-02  0.59434344281E-02  0.19786295317E-01  0.21036673401E-01  0.51100000000E-03 0.  1.
         11    1    4    4    0    0 -0.35361299754E-01 -0.12236179922E-01  0.10066651113E+00  0.10739717502E+00  0.51100000000E-03 0. -1.
</event>
<event>
 8    1  0.1112171E+005  0.1043930E+01  0.7957747E-01            NaN
         13   -1    0    0    0    0  0.00000000000E+00  0.00000000000E+00  0.74505805969E-08  0.10566000000E+00  0.10566000000E+00 0. -1.
     999900   -1    0    0    0    0 -0.00000000000E+00 -0.00000000000E+00 -0.74505805969E-08  0.93827000000E+00  0.93827000000E+00 0. -1.
     999902    2    1    2    0    0  0.18901766138E-01  0.89310746216E-02 -0.98079975318E-02  0.10208380604E+01  0.10205768506E+01 0.  0.
     999903    2    3    3    0    0 -0.11519177792E+00  0.34749788609E-01  0.41676635649E-01  0.12881880504E+00  0.19510229769E-01 0.  0.
         14    1    1    2    0    0 -0.18901766138E-01 -0.89310746216E-02  0.98079975318E-02  0.23091939559E-01  0.00000000000E+00 0. -1.
     999901    1    3    3    0    0  0.13409354405E+00 -0.25818713988E-01 -0.51484633181E-01  0.89201925540E+00  0.88000000000E+00 0. -1.
        -11    1    4    4    0    0 -0.27769293174E-01  0.13426388740E-02  0.47569327938E-02  0.28210385554E-01  0.51100000000E-03 0.  1.
         11    1    4    4    0    0 -0.87422484742E-01  0.33407149735E-01  0.36919702855E-01  0.10060841949E+00  0.51100000000E-03 0. -1.
</event>
<event>
 8    1  0.1112171E+005  0.1043930E+01  0.7957747E-01            NaN
         13   -1    0    0    0    0  0.00000000000E+00  0.00000000000E+00  0.74505805969E-08  0.10566000000E+00  0.10566000000E+00 0.  1.
     999900   -1    0    0    0    0 -0.00000000000E+00 -0.00000000000E+00 -0.74505805969E-08  0.93827000000E+00  0.93827000000E+00 0.  1.
     999902    2    1    2    0    0  0.57682104108E-03  0.55693490331E-02  0.22470648741E-01  0.10207722707E+01  0.10205095532E+01 0.  0.
     999903    2    3    3    0    0 -0.10372529175E+00 -0.31788598479E-01  0.73272566168E-01  0.13237180820E+00  0.19595293063E-01 0.  0.
         14    1    1    2    0    0 -0.57682104108E-03 -0.55693490331E-02 -0.22470648741E-01  0.23157729293E-01  0.00000000000E+00 0. -1.
     999901    1    3    3    0    0  0.10430211279E+00  0.37357947512E-01 -0.50801917426E-01  0.88840046251E+00  0.88000000000E+00 0. -1.
        -11    1    4    4    0    0 -0.84298088218E-02  0.15943042013E-02  0.10109418833E-01  0.13268946936E-01  0.51100000000E-03 0. -1.
         11    1    4    4    0    0 -0.95295482929E-01 -0.33382902680E-01  0.63163147335E-01  0.11910286126E+00  0.51100000000E-03 0.  1.
</event>
<event>
 8    1  0.1112171E+005  0.1043930E+01  0.7957747E-01            NaN
         13   -1    0    0    0    0  0.00000000000E+00  0.00000000000E+00  0.74505805969E-08  0.10566000000E+00  0.10566000000E+00 0. -1.
     999900   -1    0    0    0    0 -0.00000000000E+00 -0.00000000000E+00 -0.74505805969E-08  0.93827000000E+00  0.93827000000E+00 0. -1.
     999902    2    1    2    0    0 -0.32774516240E-02  0.82158361830E-02 -0.21670598200E-01  0.10205236658E+01  0.10202552112E+01 0.  0.
     999903    2    3    3    0    0  0.74095472985E-01 -0.88816693917E-01 -0.58156831632E-01  0.13106701899E+00  0.20440209555E-01 0.  0.
         14    1    1    2    0    0  0.32774516240E-02 -0.82158361830E-02  0.21670598200E-01  0.23406334179E-01  0.00000000000E+00 0. -1.
     999901    1    3    3    0    0 -0.77372924609E-01  0.97032530100E-01  0.36486233432E-01  0.88945664683E+00  0.88000000000E+00 0. -1.
        -11    1    4    4    0    0  0.60258620126E-02 -0.47516805659E-02 -0.10119919752E-01  0.12710758356E-01  0.51100000000E-03 0. -1.
         11    1    4    4    0    0  0.68069610973E-01 -0.84065013351E-01 -0.48036911879E-01  0.11835626064E+00  0.51100000000E-03 0.  1.
</event>
<event>
 8    1  0.1112171E+005  0.1043930E+01  0.7957747E-01            NaN
         13   -1    0    0    0    0  0.00000000000E+00  0.00000000000E+00  0.74505805969E-08  0.10566000000E+00  0.10566000000E+00 0. -1.
     999900   -1    0    0    0    0 -0.00000000000E+00 -0.00000000000E+00 -0.74505805969E-08  0.93827000000E+00  0.93827000000E+00 0.  1.
     999902    2    1    2    0    0 -0.49450695162E-02  0.24456293555E-01 -0.72156848840E-03  0.10189683360E+01  0.10186625472E+01 0.  0.
     999903    2    3    3    0    0 -0.71263466082E-02 -0.12455234137E+00  0.41808939781E-02  0.12642569537E+00  0.20047593831E-01 0.  0.
         14    1    1    2    0    0  0.49450695162E-02 -0.24456293555E-01  0.72156848840E-03  0.24961663968E-01  0.00000000000E+00 0.  1.
     999901    1    3    3    0    0  0.21812770920E-02  0.14900863493E+00 -0.49024624665E-02  0.89254264066E+00  0.88000000000E+00 0.  1.
        -11    1    4    4    0    0  0.30671066929E-02 -0.35901586903E-01 -0.62772257147E-02  0.36578624486E-01  0.51100000000E-03 0.  1.
         11    1    4    4    0    0 -0.10193453301E-01 -0.88650754472E-01  0.10458119693E-01  0.89847070888E-01  0.51100000000E-03 0. -1.
</event>
<event>
 8    1  0.1112171E+005  0.1043930E+01  0.7957747E-01            NaN
         13   -1    0    0    0    0  0.00000000000E+00  0.00000000000E+00  0.74505805969E-08  0.10566000000E+00  0.10566000000E+00 0.  1.
     999900   -1    0    0    0    0 -0.00000000000E+00 -0.00000000000E+00 -0.74505805969E-08  0.93827000000E+00  0.93827000000E+00 0.  1.
     999902    2    1    2    0    0 -0.99827230898E-02 -0.68441140256E-02  0.20132682852E-01  0.10204391172E+01  0.10201686970E+01 0.  0.
     999903    2    3    3    0    0  0.41450384402E-01  0.78011485819E-01 -0.90045153272E-01  0.12803506466E+00  0.21929930875E-01 0.  0.
         14    1    1    2    0    0  0.99827230898E-02  0.68441140256E-02 -0.20132682852E-01  0.23490882825E-01  0.00000000000E+00 0. -1.
     999901    1    3    3    0    0 -0.51433107492E-01 -0.84855599844E-01  0.11017783612E+00  0.89240405251E+00  0.88000000000E+00 0. -1.
        -11    1    4    4    0    0  0.28892308429E-01  0.44280606402E-01 -0.39584080365E-01  0.66050723910E-01  0.51100000000E-03 0.  1.
         11    1    4    4    0    0  0.12558075973E-01  0.33730879416E-01 -0.50461072907E-01  0.61984340750E-01  0.51100000000E-03 0. -1.
</event>
<event>
 8    1  0.1112171E+005  0.1043930E+01  0.7957747E-01            NaN
         13   -1    0    0    0    0  0.00000000000E+00  0.00000000000E+00  0.74505805969E-08  0.10566000000E+00  0.10566000000E+00 0.  1.
     999900   -1    0    0    0    0 -0.00000000000E+00 -0.00000000000E+00 -0.74505805969E-08  0.93827000000E+00  0.93827000000E+00 0. -1.
     999902    2    1    2    0    0 -0.14362869856E-02  0.96986014634E-02  0.21192110935E-01  0.10205798104E+01  0.10203126570E+01 0.  0.
     999903    2    3    3    0    0 -0.26417953713E-01 -0.12502874939E+00  0.12100521045E-01  0.12992937402E+00  0.20127671738E-01 0.  0.
         14    1    1    2    0    0  0.14362869856E-02 -0.96986014634E-02 -0.21192110935E-01  0.23350189647E-01  0.00000000000E+00 0. -1.
     999901    1    3    3    0    0  0.24981666727E-01  0.13472735086E+00  0.90915898904E-02  0.89065043634E+00  0.88000000000E+00 0.  1.
        -11    1    4    4    0    0 -0.21087451292E-01 -0.94277213555E-01  0.44273369695E-03  0.96609164843E-01  0.51100000000E-03 0. -1.
         11    1    4    4    0    0 -0.53305024205E-02 -0.30751535838E-01  0.11657787348E-01  0.33320209173E-01  0.51100000000E-03 0.  1.
</event>
<event>
 8    1  0.1112171E+005  0.1043930E+01  0.7957747E-01            NaN
         13   -1    0    0    0    0  0.00000000000E+00  0.00000000000E+00  0.74505805969E-08  0.10566000000E+00  0.10566000000E+00 0.  1.
     999900   -1    0    0    0    0 -0.00000000000E+00 -0.00000000000E+00 -0.74505805969E-08  0.93827000000E+00  0.93827000000E+00 0. -1.
     999902    2    1    2    0    0 -0.81990685611E-04 -0.15890499848E-01 -0.20018229468E-01  0.10183713573E+01  0.10180505769E+01 0.  0.
     999903    2    3    3    0    0 -0.11336787180E+00 -0.51457894335E-01  0.27569219354E-01  0.12912263182E+00  0.20307706542E-01 0.  0.
         14    1    1    2    0    0  0.81990685611E-04  0.15890499848E-01  0.20018229468E-01  0.25558642744E-01  0.00000000000E+00 0.  1.
     999901    1    3    3    0    0  0.11328588112E+00  0.35567394487E-01 -0.47587448822E-01  0.88924872544E+00  0.88000000000E+00 0. -1.
        -11    1    4    4    0    0 -0.73215486252E-01 -0.32225723482E-01  0.76948853438E-02  0.80364650578E-01  0.51100000000E-03 0.  1.
         11    1    4    4    0    0 -0.40152385550E-01 -0.19232170853E-01  0.19874334010E-01  0.48757981238E-01  0.51100000000E-03 0. -1.
</event>
<event>
 8    1  0.1112171E+005  0.1043930E+01  0.7957747E-01            NaN
         13   -1    0    0    0    0  0.00000000000E+00  0.00000000000E+00  0.74505805969E-08  0.10566000000E+00  0.10566000000E+00 0. -1.
     999900   -1    0    0    0    0 -0.00000000000E+00 -0.00000000000E+00 -0.74505805969E-08  0.93827000000E+00  0.93827000000E+00 0. -1.
     999902    2    1    2    0    0  0.21649690890E-01 -0.28169030524E-02 -0.10262192009E-01  0.10198062225E+01  0.10195208555E+01 0.  0.
     999903    2    3    3    0    0 -0.83972058169E-01  0.82747728524E-01 -0.47058762102E-01  0.12860969664E+00  0.20674473377E-01 0.  0.
         14    1    1    2    0    0 -0.21649690890E-01  0.28169030524E-02  0.10262192009E-01  0.24123777549E-01  0.00000000000E+00 0. -1.
     999901    1    3    3    0    0  0.10562174906E+00 -0.85564631576E-01  0.36796570093E-01  0.89119652581E+00  0.88000000000E+00 0.  1.
        -11    1    4    4    0    0 -0.37021432168E-01  0.46139081079E-01 -0.15182266124E-01  0.61075065029E-01  0.51100000000E-03 0. -1.
         11    1    4    4    0    0 -0.46950626001E-01  0.36608647445E-01 -0.31876495978E-01  0.67534631608E-01  0.51100000000E-03 0.  1.
</event>
<event>
 8    1  0.1112171E+005  0.1043930E+01  0.7957747E-01            NaN
         13   -1    0    0    0    0  0.00000000000E+00  0.00000000000E+00  0.74505805969E-08  0.10566000000E+00  0.10566000000E+00 0. -1.
     999900   -1    0    0    0    0 -0.00000000000E+00 -0.00000000000E+00 -0.74505805969E-08  0.93827000000E+00  0.93827000000E+00 0.  1.
     999902    2    1    2    0    0 -0.15039189361E-01  0.17214420902E-01  0.23856986316E-01  0.10108895808E+01  0.10103494818E+01 0.  0.
     999903    2    3    3    0    0  0.45653402453E-01  0.54627281862E-01  0.10074608641E+00  0.12466430101E+00  0.17973339696E-01 0.  0.
         14    1    1    2    0    0  0.15039189361E-01 -0.17214420902E-01 -0.23856986316E-01  0.33040419182E-01  0.00000000000E+00 0.  1.
     999901    1    3    3    0    0 -0.60692591813E-01 -0.37412860960E-01 -0.76889100091E-01  0.88622527981E+00  0.88000000000E+00 0.  1.
        -11    1    4    4    0    0  0.93218070677E-02  0.27041214585E-02  0.17777380575E-01  0.20260916588E-01  0.51100000000E-03 0.  1.
         11    1    4    4    0    0  0.36331595385E-01  0.51923160403E-01  0.82968705832E-01  0.10440338442E+00  0.51100000000E-03 0. -1.
</event>
<event>
 8    1  0.1112171E+005  0.1043930E+01  0.7957747E-01            NaN
         13   -1    0    0    0    0  0.00000000000E+00  0.00000000000E+00  0.74505805969E-08  0.10566000000E+00  0.10566000000E+00 0.  1.
     999900   -1    0    0    0    0 -0.00000000000E+00 -0.00000000000E+00 -0.74505805969E-08  0.93827000000E+00  0.93827000000E+00 0. -1.
     999902    2    1    2    0    0  0.21586466432E-01 -0.84359670502E-04 -0.10179364560E-01  0.10200636615E+01  0.10197844240E+01 0.  0.
     999903    2    3    3    0    0  0.88518244655E-01  0.67517525038E-01  0.67001312623E-01  0.13157802028E+00  0.20724471152E-01 0.  0.
         14    1    1    2    0    0 -0.21586466432E-01  0.84359670502E-04  0.10179364560E-01  0.23866338479E-01  0.00000000000E+00 0.  1.
     999901    1    3    3    0    0 -0.66931778224E-01 -0.67601884709E-01 -0.77180677184E-01  0.88848564124E+00  0.88000000000E+00 0. -1.
        -11    1    4    4    0    0  0.42174911605E-01  0.37964595427E-01  0.44786482108E-01  0.72291934374E-01  0.51100000000E-03 0.  1.
         11    1    4    4    0    0  0.46343333050E-01  0.29552929611E-01  0.22214830515E-01  0.59286085911E-01  0.51100000000E-03 0. -1.
</event>
<event>
 8    1  0.1112171E+005  0.1043930E+01  0.7957747E-01            NaN
         13   -1    0    0    0    0  0.00000000000E+00  0.00000000000E+00  0.74505805969E-08  0.10566000000E+00  0.10566000000E+00 0.  1.
     999900   -1    0    0    0    0 -0.00000000000E+00 -0.00000000000E+00 -0.74505805969E-08  0.93827000000E+00  0.93827000000E+00 0.  1.
     999902    2    1    2    0    0  0.10170602995E-03 -0.23020730588E-01 -0.51258639103E-02  0.10203452833E+01  0.10200726730E+01 0.  0.
     999903    2    3    3    0    0  0.62346346480E-01 -0.25619279232E-01 -0.11139778354E+00  0.13176502884E+00  0.20227265257E-01 0.  0.
         14    1    1    2    0    0 -0.10170602995E-03  0.23020730588E-01  0.51258639103E-02  0.23584716698E-01  0.00000000000E+00 0.  1.
     999901    1    3    3    0    0 -0.62244640450E-01  0.25985486439E-02  0.10627191963E+00  0.88858025446E+00  0.88000000000E+00 0. -1.
        -11    1    4    4    0    0  0.57310465422E-01 -0.19889334335E-01 -0.86019499024E-01  0.10526010831E+00  0.51100000000E-03 0. -1.
         11    1    4    4    0    0  0.50358810577E-02 -0.57299448973E-02 -0.25378284515E-01  0.26504920533E-01  0.51100000000E-03 0.  1.
</event>
<event>
 8    1  0.1112171E+005  0.1043930E+01  0.7957747E-01            NaN
         13   -1    0    0    0    0  0.00000000000E+00  0.00000000000E+00  0.74505805969E-08  0.10566000000E+00  0.10566000000E+00 0. -1.
     999900   -1    0    0    0    0 -0.00000000000E+00 -0.00000000000E+00 -0.74505805969E-08  0.93827000000E+00  0.93827000000E+00 0.  1.
     999902    2    1    2    0    0  0.18626350566E-01 -0.11870632165E-01 -0.61392858722E-02  0.10210052606E+01  0.10207478624E+01 0.  0.
     999903    2    3    3    0    0  0.92369539144E-01 -0.49274637438E-02 -0.94210884087E-01  0.13351279766E+00  0.19838467620E-01 0.  0.
         14    1    1    2    0    0 -0.18626350566E-01  0.11870632165E-01  0.61392858722E-02  0.22924739353E-01  0.00000000000E+00 0. -1.
     999901    1    3    3    0    0 -0.73743188578E-01 -0.69431684213E-02  0.88071598214E-01  0.88749246299E+00  0.88000000000E+00 0. -1.
        -11    1    4    4    0    0  0.62991209083E-01 -0.93204604107E-02 -0.73759191847E-01  0.97444563250E-01  0.51100000000E-03 0. -1.
         11    1    4    4    0    0  0.29378330061E-01  0.43929966669E-02 -0.20451692240E-01  0.36068234408E-01  0.51100000000E-03 0.  1.
</event>
<event>
 8    1  0.1112171E+005  0.1043930E+01  0.7957747E-01            NaN
         13   -1    0    0    0    0  0.00000000000E+00  0.00000000000E+00  0.74505805969E-08  0.10566000000E+00  0.10566000000E+00 0.  1.
     999900   -1    0    0    0    0 -0.00000000000E+00 -0.00000000000E+00 -0.74505805969E-08  0.93827000000E+00  0.93827000000E+00 0. -1.
     999902    2    1    2    0    0  0.98244180408E-02 -0.13006736958E-01 -0.16173863843E-01  0.10209672417E+01  0.10207089793E+01 0.  0.
     999903    2    3    3    0    0 -0.11223561784E-01 -0.73672386032E-01  0.10488221669E+00  0.13036187846E+00  0.20984546128E-01 0.  0.
         14    1    1    2    0    0 -0.98244180408E-02  0.13006736958E-01  0.16173863843E-01  0.22962758278E-01  0.00000000000E+00 0.  1.
     999901    1    3    3    0    0  0.21047979825E-01  0.60665649074E-01 -0.12105608053E+00  0.89060536326E+00  0.88000000000E+00 0. -1.
        -11    1    4    4    0    0 -0.86714961066E-02 -0.13852658654E-01  0.13985565111E-01  0.21516229897E-01  0.51100000000E-03 0. -1.
         11    1    4    4    0    0 -0.25520656776E-02 -0.59819727378E-01  0.90896651577E-01  0.10884564857E+00  0.51100000000E-03 0.  1.
</event>
<event>
 8    1  0.1112171E+005  0.1043930E+01  0.7957747E-01            NaN
         13   -1    0    0    0    0  0.00000000000E+00  0.00000000000E+00  0.74505805969E-08  0.10566000000E+00  0.10566000000E+00 0. -1.
     999900   -1    0    0    0    0 -0.00000000000E+00 -0.00000000000E+00 -0.74505805969E-08  0.93827000000E+00  0.93827000000E+00 0.  1.
     999902    2    1    2    0    0  0.11148540948E-01  0.20403838861E-01 -0.81935001545E-03  0.10206646193E+01  0.10203994253E+01 0.  0.
     999903    2    3    3    0    0 -0.19610950903E-01  0.12959654578E+00 -0.13504365904E-01  0.13329203507E+00  0.20113295167E-01 0.  0.
         14    1    1    2    0    0 -0.11148540948E-01 -0.20403838861E-01  0.81935001545E-03  0.23265380718E-01  0.00000000000E+00 0.  1.
     999901    1    3    3    0    0  0.30759491850E-01 -0.10919270691E+00  0.12685015889E-01  0.88737258421E+00  0.88000000000E+00 0.  1.
        -11    1    4    4    0    0 -0.57596043910E-02  0.86680584099E-02  0.19307465506E-02  0.10597036500E-01  0.51100000000E-03 0. -1.
         11    1    4    4    0    0 -0.13851346512E-01  0.12092848737E+00 -0.15435112455E-01  0.12269499857E+00  0.51100000000E-03 0.  1.
</event>
<event>
 8    1  0.1112171E+005  0.1043930E+01  0.7957747E-01            NaN
         13   -1    0    0    0    0  0.00000000000E+00  0.00000000000E+00  0.74505805969E-08  0.10566000000E+00  0.10566000000E+00 0.  1.
     999900   -1    0    0    0    0 -0.00000000000E+00 -0.00000000000E+00 -0.74505805969E-08  0.93827000000E+00  0.93827000000E+00 0.  1.
     999902    2    1    2    0    0  0.19916450309E-01 -0.69054881687E-02  0.12027854594E-01  0.10196602648E+01  0.10193713924E+01 0.  0.
     999903    2    3    3    0    0  0.92970441397E-01 -0.91786779081E-01 -0.74572080312E-02  0.13234894018E+00  0.19806974224E-01 0.  0.
         14    1    1    2    0    0 -0.19916450309E-01  0.69054881687E-02 -0.12027854594E-01  0.24269735184E-01  0.00000000000E+00 0. -1.
     999901    1    3    3    0    0 -0.73053991088E-01  0.84881290912E-01  0.19485062625E-01  0.88731132464E+00  0.88000000000E+00 0. -1.
        -11    1    4    4    0    0  0.40997123607E-02 -0.11113158040E-01 -0.30438076466E-02  0.12240743812E-01  0.51100000000E-03 0. -1.
         11    1    4    4    0    0  0.88870729036E-01 -0.80673621040E-01 -0.44134003846E-02  0.12010819637E+00  0.51100000000E-03 0.  1.
</event>
<event>
 8    1  0.1112171E+005  0.1043930E+01  0.7957747E-01            NaN
         13   -1    0    0    0    0  0.00000000000E+00  0.00000000000E+00  0.74505805969E-08  0.10566000000E+00  0.10566000000E+00 0. -1.
     999900   -1    0    0    0    0 -0.00000000000E+00 -0.00000000000E+00 -0.74505805969E-08  0.93827000000E+00  0.93827000000E+00 0.  1.
     999902    2    1    2    0    0 -0.66971848951E-03 -0.34718968101E-02 -0.23333569143E-01  0.10203300415E+01  0.10200570747E+01 0.  0.
     999903    2    3    3    0    0 -0.24386114267E-02  0.45927375715E-01  0.11750183006E+00  0.12776182186E+00  0.20028289812E-01 0.  0.
         14    1    1    2    0    0  0.66971848951E-03  0.34718968101E-02  0.23333569143E-01  0.23599958459E-01  0.00000000000E+00 0. -1.
     999901    1    3    3    0    0  0.17688929372E-02 -0.49399272526E-01 -0.14083539920E+00  0.89256821968E+00  0.88000000000E+00 0.  1.
        -11    1    4    4    0    0 -0.98405888492E-02  0.31432764528E-01  0.66288428138E-01  0.74022109541E-01  0.51100000000E-03 0. -1.
         11    1    4    4    0    0  0.74019774225E-02  0.14494611187E-01  0.51213401921E-01  0.53739712323E-01  0.51100000000E-03 0.  1.
</event>
<event>
 8    1  0.1112171E+005  0.1043930E+01  0.7957747E-01            NaN
         13   -1    0    0    0    0  0.00000000000E+00  0.00000000000E+00  0.74505805969E-08  0.10566000000E+00  0.10566000000E+00 0.  1.
     999900   -1    0    0    0    0 -0.00000000000E+00 -0.00000000000E+00 -0.74505805969E-08  0.93827000000E+00  0.93827000000E+00 0.  1.
     999902    2    1    2    0    0 -0.22752152973E-01  0.61198174307E-02 -0.14728837863E-02  0.10203231786E+01  0.10200500511E+01 0.  0.
     999903    2    3    3    0    0  0.27891521682E-01  0.10413479167E+00 -0.69561033501E-01  0.13082460463E+00  0.25580226253E-01 0.  0.
         14    1    1    2    0    0  0.22752152973E-01 -0.61198174307E-02  0.14728837863E-02  0.23606821407E-01  0.00000000000E+00 0.  1.
     999901    1    3    3    0    0 -0.50643674655E-01 -0.98014974242E-01  0.68088149715E-01  0.88949857397E+00  0.88000000000E+00 0. -1.
        -11    1    4    4    0    0  0.18386833649E-01  0.87134835200E-01 -0.45943681984E-01  0.10020797469E+00  0.51100000000E-03 0.  1.
         11    1    4    4    0    0  0.95046880337E-02  0.16999956473E-01 -0.23617351517E-01  0.30616629932E-01  0.51100000000E-03 0. -1.
</event>
<event>
 8    1  0.1112171E+005  0.1043930E+01  0.7957747E-01            NaN
         13   -1    0    0    0    0  0.00000000000E+00  0.00000000000E+00  0.74505805969E-08  0.10566000000E+00  0.10566000000E+00 0.  1.
     999900   -1    0    0    0    0 -0.00000000000E+00 -0.00000000000E+00 -0.74505805969E-08  0.93827000000E+00  0.93827000000E+00 0.  1.
     999902    2    1    2    0    0  0.17606698275E-01 -0.89311036463E-02 -0.13102603954E-01  0.10202353030E+01  0.10199601143E+01 0.  0.
     999903    2    3    3    0    0 -0.48548766564E-01  0.10543413349E+00 -0.53592452719E-01  0.12945172610E+00  0.20304166089E-01 0.  0.
         14    1    1    2    0    0 -0.17606698275E-01  0.89311036463E-02  0.13102603954E-01  0.23694697020E-01  0.00000000000E+00 0.  1.
     999901    1    3    3    0    0  0.66155464839E-01 -0.11436523714E+00  0.40489848765E-01  0.89078357688E+00  0.88000000000E+00 0.  1.
        -11    1    4    4    0    0 -0.13917655048E-01  0.29316829411E-01 -0.25355102184E-01  0.41186404753E-01  0.51100000000E-03 0.  1.
         11    1    4    4    0    0 -0.34631111516E-01  0.76117304082E-01 -0.28237350535E-01  0.88265321343E-01  0.51100000000E-03 0. -1.
</event>
<event>
 8    1  0.1112171E+005  0.1043930E+01  0.7957747E-01            NaN
         13   -1    0    0    0    0  0.00000000000E+00  0.00000000000E+00  0.74505805969E-08  0.10566000000E+00  0.10566000000E+00 0. -1.
     999900   -1    0    0    0    0 -0.00000000000E+00 -0.00000000000E+00 -0.74505805969E-08  0.93827000000E+00  0.93827000000E+00 0.  1.
     999902    2    1    2    0    0 -0.70877370859E-02  0.20602342449E-01 -0.47083682528E-02  0.10216396150E+01  0.10213964175E+01 0.  0.
     999903    2    3    3    0    0 -0.76212416054E-01 -0.18608770504E-01 -0.10368438843E+00  0.13253220576E+00  0.25684907203E-01 0.  0.
         14    1    1    2    0    0  0.70877370859E-02 -0.20602342449E-01  0.47083682528E-02  0.22290384989E-01  0.00000000000E+00 0.  1.
     999901    1    3    3    0    0  0.69124678968E-01  0.39211112953E-01  0.98976020177E-01  0.88910740925E+00  0.88000000000E+00 0. -1.
        -11    1    4    4    0    0 -0.16859356752E-01 -0.10418617671E-01 -0.12545143482E-01  0.23461186037E-01  0.51100000000E-03 0. -1.
         11    1    4    4    0    0 -0.59353059302E-01 -0.81901528325E-02 -0.91139244948E-01  0.10907101972E+00  0.51100000000E-03 0.  1.
</event>
<event>
 8    1  0.1112171E+005  0.1043930E+01  0.7957747E-01            NaN
         13   -1    0    0    0    0  0.00000000000E+00  0.00000000000E+00  0.74505805969E-08  0.10566000000E+00  0.10566000000E+00 0. -1.
     999900   -1    0    0    0    0 -0.00000000000E+00 -0.00000000000E+00 -0.74505805969E-08  0.93827000000E+00  0.93827000000E+00 0. -1.
     999902    2    1    2    0    0  0.24238980174E-01  0.36023718414E-02  0.52297330389E-02  0.10188729581E+01  0.10185647988E+01 0.  0.
     999903    2    3    3    0    0  0.94139588360E-01 -0.48232534066E-01  0.75798822036E-01  0.13176927257E+00  0.20713288813E-01 0.  0.
         14    1    1    2    0    0 -0.24238980174E-01 -0.36023718414E-02 -0.52297330389E-02  0.25057041932E-01  0.00000000000E+00 0. -1.
     999901    1    3    3    0    0 -0.69900608186E-01  0.51834905908E-01 -0.70569088998E-01  0.88710368549E+00  0.88000000000E+00 0. -1.
        -11    1    4    4    0    0  0.36741910893E-01 -0.80497393654E-02  0.23776728063E-01  0.44501238615E-01  0.51100000000E-03 0. -1.
         11    1    4    4    0    0  0.57397677467E-01 -0.40182794701E-01  0.52022093974E-01  0.87268033959E-01  0.51100000000E-03 0.  1.
</event>
<event>
 8    1  0.1112171E+005  0.1043930E+01  0.7957747E-01            NaN
         13   -1    0    0    0    0  0.00000000000E+00  0.00000000000E+00  0.74505805969E-08  0.10566000000E+00  0.10566000000E+00 0. -1.
     999900   -1    0    0    0    0 -0.00000000000E+00 -0.00000000000E+00 -0.74505805969E-08  0.93827000000E+00  0.93827000000E+00 0.  1.
     999902    2    1    2    0    0  0.81924705052E-02  0.49393464662E-03 -0.22490221250E-01  0.10199890185E+01  0.10197080108E+01 0.  0.
     999903    2    3    3    0    0 -0.11617597181E+00 -0.53249045652E-01  0.19398067042E-02  0.12928556410E+00  0.19459623437E-01 0.  0.
         14    1    1    2    0    0 -0.81924705052E-02 -0.49393464662E-03  0.22490221250E-01  0.23940981523E-01  0.00000000000E+00 0. -1.
     999901    1    3    3    0    0  0.12436844232E+00  0.53742980299E-01 -0.24430027954E-01  0.89070345438E+00  0.88000000000E+00 0. -1.
        -11    1    4    4    0    0 -0.66020499454E-01 -0.21505764590E-01 -0.44768465925E-02  0.69580942328E-01  0.51100000000E-03 0. -1.
         11    1    4    4    0    0 -0.50155472360E-01 -0.31743281062E-01  0.64166532967E-02  0.59704621770E-01  0.51100000000E-03 0.  1.
</event>
<event>
 8    1  0.1112171E+005  0.1043930E+01  0.7957747E-01            NaN
         13   -1    0    0    0    0  0.00000000000E+00  0.00000000000E+00  0.74505805969E-08  0.10566000000E+00  0.10566000000E+00 0. -1.
     999900   -1    0    0    0    0 -0.00000000000E+00 -0.00000000000E+00 -0.74505805969E-08  0.93827000000E+00  0.93827000000E+00 0. -1.
     999902    2    1    2    0    0  0.20644123218E-01 -0.41845923024E-02  0.42928907489E-02  0.10224330340E+01  0.10222070189E+01 0.  0.
     999903    2    3    3    0    0  0.10842177478E+00  0.40857630166E-01  0.65736275524E-01  0.13479064686E+00  0.20558048829E-01 0.  0.
         14    1    1    2    0    0 -0.20644123218E-01  0.41845923024E-02 -0.42928907489E-02  0.21496965999E-01  0.00000000000E+00 0. -1.
     999901    1    3    3    0    0 -0.87777651563E-01 -0.45042222468E-01 -0.61443384775E-01  0.88764238714E+00  0.88000000000E+00 0.  1.
        -11    1    4    4    0    0  0.92321807296E-01  0.37057510089E-01  0.47751506436E-01  0.11034963817E+00  0.51100000000E-03 0.  1.
         11    1    4    4    0    0  0.16099967485E-01  0.38001200769E-02  0.17984769087E-01  0.24441008689E-01  0.51100000000E-03 0. -1.
</event>
<event>
 8    1  0.1112171E+005  0.1043930E+01  0.7957747E-01            NaN
         13   -1    0    0    0    0  0.00000000000E+00  0.00000000000E+00  0.74505805969E-08  0.10566000000E+00  0.10566000000E+00 0. -1.
     999900   -1    0    0    0    0 -0.00000000000E+00 -0.00000000000E+00 -0.74505805969E-08  0.93827000000E+00  0.93827000000E+00 0.  1.
     999902    2    1    2    0    0  0.71050265811E-02 -0.54828841711E-02 -0.24312101876E-01  0.10180143345E+01  0.10176844125E+01 0.  0.
     999903    2    3    3    0    0  0.66843482918E-01  0.93466618934E-01  0.50827531919E-01  0.12728112420E+00  0.20322069618E-01 0.  0.
         14    1    1    2    0    0 -0.71050265811E-02  0.54828841711E-02  0.24312101876E-01  0.25915665517E-01  0.00000000000E+00 0. -1.
     999901    1    3    3    0    0 -0.59738456337E-01 -0.98949503105E-01 -0.75139633795E-01  0.89073321028E+00  0.88000000000E+00 0. -1.
        -11    1    4    4    0    0  0.41534153904E-01  0.70014899392E-01  0.42265195107E-01  0.91726658698E-01  0.51100000000E-03 0.  1.
         11    1    4    4    0    0  0.25309329014E-01  0.23451719542E-01  0.85623368115E-02  0.35554465504E-01  0.51100000000E-03 0. -1.
</event>
<event>
 8    1  0.1112171E+005  0.1043930E+01  0.7957747E-01            NaN
         13   -1    0    0    0    0  0.00000000000E+00  0.00000000000E+00  0.74505805969E-08  0.10566000000E+00  0.10566000000E+00 0. -1.
     999900   -1    0    0    0    0 -0.00000000000E+00 -0.00000000000E+00 -0.74505805969E-08  0.93827000000E+00  0.93827000000E+00 0.  1.
     999902    2    1    2    0    0 -0.14401295364E-01 -0.92976909770E-02  0.97566340922E-02  0.10242059975E+01  0.10240160590E+01 0.  0.
     999903    2    3    3    0    0 -0.59767322223E-01 -0.48297341702E-01 -0.10819991080E+00  0.13432241207E+00  0.20749064195E-01 0.  0.
         14    1    1    2    0    0  0.14401295364E-01  0.92976909770E-02 -0.97566340922E-02  0.19724002496E-01  0.00000000000E+00 0.  1.
     999901    1    3    3    0    0  0.45366026859E-01  0.38999650725E-01  0.11795654489E+00  0.88988358544E+00  0.88000000000E+00 0. -1.
        -11    1    4    4    0    0 -0.47203327173E-01 -0.33316349722E-01 -0.65411903202E-01  0.87276064626E-01  0.51100000000E-03 0.  1.
         11    1    4    4    0    0 -0.12563995050E-01 -0.14980991980E-01 -0.42788007597E-01  0.47046347440E-01  0.51100000000E-03 0. -1.
</event>
<event>
 8    1  0.1112171E+005  0.1043930E+01  0.7957747E-01            NaN
         13   -1    0    0    0    0  0.00000000000E+00  0.00000000000E+00  0.74505805969E-08  0.10566000000E+00  0.10566000000E+00 0.  1.
     999900   -1    0    0    0    0 -0.00000000000E+00 -0.00000000000E+00 -0.74505805969E-08  0.93827000000E+00  0.93827000000E+00 0. -1.
     999902    2    1    2    0    0  0.32132379664E-02 -0.63377179345E-02 -0.15162681827E-01  0.10271848966E+01  0.10270483987E+01 0.  0.
     999903    2    3    3    0    0  0.65805087727E-01  0.10937394193E+00  0.40951180334E-01  0.13563809841E+00  0.20681533411E-01 0.  0.
         14    1    1    2    0    0 -0.32132379664E-02  0.63377179345E-02  0.15162681827E-01  0.16745103375E-01  0.00000000000E+00 0.  1.
     999901    1    3    3    0    0 -0.62591849760E-01 -0.11571165987E+00 -0.56113862162E-01  0.89154679822E+00  0.88000000000E+00 0. -1.
        -11    1    4    4    0    0  0.48667512654E-01  0.84754088001E-01  0.22088643023E-01  0.10019955834E+00  0.51100000000E-03 0. -1.
         11    1    4    4    0    0  0.17137575072E-01  0.24619853931E-01  0.18862537311E-01  0.35438540063E-01  0.51100000000E-03 0.  1.
</event>
<event>
 8    1  0.1112171E+005  0.1043930E+01  0.7957747E-01            NaN
         13   -1    0    0    0    0  0.00000000000E+00  0.00000000000E+00  0.74505805969E-08  0.10566000000E+00  0.10566000000E+00 0. -1.
     999900   -1    0    0    0    0 -0.00000000000E+00 -0.00000000000E+00 -0.74505805969E-08  0.93827000000E+00  0.93827000000E+00 0.  1.
     999902    2    1    2    0    0  0.15190081593E-01 -0.15087755285E-01  0.10875685560E-01  0.10199162649E+01  0.10196335263E+01 0.  0.
     999903    2    3    3    0    0  0.67109444043E-01  0.89924025783E-01 -0.60690585553E-01  0.12927333669E+00  0.20934194795E-01 0.  0.
         14    1    1    2    0    0 -0.15190081593E-01  0.15087755285E-01 -0.10875685560E-01  0.24013735127E-01  0.00000000000E+00 0.  1.
     999901    1    3    3    0    0 -0.51919362450E-01 -0.10501178107E+00  0.71566271113E-01  0.89064292818E+00  0.88000000000E+00 0. -1.
        -11    1    4    4    0    0  0.17659521470E-01  0.10999405249E-01 -0.82475869897E-02  0.22385920275E-01  0.51100000000E-03 0. -1.
         11    1    4    4    0    0  0.49449922573E-01  0.78924620533E-01 -0.52442998564E-01  0.10688741642E+00  0.51100000000E-03 0.  1.
</event>
<event>
 8    1  0.1112171E+005  0.1043930E+01  0.7957747E-01            NaN
         13   -1    0    0    0    0  0.00000000000E+00  0.00000000000E+00  0.74505805969E-08  0.10566000000E+00  0.10566000000E+00 0.  1.
     999900   -1    0    0    0    0 -0.00000000000E+00 -0.00000000000E+00 -0.74505805969E-08  0.93827000000E+00  0.93827000000E+00 0.  1.
     999902    2    1    2    0    0  0.15444809010E-01 -0.81123593824E-02 -0.17311949646E-01  0.10193524472E+01  0.10190561101E+01 0.  0.
     999903    2    3    3    0    0 -0.44504282412E-01 -0.73223284397E-01  0.93037099741E-01  0.12805550522E+00  0.20000748936E-01 0.  0.
         14    1    1    2    0    0 -0.15444809010E-01  0.81123593824E-02  0.17311949646E-01  0.24577552780E-01  0.00000000000E+00 0.  1.
     999901    1    3    3    0    0  0.59949091422E-01  0.65110925015E-01 -0.11034904939E+00  0.89129694200E+00  0.88000000000E+00 0.  1.
        -11    1    4    4    0    0 -0.24317479240E-01 -0.44712645992E-01  0.40908105241E-01  0.65301567390E-01  0.51100000000E-03 0.  1.
         11    1    4    4    0    0 -0.20186803172E-01 -0.28510638405E-01  0.52128994500E-01  0.62753937830E-01  0.51100000000E-03 0. -1.
</event>
<event>
 8    1  0.1112171E+005  0.1043930E+01  0.7957747E-01            NaN
         13   -1    0    0    0    0  0.00000000000E+00  0.00000000000E+00  0.74505805969E-08  0.10566000000E+00  0.10566000000E+00 0. -1.
     999900   -1    0    0    0    0 -0.00000000000E+00 -0.00000000000E+00 -0.74505805969E-08  0.93827000000E+00  0.93827000000E+00 0.  1.
     999902    2    1    2    0    0 -0.17852970223E-01 -0.10574314120E-02 -0.16075659293E-01  0.10198826815E+01  0.10195991420E+01 0.  0.
     999903    2    3    3    0    0 -0.12144657324E+00  0.39484951187E-01  0.26102256388E-01  0.13187688422E+00  0.20046278479E-01 0.  0.
         14    1    1    2    0    0  0.17852970223E-01  0.10574314120E-02  0.16075659293E-01  0.24047318534E-01  0.00000000000E+00 0. -1.
     999901    1    3    3    0    0  0.10359360302E+00 -0.40542382599E-01 -0.42177915681E-01  0.88800579725E+00  0.88000000000E+00 0. -1.
        -11    1    4    4    0    0 -0.12960371586E-01 -0.23226168761E-03 -0.16058210008E-02  0.13071532398E-01  0.51100000000E-03 0. -1.
         11    1    4    4    0    0 -0.10848620165E+00  0.39717212875E-01  0.27708077389E-01  0.11880535182E+00  0.51100000000E-03 0.  1.
</event>
<event>
 8    1  0.1112171E+005  0.1043930E+01  0.7957747E-01            NaN
         13   -1    0    0    0    0  0.00000000000E+00  0.00000000000E+00  0.74505805969E-08  0.10566000000E+00  0.10566000000E+00 0. -1.
     999900   -1    0    0    0    0 -0.00000000000E+00 -0.00000000000E+00 -0.74505805969E-08  0.93827000000E+00  0.93827000000E+00 0.  1.
     999902    2    1    2    0    0 -0.20119887953E-01  0.11682816062E-01 -0.33342381180E-02  0.10204264848E+01  0.10201557703E+01 0.  0.
     999903    2    3    3    0    0 -0.99822057901E-01  0.74217812406E-01 -0.45045934606E-01  0.13363286323E+00  0.18864755166E-01 0.  0.
         14    1    1    2    0    0  0.20119887953E-01 -0.11682816062E-01  0.33342381180E-02  0.23503515189E-01  0.00000000000E+00 0. -1.
     999901    1    3    3    0    0  0.79702169948E-01 -0.62534996343E-01  0.41711696488E-01  0.88679362159E+00  0.88000000000E+00 0. -1.
        -11    1    4    4    0    0 -0.50140570521E-01  0.41724085413E-01 -0.14315831880E-01  0.66784581148E-01  0.51100000000E-03 0.  1.
         11    1    4    4    0    0 -0.49681487379E-01  0.32493726993E-01 -0.30730102726E-01  0.66848282077E-01  0.51100000000E-03 0. -1.
</event>
<event>
 8    1  0.1112171E+005  0.1043930E+01  0.7957747E-01            NaN
         13   -1    0    0    0    0  0.00000000000E+00  0.00000000000E+00  0.74505805969E-08  0.10566000000E+00  0.10566000000E+00 0.  1.
     999900   -1    0    0    0    0 -0.00000000000E+00 -0.00000000000E+00 -0.74505805969E-08  0.93827000000E+00  0.93827000000E+00 0. -1.
     999902    2    1    2    0    0  0.56188175461E-02  0.15731653864E-01 -0.17430343490E-01  0.10197872388E+01  0.10195014171E+01 0.  0.
     999903    2    3    3    0    0  0.44992396951E-01 -0.11611316535E+00  0.23434967960E-01  0.12815765832E+00  0.19199081049E-01 0.  0.
         14    1    1    2    0    0 -0.56188175461E-02 -0.15731653864E-01  0.17430343490E-01  0.24142761194E-01  0.00000000000E+00 0.  1.
     999901    1    3    3    0    0 -0.39373579405E-01  0.13184481921E+00 -0.40865311450E-01  0.89162958048E+00  0.88000000000E+00 0. -1.
        -11    1    4    4    0    0  0.27830184253E-01 -0.45607539798E-01  0.99869809716E-02  0.54355935756E-01  0.51100000000E-03 0. -1.
         11    1    4    4    0    0  0.17162212699E-01 -0.70505625551E-01  0.13447986989E-01  0.73801722569E-01  0.51100000000E-03 0.  1.
</event>
<event>
 8    1  0.1112171E+005  0.1043930E+01  0.7957747E-01            NaN
         13   -1    0    0    0    0  0.00000000000E+00  0.00000000000E+00  0.74505805969E-08  0.10566000000E+00  0.10566000000E+00 0.  1.
     999900   -1    0    0    0    0 -0.00000000000E+00 -0.00000000000E+00 -0.74505805969E-08  0.93827000000E+00  0.93827000000E+00 0. -1.
     999902    2    1    2    0    0  0.18012616086E-01  0.15646946627E-01  0.12389272705E-02  0.10200382395E+01  0.10197583998E+01 0.  0.
     999903    2    3    3    0    0  0.49886919823E-01  0.69605860067E-01 -0.98662594193E-01  0.13217121708E+00  0.20031041091E-01 0.  0.
         14    1    1    2    0    0 -0.18012616086E-01 -0.15646946627E-01 -0.12389272705E-02  0.23891760458E-01  0.00000000000E+00 0.  1.
     999901    1    3    3    0    0 -0.31874303738E-01 -0.53958913440E-01  0.99901521464E-01  0.88786702246E+00  0.88000000000E+00 0.  1.
        -11    1    4    4    0    0  0.41040245323E-01  0.53585513889E-01 -0.88269112887E-01  0.11111888429E+00  0.51100000000E-03 0. -1.
         11    1    4    4    0    0  0.88466745000E-02  0.16020346179E-01 -0.10393481306E-01  0.21052332794E-01  0.51100000000E-03 0.  1.
</event>
<event>
 8    1  0.1112171E+005  0.1043930E+01  0.7957747E-01            NaN
         13   -1    0    0    0    0  0.00000000000E+00  0.00000000000E+00  0.74505805969E-08  0.10566000000E+00  0.10566000000E+00 0. -1.
     999900   -1    0    0    0    0 -0.00000000000E+00 -0.00000000000E+00 -0.74505805969E-08  0.93827000000E+00  0.93827000000E+00 0.  1.
     999902    2    1    2    0    0  0.63683888925E-02 -0.10574084016E-01  0.19184521407E-01  0.10211174269E+01  0.10208625696E+01 0.  0.
     999903    2    3    3    0    0 -0.96009717184E-01  0.65772070754E-01  0.56861578072E-01  0.13110081326E+00  0.20257173843E-01 0.  0.
         14    1    1    2    0    0 -0.63683888925E-02  0.10574084016E-01 -0.19184521407E-01  0.22812573100E-01  0.00000000000E+00 0.  1.
     999901    1    3    3    0    0  0.10237810608E+00 -0.76346154769E-01 -0.37677056665E-01  0.89001661364E+00  0.88000000000E+00 0.  1.
        -11    1    4    4    0    0 -0.58385674868E-01  0.50366654079E-01  0.42033325497E-01  0.87822254846E-01  0.51100000000E-03 0. -1.
         11    1    4    4    0    0 -0.37624042316E-01  0.15405416675E-01  0.14828252575E-01  0.43278558416E-01  0.51100000000E-03 0.  1.
</event>
<event>
 8    1  0.1112171E+005  0.1043930E+01  0.7957747E-01            NaN
         13   -1    0    0    0    0  0.00000000000E+00  0.00000000000E+00  0.74505805969E-08  0.10566000000E+00  0.10566000000E+00 0. -1.
     999900   -1    0    0    0    0 -0.00000000000E+00 -0.00000000000E+00 -0.74505805969E-08  0.93827000000E+00  0.93827000000E+00 0.  1.
     999902    2    1    2    0    0 -0.24074035805E-01  0.47868953832E-02 -0.45096377376E-02  0.10189738304E+01  0.10186681779E+01 0.  0.
     999903    2    3    3    0    0  0.86086762435E-01  0.83634875601E-01 -0.38651785123E-01  0.12795301603E+00  0.21732251039E-01 0.  0.
         14    1    1    2    0    0  0.24074035805E-01 -0.47868953832E-02  0.45096377376E-02  0.24956169575E-01  0.00000000000E+00 0.  1.
     999901    1    3    3    0    0 -0.11016079824E+00 -0.78847980218E-01  0.34142147385E-01  0.89102081439E+00  0.88000000000E+00 0.  1.
        -11    1    4    4    0    0  0.14051677952E-01  0.25677760426E-01 -0.12785502482E-01  0.31945691861E-01  0.51100000000E-03 0. -1.
         11    1    4    4    0    0  0.72035084483E-01  0.57957115175E-01 -0.25866282641E-01  0.96007324171E-01  0.51100000000E-03 0.  1.
</event>
<event>
 8    1  0.1112171E+005  0.1043930E+01  0.7957747E-01            NaN
         13   -1    0    0    0    0  0.00000000000E+00  0.00000000000E+00  0.74505805969E-08  0.10566000000E+00  0.10566000000E+00 0. -1.
     999900   -1    0    0    0    0 -0.00000000000E+00 -0.00000000000E+00 -0.74505805969E-08  0.93827000000E+00  0.93827000000E+00 0.  1.
     999902    2    1    2    0    0  0.46711483857E-02  0.15660586945E-01 -0.18224927789E-01  0.10194509967E+01  0.10191570600E+01 0.  0.
     999903    2    3    3    0    0  0.78814578188E-01  0.95109180679E-01  0.38659785468E-01  0.13094371036E+00  0.19854024463E-01 0.  0.
         14    1    1    2    0    0 -0.46711483857E-02 -0.15660586945E-01  0.18224927789E-01  0.24479003322E-01  0.00000000000E+00 0. -1.
     999901    1    3    3    0    0 -0.74143429802E-01 -0.79448593734E-01 -0.56884713257E-01  0.88850728631E+00  0.88000000000E+00 0. -1.
        -11    1    4    4    0    0  0.55524414516E-01  0.76109878593E-01  0.35652973401E-01  0.10073266531E+00  0.51100000000E-03 0. -1.
         11    1    4    4    0    0  0.23290163672E-01  0.18999302086E-01  0.30068120672E-02  0.30211045057E-01  0.51100000000E-03 0.  1.
</event>
<event>
 8    1  0.1112171E+005  0.1043930E+01  0.7957747E-01            NaN
         13   -1    0    0    0    0  0.00000000000E+00  0.00000000000E+00  0.74505805969E-08  0.10566000000E+00  0.10566000000E+00 0.  1.
     999900   -1    0    0    0    0 -0.00000000000E+00 -0.00000000000E+00 -0.74505805969E-08  0.93827000000E+00  0.93827000000E+00 0.  1.
     999902    2    1    2    0    0  0.69166815154E-02  0.20688634792E-01 -0.55355012742E-02  0.10214244036E+01  0.10211764346E+01 0.  0.
     999903    2    3    3    0    0 -0.30652417374E-01  0.10061111663E+00  0.78854037088E-01  0.13298721708E+00  0.20136366662E-01 0.  0.
         14    1    1    2    0    0 -0.69166815154E-02 -0.20688634792E-01  0.55355012742E-02  0.22505596350E-01  0.00000000000E+00 0. -1.
     999901    1    3    3    0    0  0.37569098890E-01 -0.79922481834E-01 -0.84389538362E-01  0.88843718657E+00  0.88000000000E+00 0.  1.
        -11    1    4    4    0    0 -0.21804134322E-01  0.42603493231E-01  0.42127101603E-01  0.63760738072E-01  0.51100000000E-03 0.  1.
         11    1    4    4    0    0 -0.88482830521E-02  0.58007623394E-01  0.36726935485E-01  0.69226479008E-01  0.51100000000E-03 0. -1.
</event>
<event>
 8    1  0.1112171E+005  0.1043930E+01  0.7957747E-01            NaN
         13   -1    0    0    0    0  0.00000000000E+00  0.00000000000E+00  0.74505805969E-08  0.10566000000E+00  0.10566000000E+00 0.  1.
     999900   -1    0    0    0    0 -0.00000000000E+00 -0.00000000000E+00 -0.74505805969E-08  0.93827000000E+00  0.93827000000E+00 0. -1.
     999902    2    1    2    0    0  0.40100716038E-02 -0.20695468218E-01  0.11740487334E-01  0.10198007207E+01  0.10195152219E+01 0.  0.
     999903    2    3    3    0    0  0.41304293403E-01  0.86649500552E-01  0.84623848231E-01  0.12950538449E+00  0.19906489453E-01 0.  0.
         14    1    1    2    0    0 -0.40100716038E-02  0.20695468218E-01 -0.11740487334E-01  0.24129279348E-01  0.00000000000E+00 0.  1.
     999901    1    3    3    0    0 -0.37294221800E-01 -0.10734496877E+00 -0.72883360897E-01  0.89029533616E+00  0.88000000000E+00 0. -1.
        -11    1    4    4    0    0  0.36023602371E-01  0.70389854464E-01  0.58836785782E-01  0.98561960317E-01  0.51100000000E-03 0. -1.
         11    1    4    4    0    0  0.52806910325E-02  0.16259646088E-01  0.25787062448E-01  0.30943424170E-01  0.51100000000E-03 0.  1.
</event>
<event>
 8    1  0.1112171E+005  0.1043930E+01  0.7957747E-01            NaN
         13   -1    0    0    0    0  0.00000000000E+00  0.00000000000E+00  0.74505805969E-08  0.10566000000E+00  0.10566000000E+00 0.  1.
     999900   -1    0    0    0    0 -0.00000000000E+00 -0.00000000000E+00 -0.74505805969E-08  0.93827000000E+00  0.93827000000E+00 0. -1.
     999902    2    1    2    0    0 -0.19761230818E-01 -0.13709922307E-01  0.60037316196E-03  0.10198711417E+01  0.10195873269E+01 0.  0.
     999903    2    3    3    0    0 -0.10021323350E+00  0.47563702501E-02 -0.83949354813E-01  0.13197352084E+00  0.17441353239E-01 0.  0.
         14    1    1    2    0    0  0.19761230818E-01  0.13709922307E-01 -0.60037316196E-03  0.24058858265E-01  0.00000000000E+00 0.  1.
     999901    1    3    3    0    0  0.80452002679E-01 -0.18466292557E-01  0.84549727975E-01  0.88789762090E+00  0.88000000000E+00 0.  1.
        -11    1    4    4    0    0 -0.12825140351E-01  0.64016603164E-02 -0.10032278818E-01  0.17503520192E-01  0.51100000000E-03 0.  1.
         11    1    4    4    0    0 -0.87388093145E-01 -0.16452900662E-02 -0.73917075995E-01  0.11447000064E+00  0.51100000000E-03 0. -1.
</event>
<event>
 8    1  0.1112171E+005  0.1043930E+01  0.7957747E-01            NaN
         13   -1    0    0    0    0  0.00000000000E+00  0.00000000000E+00  0.74505805969E-08  0.10566000000E+00  0.10566000000E+00 0. -1.
     999900   -1    0    0    0    0 -0.00000000000E+00 -0.00000000000E+00 -0.74505805969E-08  0.93827000000E+00  0.93827000000E+00 0.  1.
     999902    2    1    2    0    0  0.16612716455E-01  0.14092276149E-01 -0.96077154680E-02  0.10201206995E+01  0.10198428108E+01 0.  0.
     999903    2    3    3    0    0  0.94112987536E-01 -0.53650316618E-01  0.70114224791E-01  0.13054161999E+00  0.19735732464E-01 0.  0.
         14    1    1    2    0    0 -0.16612716455E-01 -0.14092276149E-01  0.96077154680E-02  0.23809300527E-01  0.00000000000E+00 0. -1.
     999901    1    3    3    0    0 -0.77500271080E-01  0.67742592767E-01 -0.79721940258E-01  0.88957907948E+00  0.88000000000E+00 0.  1.
        -11    1    4    4    0    0  0.32012417573E-01 -0.12074508885E-01  0.13501428319E-01  0.36785028630E-01  0.51100000000E-03 0.  1.
         11    1    4    4    0    0  0.62100569963E-01 -0.41575807733E-01  0.56612796471E-01  0.93756591361E-01  0.51100000000E-03 0. -1.
</event>
<event>
 8    1  0.1112171E+005  0.1043930E+01  0.7957747E-01            NaN
         13   -1    0    0    0    0  0.00000000000E+00  0.00000000000E+00  0.74505805969E-08  0.10566000000E+00  0.10566000000E+00 0. -1.
     999900   -1    0    0    0    0 -0.00000000000E+00 -0.00000000000E+00 -0.74505805969E-08  0.93827000000E+00  0.93827000000E+00 0.  1.
     999902    2    1    2    0    0  0.18967226076E-01 -0.99443645515E-02 -0.88944891090E-02  0.10207403905E+01  0.10204769409E+01 0.  0.
     999903    2    3    3    0    0 -0.47290230142E-01  0.53491556638E-01  0.10514911603E+00  0.12865288894E+00  0.19937821672E-01 0.  0.
         14    1    1    2    0    0 -0.18967226076E-01  0.99443645515E-02  0.88944891090E-02  0.23189609480E-01  0.00000000000E+00 0. -1.
     999901    1    3    3    0    0  0.66257456218E-01 -0.63435921190E-01 -0.11404360514E+00  0.89208750158E+00  0.88000000000E+00 0.  1.
        -11    1    4    4    0    0 -0.45476700754E-01  0.40486272129E-01  0.88939050874E-01  0.10778536280E+00  0.51100000000E-03 0. -1.
         11    1    4    4    0    0 -0.18135293886E-02  0.13005284509E-01  0.16210065153E-01  0.20867526141E-01  0.51100000000E-03 0.  1.
</event>
<event>
 8    1  0.1112171E+005  0.1043930E+01  0.7957747E-01            NaN
         13   -1    0    0    0    0  0.00000000000E+00  0.00000000000E+00  0.74505805969E-08  0.10566000000E+00  0.10566000000E+00 0. -1.
     999900   -1    0    0    0    0 -0.00000000000E+00 -0.00000000000E+00 -0.74505805969E-08  0.93827000000E+00  0.93827000000E+00 0. -1.
     999902    2    1    2    0    0 -0.14489693067E-01 -0.23038090885E-01 -0.92716461263E-03  0.10166983186E+01  0.10163335607E+01 0.  0.
     999903    2    3    3    0    0 -0.77167015830E-01  0.57882591888E-01 -0.80492660157E-01  0.12719999272E+00  0.19890375385E-01 0.  0.
         14    1    1    2    0    0  0.14489693067E-01  0.23038090885E-01  0.92716461263E-03  0.27231681385E-01  0.00000000000E+00 0. -1.
     999901    1    3    3    0    0  0.62677322762E-01 -0.80920682774E-01  0.79565495545E-01  0.88949832590E+00  0.88000000000E+00 0.  1.
        -11    1    4    4    0    0 -0.77904416667E-01  0.56541160755E-01 -0.76712201989E-01  0.12308949610E+00  0.51100000000E-03 0. -1.
         11    1    4    4    0    0  0.73740083727E-03  0.13414311331E-02 -0.37804581682E-02  0.41104966173E-02  0.51100000000E-03 0.  1.
</event>
<event>
 8    1  0.1112171E+005  0.1043930E+01  0.7957747E-01            NaN
         13   -1    0    0    0    0  0.00000000000E+00  0.00000000000E+00  0.74505805969E-08  0.10566000000E+00  0.10566000000E+00 0. -1.
     999900   -1    0    0    0    0 -0.00000000000E+00 -0.00000000000E+00 -0.74505805969E-08  0.93827000000E+00  0.93827000000E+00 0.  1.
     999902    2    1    2    0    0  0.20763524553E-02  0.21900168822E-01  0.85611716342E-02  0.10203244436E+01  0.10200513457E+01 0.  0.
     999903    2    3    3    0    0 -0.46516986316E-01  0.75903609173E-02  0.12125243408E+00  0.13169324685E+00  0.20482062939E-01 0.  0.
         14    1    1    2    0    0 -0.20763524553E-02 -0.21900168822E-01 -0.85611716342E-02  0.23605556416E-01  0.00000000000E+00 0.  1.
     999901    1    3    3    0    0  0.48593338772E-01  0.14309807905E-01 -0.11269126244E+00  0.88863119673E+00  0.88000000000E+00 0.  1.
        -11    1    4    4    0    0 -0.37260169394E-01  0.13916077581E-01  0.87328966825E-01  0.95961382890E-01  0.51100000000E-03 0.  1.
         11    1    4    4    0    0 -0.92568169227E-02 -0.63257166634E-02  0.33923467250E-01  0.35731863961E-01  0.51100000000E-03 0. -1.
</event>
<event>
 8    1  0.1112171E+005  0.1043930E+01  0.7957747E-01            NaN
         13   -1    0    0    0    0  0.00000000000E+00  0.00000000000E+00  0.74505805969E-08  0.10566000000E+00  0.10566000000E+00 0. -1.
     999900   -1    0    0    0    0 -0.00000000000E+00 -0.00000000000E+00 -0.74505805969E-08  0.93827000000E+00  0.93827000000E+00 0.  1.
     999902    2    1    2    0    0 -0.14561804481E-01  0.24445251714E-02  0.18533864283E-01  0.10202334606E+01  0.10199582287E+01 0.  0.
     999903    2    3    3    0    0 -0.47975505777E-01 -0.94870930138E-02  0.12257786997E+00  0.13339413241E+00  0.19416649217E-01 0.  0.
         14    1    1    2    0    0  0.14561804481E-01 -0.24445251714E-02 -0.18533864283E-01  0.23696539375E-01  0.00000000000E+00 0. -1.
     999901    1    3    3    0    0  0.33413701296E-01  0.11931618185E-01 -0.10404400569E+00  0.88683932821E+00  0.88000000000E+00 0.  1.
        -11    1    4    4    0    0 -0.25227236165E-01  0.62513494146E-03  0.41439855455E-01  0.48521407433E-01  0.51100000000E-03 0. -1.
         11    1    4    4    0    0 -0.22748269612E-01 -0.10112227955E-01  0.81138014517E-01  0.84872724978E-01  0.51100000000E-03 0.  1.
</event>
<event>
 8    1  0.1112171E+005  0.1043930E+01  0.7957747E-01            NaN
         13   -1    0    0    0    0  0.00000000000E+00  0.00000000000E+00  0.74505805969E-08  0.10566000000E+00  0.10566000000E+00 0. -1.
     999900   -1    0    0    0    0 -0.00000000000E+00 -0.00000000000E+00 -0.74505805969E-08  0.93827000000E+00  0.93827000000E+00 0. -1.
     999902    2    1    2    0    0 -0.86805984861E-02 -0.21817230658E-01 -0.14800450898E-02  0.10204026781E+01  0.10201314085E+01 0.  0.
     999903    2    3    3    0    0  0.85399958630E-01  0.82836474939E-01 -0.43427879162E-01  0.12823499758E+00  0.20079825759E-01 0.  0.
         14    1    1    2    0    0  0.86805984861E-02  0.21817230658E-01  0.14800450898E-02  0.23527321929E-01  0.00000000000E+00 0. -1.
     999901    1    3    3    0    0 -0.94080557116E-01 -0.10465370560E+00  0.41947834072E-01  0.89216768049E+00  0.88000000000E+00 0.  1.
        -11    1    4    4    0    0  0.42100558272E-01  0.54602357948E-01 -0.25761846322E-01  0.73605763003E-01  0.51100000000E-03 0.  1.
         11    1    4    4    0    0  0.43299400358E-01  0.28234116991E-01 -0.17666032839E-01  0.54629234581E-01  0.51100000000E-03 0. -1.
</event>
<event>
 8    1  0.1112171E+005  0.1043930E+01  0.7957747E-01            NaN
         13   -1    0    0    0    0  0.00000000000E+00  0.00000000000E+00  0.74505805969E-08  0.10566000000E+00  0.10566000000E+00 0. -1.
     999900   -1    0    0    0    0 -0.00000000000E+00 -0.00000000000E+00 -0.74505805969E-08  0.93827000000E+00  0.93827000000E+00 0. -1.
     999902    2    1    2    0    0 -0.17020965204E-01 -0.17726502257E-01  0.93332735151E-02  0.10176421295E+01  0.10173025370E+01 0.  0.
     999903    2    3    3    0    0  0.27203862953E-01 -0.10337244653E-01  0.12412517002E+00  0.12905470218E+00  0.20028717803E-01 0.  0.
         14    1    1    2    0    0  0.17020965204E-01  0.17726502257E-01 -0.93332735151E-02  0.26287870458E-01  0.00000000000E+00 0.  1.
     999901    1    3    3    0    0 -0.44224828156E-01 -0.73892576035E-02 -0.11479189651E+00  0.88858742736E+00  0.88000000000E+00 0. -1.
        -11    1    4    4    0    0  0.26714549503E-02 -0.99304419415E-02  0.27578739097E-01  0.29438042052E-01  0.51100000000E-03 0.  1.
         11    1    4    4    0    0  0.24532408002E-01 -0.40680271169E-03  0.96546430924E-01  0.99616660133E-01  0.51100000000E-03 0. -1.
</event>
<event>
 8    1  0.1112171E+005  0.1043930E+01  0.7957747E-01            NaN
         13   -1    0    0    0    0  0.00000000000E+00  0.00000000000E+00  0.74505805969E-08  0.10566000000E+00  0.10566000000E+00 0. -1.
     999900   -1    0    0    0    0 -0.00000000000E+00 -0.00000000000E+00 -0.74505805969E-08  0.93827000000E+00  0.93827000000E+00 0.  1.
     999902    2    1    2    0    0  0.13335770922E-01 -0.38442120042E-02  0.15804126220E-01  0.10228969033E+01  0.10226806362E+01 0.  0.
     999903    2    3    3    0    0  0.59717255557E-01 -0.90689783835E-01  0.78057721065E-01  0.13522077679E+00  0.20021567262E-01 0.  0.
         14    1    1    2    0    0 -0.13335770922E-01  0.38442120042E-02 -0.15804126220E-01  0.21033096719E-01  0.00000000000E+00 0.  1.
     999901    1    3    3    0    0 -0.46381484635E-01  0.86845571831E-01 -0.62253594846E-01  0.88767612649E+00  0.88000000000E+00 0. -1.
        -11    1    4    4    0    0  0.56028400223E-01 -0.86573490454E-01  0.67375095716E-01  0.12318204222E+00  0.51100000000E-03 0. -1.
         11    1    4    4    0    0  0.36888553340E-02 -0.41162933807E-02  0.10682625349E-01  0.12038734577E-01  0.51100000000E-03 0.  1.
</event>
<event>
 8    1  0.1112171E+005  0.1043930E+01  0.7957747E-01            NaN
         13   -1    0    0    0    0  0.00000000000E+00  0.00000000000E+00  0.74505805969E-08  0.10566000000E+00  0.10566000000E+00 0. -1.
     999900   -1    0    0    0    0 -0.00000000000E+00 -0.00000000000E+00 -0.74505805969E-08  0.93827000000E+00  0.93827000000E+00 0.  1.
     999902    2    1    2    0    0  0.15116508938E-02  0.11541513179E-01  0.23880538680E-01  0.10173636351E+01  0.10170167129E+01 0.  0.
     999903    2    3    3    0    0 -0.24928199561E-01 -0.11549496457E+00  0.47259327363E-01  0.12754123704E+00  0.85335309010E-02 0.  0.
         14    1    1    2    0    0 -0.15116508938E-02 -0.11541513179E-01 -0.23880538680E-01  0.26566364872E-01  0.00000000000E+00 0.  1.
     999901    1    3    3    0    0  0.26439850454E-01  0.12703647775E+00 -0.23378788683E-01  0.88982239808E+00  0.88000000000E+00 0.  1.
        -11    1    4    4    0    0 -0.70718794200E-03 -0.77894824363E-02  0.12340905805E-02  0.79347496477E-02  0.51100000000E-03 0. -1.
         11    1    4    4    0    0 -0.24221011619E-01 -0.10770548213E+00  0.46025236782E-01  0.11960648740E+00  0.51100000000E-03 0.  1.
</event>
<event>
 8    1  0.1112171E+005  0.1043930E+01  0.7957747E-01            NaN
         13   -1    0    0    0    0  0.00000000000E+00  0.00000000000E+00  0.74505805969E-08  0.10566000000E+00  0.10566000000E+00 0.  1.
     999900   -1    0    0    0    0 -0.00000000000E+00 -0.00000000000E+00 -0.74505805969E-08  0.93827000000E+00  0.93827000000E+00 0. -1.
     999902    2    1    2    0    0 -0.12905181917E-01  0.33873146414E-02 -0.19465779714E-01  0.10203305466E+01  0.10200575916E+01 0.  0.
     999903    2    3    3    0    0 -0.55699889792E-01 -0.54454876721E-01  0.10091619978E+00  0.12922509431E+00  0.21147914769E-01 0.  0.
         14    1    1    2    0    0  0.12905181917E-01 -0.33873146414E-02  0.19465779714E-01  0.23599453398E-01  0.00000000000E+00 0.  1.
     999901    1    3    3    0    0  0.42794707875E-01  0.57842191362E-01 -0.12038197949E+00  0.89110545230E+00  0.88000000000E+00 0. -1.
        -11    1    4    4    0    0 -0.41124357075E-01 -0.37628964656E-01  0.85776665192E-01  0.10229882276E+00  0.51100000000E-03 0.  1.
         11    1    4    4    0    0 -0.14575532718E-01 -0.16825912065E-01  0.15139534588E-01  0.26926271546E-01  0.51100000000E-03 0. -1.
</event>
<event>
 8    1  0.1112171E+005  0.1043930E+01  0.7957747E-01            NaN
         13   -1    0    0    0    0  0.00000000000E+00  0.00000000000E+00  0.74505805969E-08  0.10566000000E+00  0.10566000000E+00 0.  1.
     999900   -1    0    0    0    0 -0.00000000000E+00 -0.00000000000E+00 -0.74505805969E-08  0.93827000000E+00  0.93827000000E+00 0.  1.
     999902    2    1    2    0    0  0.14636470584E-01  0.11847615898E-01  0.14261189689E-01  0.10203085308E+01  0.10200350603E+01 0.  0.
     999903    2    3    3    0    0 -0.13763976113E-01 -0.10753216552E+00 -0.65763652695E-01  0.12819749909E+00  0.18897806694E-01 0.  0.
         14    1    1    2    0    0 -0.14636470584E-01 -0.11847615898E-01 -0.14261189689E-01  0.23621469153E-01  0.00000000000E+00 0. -1.
     999901    1    3    3    0    0  0.28400446697E-01  0.11937978142E+00  0.80024842384E-01  0.89211103176E+00  0.88000000000E+00 0. -1.
        -11    1    4    4    0    0 -0.16566515077E-01 -0.56278433268E-01 -0.33283014338E-01  0.67451698550E-01  0.51100000000E-03 0.  1.
         11    1    4    4    0    0  0.28025389640E-02 -0.51253732249E-01 -0.32480638357E-01  0.60745800540E-01  0.51100000000E-03 0. -1.
</event>
<event>
 8    1  0.1112171E+005  0.1043930E+01  0.7957747E-01            NaN
         13   -1    0    0    0    0  0.00000000000E+00  0.00000000000E+00  0.74505805969E-08  0.10566000000E+00  0.10566000000E+00 0. -1.
     999900   -1    0    0    0    0 -0.00000000000E+00 -0.00000000000E+00 -0.74505805969E-08  0.93827000000E+00  0.93827000000E+00 0.  1.
     999902    2    1    2    0    0  0.18243623148E-01  0.14998478933E-01 -0.10910764006E-02  0.10202873562E+01  0.10200133895E+01 0.  0.
     999903    2    3    3    0    0 -0.48110755464E-01 -0.11506031275E+00  0.20598127788E-01  0.12799333832E+00  0.20111972121E-01 0.  0.
         14    1    1    2    0    0 -0.18243623148E-01 -0.14998478933E-01  0.10910764006E-02  0.23642643752E-01  0.00000000000E+00 0.  1.
     999901    1    3    3    0    0  0.66354378612E-01  0.13005879169E+00 -0.21689204189E-01  0.89229401793E+00  0.88000000000E+00 0. -1.
        -11    1    4    4    0    0 -0.16974060622E-01 -0.53324139398E-01  0.42271549363E-03  0.55964474320E-01  0.51100000000E-03 0.  1.
         11    1    4    4    0    0 -0.31136694842E-01 -0.61736173356E-01  0.20175412294E-01  0.72028863997E-01  0.51100000000E-03 0. -1.
</event>
<event>
 8    1  0.1112171E+005  0.1043930E+01  0.7957747E-01            NaN
         13   -1    0    0    0    0  0.00000000000E+00  0.00000000000E+00  0.74505805969E-08  0.10566000000E+00  0.10566000000E+00 0. -1.
     999900   -1    0    0    0    0 -0.00000000000E+00 -0.00000000000E+00 -0.74505805969E-08  0.93827000000E+00  0.93827000000E+00 0. -1.
     999902    2    1    2    0    0 -0.22294519193E-01  0.71733134194E-02 -0.38486709110E-02  0.10201957572E+01  0.10199196384E+01 0.  0.
     999903    2    3    3    0    0 -0.84755192039E-01 -0.62117962484E-02  0.98483344679E-01  0.13196586683E+00  0.22225927164E-01 0.  0.
         14    1    1    2    0    0  0.22294519193E-01 -0.71733134194E-02  0.38486709110E-02  0.23734242757E-01  0.00000000000E+00 0.  1.
     999901    1    3    3    0    0  0.62460672846E-01  0.13385109668E-01 -0.10233201559E+00  0.88822989042E+00  0.88000000000E+00 0. -1.
        -11    1    4    4    0    0 -0.55036496365E-01  0.12817114855E-02  0.76474576914E-01  0.94229935539E-01  0.51100000000E-03 0. -1.
         11    1    4    4    0    0 -0.29718695674E-01 -0.74935077338E-02  0.22008767764E-01  0.37735931288E-01  0.51100000000E-03 0.  1.
</event>
<event>
 8    1  0.1112171E+005  0.1043930E+01  0.7957747E-01            NaN
         13   -1    0    0    0    0  0.00000000000E+00  0.00000000000E+00  0.74505805969E-08  0.10566000000E+00  0.10566000000E+00 0.  1.
     999900   -1    0    0    0    0 -0.00000000000E+00 -0.00000000000E+00 -0.74505805969E-08  0.93827000000E+00  0.93827000000E+00 0. -1.
     999902    2    1    2    0    0  0.26507939597E-02 -0.21068480492E-01  0.10806123606E-01  0.10201039662E+01  0.10198256822E+01 0.  0.
     999903    2    3    3    0    0  0.98109059290E-01  0.30663371372E-01 -0.76101606274E-01  0.12918229825E+00  0.18192906478E-01 0.  0.
         14    1    1    2    0    0 -0.26507939597E-02  0.21068480492E-01 -0.10806123606E-01  0.23826033791E-01  0.00000000000E+00 0. -1.
     999901    1    3    3    0    0 -0.95458265331E-01 -0.51731851863E-01  0.86907729880E-01  0.89092166795E+00  0.88000000000E+00 0.  1.
        -11    1    4    4    0    0  0.69014224667E-01  0.26459207357E-01 -0.62458192985E-01  0.96769519231E-01  0.51100000000E-03 0. -1.
         11    1    4    4    0    0  0.29094834623E-01  0.42041640148E-02 -0.13643413289E-01  0.32412779023E-01  0.51100000000E-03 0.  1.
</event>
<event>
 8    1  0.1112171E+005  0.1043930E+01  0.7957747E-01            NaN
         13   -1    0    0    0    0  0.00000000000E+00  0.00000000000E+00  0.74505805969E-08  0.10566000000E+00  0.10566000000E+00 0. -1.
     999900   -1    0    0    0    0 -0.00000000000E+00 -0.00000000000E+00 -0.74505805969E-08  0.93827000000E+00  0.93827000000E+00 0.  1.
     999902    2    1    2    0    0  0.14953869870E-01 -0.15408834824E-01  0.94288631091E-02  0.10204789046E+01  0.10202094103E+01 0.  0.
     999903    2    3    3    0    0 -0.53385427382E-02 -0.28294378553E-01  0.12773249023E+00  0.13223706400E+00  0.18492704990E-01 0.  0.
         14    1    1    2    0    0 -0.14953869870E-01  0.15408834824E-01 -0.94288631091E-02  0.23451095374E-01  0.00000000000E+00 0.  1.
     999901    1    3    3    0    0  0.20292412608E-01  0.12885543729E-01 -0.11830362713E+00  0.88824184063E+00  0.88000000000E+00 0.  1.
        -11    1    4    4    0    0  0.29007651942E-02 -0.23749730982E-01  0.76875531140E-01  0.80514424605E-01  0.51100000000E-03 0. -1.
         11    1    4    4    0    0 -0.82393079324E-02 -0.45446475710E-02  0.50856959094E-01  0.51722639395E-01  0.51100000000E-03 0.  1.
</event>
<event>
 8    1  0.1112171E+005  0.1043930E+01  0.7957747E-01            NaN
         13   -1    0    0    0    0  0.00000000000E+00  0.00000000000E+00  0.74505805969E-08  0.10566000000E+00  0.10566000000E+00 0.  1.
     999900   -1    0    0    0    0 -0.00000000000E+00 -0.00000000000E+00 -0.74505805969E-08  0.93827000000E+00  0.93827000000E+00 0.  1.
     999902    2    1    2    0    0 -0.22495263195E-01 -0.46688931831E-02 -0.26560079450E-02  0.10208023151E+01  0.10205402867E+01 0.  0.
     999903    2    3    3    0    0 -0.65041948986E-03  0.58206179240E-01 -0.11573055805E+00  0.13107408369E+00  0.19961738412E-01 0.  0.
         14    1    1    2    0    0  0.22495263195E-01  0.46688931831E-02  0.26560079450E-02  0.23127684881E-01  0.00000000000E+00 0. -1.
     999901    1    3    3    0    0 -0.21844843705E-01 -0.62875072423E-01  0.11307455010E+00  0.88972823143E+00  0.88000000000E+00 0.  1.
        -11    1    4    4    0    0 -0.96149353201E-02  0.33759251406E-01 -0.59062918284E-01  0.68708248951E-01  0.51100000000E-03 0. -1.
         11    1    4    4    0    0  0.89645158302E-02  0.24446927834E-01 -0.56667639765E-01  0.62365834734E-01  0.51100000000E-03 0.  1.
</event>
<event>
 8    1  0.1112171E+005  0.1043930E+01  0.7957747E-01            NaN
         13   -1    0    0    0    0  0.00000000000E+00  0.00000000000E+00  0.74505805969E-08  0.10566000000E+00  0.10566000000E+00 0.  1.
     999900   -1    0    0    0    0 -0.00000000000E+00 -0.00000000000E+00 -0.74505805969E-08  0.93827000000E+00  0.93827000000E+00 0.  1.
     999902    2    1    2    0    0  0.22568458001E-01 -0.63443637574E-02 -0.39123722016E-02  0.10201625242E+01  0.10198856225E+01 0.  0.
     999903    2    3    3    0    0 -0.16528178862E-01  0.31988838762E-02 -0.12797329820E+00  0.13054983663E+00  0.19562240049E-01 0.  0.
         14    1    1    2    0    0 -0.22568458001E-01  0.63443637574E-02  0.39123722016E-02  0.23767475765E-01  0.00000000000E+00 0.  1.
     999901    1    3    3    0    0  0.39096636863E-01 -0.95432476336E-02  0.12406092600E+00  0.88961268761E+00  0.88000000000E+00 0. -1.
        -11    1    4    4    0    0 -0.86801121086E-02  0.44370233777E-02 -0.19717250976E-01  0.22001423357E-01  0.51100000000E-03 0. -1.
         11    1    4    4    0    0 -0.78480667533E-02 -0.12381395015E-02 -0.10825604723E+00  0.10854841327E+00  0.51100000000E-03 0.  1.
</event>
<event>
 8    1  0.1112171E+005  0.1043930E+01  0.7957747E-01            NaN
         13   -1    0    0    0    0  0.00000000000E+00  0.00000000000E+00  0.74505805969E-08  0.10566000000E+00  0.10566000000E+00 0. -1.
     999900   -1    0    0    0    0 -0.00000000000E+00 -0.00000000000E+00 -0.74505805969E-08  0.93827000000E+00  0.93827000000E+00 0.  1.
     999902    2    1    2    0    0 -0.44430101966E-02 -0.11537800493E-01 -0.20812303097E-01  0.10197222917E+01  0.10194349117E+01 0.  0.
     999903    2    3    3    0    0 -0.60091907581E-01 -0.60938551965E-01  0.94129477249E-01  0.12913324682E+00  0.22147064721E-01 0.  0.
         14    1    1    2    0    0  0.44430101966E-02  0.11537800493E-01  0.20812303097E-01  0.24207708277E-01  0.00000000000E+00 0. -1.
     999901    1    3    3    0    0  0.55648897384E-01  0.49400751472E-01 -0.11494178035E+00  0.89058904490E+00  0.88000000000E+00 0.  1.
        -11    1    4    4    0    0 -0.26653250161E-01 -0.12447306801E-01  0.33916191016E-01  0.44898778656E-01  0.51100000000E-03 0. -1.
         11    1    4    4    0    0 -0.33438657420E-01 -0.48491245163E-01  0.60213286233E-01  0.84234468168E-01  0.51100000000E-03 0.  1.
</event>
<event>
 8    1  0.1112171E+005  0.1043930E+01  0.7957747E-01            NaN
         13   -1    0    0    0    0  0.00000000000E+00  0.00000000000E+00  0.74505805969E-08  0.10566000000E+00  0.10566000000E+00 0.  1.
     999900   -1    0    0    0    0 -0.00000000000E+00 -0.00000000000E+00 -0.74505805969E-08  0.93827000000E+00  0.93827000000E+00 0.  1.
     999902    2    1    2    0    0  0.68555974441E-02  0.29405131428E-02 -0.22272824342E-01  0.10204411827E+01  0.10201708106E+01 0.  0.
     999903    2    3    3    0    0  0.54169148449E-01 -0.11249672761E+00 -0.36592270518E-01  0.13152646508E+00  0.19245944740E-01 0.  0.
         14    1    1    2    0    0 -0.68555974441E-02 -0.29405131428E-02  0.22272824342E-01  0.23488817298E-01  0.00000000000E+00 0.  1.
     999901    1    3    3    0    0 -0.47313551005E-01  0.11543724075E+00  0.14319446175E-01  0.88891471762E+00  0.88000000000E+00 0.  1.
        -11    1    4    4    0    0  0.10506121998E-01 -0.12570105895E-01  0.33292043997E-03  0.16393843926E-01  0.51100000000E-03 0. -1.
         11    1    4    4    0    0  0.43663026451E-01 -0.99926621715E-01 -0.36925190958E-01  0.11513262116E+00  0.51100000000E-03 0.  1.
</event>
<event>
 8    1  0.1112171E+005  0.1043930E+01  0.7957747E-01            NaN
         13   -1    0    0    0    0  0.00000000000E+00  0.00000000000E+00  0.74505805969E-08  0.10566000000E+00  0.10566000000E+00 0. -1.
     999900   -1    0    0    0    0 -0.00000000000E+00 -0.00000000000E+00 -0.74505805969E-08  0.93827000000E+00  0.93827000000E+00 0. -1.
     999902    2    1    2    0    0 -0.10068675125E-01 -0.10672423762E-01  0.22241407588E-01  0.10172849431E+01  0.10169359352E+01 0.  0.
     999903    2    3    3    0    0 -0.83588200594E-01  0.88731427913E-01 -0.29601119570E-01  0.12713108334E+00  0.20635709190E-01 0.  0.
         14    1    1    2    0    0  0.10068675125E-01  0.10672423762E-01 -0.22241407588E-01  0.26645056938E-01  0.00000000000E+00 0.  1.
     999901    1    3    3    0    0  0.73519525469E-01 -0.99403851675E-01  0.51842527158E-01  0.89015385972E+00  0.88000000000E+00 0.  1.
        -11    1    4    4    0    0 -0.59395095221E-01  0.57117965563E-01 -0.28861004894E-01  0.87312416361E-01  0.51100000000E-03 0. -1.
         11    1    4    4    0    0 -0.24193105373E-01  0.31613462350E-01 -0.74011467626E-03  0.39818666980E-01  0.51100000000E-03 0.  1.
</event>
<event>
 8    1  0.1112171E+005  0.1043930E+01  0.7957747E-01            NaN
         13   -1    0    0    0    0  0.00000000000E+00  0.00000000000E+00  0.74505805969E-08  0.10566000000E+00  0.10566000000E+00 0. -1.
     999900   -1    0    0    0    0 -0.00000000000E+00 -0.00000000000E+00 -0.74505805969E-08  0.93827000000E+00  0.93827000000E+00 0.  1.
     999902    2    1    2    0    0  0.16546426906E-01  0.95879071204E-02  0.13245519386E-01  0.10206672403E+01  0.10204021067E+01 0.  0.
     999903    2    3    3    0    0  0.21994792249E-01  0.12894241233E+00  0.78262344428E-02  0.13257684440E+00  0.20135867067E-01 0.  0.
         14    1    1    2    0    0 -0.16546426906E-01 -0.95879071204E-02 -0.13245519386E-01  0.23262759727E-01  0.00000000000E+00 0.  1.
     999901    1    3    3    0    0 -0.54483653436E-02 -0.11935450520E+00  0.54192849431E-02  0.88809039588E+00  0.88000000000E+00 0. -1.
        -11    1    4    4    0    0  0.17389004723E-01  0.71828805023E-01 -0.42092811562E-02  0.74025224654E-01  0.51100000000E-03 0. -1.
         11    1    4    4    0    0  0.46057875260E-02  0.57113607302E-01  0.12035515599E-01  0.58551619743E-01  0.51100000000E-03 0.  1.
</event>
<event>
 8    1  0.1112171E+005  0.1043930E+01  0.7957747E-01            NaN
         13   -1    0    0    0    0  0.00000000000E+00  0.00000000000E+00  0.74505805969E-08  0.10566000000E+00  0.10566000000E+00 0. -1.
     999900   -1    0    0    0    0 -0.00000000000E+00 -0.00000000000E+00 -0.74505805969E-08  0.93827000000E+00  0.93827000000E+00 0. -1.
     999902    2    1    2    0    0  0.20437912462E-01 -0.61622227221E-02 -0.10011630040E-01  0.10203521716E+01  0.10200797225E+01 0.  0.
     999903    2    3    3    0    0 -0.96095593949E-01  0.80303668917E-01  0.17953466686E-01  0.12803022571E+00  0.19656279179E-01 0.  0.
         14    1    1    2    0    0 -0.20437912462E-01  0.61622227221E-02  0.10011630040E-01  0.23577828372E-01  0.00000000000E+00 0. -1.
     999901    1    3    3    0    0  0.11653350641E+00 -0.86465891639E-01 -0.27965096727E-01  0.89232194592E+00  0.88000000000E+00 0.  1.
        -11    1    4    4    0    0 -0.26363836776E-01  0.25911237829E-01  0.13911152707E-01  0.39499688936E-01  0.51100000000E-03 0.  1.
         11    1    4    4    0    0 -0.69731757173E-01  0.54392431088E-01  0.40423139797E-02  0.88530536774E-01  0.51100000000E-03 0. -1.
</event>
<event>
 8    1  0.1112171E+005  0.1043930E+01  0.7957747E-01            NaN
         13   -1    0    0    0    0  0.00000000000E+00  0.00000000000E+00  0.74505805969E-08  0.10566000000E+00  0.10566000000E+00 0. -1.
     999900   -1    0    0    0    0 -0.00000000000E+00 -0.00000000000E+00 -0.74505805969E-08  0.93827000000E+00  0.93827000000E+00 0.  1.
     999902    2    1    2    0    0 -0.14310217122E-01 -0.16915296828E-01  0.11519538211E-01  0.10189578287E+01  0.10186517792E+01 0.  0.
     999903    2    3    3    0    0  0.79150638806E-01 -0.10121313201E+00  0.24480564518E-02  0.12995650786E+00  0.19333371154E-01 0.  0.
         14    1    1    2    0    0  0.14310217122E-01  0.16915296828E-01 -0.11519538211E-01  0.24972171340E-01  0.00000000000E+00 0.  1.
     999901    1    3    3    0    0 -0.93460855928E-01  0.84297835179E-01  0.90714817589E-02  0.88900132080E+00  0.88000000000E+00 0.  1.
        -11    1    4    4    0    0  0.65415910139E-01 -0.70065743424E-01  0.56464160029E-03  0.95859426464E-01  0.51100000000E-03 0.  1.
         11    1    4    4    0    0  0.13734728667E-01 -0.31147388583E-01  0.18834148515E-02  0.34097081394E-01  0.51100000000E-03 0. -1.
</event>
<event>
 8    1  0.1112171E+005  0.1043930E+01  0.7957747E-01            NaN
         13   -1    0    0    0    0  0.00000000000E+00  0.00000000000E+00  0.74505805969E-08  0.10566000000E+00  0.10566000000E+00 0.  1.
     999900   -1    0    0    0    0 -0.00000000000E+00 -0.00000000000E+00 -0.74505805969E-08  0.93827000000E+00  0.93827000000E+00 0.  1.
     999902    2    1    2    0    0  0.85052582094E-02  0.17591991116E-01 -0.12944892105E-01  0.10204909770E+01  0.10202217633E+01 0.  0.
     999903    2    3    3    0    0 -0.71404348945E-01 -0.10467396399E+00 -0.52308534515E-02  0.12841810132E+00  0.20214527754E-01 0.  0.
         14    1    1    2    0    0 -0.85052582094E-02 -0.17591991116E-01  0.12944892105E-01  0.23439023023E-01  0.00000000000E+00 0.  1.
     999901    1    3    3    0    0  0.79909607155E-01  0.12226595511E+00 -0.77140386536E-02  0.89207287566E+00  0.88000000000E+00 0. -1.
        -11    1    4    4    0    0 -0.19784890033E-01 -0.44356423037E-01 -0.65784247453E-02  0.49015007206E-01  0.51100000000E-03 0.  1.
         11    1    4    4    0    0 -0.51619458913E-01 -0.60317540955E-01  0.13475712938E-02  0.79403094113E-01  0.51100000000E-03 0. -1.
</event>
<event>
 8    1  0.1112171E+005  0.1043930E+01  0.7957747E-01            NaN
         13   -1    0    0    0    0  0.00000000000E+00  0.00000000000E+00  0.74505805969E-08  0.10566000000E+00  0.10566000000E+00 0. -1.
     999900   -1    0    0    0    0 -0.00000000000E+00 -0.00000000000E+00 -0.74505805969E-08  0.93827000000E+00  0.93827000000E+00 0.  1.
     999902    2    1    2    0    0 -0.20615119951E-01 -0.10293673820E-01  0.19346209791E-01  0.10138431470E+01  0.10133966193E+01 0.  0.
     999903    2    3    3    0    0 -0.11711714908E+00 -0.45946172310E-01 -0.54763498190E-02  0.12750241017E+00  0.19984915129E-01 0.  0.
         14    1    1    2    0    0  0.20615119951E-01  0.10293673820E-01 -0.19346209791E-01  0.30086853019E-01  0.00000000000E+00 0.  1.
     999901    1    3    3    0    0  0.96502029126E-01  0.35652498490E-01  0.24822559610E-01  0.88634073682E+00  0.88000000000E+00 0. -1.
        -11    1    4    4    0    0 -0.37136726622E-01 -0.10968590377E-01  0.68926157335E-02  0.39334662979E-01  0.51100000000E-03 0.  1.
         11    1    4    4    0    0 -0.79980422456E-01 -0.34977581933E-01 -0.12368965552E-01  0.88167747186E-01  0.51100000000E-03 0. -1.
</event>
<event>
 8    1  0.1112171E+005  0.1043930E+01  0.7957747E-01            NaN
         13   -1    0    0    0    0  0.00000000000E+00  0.00000000000E+00  0.74505805969E-08  0.10566000000E+00  0.10566000000E+00 0. -1.
     999900   -1    0    0    0    0 -0.00000000000E+00 -0.00000000000E+00 -0.74505805969E-08  0.93827000000E+00  0.93827000000E+00 0. -1.
     999902    2    1    2    0    0 -0.40680462833E-02  0.71462187073E-02  0.21687076997E-01  0.10207363209E+01  0.10204727777E+01 0.  0.
     999903    2    3    3    0    0 -0.85323929990E-01  0.34904566652E-01  0.94636826053E-01  0.13355273762E+00  0.19537222906E-01 0.  0.
         14    1    1    2    0    0  0.40680462833E-02 -0.71462187073E-02 -0.21687076997E-01  0.23193679119E-01  0.00000000000E+00 0.  1.
     999901    1    3    3    0    0  0.81255883707E-01 -0.27758347945E-01 -0.72949749056E-01  0.88718358326E+00  0.88000000000E+00 0. -1.
        -11    1    4    4    0    0 -0.32629640639E-01  0.22310206319E-01  0.33063160626E-01  0.51535157571E-01  0.51100000000E-03 0.  1.
         11    1    4    4    0    0 -0.52694289351E-01  0.12594360333E-01  0.61573665427E-01  0.82017580051E-01  0.51100000000E-03 0. -1.
</event>
<event>
 8    1  0.1112171E+005  0.1043930E+01  0.7957747E-01            NaN
         13   -1    0    0    0    0  0.00000000000E+00  0.00000000000E+00  0.74505805969E-08  0.10566000000E+00  0.10566000000E+00 0. -1.
     999900   -1    0    0    0    0 -0.00000000000E+00 -0.00000000000E+00 -0.74505805969E-08  0.93827000000E+00  0.93827000000E+00 0.  1.
     999902    2    1    2    0    0  0.11832274310E-01 -0.15426549330E-01 -0.10671242237E-01  0.10217521608E+01  0.10215114398E+01 0.  0.
     999903    2    3    3    0    0  0.10706332855E+00 -0.52537041485E-01  0.56234527076E-01  0.13331391070E+00  0.19687044041E-01 0.  0.
         14    1    1    2    0    0 -0.11832274310E-01  0.15426549330E-01  0.10671242237E-01  0.22177839174E-01  0.00000000000E+00 0. -1.
     999901    1    3    3    0    0 -0.95231054237E-01  0.37110492155E-01 -0.66905769313E-01  0.88843825013E+00  0.88000000000E+00 0.  1.
        -11    1    4    4    0    0  0.39100343509E-01 -0.21068168518E-01  0.31442475188E-01  0.54420537982E-01  0.51100000000E-03 0.  1.
         11    1    4    4    0    0  0.67962985038E-01 -0.31468872967E-01  0.24792051888E-01  0.78893372718E-01  0.51100000000E-03 0. -1.
</event>
<event>
 8    1  0.1112171E+005  0.1043930E+01  0.7957747E-01            NaN
         13   -1    0    0    0    0  0.00000000000E+00  0.00000000000E+00  0.74505805969E-08  0.10566000000E+00  0.10566000000E+00 0.  1.
     999900   -1    0    0    0    0 -0.00000000000E+00 -0.00000000000E+00 -0.74505805969E-08  0.93827000000E+00  0.93827000000E+00 0.  1.
     999902    2    1    2    0    0 -0.60124159102E-02 -0.21525768860E-01  0.10363291748E-01  0.10192945441E+01  0.10189967920E+01 0.  0.
     999903    2    3    3    0    0 -0.47672365343E-01 -0.34128003516E-01 -0.11372703944E+00  0.12952334995E+00  0.20126689731E-01 0.  0.
         14    1    1    2    0    0  0.60124159102E-02  0.21525768860E-01 -0.10363291748E-01  0.24635455871E-01  0.00000000000E+00 0. -1.
     999901    1    3    3    0    0  0.41659949433E-01  0.12602234656E-01  0.12409033119E+00  0.88977119418E+00  0.88000000000E+00 0. -1.
        -11    1    4    4    0    0 -0.24993257596E-01 -0.25321570233E-01 -0.50512821626E-01  0.61787143597E-01  0.51100000000E-03 0. -1.
         11    1    4    4    0    0 -0.22679107747E-01 -0.88064332832E-02 -0.63214217815E-01  0.67736206348E-01  0.51100000000E-03 0.  1.
</event>
<event>
 8    1  0.1112171E+005  0.1043930E+01  0.7957747E-01            NaN
         13   -1    0    0    0    0  0.00000000000E+00  0.00000000000E+00  0.74505805969E-08  0.10566000000E+00  0.10566000000E+00 0. -1.
     999900   -1    0    0    0    0 -0.00000000000E+00 -0.00000000000E+00 -0.74505805969E-08  0.93827000000E+00  0.93827000000E+00 0. -1.
     999902    2    1    2    0    0  0.16412066172E-01  0.10712562787E-01  0.12489910381E-01  0.10206896734E+01  0.10204250569E+01 0.  0.
     999903    2    3    3    0    0 -0.55240907285E-02  0.11734535709E+00  0.58584052566E-01  0.13278403783E+00  0.19976513159E-01 0.  0.
         14    1    1    2    0    0 -0.16412066172E-01 -0.10712562787E-01 -0.12489910381E-01  0.23240326564E-01  0.00000000000E+00 0.  1.
     999901    1    3    3    0    0  0.21936156900E-01 -0.10663279430E+00 -0.46094142185E-01  0.88790563561E+00  0.88000000000E+00 0. -1.
        -11    1    4    4    0    0 -0.54459579262E-03  0.93050850145E-01  0.37858974197E-01  0.10046054124E+00  0.51100000000E-03 0. -1.
         11    1    4    4    0    0 -0.49794949359E-02  0.24294506944E-01  0.20725078369E-01  0.32323496591E-01  0.51100000000E-03 0.  1.
</event>
<event>
 8    1  0.1376933E+005  0.1043930E+01  0.7957747E-01            NaN
         13   -1    0    0    0    0  0.00000000000E+00  0.00000000000E+00  0.74505805969E-08  0.10566000000E+00  0.10566000000E+00 0. -1.
     999900   -1    0    0    0    0 -0.00000000000E+00 -0.00000000000E+00 -0.74505805969E-08  0.93827000000E+00  0.93827000000E+00 0.  1.
     999902    2    1    2    0    0  0.65485099330E-02 -0.16064919224E-01 -0.15788086087E-01  0.10204730549E+01  0.10202034246E+01 0.  0.
     999903    2    3    3    0    0  0.12390770764E+00 -0.12915230900E-01 -0.40012888458E-01  0.13234584391E+00  0.19861217366E-01 0.  0.
         14    1    1    2    0    0 -0.65485099330E-02  0.16064919224E-01  0.15788086087E-01  0.23456945119E-01  0.00000000000E+00 0. -1.
     999901    1    3    3    0    0 -0.11735919771E+00 -0.31496883237E-02  0.24224802371E-01  0.88812721097E+00  0.88000000000E+00 0.  1.
        -11    1    4    4    0    0  0.77247091486E-01 -0.18887878615E-02 -0.16813957598E-01  0.79080028792E-01  0.51100000000E-03 0.  1.
         11    1    4    4    0    0  0.46660616152E-01 -0.11026443039E-01 -0.23198930860E-01  0.53265815115E-01  0.51100000000E-03 0. -1.
</event>
<event>
 8    1  0.1112171E+005  0.1043930E+01  0.7957747E-01            NaN
         13   -1    0    0    0    0  0.00000000000E+00  0.00000000000E+00  0.74505805969E-08  0.10566000000E+00  0.10566000000E+00 0. -1.
     999900   -1    0    0    0    0 -0.00000000000E+00 -0.00000000000E+00 -0.74505805969E-08  0.93827000000E+00  0.93827000000E+00 0. -1.
     999902    2    1    2    0    0  0.21305732581E-01 -0.38474965779E-02  0.10175313451E-01  0.10200077410E+01  0.10197271779E+01 0.  0.
     999903    2    3    3    0    0 -0.90436478626E-01 -0.81972522553E-01 -0.34657965314E-01  0.12838009209E+00  0.19545392459E-01 0.  0.
         14    1    1    2    0    0 -0.21305732581E-01  0.38474965779E-02 -0.10175313451E-01  0.23922258977E-01  0.00000000000E+00 0. -1.
     999901    1    3    3    0    0  0.11174221121E+00  0.78125025975E-01  0.44833278765E-01  0.89162764893E+00  0.88000000000E+00 0.  1.
        -11    1    4    4    0    0 -0.44689587562E-01 -0.35668910031E-01 -0.25636568434E-01  0.62665182847E-01  0.51100000000E-03 0.  1.
         11    1    4    4    0    0 -0.45746891065E-01 -0.46303612522E-01 -0.90213968805E-02  0.65714909247E-01  0.51100000000E-03 0. -1.
</event>
<event>
 8    1  0.1112171E+005  0.1043930E+01  0.7957747E-01            NaN
         13   -1    0    0    0    0  0.00000000000E+00  0.00000000000E+00  0.74505805969E-08  0.10566000000E+00  0.10566000000E+00 0.  1.
     999900   -1    0    0    0    0 -0.00000000000E+00 -0.00000000000E+00 -0.74505805969E-08  0.93827000000E+00  0.93827000000E+00 0. -1.
     999902    2    1    2    0    0 -0.19262739472E-01 -0.92605223411E-02 -0.73861210557E-02  0.10213166148E+01  0.10210662380E+01 0.  0.
     999903    2    3    3    0    0 -0.66415777667E-01  0.31858819755E-02 -0.11354681411E+00  0.13359570441E+00  0.23102551258E-01 0.  0.
         14    1    1    2    0    0  0.19262739472E-01  0.92605223411E-02  0.73861210557E-02  0.22613385201E-01  0.00000000000E+00 0.  1.
     999901    1    3    3    0    0  0.47153038194E-01 -0.12446404317E-01  0.10616069306E+00  0.88772091039E+00  0.88000000000E+00 0.  1.
        -11    1    4    4    0    0 -0.61107415403E-02  0.60877049725E-02 -0.24764605617E-01  0.26228765247E-01  0.51100000000E-03 0. -1.
         11    1    4    4    0    0 -0.60305036127E-01 -0.29018229970E-02 -0.88782208495E-01  0.10736693916E+00  0.51100000000E-03 0.  1.
</event>
<event>
 8    1  0.1112171E+005  0.1043930E+01  0.7957747E-01            NaN
         13   -1    0    0    0    0  0.00000000000E+00  0.00000000000E+00  0.74505805969E-08  0.10566000000E+00  0.10566000000E+00 0.  1.
     999900   -1    0    0    0    0 -0.00000000000E+00 -0.00000000000E+00 -0.74505805969E-08  0.93827000000E+00  0.93827000000E+00 0.  1.
     999902    2    1    2    0    0  0.21922866667E-01  0.81585126023E-02  0.89622152654E-03  0.10205210995E+01  0.10202525853E+01 0.  0.
     999903    2    3    3    0    0  0.11564764156E+00  0.63862640056E-01 -0.19044072485E-02  0.13378826104E+00  0.21044197094E-01 0.  0.
         14    1    1    2    0    0 -0.21922866667E-01 -0.81585126023E-02 -0.89622152654E-03  0.23408900526E-01  0.00000000000E+00 0. -1.
     999901    1    3    3    0    0 -0.93724774890E-01 -0.55704127454E-01  0.28006287750E-02  0.88673283844E+00  0.88000000000E+00 0. -1.
        -11    1    4    4    0    0  0.49882644367E-01  0.35745456003E-01  0.67550585292E-02  0.61740649257E-01  0.51100000000E-03 0. -1.
         11    1    4    4    0    0  0.65764997190E-01  0.28117184053E-01 -0.86594657776E-02  0.72047611779E-01  0.51100000000E-03 0.  1.
</event>
<event>
 8    1  0.1112171E+005  0.1043930E+01  0.7957747E-01            NaN
         13   -1    0    0    0    0  0.00000000000E+00  0.00000000000E+00  0.74505805969E-08  0.10566000000E+00  0.10566000000E+00 0.  1.
     999900   -1    0    0    0    0 -0.00000000000E+00 -0.00000000000E+00 -0.74505805969E-08  0.93827000000E+00  0.93827000000E+00 0.  1.
     999902    2    1    2    0    0 -0.13405204853E-01  0.12959084441E-01 -0.14867194139E-01  0.10200831795E+01  0.10198044039E+01 0.  0.
     999903    2    3    3    0    0  0.80914820662E-01  0.10049579078E+00  0.12343873312E-02  0.13057870896E+00  0.20066473406E-01 0.  0.
         14    1    1    2    0    0  0.13405204853E-01 -0.12959084441E-01  0.14867194139E-01  0.23846820506E-01  0.00000000000E+00 0.  1.
     999901    1    3    3    0    0 -0.94320025515E-01 -0.87536706338E-01 -0.16101581470E-01  0.88950447053E+00  0.88000000000E+00 0. -1.
        -11    1    4    4    0    0  0.48200079345E-01  0.59134905263E-01 -0.91179850018E-02  0.76834780151E-01  0.51100000000E-03 0.  1.
         11    1    4    4    0    0  0.32714741317E-01  0.41360885516E-01  0.10352372333E-01  0.53743928811E-01  0.51100000000E-03 0. -1.
</event>
<event>
 8    1  0.1112171E+005  0.1043930E+01  0.7957747E-01            NaN
         13   -1    0    0    0    0  0.00000000000E+00  0.00000000000E+00  0.74505805969E-08  0.10566000000E+00  0.10566000000E+00 0. -1.
     999900   -1    0    0    0    0 -0.00000000000E+00 -0.00000000000E+00 -0.74505805969E-08  0.93827000000E+00  0.93827000000E+00 0.  1.
     999902    2    1    2    0    0  0.23694089149E-01  0.14170970003E-01  0.21319320561E-02  0.10162393629E+01  0.10158620336E+01 0.  0.
     999903    2    3    3    0    0 -0.81571555330E-01  0.85315428051E-01  0.40868645979E-01  0.12627142926E+00  0.18482064826E-01 0.  0.
         14    1    1    2    0    0 -0.23694089149E-01 -0.14170970003E-01 -0.21319320561E-02  0.27690637149E-01  0.00000000000E+00 0.  1.
     999901    1    3    3    0    0  0.10526564448E+00 -0.71144458048E-01 -0.38736713923E-01  0.88996793359E+00  0.88000000000E+00 0. -1.
        -11    1    4    4    0    0 -0.33528858837E-01  0.32879860897E-01  0.25766043551E-01  0.53566965088E-01  0.51100000000E-03 0. -1.
         11    1    4    4    0    0 -0.48042696493E-01  0.52435567154E-01  0.15102602428E-01  0.72704464170E-01  0.51100000000E-03 0.  1.
</event>
<event>
 8    1  0.1112171E+005  0.1043930E+01  0.7957747E-01            NaN
         13   -1    0    0    0    0  0.00000000000E+00  0.00000000000E+00  0.74505805969E-08  0.10566000000E+00  0.10566000000E+00 0.  1.
     999900   -1    0    0    0    0 -0.00000000000E+00 -0.00000000000E+00 -0.74505805969E-08  0.93827000000E+00  0.93827000000E+00 0. -1.
     999902    2    1    2    0    0  0.18877229620E-01  0.14001698276E-01  0.49067528417E-02  0.10199201359E+01  0.10196374895E+01 0.  0.
     999903    2    3    3    0    0 -0.60609328836E-01  0.11344098060E+00 -0.10435269558E-01  0.13062734858E+00  0.20304248988E-01 0.  0.
         14    1    1    2    0    0 -0.18877229620E-01 -0.14001698276E-01 -0.49067528417E-02  0.24009864143E-01  0.00000000000E+00 0. -1.
     999901    1    3    3    0    0  0.79486558456E-01 -0.99439282320E-01  0.15342022400E-01  0.88929278727E+00  0.88000000000E+00 0.  1.
        -11    1    4    4    0    0 -0.12931245050E-02  0.36801304590E-02  0.32659668840E-02  0.51130413521E-02  0.51100000000E-03 0.  1.
         11    1    4    4    0    0 -0.59316204331E-01  0.10976085014E+00 -0.13701236442E-01  0.12551430723E+00  0.51100000000E-03 0. -1.
</event>
<event>
 8    1  0.1112171E+005  0.1043930E+01  0.7957747E-01            NaN
         13   -1    0    0    0    0  0.00000000000E+00  0.00000000000E+00  0.74505805969E-08  0.10566000000E+00  0.10566000000E+00 0. -1.
     999900   -1    0    0    0    0 -0.00000000000E+00 -0.00000000000E+00 -0.74505805969E-08  0.93827000000E+00  0.93827000000E+00 0. -1.
     999902    2    1    2    0    0  0.16393502321E-01 -0.10598748169E-01  0.12173451170E-01  0.10209240596E+01  0.10206648138E+01 0.  0.
     999903    2    3    3    0    0 -0.19437160770E-01 -0.11596284590E+00 -0.55112246052E-01  0.13136641977E+00  0.19864333101E-01 0.  0.
         14    1    1    2    0    0 -0.16393502321E-01  0.10598748169E-01 -0.12173451170E-01  0.23005940417E-01  0.00000000000E+00 0. -1.
     999901    1    3    3    0    0  0.35830663090E-01  0.10536409773E+00  0.67285697222E-01  0.88955763982E+00  0.88000000000E+00 0.  1.
        -11    1    4    4    0    0 -0.14908958600E-02 -0.64334932792E-01 -0.33873205747E-01  0.72724559376E-01  0.51100000000E-03 0. -1.
         11    1    4    4    0    0 -0.17946264910E-01 -0.51627913105E-01 -0.21239040305E-01  0.58641860389E-01  0.51100000000E-03 0.  1.
</event>
<event>
 8    1  0.1112171E+005  0.1043930E+01  0.7957747E-01            NaN
         13   -1    0    0    0    0  0.00000000000E+00  0.00000000000E+00  0.74505805969E-08  0.10566000000E+00  0.10566000000E+00 0.  1.
     999900   -1    0    0    0    0 -0.00000000000E+00 -0.00000000000E+00 -0.74505805969E-08  0.93827000000E+00  0.93827000000E+00 0. -1.
     999902    2    1    2    0    0 -0.20210324057E-01 -0.62588692988E-02  0.93680928315E-02  0.10207914649E+01  0.10205291877E+01 0.  0.
     999903    2    3    3    0    0 -0.55463136553E-01  0.11628864828E+00 -0.15998215714E-01  0.13123870960E+00  0.19194966967E-01 0.  0.
         14    1    1    2    0    0  0.20210324057E-01  0.62588692988E-02 -0.93680928315E-02  0.23138535103E-01  0.00000000000E+00 0.  1.
     999901    1    3    3    0    0  0.35252812495E-01 -0.12254751757E+00  0.25366308546E-01  0.88955275530E+00  0.88000000000E+00 0. -1.
        -11    1    4    4    0    0 -0.25065248486E-01  0.46759251405E-01  0.25561279527E-02  0.53117691825E-01  0.51100000000E-03 0. -1.
         11    1    4    4    0    0 -0.30397888067E-01  0.69529396870E-01 -0.18554343667E-01  0.78121017773E-01  0.51100000000E-03 0.  1.
</event>
<event>
 8    1  0.1112171E+005  0.1043930E+01  0.7957747E-01            NaN
         13   -1    0    0    0    0  0.00000000000E+00  0.00000000000E+00  0.74505805969E-08  0.10566000000E+00  0.10566000000E+00 0.  1.
     999900   -1    0    0    0    0 -0.00000000000E+00 -0.00000000000E+00 -0.74505805969E-08  0.93827000000E+00  0.93827000000E+00 0. -1.
     999902    2    1    2    0    0 -0.14518896227E-01  0.14282974938E-01 -0.11967770975E-01  0.10203073570E+01  0.10200338590E+01 0.  0.
     999903    2    3    3    0    0 -0.83213981835E-01  0.91154132026E-01  0.43648134648E-01  0.13254538521E+00  0.20723825033E-01 0.  0.
         14    1    1    2    0    0  0.14518896227E-01 -0.14282974938E-01  0.11967770975E-01  0.23622643011E-01  0.00000000000E+00 0.  1.
     999901    1    3    3    0    0  0.68695085608E-01 -0.76871157088E-01 -0.55615905623E-01  0.88776197178E+00  0.88000000000E+00 0. -1.
        -11    1    4    4    0    0 -0.62771913381E-01  0.54582791076E-01  0.26975667287E-01  0.87450225487E-01  0.51100000000E-03 0. -1.
         11    1    4    4    0    0 -0.20442068454E-01  0.36571340950E-01  0.16672467361E-01  0.45095159723E-01  0.51100000000E-03 0.  1.
</event>
<event>
 8    1  0.1112171E+005  0.1043930E+01  0.7957747E-01            NaN
         13   -1    0    0    0    0  0.00000000000E+00  0.00000000000E+00  0.74505805969E-08  0.10566000000E+00  0.10566000000E+00 0.  1.
     999900   -1    0    0    0    0 -0.00000000000E+00 -0.00000000000E+00 -0.74505805969E-08  0.93827000000E+00  0.93827000000E+00 0.  1.
     999902    2    1    2    0    0 -0.77530449254E-02  0.22131456537E-01 -0.67923963267E-03  0.10204699821E+01  0.10202002803E+01 0.  0.
     999903    2    3    3    0    0  0.79301098008E-02 -0.10936050803E+00  0.63212519841E-01  0.12827143074E+00  0.20859768035E-01 0.  0.
         14    1    1    2    0    0  0.77530449254E-02 -0.22131456537E-01  0.67923963267E-03  0.23460017915E-01  0.00000000000E+00 0.  1.
     999901    1    3    3    0    0 -0.15683154726E-01  0.13149196457E+00 -0.63891759473E-01  0.89219855134E+00  0.88000000000E+00 0.  1.
        -11    1    4    4    0    0  0.10539911560E-01 -0.32470532939E-01  0.13747495448E-01  0.36805977737E-01  0.51100000000E-03 0. -1.
         11    1    4    4    0    0 -0.26098017591E-02 -0.76889975090E-01  0.49465024393E-01  0.91465453007E-01  0.51100000000E-03 0.  1.
</event>
<event>
 8    1  0.1112171E+005  0.1043930E+01  0.7957747E-01            NaN
         13   -1    0    0    0    0  0.00000000000E+00  0.00000000000E+00  0.74505805969E-08  0.10566000000E+00  0.10566000000E+00 0. -1.
     999900   -1    0    0    0    0 -0.00000000000E+00 -0.00000000000E+00 -0.74505805969E-08  0.93827000000E+00  0.93827000000E+00 0.  1.
     999902    2    1    2    0    0  0.29407335059E-02  0.23006566059E-01  0.31361860024E-03  0.10207341307E+01  0.10204705372E+01 0.  0.
     999903    2    3    3    0    0  0.68825251972E-01  0.52251336032E-01  0.98254593639E-01  0.13237133268E+00  0.20027159479E-01 0.  0.
         14    1    1    2    0    0 -0.29407335059E-02 -0.23006566059E-01 -0.31361860024E-03  0.23195869288E-01  0.00000000000E+00 0. -1.
     999901    1    3    3    0    0 -0.65884518466E-01 -0.29244769973E-01 -0.97940975039E-01  0.88836279804E+00  0.88000000000E+00 0.  1.
        -11    1    4    4    0    0  0.49492921544E-01  0.26308014700E-01  0.57037965542E-01  0.79970316709E-01  0.51100000000E-03 0. -1.
         11    1    4    4    0    0  0.19332330428E-01  0.25943321333E-01  0.41216628098E-01  0.52401015966E-01  0.51100000000E-03 0.  1.
</event>
<event>
 8    1  0.1112171E+005  0.1043930E+01  0.7957747E-01            NaN
         13   -1    0    0    0    0  0.00000000000E+00  0.00000000000E+00  0.74505805969E-08  0.10566000000E+00  0.10566000000E+00 0. -1.
     999900   -1    0    0    0    0 -0.00000000000E+00 -0.00000000000E+00 -0.74505805969E-08  0.93827000000E+00  0.93827000000E+00 0.  1.
     999902    2    1    2    0    0  0.41825631473E-02 -0.22352101404E-01 -0.72207831563E-02  0.10200710398E+01  0.10197919770E+01 0.  0.
     999903    2    3    3    0    0  0.25462157746E-01 -0.12538177420E+00 -0.31033302784E-01  0.13348490711E+00  0.22050935663E-01 0.  0.
         14    1    1    2    0    0 -0.41825631473E-02  0.22352101404E-01  0.72207831563E-02  0.23858960184E-01  0.00000000000E+00 0. -1.
     999901    1    3    3    0    0 -0.21279594599E-01  0.10302967280E+00  0.23812519627E-01  0.88658613271E+00  0.88000000000E+00 0.  1.
        -11    1    4    4    0    0  0.83452752806E-02 -0.91313851973E-01 -0.22247833981E-01  0.94356189090E-01  0.51100000000E-03 0. -1.
         11    1    4    4    0    0  0.17116882466E-01 -0.34067922231E-01 -0.87854688021E-02  0.39128718016E-01  0.51100000000E-03 0.  1.
</event>
<event>
 8    1  0.1112171E+005  0.1043930E+01  0.7957747E-01            NaN
         13   -1    0    0    0    0  0.00000000000E+00  0.00000000000E+00  0.74505805969E-08  0.10566000000E+00  0.10566000000E+00 0.  1.
     999900   -1    0    0    0    0 -0.00000000000E+00 -0.00000000000E+00 -0.74505805969E-08  0.93827000000E+00  0.93827000000E+00 0.  1.
     999902    2    1    2    0    0  0.87763475260E-03  0.23123938073E-01  0.56894475695E-02  0.10201002587E+01  0.10198218871E+01 0.  0.
     999903    2    3    3    0    0  0.74082336322E-01 -0.69733683414E-01  0.77255861454E-01  0.12931228296E+00  0.20055404211E-01 0.  0.
         14    1    1    2    0    0 -0.87763475260E-03 -0.23123938073E-01 -0.56894475695E-02  0.23829741258E-01  0.00000000000E+00 0. -1.
     999901    1    3    3    0    0 -0.73204701570E-01  0.92857621487E-01 -0.71566413884E-01  0.89078797578E+00  0.88000000000E+00 0.  1.
        -11    1    4    4    0    0  0.50864520606E-01 -0.34614525079E-01  0.48140616130E-01  0.78122626974E-01  0.51100000000E-03 0. -1.
         11    1    4    4    0    0  0.23217815717E-01 -0.35119158335E-01  0.29115245324E-01  0.51189655987E-01  0.51100000000E-03 0.  1.
</event>
<event>
 8    1  0.1112171E+005  0.1043930E+01  0.7957747E-01            NaN
         13   -1    0    0    0    0  0.00000000000E+00  0.00000000000E+00  0.74505805969E-08  0.10566000000E+00  0.10566000000E+00 0.  1.
     999900   -1    0    0    0    0 -0.00000000000E+00 -0.00000000000E+00 -0.74505805969E-08  0.93827000000E+00  0.93827000000E+00 0. -1.
     999902    2    1    2    0    0 -0.37748230340E-02  0.68528096551E-02  0.24362340405E-01  0.10183422311E+01  0.10180207098E+01 0.  0.
     999903    2    3    3    0    0 -0.69227095568E-03 -0.98955262305E-01  0.82140636345E-01  0.13011749503E+00  0.19770058098E-01 0.  0.
         14    1    1    2    0    0  0.37748230340E-02 -0.68528096551E-02 -0.24362340405E-01  0.25587768936E-01  0.00000000000E+00 0. -1.
     999901    1    3    3    0    0 -0.30825520783E-02  0.10580807196E+00 -0.57778295941E-01  0.88822473603E+00  0.88000000000E+00 0. -1.
        -11    1    4    4    0    0 -0.48738655967E-02 -0.73736256957E-01  0.70091527519E-01  0.10185221405E+00  0.51100000000E-03 0.  1.
         11    1    4    4    0    0  0.41815946410E-02 -0.25219005348E-01  0.12049108826E-01  0.28265280982E-01  0.51100000000E-03 0. -1.
</event>
<event>
 8    1  0.1112171E+005  0.1043930E+01  0.7957747E-01            NaN
         13   -1    0    0    0    0  0.00000000000E+00  0.00000000000E+00  0.74505805969E-08  0.10566000000E+00  0.10566000000E+00 0. -1.
     999900   -1    0    0    0    0 -0.00000000000E+00 -0.00000000000E+00 -0.74505805969E-08  0.93827000000E+00  0.93827000000E+00 0. -1.
     999902    2    1    2    0    0 -0.25691474131E-01 -0.45061821302E-02  0.12845181126E-01  0.10148549901E+01  0.10144384135E+01 0.  0.
     999903    2    3    3    0    0 -0.74215515365E-01  0.48340158439E-01  0.90896037392E-01  0.12849205406E+00  0.20084937236E-01 0.  0.
         14    1    1    2    0    0  0.25691474131E-01  0.45061821302E-02 -0.12845181126E-01  0.29075009863E-01  0.00000000000E+00 0.  1.
     999901    1    3    3    0    0  0.48524041234E-01 -0.52846340569E-01 -0.78050856266E-01  0.88636293608E+00  0.88000000000E+00 0. -1.
        -11    1    4    4    0    0 -0.62654591774E-01  0.43106938555E-01  0.86192065673E-01  0.11494842029E+00  0.51100000000E-03 0. -1.
         11    1    4    4    0    0 -0.11560923591E-01  0.52332198845E-02  0.47039717193E-02  0.13543633765E-01  0.51100000000E-03 0.  1.
</event>
<event>
 8    1  0.1112171E+005  0.1043930E+01  0.7957747E-01            NaN
         13   -1    0    0    0    0  0.00000000000E+00  0.00000000000E+00  0.74505805969E-08  0.10566000000E+00  0.10566000000E+00 0.  1.
     999900   -1    0    0    0    0 -0.00000000000E+00 -0.00000000000E+00 -0.74505805969E-08  0.93827000000E+00  0.93827000000E+00 0.  1.
     999902    2    1    2    0    0  0.22793550696E-01 -0.25822870464E-02 -0.54955779370E-02  0.10203415381E+01  0.10200688402E+01 0.  0.
     999903    2    3    3    0    0 -0.49929659633E-01 -0.10146114666E+00  0.60094752188E-01  0.12940507254E+00  0.18626818446E-01 0.  0.
         14    1    1    2    0    0 -0.22793550696E-01  0.25822870464E-02  0.54955779370E-02  0.23588461938E-01  0.00000000000E+00 0. -1.
     999901    1    3    3    0    0  0.72723210330E-01  0.98878859610E-01 -0.65590330125E-01  0.89093646553E+00  0.88000000000E+00 0.  1.
        -11    1    4    4    0    0 -0.25630827585E-01 -0.40427563044E-01  0.16826704924E-01  0.50741760868E-01  0.51100000000E-03 0.  1.
         11    1    4    4    0    0 -0.24298832048E-01 -0.61033583612E-01  0.43268047264E-01  0.78663311668E-01  0.51100000000E-03 0. -1.
</event>
<event>
 8    1  0.1112171E+005  0.1043930E+01  0.7957747E-01            NaN
         13   -1    0    0    0    0  0.00000000000E+00  0.00000000000E+00  0.74505805969E-08  0.10566000000E+00  0.10566000000E+00 0. -1.
     999900   -1    0    0    0    0 -0.00000000000E+00 -0.00000000000E+00 -0.74505805969E-08  0.93827000000E+00  0.93827000000E+00 0.  1.
     999902    2    1    2    0    0  0.17111164138E-01  0.15784468226E-01  0.52000871069E-02  0.10200766505E+01  0.10197977205E+01 0.  0.
     999903    2    3    3    0    0  0.48976774652E-01  0.63583110442E-01  0.10381111204E+00  0.13270735786E+00  0.19823205034E-01 0.  0.
         14    1    1    2    0    0 -0.17111164138E-01 -0.15784468226E-01 -0.52000871069E-02  0.23853349477E-01  0.00000000000E+00 0.  1.
     999901    1    3    3    0    0 -0.31865610514E-01 -0.47798642216E-01 -0.98611024930E-01  0.88736929267E+00  0.88000000000E+00 0.  1.
        -11    1    4    4    0    0  0.11924787806E-01  0.18239079503E-01  0.43434580208E-01  0.48597206341E-01  0.51100000000E-03 0. -1.
         11    1    4    4    0    0  0.37051986846E-01  0.45344030939E-01  0.60376531829E-01  0.84110151514E-01  0.51100000000E-03 0.  1.
</event>
<event>
 8    1  0.1112171E+005  0.1043930E+01  0.7957747E-01            NaN
         13   -1    0    0    0    0  0.00000000000E+00  0.00000000000E+00  0.74505805969E-08  0.10566000000E+00  0.10566000000E+00 0. -1.
     999900   -1    0    0    0    0 -0.00000000000E+00 -0.00000000000E+00 -0.74505805969E-08  0.93827000000E+00  0.93827000000E+00 0.  1.
     999902    2    1    2    0    0  0.55758805462E-03 -0.24010872219E-01 -0.19118196289E-02  0.10198366826E+01  0.10195520444E+01 0.  0.
     999903    2    3    3    0    0  0.60357254455E-01  0.10831505955E+00  0.22457696228E-01  0.12760351485E+00  0.20078809548E-01 0.  0.
         14    1    1    2    0    0 -0.55758805462E-03  0.24010872219E-01  0.19118196289E-02  0.24093317402E-01  0.00000000000E+00 0. -1.
     999901    1    3    3    0    0 -0.59799666400E-01 -0.13232593177E+00 -0.24369515857E-01  0.89223316774E+00  0.88000000000E+00 0. -1.
        -11    1    4    4    0    0  0.48067138021E-01  0.66732872571E-01  0.15237677239E-01  0.83643134612E-01  0.51100000000E-03 0. -1.
         11    1    4    4    0    0  0.12290116434E-01  0.41582186978E-01  0.72200189897E-02  0.43960380242E-01  0.51100000000E-03 0.  1.
</event>
<event>
 8    1  0.1112171E+005  0.1043930E+01  0.7957747E-01            NaN
         13   -1    0    0    0    0  0.00000000000E+00  0.00000000000E+00  0.74505805969E-08  0.10566000000E+00  0.10566000000E+00 0.  1.
     999900   -1    0    0    0    0 -0.00000000000E+00 -0.00000000000E+00 -0.74505805969E-08  0.93827000000E+00  0.93827000000E+00 0. -1.
     999902    2    1    2    0    0 -0.13583230046E-01 -0.41806030202E-03  0.17338318874E-01  0.10219005603E+01  0.10216630848E+01 0.  0.
     999903    2    3    3    0    0 -0.86274364116E-01 -0.96938258116E-01 -0.20203623092E-01  0.13285076023E+00  0.20021146787E-01 0.  0.
         14    1    1    2    0    0  0.13583230046E-01  0.41806030202E-03 -0.17338318874E-01  0.22029439718E-01  0.00000000000E+00 0. -1.
     999901    1    3    3    0    0  0.72691134070E-01  0.96520197814E-01  0.37541941966E-01  0.88904980005E+00  0.88000000000E+00 0.  1.
        -11    1    4    4    0    0 -0.45544053124E-01 -0.41960604567E-01 -0.17584549475E-01  0.64377252286E-01  0.51100000000E-03 0. -1.
         11    1    4    4    0    0 -0.40730310993E-01 -0.54977653548E-01 -0.26190736170E-02  0.68473507949E-01  0.51100000000E-03 0.  1.
</event>
<event>
 8    1  0.1112171E+005  0.1043930E+01  0.7957747E-01            NaN
         13   -1    0    0    0    0  0.00000000000E+00  0.00000000000E+00  0.74505805969E-08  0.10566000000E+00  0.10566000000E+00 0. -1.
     999900   -1    0    0    0    0 -0.00000000000E+00 -0.00000000000E+00 -0.74505805969E-08  0.93827000000E+00  0.93827000000E+00 0.  1.
     999902    2    1    2    0    0 -0.97381734501E-02  0.90587575311E-02  0.19331885802E-01  0.10204648148E+01  0.10201949927E+01 0.  0.
     999903    2    3    3    0    0  0.71755815168E-01  0.93127938388E-01 -0.51154671168E-01  0.12991596597E+00  0.20967782728E-01 0.  0.
         14    1    1    2    0    0  0.97381734501E-02 -0.90587575311E-02 -0.19331885802E-01  0.23465185250E-01  0.00000000000E+00 0.  1.
     999901    1    3    3    0    0 -0.81493988618E-01 -0.84069180857E-01  0.70486556970E-01  0.89054884878E+00  0.88000000000E+00 0. -1.
        -11    1    4    4    0    0  0.32324062092E-01  0.58743463600E-01 -0.26882351288E-01  0.72239611278E-01  0.51100000000E-03 0. -1.
         11    1    4    4    0    0  0.39431753076E-01  0.34384474789E-01 -0.24272319880E-01  0.57676354692E-01  0.51100000000E-03 0.  1.
</event>
<event>
 8    1  0.1112171E+005  0.1043930E+01  0.7957747E-01            NaN
         13   -1    0    0    0    0  0.00000000000E+00  0.00000000000E+00  0.74505805969E-08  0.10566000000E+00  0.10566000000E+00 0.  1.
     999900   -1    0    0    0    0 -0.00000000000E+00 -0.00000000000E+00 -0.74505805969E-08  0.93827000000E+00  0.93827000000E+00 0. -1.
     999902    2    1    2    0    0  0.12869030600E-01 -0.33285018561E-02  0.19702365485E-01  0.10201629203E+01  0.10198860279E+01 0.  0.
     999903    2    3    3    0    0  0.64632129576E-01 -0.33009037685E-01 -0.10512236703E+00  0.12935341961E+00  0.20363849636E-01 0.  0.
         14    1    1    2    0    0 -0.12869030600E-01  0.33285018561E-02 -0.19702365485E-01  0.23767079730E-01  0.00000000000E+00 0. -1.
     999901    1    3    3    0    0 -0.51763098977E-01  0.29680535829E-01  0.12482473251E+00  0.89080950066E+00  0.88000000000E+00 0.  1.
        -11    1    4    4    0    0  0.25158707954E-01 -0.24161829778E-01 -0.46723617061E-01  0.58310480331E-01  0.51100000000E-03 0. -1.
         11    1    4    4    0    0  0.39473421622E-01 -0.88472079076E-02 -0.58398749968E-01  0.71042939277E-01  0.51100000000E-03 0.  1.
</event>
<event>
 8    1  0.1112171E+005  0.1043930E+01  0.7957747E-01            NaN
         13   -1    0    0    0    0  0.00000000000E+00  0.00000000000E+00  0.74505805969E-08  0.10566000000E+00  0.10566000000E+00 0. -1.
     999900   -1    0    0    0    0 -0.00000000000E+00 -0.00000000000E+00 -0.74505805969E-08  0.93827000000E+00  0.93827000000E+00 0. -1.
     999902    2    1    2    0    0  0.25532263402E-02  0.20848207191E-01  0.45791428678E-02  0.10224326686E+01  0.10222066457E+01 0.  0.
     999903    2    3    3    0    0  0.56044473418E-01  0.11318878650E+00 -0.42478382800E-01  0.13473761577E+00  0.19928063320E-01 0.  0.
         14    1    1    2    0    0 -0.25532263402E-02 -0.20848207191E-01 -0.45791428678E-02  0.21497331398E-01  0.00000000000E+00 0.  1.
     999901    1    3    3    0    0 -0.53491247078E-01 -0.92340579310E-01  0.47057525668E-01  0.88769505283E+00  0.88000000000E+00 0. -1.
        -11    1    4    4    0    0  0.28189843038E-01  0.61490857739E-01 -0.12462917047E-01  0.68785014780E-01  0.51100000000E-03 0.  1.
         11    1    4    4    0    0  0.27854630380E-01  0.51697928762E-01 -0.30015465753E-01  0.65952600989E-01  0.51100000000E-03 0. -1.
</event>
<event>
 8    1  0.1112171E+005  0.1043930E+01  0.7957747E-01            NaN
         13   -1    0    0    0    0  0.00000000000E+00  0.00000000000E+00  0.74505805969E-08  0.10566000000E+00  0.10566000000E+00 0. -1.
     999900   -1    0    0    0    0 -0.00000000000E+00 -0.00000000000E+00 -0.74505805969E-08  0.93827000000E+00  0.93827000000E+00 0.  1.
     999902    2    1    2    0    0 -0.24884495736E-01 -0.25997865710E-02  0.81486465963E-02  0.10176165536E+01  0.10172762913E+01 0.  0.
     999903    2    3    3    0    0 -0.57130127147E-01 -0.10416892260E+00  0.49251451430E-01  0.13023528794E+00  0.20506313503E-01 0.  0.
         14    1    1    2    0    0  0.24884495736E-01  0.25997865710E-02 -0.81486465963E-02  0.26313446365E-01  0.00000000000E+00 0. -1.
     999901    1    3    3    0    0  0.32245631411E-01  0.10156913603E+00 -0.41102804834E-01  0.88738126569E+00  0.88000000000E+00 0.  1.
        -11    1    4    4    0    0 -0.25095996097E-01 -0.28931077947E-01  0.21228544366E-01  0.43791877194E-01  0.51100000000E-03 0.  1.
         11    1    4    4    0    0 -0.32034131050E-01 -0.75237844654E-01  0.28022907064E-01  0.86443410747E-01  0.51100000000E-03 0. -1.
</event>
<event>
 8    1  0.1112171E+005  0.1043930E+01  0.7957747E-01            NaN
         13   -1    0    0    0    0  0.00000000000E+00  0.00000000000E+00  0.74505805969E-08  0.10566000000E+00  0.10566000000E+00 0.  1.
     999900   -1    0    0    0    0 -0.00000000000E+00 -0.00000000000E+00 -0.74505805969E-08  0.93827000000E+00  0.93827000000E+00 0. -1.
     999902    2    1    2    0    0 -0.21093259385E-01  0.19951545150E-02  0.13047243619E-01  0.10190475403E+01  0.10187437129E+01 0.  0.
     999903    2    3    3    0    0  0.74732401269E-01 -0.77289550617E-01  0.67254098907E-01  0.12865043518E+00  0.21661353090E-01 0.  0.
         14    1    1    2    0    0  0.21093259385E-01 -0.19951545150E-02 -0.13047243619E-01  0.24882459667E-01  0.00000000000E+00 0. -1.
     999901    1    3    3    0    0 -0.95825660655E-01  0.79284705132E-01 -0.54206855288E-01  0.89039710515E+00  0.88000000000E+00 0. -1.
        -11    1    4    4    0    0  0.62900387183E-01 -0.67742123123E-01  0.48154942686E-01  0.10423345710E+00  0.51100000000E-03 0. -1.
         11    1    4    4    0    0  0.11832014086E-01 -0.95474274935E-02  0.19099156222E-01  0.24416978078E-01  0.51100000000E-03 0.  1.
</event>
<event>
 8    1  0.1112171E+005  0.1043930E+01  0.7957747E-01            NaN
         13   -1    0    0    0    0  0.00000000000E+00  0.00000000000E+00  0.74505805969E-08  0.10566000000E+00  0.10566000000E+00 0.  1.
     999900   -1    0    0    0    0 -0.00000000000E+00 -0.00000000000E+00 -0.74505805969E-08  0.93827000000E+00  0.93827000000E+00 0.  1.
     999902    2    1    2    0    0 -0.19834343462E-01 -0.10983203073E-01  0.12250221271E-01  0.10181598651E+01  0.10178336854E+01 0.  0.
     999903    2    3    3    0    0 -0.67071611056E-01 -0.21107285003E-02  0.11110716652E+00  0.13132122372E+00  0.19935023535E-01 0.  0.
         14    1    1    2    0    0  0.19834343462E-01  0.10983203073E-01 -0.12250221271E-01  0.25770134876E-01  0.00000000000E+00 0. -1.
     999901    1    3    3    0    0  0.47237267594E-01 -0.88724745727E-02 -0.98856945252E-01  0.88683864140E+00  0.88000000000E+00 0.  1.
        -11    1    4    4    0    0 -0.30830627844E-01 -0.14662711661E-02  0.70054580744E-01  0.76554444473E-01  0.51100000000E-03 0. -1.
         11    1    4    4    0    0 -0.36240983212E-01 -0.64445733425E-03  0.41052585779E-01  0.54766779252E-01  0.51100000000E-03 0.  1.
</event>
<event>
 8    1  0.1112171E+005  0.1043930E+01  0.7957747E-01            NaN
         13   -1    0    0    0    0  0.00000000000E+00  0.00000000000E+00  0.74505805969E-08  0.10566000000E+00  0.10566000000E+00 0. -1.
     999900   -1    0    0    0    0 -0.00000000000E+00 -0.00000000000E+00 -0.74505805969E-08  0.93827000000E+00  0.93827000000E+00 0. -1.
     999902    2    1    2    0    0 -0.16551434718E-01  0.18102892545E-01 -0.10735711722E-01  0.10171546342E+01  0.10168021585E+01 0.  0.
     999903    2    3    3    0    0 -0.74269571056E-01 -0.82378718928E-01 -0.60428104667E-01  0.12816797992E+00  0.21754372548E-01 0.  0.
         14    1    1    2    0    0  0.16551434718E-01 -0.18102892545E-01  0.10735711722E-01  0.26775365840E-01  0.00000000000E+00 0. -1.
     999901    1    3    3    0    0  0.57718136338E-01  0.10048161147E+00  0.49692392945E-01  0.88898665424E+00  0.88000000000E+00 0.  1.
        -11    1    4    4    0    0 -0.66592220569E-01 -0.63689840284E-01 -0.54704604076E-01  0.10716237410E+00  0.51100000000E-03 0. -1.
         11    1    4    4    0    0 -0.76773504878E-02 -0.18688878644E-01 -0.57235005912E-02  0.21005605811E-01  0.51100000000E-03 0.  1.
</event>
<event>
 8    1  0.1112171E+005  0.1043930E+01  0.7957747E-01            NaN
         13   -1    0    0    0    0  0.00000000000E+00  0.00000000000E+00  0.74505805969E-08  0.10566000000E+00  0.10566000000E+00 0.  1.
     999900   -1    0    0    0    0 -0.00000000000E+00 -0.00000000000E+00 -0.74505805969E-08  0.93827000000E+00  0.93827000000E+00 0.  1.
     999902    2    1    2    0    0 -0.60069249466E-02  0.11879802605E-02  0.22943152658E-01  0.10201837856E+01  0.10199073849E+01 0.  0.
     999903    2    3    3    0    0 -0.11966753873E+00 -0.16971206815E-04 -0.47064961182E-01  0.13011562920E+00  0.19865706038E-01 0.  0.
         14    1    1    2    0    0  0.60069249466E-02 -0.11879802605E-02 -0.22943152658E-01  0.23746214400E-01  0.00000000000E+00 0. -1.
     999901    1    3    3    0    0  0.11366061379E+00  0.12049514673E-02  0.70008113841E-01  0.89006815640E+00  0.88000000000E+00 0. -1.
        -11    1    4    4    0    0 -0.87045889606E-01 -0.26923924204E-02 -0.43008920132E-01  0.97130140565E-01  0.51100000000E-03 0. -1.
         11    1    4    4    0    0 -0.32621649128E-01  0.26754212136E-02 -0.40560410502E-02  0.32985488635E-01  0.51100000000E-03 0.  1.
</event>
<event>
 8    1  0.1112171E+005  0.1043930E+01  0.7957747E-01            NaN
         13   -1    0    0    0    0  0.00000000000E+00  0.00000000000E+00  0.74505805969E-08  0.10566000000E+00  0.10566000000E+00 0.  1.
     999900   -1    0    0    0    0 -0.00000000000E+00 -0.00000000000E+00 -0.74505805969E-08  0.93827000000E+00  0.93827000000E+00 0.  1.
     999902    2    1    2    0    0 -0.99274310595E-02  0.23014485818E-01  0.37186139863E-02  0.10185913233E+01  0.10182761096E+01 0.  0.
     999903    2    3    3    0    0  0.62791838750E-01 -0.73899706049E-01  0.79560738862E-01  0.12705754345E+00  0.20241704728E-01 0.  0.
         14    1    1    2    0    0  0.99274310595E-02 -0.23014485818E-01 -0.37186139863E-02  0.25338676660E-01  0.00000000000E+00 0.  1.
     999901    1    3    3    0    0 -0.72719269810E-01  0.96914191867E-01 -0.75842124876E-01  0.89153377989E+00  0.88000000000E+00 0.  1.
        -11    1    4    4    0    0  0.27494366902E-01 -0.28631440508E-01  0.45183723631E-01  0.60145902596E-01  0.51100000000E-03 0.  1.
         11    1    4    4    0    0  0.35297471848E-01 -0.45268265541E-01  0.34377015231E-01  0.66911640850E-01  0.51100000000E-03 0. -1.
</event>
<event>
 8    1  0.1112171E+005  0.1043930E+01  0.7957747E-01            NaN
         13   -1    0    0    0    0  0.00000000000E+00  0.00000000000E+00  0.74505805969E-08  0.10566000000E+00  0.10566000000E+00 0.  1.
     999900   -1    0    0    0    0 -0.00000000000E+00 -0.00000000000E+00 -0.74505805969E-08  0.93827000000E+00  0.93827000000E+00 0. -1.
     999902    2    1    2    0    0 -0.23114056614E-01  0.22301851196E-02  0.39739610481E-02  0.10203710165E+01  0.10200990077E+01 0.  0.
     999903    2    3    3    0    0 -0.67597904780E-01 -0.10007094594E+00 -0.48703239841E-01  0.13176580510E+00  0.20163106722E-01 0.  0.
         14    1    1    2    0    0  0.23114056614E-01 -0.22301851196E-02 -0.39739610481E-02  0.23558983536E-01  0.00000000000E+00 0.  1.
     999901    1    3    3    0    0  0.44483848166E-01  0.10230113106E+00  0.52677200889E-01  0.88860521136E+00  0.88000000000E+00 0.  1.
        -11    1    4    4    0    0 -0.87661545557E-02 -0.37398917500E-02 -0.43314540395E-02  0.10481167449E-01  0.51100000000E-03 0. -1.
         11    1    4    4    0    0 -0.58831750224E-01 -0.96331054186E-01 -0.44371785801E-01  0.12128463766E+00  0.51100000000E-03 0.  1.
</event>
<event>
 8    1  0.1112171E+005  0.1043930E+01  0.7957747E-01            NaN
         13   -1    0    0    0    0  0.00000000000E+00  0.00000000000E+00  0.74505805969E-08  0.10566000000E+00  0.10566000000E+00 0. -1.
     999900   -1    0    0    0    0 -0.00000000000E+00 -0.00000000000E+00 -0.74505805969E-08  0.93827000000E+00  0.93827000000E+00 0. -1.
     999902    2    1    2    0    0 -0.14195006603E-02 -0.28971078227E-03  0.18598329581E-01  0.10252753283E+01  0.10251056053E+01 0.  0.
     999903    2    3    3    0    0 -0.97321208004E-01  0.55584289119E-01  0.75267796950E-01  0.13649500115E+00  0.20115003256E-01 0.  0.
         14    1    1    2    0    0  0.14195006603E-02  0.28971078227E-03 -0.18598329581E-01  0.18654671738E-01  0.00000000000E+00 0.  1.
     999901    1    3    3    0    0  0.95901707344E-01 -0.55873999901E-01 -0.56669467369E-01  0.88878032712E+00  0.88000000000E+00 0. -1.
        -11    1    4    4    0    0 -0.74000483387E-01  0.33577198570E-01  0.47862204822E-01  0.94310930314E-01  0.51100000000E-03 0.  1.
         11    1    4    4    0    0 -0.23320724618E-01  0.22007090549E-01  0.27405592128E-01  0.42184070832E-01  0.51100000000E-03 0. -1.
</event>
<event>
 8    1  0.1112171E+005  0.1043930E+01  0.7957747E-01            NaN
         13   -1    0    0    0    0  0.00000000000E+00  0.00000000000E+00  0.74505805969E-08  0.10566000000E+00  0.10566000000E+00 0.  1.
     999900   -1    0    0    0    0 -0.00000000000E+00 -0.00000000000E+00 -0.74505805969E-08  0.93827000000E+00  0.93827000000E+00 0.  1.
     999902    2    1    2    0    0 -0.15146389506E-01  0.14757610547E-01  0.11064164067E-01  0.10200633725E+01  0.10197841281E+01 0.  0.
     999903    2    3    3    0    0 -0.91414101065E-01 -0.55624114806E-01  0.74095437838E-01  0.13172599703E+00  0.20273735823E-01 0.  0.
         14    1    1    2    0    0  0.15146389506E-01 -0.14757610547E-01 -0.11064164067E-01  0.23866627550E-01  0.00000000000E+00 0. -1.
     999901    1    3    3    0    0  0.76267711559E-01  0.70381725353E-01 -0.63031273772E-01  0.88833737542E+00  0.88000000000E+00 0. -1.
        -11    1    4    4    0    0 -0.62619886616E-01 -0.42595605648E-01  0.41665915243E-01  0.86440415515E-01  0.51100000000E-03 0. -1.
         11    1    4    4    0    0 -0.28794214449E-01 -0.13028509158E-01  0.32429522595E-01  0.45285581517E-01  0.51100000000E-03 0.  1.
</event>
<event>
 8    1  0.1112171E+005  0.1043930E+01  0.7957747E-01            NaN
         13   -1    0    0    0    0  0.00000000000E+00  0.00000000000E+00  0.74505805969E-08  0.10566000000E+00  0.10566000000E+00 0. -1.
     999900   -1    0    0    0    0 -0.00000000000E+00 -0.00000000000E+00 -0.74505805969E-08  0.93827000000E+00  0.93827000000E+00 0.  1.
     999902    2    1    2    0    0  0.13710099790E-01 -0.12233645730E-01 -0.15213733840E-01  0.10200744635E+01  0.10197954817E+01 0.  0.
     999903    2    3    3    0    0  0.10421129561E+00 -0.48337097260E-01 -0.64746994612E-01  0.13331211114E+00  0.19582557565E-01 0.  0.
         14    1    1    2    0    0 -0.13710099790E-01  0.12233645730E-01  0.15213733840E-01  0.23855536495E-01  0.00000000000E+00 0. -1.
     999901    1    3    3    0    0 -0.90501195816E-01  0.36103451530E-01  0.49533260772E-01  0.88676235237E+00  0.88000000000E+00 0. -1.
        -11    1    4    4    0    0  0.60613048686E-01 -0.36010327253E-01 -0.32117176725E-01  0.77475541313E-01  0.51100000000E-03 0. -1.
         11    1    4    4    0    0  0.43598246920E-01 -0.12326770007E-01 -0.32629817887E-01  0.55836569823E-01  0.51100000000E-03 0.  1.
</event>
<event>
 8    1  0.1112171E+005  0.1043930E+01  0.7957747E-01            NaN
         13   -1    0    0    0    0  0.00000000000E+00  0.00000000000E+00  0.74505805969E-08  0.10566000000E+00  0.10566000000E+00 0.  1.
     999900   -1    0    0    0    0 -0.00000000000E+00 -0.00000000000E+00 -0.74505805969E-08  0.93827000000E+00  0.93827000000E+00 0.  1.
     999902    2    1    2    0    0 -0.13689458687E-01 -0.19224683944E-01 -0.26543283641E-02  0.10201805745E+01  0.10199040981E+01 0.  0.
     999903    2    3    3    0    0  0.73400201634E-01 -0.10438790834E+00 -0.24374304229E-01  0.13152476877E+00  0.20499587457E-01 0.  0.
         14    1    1    2    0    0  0.13689458687E-01  0.19224683944E-01  0.26543283641E-02  0.23749425487E-01  0.00000000000E+00 0. -1.
     999901    1    3    3    0    0 -0.87089660321E-01  0.85163224398E-01  0.21719975865E-01  0.88865580574E+00  0.88000000000E+00 0.  1.
        -11    1    4    4    0    0  0.45028706312E-01 -0.52074471338E-01 -0.20736145986E-01  0.71899818001E-01  0.51100000000E-03 0.  1.
         11    1    4    4    0    0  0.28371495322E-01 -0.52313437005E-01 -0.36381582427E-02  0.59624950771E-01  0.51100000000E-03 0. -1.
</event>
<event>
 8    1  0.1112171E+005  0.1043930E+01  0.7957747E-01            NaN
         13   -1    0    0    0    0  0.00000000000E+00  0.00000000000E+00  0.74505805969E-08  0.10566000000E+00  0.10566000000E+00 0. -1.
     999900   -1    0    0    0    0 -0.00000000000E+00 -0.00000000000E+00 -0.74505805969E-08  0.93827000000E+00  0.93827000000E+00 0. -1.
     999902    2    1    2    0    0 -0.62150228126E-02  0.73258315240E-02 -0.16913481765E-01  0.10244785172E+01  0.10242938407E+01 0.  0.
     999903    2    3    3    0    0  0.32437806160E-01 -0.10499956898E+00 -0.75139178693E-01  0.13459017112E+00  0.19786289021E-01 0.  0.
         14    1    1    2    0    0  0.62150228126E-02 -0.73258315240E-02  0.16913481765E-01  0.19451482759E-01  0.00000000000E+00 0. -1.
     999901    1    3    3    0    0 -0.38652828973E-01  0.11232540050E+00  0.58225696928E-01  0.88988834612E+00  0.88000000000E+00 0. -1.
        -11    1    4    4    0    0  0.22185323778E-01 -0.50232622638E-01 -0.28198629223E-01  0.61732720492E-01  0.51100000000E-03 0.  1.
         11    1    4    4    0    0  0.10252482382E-01 -0.54766946337E-01 -0.46940549470E-01  0.72857450626E-01  0.51100000000E-03 0. -1.
</event>
<event>
 8    1  0.1112171E+005  0.1043930E+01  0.7957747E-01            NaN
         13   -1    0    0    0    0  0.00000000000E+00  0.00000000000E+00  0.74505805969E-08  0.10566000000E+00  0.10566000000E+00 0.  1.
     999900   -1    0    0    0    0 -0.00000000000E+00 -0.00000000000E+00 -0.74505805969E-08  0.93827000000E+00  0.93827000000E+00 0. -1.
     999902    2    1    2    0    0  0.40379959160E-02 -0.41241337544E-02 -0.22741507158E-01  0.10204674759E+01  0.10201977158E+01 0.  0.
     999903    2    3    3    0    0  0.11910393148E+00 -0.35851371909E-01 -0.40137269739E-01  0.13223923960E+00  0.20128306128E-01 0.  0.
         14    1    1    2    0    0 -0.40379959160E-02  0.41241337544E-02  0.22741507158E-01  0.23462524120E-01  0.00000000000E+00 0.  1.
     999901    1    3    3    0    0 -0.11506593556E+00  0.31727238155E-01  0.17395762581E-01  0.88822823628E+00  0.88000000000E+00 0.  1.
        -11    1    4    4    0    0  0.55617474130E-01 -0.26746986363E-01 -0.16501409530E-01  0.63884758320E-01  0.51100000000E-03 0.  1.
         11    1    4    4    0    0  0.63486457346E-01 -0.91043855458E-02 -0.23635860208E-01  0.68354481282E-01  0.51100000000E-03 0. -1.
</event>
<event>
 8    1  0.1112171E+005  0.1043930E+01  0.7957747E-01            NaN
         13   -1    0    0    0    0  0.00000000000E+00  0.00000000000E+00  0.74505805969E-08  0.10566000000E+00  0.10566000000E+00 0. -1.
     999900   -1    0    0    0    0 -0.00000000000E+00 -0.00000000000E+00 -0.74505805969E-08  0.93827000000E+00  0.93827000000E+00 0. -1.
     999902    2    1    2    0    0 -0.48337557985E-02 -0.69623434995E-02 -0.23001270644E-01  0.10194167817E+01  0.10191220127E+01 0.  0.
     999903    2    3    3    0    0 -0.65575796805E-01  0.42924575550E-01  0.98572588147E-01  0.12758804060E+00  0.20480445744E-01 0.  0.
         14    1    1    2    0    0  0.48337557985E-02  0.69623434995E-02  0.23001270644E-01  0.24513218339E-01  0.00000000000E+00 0. -1.
     999901    1    3    3    0    0  0.60742041007E-01 -0.49886919050E-01 -0.12157385879E+00  0.89182874106E+00  0.88000000000E+00 0. -1.
        -11    1    4    4    0    0 -0.16606380635E-01  0.13782053557E-02  0.17650838027E-01  0.24279302540E-01  0.51100000000E-03 0. -1.
         11    1    4    4    0    0 -0.48969416171E-01  0.41546370194E-01  0.80921750120E-01  0.10330873806E+00  0.51100000000E-03 0.  1.
</event>
<event>
 8    1  0.1112171E+005  0.1043930E+01  0.7957747E-01            NaN
         13   -1    0    0    0    0  0.00000000000E+00  0.00000000000E+00  0.74505805969E-08  0.10566000000E+00  0.10566000000E+00 0. -1.
     999900   -1    0    0    0    0 -0.00000000000E+00 -0.00000000000E+00 -0.74505805969E-08  0.93827000000E+00  0.93827000000E+00 0. -1.
     999902    2    1    2    0    0 -0.96184527929E-02  0.23065359363E-01  0.10235839483E-01  0.10169244849E+01  0.10165658415E+01 0.  0.
     999903    2    3    3    0    0  0.96188429251E-02  0.18153647552E-01 -0.12337466574E+00  0.12661781549E+00  0.19715120951E-01 0.  0.
         14    1    1    2    0    0  0.96184527929E-02 -0.23065359363E-01 -0.10235839483E-01  0.27005515114E-01  0.00000000000E+00 0.  1.
     999901    1    3    3    0    0 -0.19237295718E-01  0.49117118110E-02  0.13361050523E+00  0.89030666939E+00  0.88000000000E+00 0.  1.
        -11    1    4    4    0    0  0.12666008000E-01  0.68229420005E-02 -0.91952392795E-01  0.93072466165E-01  0.51100000000E-03 0.  1.
         11    1    4    4    0    0 -0.30471650753E-02  0.11330705552E-01 -0.31422272948E-01  0.33545349327E-01  0.51100000000E-03 0. -1.
</event>
<event>
 8    1  0.1112171E+005  0.1043930E+01  0.7957747E-01            NaN
         13   -1    0    0    0    0  0.00000000000E+00  0.00000000000E+00  0.74505805969E-08  0.10566000000E+00  0.10566000000E+00 0.  1.
     999900   -1    0    0    0    0 -0.00000000000E+00 -0.00000000000E+00 -0.74505805969E-08  0.93827000000E+00  0.93827000000E+00 0. -1.
     999902    2    1    2    0    0 -0.12910514684E-02  0.18134611079E-01 -0.14511162445E-01  0.10206683412E+01  0.10204032331E+01 0.  0.
     999903    2    3    3    0    0 -0.48768706349E-01  0.78760338784E-01 -0.94093378422E-01  0.13372813149E+00  0.21167701900E-01 0.  0.
         14    1    1    2    0    0  0.12910514684E-02 -0.18134611079E-01  0.14511162445E-01  0.23261658762E-01  0.00000000000E+00 0.  1.
     999901    1    3    3    0    0  0.47477654881E-01 -0.60625727706E-01  0.79582215977E-01  0.88694020975E+00  0.88000000000E+00 0.  1.
        -11    1    4    4    0    0 -0.29439828276E-01  0.61219647201E-01 -0.58914724977E-01  0.89920824243E-01  0.51100000000E-03 0. -1.
         11    1    4    4    0    0 -0.19328878073E-01  0.17540691583E-01 -0.35178653445E-01  0.43807307244E-01  0.51100000000E-03 0.  1.
</event>
<event>
 8    1  0.1112171E+005  0.1043930E+01  0.7957747E-01            NaN
         13   -1    0    0    0    0  0.00000000000E+00  0.00000000000E+00  0.74505805969E-08  0.10566000000E+00  0.10566000000E+00 0.  1.
     999900   -1    0    0    0    0 -0.00000000000E+00 -0.00000000000E+00 -0.74505805969E-08  0.93827000000E+00  0.93827000000E+00 0. -1.
     999902    2    1    2    0    0  0.35365893689E-02  0.34754370600E-02  0.23001446901E-01  0.10204001745E+01  0.10201288465E+01 0.  0.
     999903    2    3    3    0    0  0.59154119590E-01 -0.82941732447E-01  0.82414261523E-01  0.13242995014E+00  0.19158297081E-01 0.  0.
         14    1    1    2    0    0 -0.35365893689E-02 -0.34754370600E-02 -0.23001446901E-01  0.23529825470E-01  0.00000000000E+00 0. -1.
     999901    1    3    3    0    0 -0.55617530221E-01  0.86417169507E-01 -0.59412814622E-01  0.88797022439E+00  0.88000000000E+00 0. -1.
        -11    1    4    4    0    0  0.22311935996E-01 -0.41012844998E-01  0.27817739451E-01  0.54350378949E-01  0.51100000000E-03 0. -1.
         11    1    4    4    0    0  0.36842183595E-01 -0.41928887449E-01  0.54596522072E-01  0.78079571196E-01  0.51100000000E-03 0.  1.
</event>
<event>
 8    1  0.1112171E+005  0.1043930E+01  0.7957747E-01            NaN
         13   -1    0    0    0    0  0.00000000000E+00  0.00000000000E+00  0.74505805969E-08  0.10566000000E+00  0.10566000000E+00 0.  1.
     999900   -1    0    0    0    0 -0.00000000000E+00 -0.00000000000E+00 -0.74505805969E-08  0.93827000000E+00  0.93827000000E+00 0. -1.
     999902    2    1    2    0    0  0.52121283878E-02 -0.16233116366E-01  0.16018881776E-01  0.10205358785E+01  0.10202677072E+01 0.  0.
     999903    2    3    3    0    0  0.79198229077E-01  0.92189481300E-01 -0.38708440603E-01  0.12911875803E+00  0.20051193234E-01 0.  0.
         14    1    1    2    0    0 -0.52121283878E-02  0.16233116366E-01 -0.16018881776E-01  0.23394121540E-01  0.00000000000E+00 0. -1.
     999901    1    3    3    0    0 -0.73986100690E-01 -0.10842259767E+00  0.54727322379E-01  0.89141712043E+00  0.88000000000E+00 0.  1.
        -11    1    4    4    0    0  0.29335569495E-01  0.47877047996E-01 -0.13076305080E-01  0.57654472836E-01  0.51100000000E-03 0.  1.
         11    1    4    4    0    0  0.49862659583E-01  0.44312433304E-01 -0.25632135523E-01  0.71464285195E-01  0.51100000000E-03 0. -1.
</event>
<event>
 8    1  0.1112171E+005  0.1043930E+01  0.7957747E-01            NaN
         13   -1    0    0    0    0  0.00000000000E+00  0.00000000000E+00  0.74505805969E-08  0.10566000000E+00  0.10566000000E+00 0. -1.
     999900   -1    0    0    0    0 -0.00000000000E+00 -0.00000000000E+00 -0.74505805969E-08  0.93827000000E+00  0.93827000000E+00 0. -1.
     999902    2    1    2    0    0  0.15430514719E-01 -0.17683163475E-01 -0.11071862596E-02  0.10204348746E+01  0.10201643556E+01 0.  0.
     999903    2    3    3    0    0  0.39206782390E-01  0.27909239228E-01  0.11977538271E+00  0.13068402547E+00  0.20397911393E-01 0.  0.
         14    1    1    2    0    0 -0.15430514719E-01  0.17683163475E-01  0.11071862596E-02  0.23495125375E-01  0.00000000000E+00 0. -1.
     999901    1    3    3    0    0 -0.23776267671E-01 -0.45592402703E-01 -0.12088256897E+00  0.88975084915E+00  0.88000000000E+00 0. -1.
        -11    1    4    4    0    0  0.20703258229E-01  0.25689689468E-02  0.49654662579E-01  0.53861592435E-01  0.51100000000E-03 0.  1.
         11    1    4    4    0    0  0.18503524161E-01  0.25340270281E-01  0.70120720135E-01  0.76822433036E-01  0.51100000000E-03 0. -1.
</event>
<event>
 8    1  0.1112171E+005  0.1043930E+01  0.7957747E-01            NaN
         13   -1    0    0    0    0  0.00000000000E+00  0.00000000000E+00  0.74505805969E-08  0.10566000000E+00  0.10566000000E+00 0. -1.
     999900   -1    0    0    0    0 -0.00000000000E+00 -0.00000000000E+00 -0.74505805969E-08  0.93827000000E+00  0.93827000000E+00 0. -1.
     999902    2    1    2    0    0 -0.77671691291E-02 -0.22860330307E-01  0.57131736956E-02  0.10191194383E+01  0.10188173858E+01 0.  0.
     999903    2    3    3    0    0  0.83179538832E-01 -0.34767483992E-01  0.91789002764E-01  0.13017504615E+00  0.19816861185E-01 0.  0.
         14    1    1    2    0    0  0.77671691291E-02  0.22860330307E-01 -0.57131736956E-02  0.24810561697E-01  0.00000000000E+00 0.  1.
     999901    1    3    3    0    0 -0.90946707961E-01  0.11907153685E-01 -0.86075829068E-01  0.88894439216E+00  0.88000000000E+00 0.  1.
        -11    1    4    4    0    0  0.42625887554E-01 -0.27711077445E-01  0.45518057776E-01  0.68242397435E-01  0.51100000000E-03 0.  1.
         11    1    4    4    0    0  0.40553651278E-01 -0.70564065478E-02  0.46270944987E-01  0.61932648711E-01  0.51100000000E-03 0. -1.
</event>
<event>
 8    1  0.1112171E+005  0.1043930E+01  0.7957747E-01            NaN
         13   -1    0    0    0    0  0.00000000000E+00  0.00000000000E+00  0.74505805969E-08  0.10566000000E+00  0.10566000000E+00 0. -1.
     999900   -1    0    0    0    0 -0.00000000000E+00 -0.00000000000E+00 -0.74505805969E-08  0.93827000000E+00  0.93827000000E+00 0.  1.
     999902    2    1    2    0    0 -0.37061768259E-02 -0.20876668761E-01  0.98342928221E-02  0.10205572731E+01  0.10202895978E+01 0.  0.
     999903    2    3    3    0    0 -0.65337355756E-01  0.89313632808E-01 -0.62382775970E-01  0.12861803205E+00  0.20126906602E-01 0.  0.
         14    1    1    2    0    0  0.37061768259E-02  0.20876668761E-01 -0.98342928221E-02  0.23372726853E-01  0.00000000000E+00 0.  1.
     999901    1    3    3    0    0  0.61631178930E-01 -0.11019030157E+00  0.72217068792E-01  0.89193924109E+00  0.88000000000E+00 0. -1.
        -11    1    4    4    0    0 -0.35346809669E-01  0.63231982277E-01 -0.35854374603E-01  0.80829931558E-01  0.51100000000E-03 0. -1.
         11    1    4    4    0    0 -0.29990546087E-01  0.26081650531E-01 -0.26528401367E-01  0.47788100497E-01  0.51100000000E-03 0.  1.
</event>
<event>
 8    1  0.1112171E+005  0.1043930E+01  0.7957747E-01            NaN
         13   -1    0    0    0    0  0.00000000000E+00  0.00000000000E+00  0.74505805969E-08  0.10566000000E+00  0.10566000000E+00 0.  1.
     999900   -1    0    0    0    0 -0.00000000000E+00 -0.00000000000E+00 -0.74505805969E-08  0.93827000000E+00  0.93827000000E+00 0. -1.
     999902    2    1    2    0    0  0.83933405953E-02 -0.21875355245E-01 -0.74077189237E-02  0.10193565665E+01  0.10190603299E+01 0.  0.
     999903    2    3    3    0    0  0.11205348348E+00  0.44074402500E-01  0.42178245228E-01  0.12943883796E+00  0.21837405644E-01 0.  0.
         14    1    1    2    0    0 -0.83933405953E-02  0.21875355245E-01  0.74077189237E-02  0.24573433482E-01  0.00000000000E+00 0. -1.
     999901    1    3    3    0    0 -0.10366014288E+00 -0.65949757745E-01 -0.49585964152E-01  0.88991772856E+00  0.88000000000E+00 0. -1.
        -11    1    4    4    0    0  0.92116105126E-01  0.41908820757E-01  0.41456632973E-01  0.10936470920E+00  0.51100000000E-03 0.  1.
         11    1    4    4    0    0  0.19937378353E-01  0.21655817430E-02  0.72161225460E-03  0.20074128752E-01  0.51100000000E-03 0. -1.
</event>
<event>
 8    1  0.1112171E+005  0.1043930E+01  0.7957747E-01            NaN
         13   -1    0    0    0    0  0.00000000000E+00  0.00000000000E+00  0.74505805969E-08  0.10566000000E+00  0.10566000000E+00 0. -1.
     999900   -1    0    0    0    0 -0.00000000000E+00 -0.00000000000E+00 -0.74505805969E-08  0.93827000000E+00  0.93827000000E+00 0. -1.
     999902    2    1    2    0    0  0.92106372876E-02  0.95064578870E-02 -0.21077409588E-01  0.10190409306E+01  0.10187369398E+01 0.  0.
     999903    2    3    3    0    0 -0.87277425997E-01  0.13859318856E-01 -0.93904688232E-01  0.13076580077E+00  0.21729573652E-01 0.  0.
         14    1    1    2    0    0 -0.92106372876E-02 -0.95064578870E-02  0.21077409588E-01  0.24889069403E-01  0.00000000000E+00 0. -1.
     999901    1    3    3    0    0  0.96488063285E-01 -0.43528609694E-02  0.72827278644E-01  0.88827512983E+00  0.88000000000E+00 0.  1.
        -11    1    4    4    0    0 -0.27643127293E-01 -0.49689091970E-02 -0.23768671714E-01  0.36797328995E-01  0.51100000000E-03 0.  1.
         11    1    4    4    0    0 -0.59634298704E-01  0.18828228053E-01 -0.70136016519E-01  0.93968471775E-01  0.51100000000E-03 0. -1.
</event>
<event>
 8    1  0.1112171E+005  0.1043930E+01  0.7957747E-01            NaN
         13   -1    0    0    0    0  0.00000000000E+00  0.00000000000E+00  0.74505805969E-08  0.10566000000E+00  0.10566000000E+00 0. -1.
     999900   -1    0    0    0    0 -0.00000000000E+00 -0.00000000000E+00 -0.74505805969E-08  0.93827000000E+00  0.93827000000E+00 0. -1.
     999902    2    1    2    0    0  0.10635171486E-01 -0.10734547458E-02  0.23453474709E-01  0.10181555038E+01  0.10178292122E+01 0.  0.
     999903    2    3    3    0    0  0.10620388141E+00 -0.21870240484E-01  0.71321334057E-01  0.13144404197E+00  0.20814217069E-01 0.  0.
         14    1    1    2    0    0 -0.10635171486E-01  0.10734547458E-02 -0.23453474709E-01  0.25774496184E-01  0.00000000000E+00 0.  1.
     999901    1    3    3    0    0 -0.95568709923E-01  0.20796785738E-01 -0.47867859348E-01  0.88671146185E+00  0.88000000000E+00 0. -1.
        -11    1    4    4    0    0  0.51427915399E-01 -0.41386312377E-02  0.43552964528E-01  0.67520964085E-01  0.51100000000E-03 0.  1.
         11    1    4    4    0    0  0.54775966010E-01 -0.17731609246E-01  0.27768369529E-01  0.63923077883E-01  0.51100000000E-03 0. -1.
</event>
<event>
 8    1  0.1112171E+005  0.1043930E+01  0.7957747E-01            NaN
         13   -1    0    0    0    0  0.00000000000E+00  0.00000000000E+00  0.74505805969E-08  0.10566000000E+00  0.10566000000E+00 0.  1.
     999900   -1    0    0    0    0 -0.00000000000E+00 -0.00000000000E+00 -0.74505805969E-08  0.93827000000E+00  0.93827000000E+00 0. -1.
     999902    2    1    2    0    0  0.10042941636E-01 -0.11999748870E-01  0.18681513466E-01  0.10195608885E+01  0.10192696168E+01 0.  0.
     999903    2    3    3    0    0 -0.24581134941E-02  0.26269302504E-01  0.12763026533E+00  0.13192885483E+00  0.20484616990E-01 0.  0.
         14    1    1    2    0    0 -0.10042941636E-01  0.11999748870E-01 -0.18681513466E-01  0.24369111495E-01  0.00000000000E+00 0. -1.
     999901    1    3    3    0    0  0.12501055130E-01 -0.38269051374E-01 -0.10894875186E+00  0.88763203367E+00  0.88000000000E+00 0. -1.
        -11    1    4    4    0    0 -0.66197095009E-02  0.59481665113E-02  0.72094881490E-01  0.72643886851E-01  0.51100000000E-03 0. -1.
         11    1    4    4    0    0  0.41615960068E-02  0.20321135992E-01  0.55535383838E-01  0.59284967980E-01  0.51100000000E-03 0.  1.
</event>
<event>
 8    1  0.1112171E+005  0.1043930E+01  0.7957747E-01            NaN
         13   -1    0    0    0    0  0.00000000000E+00  0.00000000000E+00  0.74505805969E-08  0.10566000000E+00  0.10566000000E+00 0.  1.
     999900   -1    0    0    0    0 -0.00000000000E+00 -0.00000000000E+00 -0.74505805969E-08  0.93827000000E+00  0.93827000000E+00 0.  1.
     999902    2    1    2    0    0 -0.64875066309E-02 -0.10659728669E-01 -0.20158564585E-01  0.10202216621E+01  0.10199461528E+01 0.  0.
     999903    2    3    3    0    0 -0.43834222465E-01 -0.69335694302E-01 -0.10335337292E+00  0.13356557196E+00  0.20711464389E-01 0.  0.
         14    1    1    2    0    0  0.64875066309E-02  0.10659728669E-01  0.20158564585E-01  0.23708337853E-01  0.00000000000E+00 0.  1.
     999901    1    3    3    0    0  0.37346715834E-01  0.58675965632E-01  0.83194808332E-01  0.88665609018E+00  0.88000000000E+00 0.  1.
        -11    1    4    4    0    0 -0.16444310690E-01 -0.45173596500E-01 -0.58716884442E-01  0.75888094023E-01  0.51100000000E-03 0. -1.
         11    1    4    4    0    0 -0.27389911774E-01 -0.24162097801E-01 -0.44636488476E-01  0.57677477941E-01  0.51100000000E-03 0.  1.
</event>
<event>
 8    1  0.1112171E+005  0.1043930E+01  0.7957747E-01            NaN
         13   -1    0    0    0    0  0.00000000000E+00  0.00000000000E+00  0.74505805969E-08  0.10566000000E+00  0.10566000000E+00 0. -1.
     999900   -1    0    0    0    0 -0.00000000000E+00 -0.00000000000E+00 -0.74505805969E-08  0.93827000000E+00  0.93827000000E+00 0.  1.
     999902    2    1    2    0    0 -0.14258025344E-01 -0.17759133768E-01 -0.57156974837E-02  0.10204492139E+01  0.10201790288E+01 0.  0.
     999903    2    3    3    0    0 -0.28899024987E-01  0.10180765026E+00  0.70883918136E-01  0.12894594646E+00  0.20064295663E-01 0.  0.
         14    1    1    2    0    0  0.14258025344E-01  0.17759133768E-01  0.57156974837E-02  0.23480786116E-01  0.00000000000E+00 0. -1.
     999901    1    3    3    0    0  0.14640999643E-01 -0.11956678403E+00 -0.76599615620E-01  0.89150326742E+00  0.88000000000E+00 0.  1.
        -11    1    4    4    0    0 -0.10388190746E-01  0.44527270904E-01  0.19160387815E-01  0.49577958241E-01  0.51100000000E-03 0. -1.
         11    1    4    4    0    0 -0.18510834241E-01  0.57280379361E-01  0.51723530321E-01  0.79367988219E-01  0.51100000000E-03 0.  1.
</event>
<event>
 8    1  0.1112171E+005  0.1043930E+01  0.7957747E-01            NaN
         13   -1    0    0    0    0  0.00000000000E+00  0.00000000000E+00  0.74505805969E-08  0.10566000000E+00  0.10566000000E+00 0.  1.
     999900   -1    0    0    0    0 -0.00000000000E+00 -0.00000000000E+00 -0.74505805969E-08  0.93827000000E+00  0.93827000000E+00 0. -1.
     999902    2    1    2    0    0  0.18606900410E-01  0.15155042469E-01 -0.13214235791E-02  0.10198958947E+01  0.10196126705E+01 0.  0.
     999903    2    3    3    0    0  0.78546624499E-02  0.12914182114E+00  0.18579621429E-01  0.13225596328E+00  0.20177507338E-01 0.  0.
         14    1    1    2    0    0 -0.18606900410E-01 -0.15155042469E-01  0.13214235791E-02  0.24034105255E-01  0.00000000000E+00 0. -1.
     999901    1    3    3    0    0  0.10752237961E-01 -0.11398677867E+00 -0.19901045008E-01  0.88763993146E+00  0.88000000000E+00 0. -1.
        -11    1    4    4    0    0 -0.56167433821E-02  0.65811560831E-01  0.62992167053E-02  0.66352472428E-01  0.51100000000E-03 0. -1.
         11    1    4    4    0    0  0.13471405832E-01  0.63330260308E-01  0.12280404723E-01  0.65903490855E-01  0.51100000000E-03 0.  1.
</event>
<event>
 8    1  0.1112171E+005  0.1043930E+01  0.7957747E-01            NaN
         13   -1    0    0    0    0  0.00000000000E+00  0.00000000000E+00  0.74505805969E-08  0.10566000000E+00  0.10566000000E+00 0.  1.
     999900   -1    0    0    0    0 -0.00000000000E+00 -0.00000000000E+00 -0.74505805969E-08  0.93827000000E+00  0.93827000000E+00 0.  1.
     999902    2    1    2    0    0 -0.35033565487E-02  0.37757742638E-03 -0.23311056965E-01  0.10203541342E+01  0.10200817309E+01 0.  0.
     999903    2    3    3    0    0 -0.14152883751E-01 -0.11713953714E-01 -0.13084578497E+00  0.13366177757E+00  0.20182430705E-01 0.  0.
         14    1    1    2    0    0  0.35033565487E-02 -0.37757742638E-03  0.23311056965E-01  0.23575865809E-01  0.00000000000E+00 0.  1.
     999901    1    3    3    0    0  0.10649527202E-01  0.12091531140E-01  0.10753472801E+00  0.88669235662E+00  0.88000000000E+00 0. -1.
        -11    1    4    4    0    0 -0.66888482445E-02 -0.16842089769E-01 -0.92256124450E-01  0.94020478079E-01  0.51100000000E-03 0.  1.
         11    1    4    4    0    0 -0.74640355063E-02  0.51281360553E-02 -0.38589660522E-01  0.39641299495E-01  0.51100000000E-03 0. -1.
</event>
<event>
 8    1  0.1112171E+005  0.1043930E+01  0.7957747E-01            NaN
         13   -1    0    0    0    0  0.00000000000E+00  0.00000000000E+00  0.74505805969E-08  0.10566000000E+00  0.10566000000E+00 0. -1.
     999900   -1    0    0    0    0 -0.00000000000E+00 -0.00000000000E+00 -0.74505805969E-08  0.93827000000E+00  0.93827000000E+00 0. -1.
     999902    2    1    2    0    0 -0.22051482863E-02  0.17725198428E-01 -0.93590703576E-02  0.10237647443E+01  0.10235661260E+01 0.  0.
     999903    2    3    3    0    0 -0.10787492843E+00 -0.52237584626E-01 -0.55298500646E-01  0.13349999455E+00  0.19963940962E-01 0.  0.
         14    1    1    2    0    0  0.22051482863E-02 -0.17725198428E-01  0.93590703576E-02  0.20165255670E-01  0.00000000000E+00 0. -1.
     999901    1    3    3    0    0  0.10566978015E+00  0.69962783055E-01  0.45939430288E-01  0.89026474978E+00  0.88000000000E+00 0.  1.
        -11    1    4    4    0    0 -0.85936547954E-01 -0.35576569710E-01 -0.35428497283E-01  0.99530006166E-01  0.51100000000E-03 0. -1.
         11    1    4    4    0    0 -0.21938380478E-01 -0.16661014917E-01 -0.19870003363E-01  0.33969988382E-01  0.51100000000E-03 0.  1.
</event>
<event>
 8    1  0.1112171E+005  0.1043930E+01  0.7957747E-01            NaN
         13   -1    0    0    0    0  0.00000000000E+00  0.00000000000E+00  0.74505805969E-08  0.10566000000E+00  0.10566000000E+00 0. -1.
     999900   -1    0    0    0    0 -0.00000000000E+00 -0.00000000000E+00 -0.74505805969E-08  0.93827000000E+00  0.93827000000E+00 0.  1.
     999902    2    1    2    0    0 -0.21324289253E-01  0.10377534000E-01  0.19671287433E-02  0.10201331910E+01  0.10198555972E+01 0.  0.
     999903    2    3    3    0    0 -0.61933586196E-01  0.40476680505E-01 -0.10736814904E+00  0.13192754104E+00  0.20070522977E-01 0.  0.
         14    1    1    2    0    0  0.21324289253E-01 -0.10377534000E-01 -0.19671287433E-02  0.23796809021E-01  0.00000000000E+00 0.  1.
     999901    1    3    3    0    0  0.40609296943E-01 -0.30099146505E-01  0.10933527778E+00  0.88820564994E+00  0.88000000000E+00 0. -1.
        -11    1    4    4    0    0 -0.41942157146E-01  0.16677006484E-01 -0.70377253152E-01  0.83609126138E-01  0.51100000000E-03 0. -1.
         11    1    4    4    0    0 -0.19991429050E-01  0.23799674021E-01 -0.36990895888E-01  0.48318414901E-01  0.51100000000E-03 0.  1.
</event>
<event>
 8    1  0.1112171E+005  0.1043930E+01  0.7957747E-01            NaN
         13   -1    0    0    0    0  0.00000000000E+00  0.00000000000E+00  0.74505805969E-08  0.10566000000E+00  0.10566000000E+00 0. -1.
     999900   -1    0    0    0    0 -0.00000000000E+00 -0.00000000000E+00 -0.74505805969E-08  0.93827000000E+00  0.93827000000E+00 0. -1.
     999902    2    1    2    0    0 -0.10031307935E-01 -0.93166706055E-02  0.22961987594E-01  0.10171964936E+01  0.10168451338E+01 0.  0.
     999903    2    3    3    0    0  0.53057696418E-01 -0.11335329419E+00  0.23328243859E-01  0.12882496341E+00  0.19686944431E-01 0.  0.
         14    1    1    2    0    0  0.10031307935E-01  0.93166706055E-02 -0.22961987594E-01  0.26733506398E-01  0.00000000000E+00 0.  1.
     999901    1    3    3    0    0 -0.63089004353E-01  0.10403662359E+00 -0.36625626505E-03  0.88837153020E+00  0.88000000000E+00 0. -1.
        -11    1    4    4    0    0  0.33668097101E-01 -0.49064235899E-01  0.12507671784E-01  0.60807425378E-01  0.51100000000E-03 0. -1.
         11    1    4    4    0    0  0.19389599317E-01 -0.64289058296E-01  0.10820572076E-01  0.68017538028E-01  0.51100000000E-03 0.  1.
</event>
<event>
 8    1  0.1112171E+005  0.1043930E+01  0.7957747E-01            NaN
         13   -1    0    0    0    0  0.00000000000E+00  0.00000000000E+00  0.74505805969E-08  0.10566000000E+00  0.10566000000E+00 0.  1.
     999900   -1    0    0    0    0 -0.00000000000E+00 -0.00000000000E+00 -0.74505805969E-08  0.93827000000E+00  0.93827000000E+00 0. -1.
     999902    2    1    2    0    0 -0.17260364109E-02 -0.24708198488E-01  0.35783177168E-02  0.10189044404E+01  0.10185970646E+01 0.  0.
     999903    2    3    3    0    0  0.11489608336E+00 -0.36763485620E-01 -0.43735861786E-01  0.12986862543E+00  0.20009258288E-01 0.  0.
         14    1    1    2    0    0  0.17260364109E-02  0.24708198488E-01 -0.35783177168E-02  0.25025559572E-01  0.00000000000E+00 0. -1.
     999901    1    3    3    0    0 -0.11662211978E+00  0.12055287132E-01  0.47314179503E-01  0.88903581500E+00  0.88000000000E+00 0.  1.
        -11    1    4    4    0    0  0.60207548961E-01 -0.27143354471E-01 -0.16791682832E-01  0.68146403993E-01  0.51100000000E-03 0.  1.
         11    1    4    4    0    0  0.54688534403E-01 -0.96201311493E-02 -0.26944178954E-01  0.61722221436E-01  0.51100000000E-03 0. -1.
</event>
<event>
 8    1  0.1112171E+005  0.1043930E+01  0.7957747E-01            NaN
         13   -1    0    0    0    0  0.00000000000E+00  0.00000000000E+00  0.74505805969E-08  0.10566000000E+00  0.10566000000E+00 0. -1.
     999900   -1    0    0    0    0 -0.00000000000E+00 -0.00000000000E+00 -0.74505805969E-08  0.93827000000E+00  0.93827000000E+00 0.  1.
     999902    2    1    2    0    0  0.20441134683E-01 -0.56799588952E-02  0.10376392349E-01  0.10203128148E+01  0.10200394446E+01 0.  0.
     999903    2    3    3    0    0  0.93928996694E-01  0.85767676913E-01 -0.27646818228E-01  0.13171341093E+00  0.20132690766E-01 0.  0.
         14    1    1    2    0    0 -0.20441134683E-01  0.56799588952E-02 -0.10376392349E-01  0.23617185233E-01  0.00000000000E+00 0. -1.
     999901    1    3    3    0    0 -0.73487862011E-01 -0.91447635809E-01  0.38023210576E-01  0.88859940384E+00  0.88000000000E+00 0.  1.
        -11    1    4    4    0    0  0.45189468876E-01  0.51648084061E-01 -0.21406482168E-01  0.71889577021E-01  0.51100000000E-03 0.  1.
         11    1    4    4    0    0  0.48739527818E-01  0.34119592853E-01 -0.62403360594E-02  0.59823833908E-01  0.51100000000E-03 0. -1.
</event>
<event>
 8    1  0.1112171E+005  0.1043930E+01  0.7957747E-01            NaN
         13   -1    0    0    0    0  0.00000000000E+00  0.00000000000E+00  0.74505805969E-08  0.10566000000E+00  0.10566000000E+00 0. -1.
     999900   -1    0    0    0    0 -0.00000000000E+00 -0.00000000000E+00 -0.74505805969E-08  0.93827000000E+00  0.93827000000E+00 0.  1.
     999902    2    1    2    0    0  0.19617852554E-01 -0.11556162291E-01 -0.64453344211E-02  0.10202667931E+01  0.10199923439E+01 0.  0.
     999903    2    3    3    0    0 -0.56311638583E-01  0.11286531450E+00  0.76967538672E-02  0.12816478649E+00  0.21386739306E-01 0.  0.
         14    1    1    2    0    0 -0.19617852554E-01  0.11556162291E-01  0.64453344211E-02  0.23663206916E-01  0.00000000000E+00 0.  1.
     999901    1    3    3    0    0  0.75929491137E-01 -0.12442147679E+00 -0.14142088288E-01  0.89210200660E+00  0.88000000000E+00 0.  1.
        -11    1    4    4    0    0 -0.39148546239E-01  0.84530630144E-01 -0.34143215433E-02  0.93219927150E-01  0.51100000000E-03 0. -1.
         11    1    4    4    0    0 -0.17163092343E-01  0.28334684357E-01  0.11111075410E-01  0.34944859338E-01  0.51100000000E-03 0.  1.
</event>
<event>
 8    1  0.1112171E+005  0.1043930E+01  0.7957747E-01            NaN
         13   -1    0    0    0    0  0.00000000000E+00  0.00000000000E+00  0.74505805969E-08  0.10566000000E+00  0.10566000000E+00 0.  1.
     999900   -1    0    0    0    0 -0.00000000000E+00 -0.00000000000E+00 -0.74505805969E-08  0.93827000000E+00  0.93827000000E+00 0.  1.
     999902    2    1    2    0    0  0.27323701488E-01  0.21685084840E-02 -0.13523075661E-02  0.10164870441E+01  0.10161165263E+01 0.  0.
     999903    2    3    3    0    0 -0.10227999713E+00  0.50542877513E-01  0.45437799537E-01  0.12445200422E+00  0.20197213851E-01 0.  0.
         14    1    1    2    0    0 -0.27323701488E-01 -0.21685084840E-02  0.13523075661E-02  0.27442955886E-01  0.00000000000E+00 0.  1.
     999901    1    3    3    0    0  0.12960369862E+00 -0.48374369029E-01 -0.46790107103E-01  0.89203503989E+00  0.88000000000E+00 0.  1.
        -11    1    4    4    0    0 -0.13728378861E-01  0.75763503245E-02  0.14272568575E-01  0.21209356547E-01  0.51100000000E-03 0.  1.
         11    1    4    4    0    0 -0.88551618269E-01  0.42966527189E-01  0.31165230963E-01  0.10324264767E+00  0.51100000000E-03 0. -1.
</event>
<event>
 8    1  0.1112171E+005  0.1043930E+01  0.7957747E-01            NaN
         13   -1    0    0    0    0  0.00000000000E+00  0.00000000000E+00  0.74505805969E-08  0.10566000000E+00  0.10566000000E+00 0. -1.
     999900   -1    0    0    0    0 -0.00000000000E+00 -0.00000000000E+00 -0.74505805969E-08  0.93827000000E+00  0.93827000000E+00 0. -1.
     999902    2    1    2    0    0 -0.11032423348E-01 -0.13449232177E-01  0.16882221305E-01  0.10196894223E+01  0.10194012519E+01 0.  0.
     999903    2    3    3    0    0  0.51125261360E-02 -0.43845170759E-01 -0.11938181612E+00  0.12853710066E+00  0.17922926757E-01 0.  0.
         14    1    1    2    0    0  0.11032423348E-01  0.13449232177E-01 -0.16882221305E-01  0.24240577701E-01  0.00000000000E+00 0.  1.
     999901    1    3    3    0    0 -0.16144949484E-01  0.30395938582E-01  0.13626403742E+00  0.89115232164E+00  0.88000000000E+00 0.  1.
        -11    1    4    4    0    0  0.91233231734E-02 -0.17722557650E-01 -0.37174726317E-01  0.42184659216E-01  0.51100000000E-03 0.  1.
         11    1    4    4    0    0 -0.40107970374E-02 -0.26122613109E-01 -0.82207089798E-01  0.86352441440E-01  0.51100000000E-03 0. -1.
</event>
<event>
 8    1  0.1112171E+005  0.1043930E+01  0.7957747E-01            NaN
         13   -1    0    0    0    0  0.00000000000E+00  0.00000000000E+00  0.74505805969E-08  0.10566000000E+00  0.10566000000E+00 0. -1.
     999900   -1    0    0    0    0 -0.00000000000E+00 -0.00000000000E+00 -0.74505805969E-08  0.93827000000E+00  0.93827000000E+00 0. -1.
     999902    2    1    2    0    0  0.10175773208E-01  0.80251331277E-02 -0.19889141847E-01  0.10201912746E+01  0.10199150502E+01 0.  0.
     999903    2    3    3    0    0  0.86165726477E-01 -0.75500908184E-01 -0.62559421968E-01  0.13195041456E+00  0.19295363915E-01 0.  0.
         14    1    1    2    0    0 -0.10175773208E-01 -0.80251331277E-02  0.19889141847E-01  0.23738725440E-01  0.00000000000E+00 0. -1.
     999901    1    3    3    0    0 -0.75989953269E-01  0.83526041312E-01  0.42670280121E-01  0.88824086000E+00  0.88000000000E+00 0.  1.
        -11    1    4    4    0    0  0.32736585902E-01 -0.41370563139E-01 -0.27291106748E-01  0.59399269183E-01  0.51100000000E-03 0.  1.
         11    1    4    4    0    0  0.53429140575E-01 -0.34130345046E-01 -0.35268315220E-01  0.72551145373E-01  0.51100000000E-03 0. -1.
</event>
<event>
 8    1  0.1112171E+005  0.1043930E+01  0.7957747E-01            NaN
         13   -1    0    0    0    0  0.00000000000E+00  0.00000000000E+00  0.74505805969E-08  0.10566000000E+00  0.10566000000E+00 0. -1.
     999900   -1    0    0    0    0 -0.00000000000E+00 -0.00000000000E+00 -0.74505805969E-08  0.93827000000E+00  0.93827000000E+00 0.  1.
     999902    2    1    2    0    0 -0.21095072963E-01 -0.98641728155E-02  0.45990718550E-02  0.10201927830E+01  0.10199165942E+01 0.  0.
     999903    2    3    3    0    0 -0.10851224845E+00  0.72502131593E-01 -0.58360814094E-02  0.13197272970E+00  0.18742315493E-01 0.  0.
         14    1    1    2    0    0  0.21095072963E-01  0.98641728155E-02 -0.45990718550E-02  0.23737216993E-01  0.00000000000E+00 0.  1.
     999901    1    3    3    0    0  0.87417175484E-01 -0.82366304409E-01  0.10435153264E-01  0.88822005331E+00  0.88000000000E+00 0. -1.
        -11    1    4    4    0    0 -0.94163944468E-01  0.67872716377E-01 -0.83407919951E-03  0.11607976083E+00  0.51100000000E-03 0.  1.
         11    1    4    4    0    0 -0.14348303978E-01  0.46294152164E-02 -0.50020022099E-02  0.15892968867E-01  0.51100000000E-03 0. -1.
</event>
<event>
 8    1  0.1112171E+005  0.1043930E+01  0.7957747E-01            NaN
         13   -1    0    0    0    0  0.00000000000E+00  0.00000000000E+00  0.74505805969E-08  0.10566000000E+00  0.10566000000E+00 0. -1.
     999900   -1    0    0    0    0 -0.00000000000E+00 -0.00000000000E+00 -0.74505805969E-08  0.93827000000E+00  0.93827000000E+00 0.  1.
     999902    2    1    2    0    0 -0.14998095327E-01 -0.17979607311E-01 -0.18234565748E-02  0.10204452361E+01  0.10201749584E+01 0.  0.
     999903    2    3    3    0    0  0.91071804635E-01 -0.15896460088E-01  0.88301408652E-01  0.12950323207E+00  0.20668268034E-01 0.  0.
         14    1    1    2    0    0  0.14998095327E-01  0.17979607311E-01  0.18234565748E-02  0.23484763920E-01  0.00000000000E+00 0.  1.
     999901    1    3    3    0    0 -0.10606989996E+00 -0.20831472234E-02 -0.90124865227E-01  0.89094200401E+00  0.88000000000E+00 0.  1.
        -11    1    4    4    0    0  0.33782341654E-01 -0.48900047198E-02  0.19566786944E-01  0.39348176910E-01  0.51100000000E-03 0.  1.
         11    1    4    4    0    0  0.57289462981E-01 -0.11006455368E-01  0.68734621708E-01  0.90155055159E-01  0.51100000000E-03 0. -1.
</event>
<event>
 8    1  0.1112171E+005  0.1043930E+01  0.7957747E-01            NaN
         13   -1    0    0    0    0  0.00000000000E+00  0.00000000000E+00  0.74505805969E-08  0.10566000000E+00  0.10566000000E+00 0.  1.
     999900   -1    0    0    0    0 -0.00000000000E+00 -0.00000000000E+00 -0.74505805969E-08  0.93827000000E+00  0.93827000000E+00 0. -1.
     999902    2    1    2    0    0 -0.11268170068E-01  0.18720980171E-01  0.88389248101E-02  0.10203593965E+01  0.10200871163E+01 0.  0.
     999903    2    3    3    0    0 -0.21417206617E-02  0.86652658514E-01 -0.96773638158E-01  0.13139819466E+00  0.19674306179E-01 0.  0.
         14    1    1    2    0    0  0.11268170068E-01 -0.18720980171E-01 -0.88389248101E-02  0.23570603451E-01  0.00000000000E+00 0. -1.
     999901    1    3    3    0    0 -0.91264494060E-02 -0.67931678343E-01  0.10561256297E+00  0.88896120189E+00  0.88000000000E+00 0.  1.
        -11    1    4    4    0    0  0.60869374970E-02  0.61298138403E-01 -0.60147020574E-01  0.86095515473E-01  0.51100000000E-03 0. -1.
         11    1    4    4    0    0 -0.82286581588E-02  0.25354520111E-01 -0.36626617584E-01  0.45302679190E-01  0.51100000000E-03 0.  1.
</event>
<event>
 8    1  0.1112171E+005  0.1043930E+01  0.7957747E-01            NaN
         13   -1    0    0    0    0  0.00000000000E+00  0.00000000000E+00  0.74505805969E-08  0.10566000000E+00  0.10566000000E+00 0. -1.
     999900   -1    0    0    0    0 -0.00000000000E+00 -0.00000000000E+00 -0.74505805969E-08  0.93827000000E+00  0.93827000000E+00 0.  1.
     999902    2    1    2    0    0  0.20882410817E-01 -0.92837896705E-02 -0.55668239858E-02  0.10204086616E+01  0.10201375315E+01 0.  0.
     999903    2    3    3    0    0 -0.81636408448E-01 -0.69975800223E-01 -0.70338108731E-01  0.13002169638E+00  0.19926770677E-01 0.  0.
         14    1    1    2    0    0 -0.20882410817E-01  0.92837896705E-02  0.55668239858E-02  0.23521338428E-01  0.00000000000E+00 0. -1.
     999901    1    3    3    0    0  0.10251881927E+00  0.60692010552E-01  0.64771284745E-01  0.89038696519E+00  0.88000000000E+00 0. -1.
        -11    1    4    4    0    0 -0.22317101979E-01 -0.23266030422E-01 -0.11263837118E-01  0.34154009427E-01  0.51100000000E-03 0.  1.
         11    1    4    4    0    0 -0.59319306470E-01 -0.46709769800E-01 -0.59074271613E-01  0.95867686957E-01  0.51100000000E-03 0. -1.
</event>
<event>
 8    1  0.1112171E+005  0.1043930E+01  0.7957747E-01            NaN
         13   -1    0    0    0    0  0.00000000000E+00  0.00000000000E+00  0.74505805969E-08  0.10566000000E+00  0.10566000000E+00 0.  1.
     999900   -1    0    0    0    0 -0.00000000000E+00 -0.00000000000E+00 -0.74505805969E-08  0.93827000000E+00  0.93827000000E+00 0.  1.
     999902    2    1    2    0    0 -0.19918518015E-01 -0.11800659204E-01 -0.40196255581E-02  0.10204319084E+01  0.10201613203E+01 0.  0.
     999903    2    3    3    0    0  0.11450715889E+00 -0.15331061380E-01 -0.53624505066E-01  0.12883594028E+00  0.19395388242E-01 0.  0.
         14    1    1    2    0    0  0.19918518015E-01  0.11800659204E-01  0.40196255581E-02  0.23498091565E-01  0.00000000000E+00 0.  1.
     999901    1    3    3    0    0 -0.13442567691E+00  0.35304021757E-02  0.49604879508E-01  0.89159596815E+00  0.88000000000E+00 0.  1.
        -11    1    4    4    0    0  0.71081860556E-01 -0.72052945213E-02 -0.22926576956E-01  0.75036232723E-01  0.51100000000E-03 0. -1.
         11    1    4    4    0    0  0.43425298336E-01 -0.81257668587E-02 -0.30697928110E-01  0.53799707562E-01  0.51100000000E-03 0.  1.
</event>
<event>
 8    1  0.1112171E+005  0.1043930E+01  0.7957747E-01            NaN
         13   -1    0    0    0    0  0.00000000000E+00  0.00000000000E+00  0.74505805969E-08  0.10566000000E+00  0.10566000000E+00 0.  1.
     999900   -1    0    0    0    0 -0.00000000000E+00 -0.00000000000E+00 -0.74505805969E-08  0.93827000000E+00  0.93827000000E+00 0.  1.
     999902    2    1    2    0    0 -0.53258985030E-02 -0.18064318877E-01  0.14112682993E-01  0.10203959261E+01  0.10201244990E+01 0.  0.
     999903    2    3    3    0    0 -0.65628108133E-01 -0.46319201248E-01  0.10443431745E+00  0.13326984011E+00  0.20045115085E-01 0.  0.
         14    1    1    2    0    0  0.53258985030E-02  0.18064318877E-01 -0.14112682993E-01  0.23534073864E-01  0.00000000000E+00 0. -1.
     999901    1    3    3    0    0  0.60302209630E-01  0.28254882371E-01 -0.90321634459E-01  0.88712608603E+00  0.88000000000E+00 0.  1.
        -11    1    4    4    0    0 -0.79083119792E-02 -0.13607400051E-01  0.13741826130E-01  0.20899800021E-01  0.51100000000E-03 0. -1.
         11    1    4    4    0    0 -0.57719796153E-01 -0.32711801197E-01  0.90692491322E-01  0.11237004009E+00  0.51100000000E-03 0.  1.
</event>
<event>
 8    1  0.1112171E+005  0.1043930E+01  0.7957747E-01            NaN
         13   -1    0    0    0    0  0.00000000000E+00  0.00000000000E+00  0.74505805969E-08  0.10566000000E+00  0.10566000000E+00 0.  1.
     999900   -1    0    0    0    0 -0.00000000000E+00 -0.00000000000E+00 -0.74505805969E-08  0.93827000000E+00  0.93827000000E+00 0. -1.
     999902    2    1    2    0    0  0.47183839313E-02  0.21462928575E-01  0.86894125087E-02  0.10202989539E+01  0.10200252590E+01 0.  0.
     999903    2    3    3    0    0 -0.86230167118E-01  0.76510589694E-01 -0.59405013353E-01  0.13128897940E+00  0.20453079073E-01 0.  0.
         14    1    1    2    0    0 -0.47183839313E-02 -0.21462928575E-01 -0.86894125087E-02  0.23631046098E-01  0.00000000000E+00 0. -1.
     999901    1    3    3    0    0  0.90948551050E-01 -0.55047661119E-01  0.68094425862E-01  0.88900997450E+00  0.88000000000E+00 0.  1.
        -11    1    4    4    0    0 -0.56382932008E-01  0.36754806414E-01 -0.32119846649E-01  0.74578123375E-01  0.51100000000E-03 0.  1.
         11    1    4    4    0    0 -0.29847235110E-01  0.39755783279E-01 -0.27285166704E-01  0.56710856024E-01  0.51100000000E-03 0. -1.
</event>
<event>
 8    1  0.1112171E+005  0.1043930E+01  0.7957747E-01            NaN
         13   -1    0    0    0    0  0.00000000000E+00  0.00000000000E+00  0.74505805969E-08  0.10566000000E+00  0.10566000000E+00 0. -1.
     999900   -1    0    0    0    0 -0.00000000000E+00 -0.00000000000E+00 -0.74505805969E-08  0.93827000000E+00  0.93827000000E+00 0. -1.
     999902    2    1    2    0    0 -0.13733283740E-02 -0.22879620046E-01 -0.85558853016E-02  0.10194643870E+01  0.10191707758E+01 0.  0.
     999903    2    3    3    0    0  0.10938511465E+00  0.45319655447E-01  0.45260819390E-01  0.12827708261E+00  0.19684858967E-01 0.  0.
         14    1    1    2    0    0  0.13733283740E-02  0.22879620046E-01  0.85558853016E-02  0.24465612961E-01  0.00000000000E+00 0.  1.
     999901    1    3    3    0    0 -0.11075844303E+00 -0.68199275493E-01 -0.53816704691E-01  0.89118730443E+00  0.88000000000E+00 0.  1.
        -11    1    4    4    0    0  0.68703992223E-01  0.18376398305E-01  0.29519695584E-01  0.77003922695E-01  0.51100000000E-03 0.  1.
         11    1    4    4    0    0  0.40681122430E-01  0.26943257142E-01  0.15741123806E-01  0.51273159911E-01  0.51100000000E-03 0. -1.
</event>
<event>
 8    1  0.1112171E+005  0.1043930E+01  0.7957747E-01            NaN
         13   -1    0    0    0    0  0.00000000000E+00  0.00000000000E+00  0.74505805969E-08  0.10566000000E+00  0.10566000000E+00 0.  1.
     999900   -1    0    0    0    0 -0.00000000000E+00 -0.00000000000E+00 -0.74505805969E-08  0.93827000000E+00  0.93827000000E+00 0. -1.
     999902    2    1    2    0    0 -0.18735035071E-02 -0.49191766763E-02 -0.20162492485E-01  0.10230917079E+01  0.10228794691E+01 0.  0.
     999903    2    3    3    0    0 -0.20666843089E-01 -0.15961544794E-01  0.12661143718E+00  0.13066932475E+00  0.19029637187E-01 0.  0.
         14    1    1    2    0    0  0.18735035071E-02  0.49191766763E-02  0.20162492485E-01  0.20838292103E-01  0.00000000000E+00 0.  1.
     999901    1    3    3    0    0  0.18793339582E-01  0.11042368118E-01 -0.14677392966E+00  0.89242238314E+00  0.88000000000E+00 0. -1.
        -11    1    4    4    0    0 -0.16713610887E-01 -0.19128345996E-01  0.84093564357E-01  0.87847749525E-01  0.51100000000E-03 0.  1.
         11    1    4    4    0    0 -0.39532322020E-02  0.31668012013E-02  0.42517872822E-01  0.42821575228E-01  0.51100000000E-03 0. -1.
</event>
<event>
 8    1  0.1329492E+005  0.1043930E+01  0.7957747E-01            NaN
         13   -1    0    0    0    0  0.00000000000E+00  0.00000000000E+00  0.74505805969E-08  0.10566000000E+00  0.10566000000E+00 0. -1.
     999900   -1    0    0    0    0 -0.00000000000E+00 -0.00000000000E+00 -0.74505805969E-08  0.93827000000E+00  0.93827000000E+00 0. -1.
     999902    2    1    2    0    0  0.20527845359E-01 -0.15970772095E-01 -0.22577956704E-01  0.10094884245E+01  0.10089007171E+01 0.  0.
     999903    2    3    3    0    0  0.11635580602E+00  0.22843325045E-01 -0.27500894689E-01  0.12342196674E+00  0.20400773836E-01 0.  0.
         14    1    1    2    0    0 -0.20527845359E-01  0.15970772095E-01  0.22577956704E-01  0.34441575535E-01  0.00000000000E+00 0. -1.
     999901    1    3    3    0    0 -0.95827960658E-01 -0.38814097140E-01  0.49229379842E-02  0.88606645772E+00  0.88000000000E+00 0.  1.
        -11    1    4    4    0    0  0.64556225863E-01  0.85160741485E-02 -0.55099774903E-02  0.65350216446E-01  0.51100000000E-03 0. -1.
         11    1    4    4    0    0  0.51799580154E-01  0.14327250896E-01 -0.21990917198E-01  0.58071750298E-01  0.51100000000E-03 0.  1.
</event>
<event>
 8    1  0.1112171E+005  0.1043930E+01  0.7957747E-01            NaN
         13   -1    0    0    0    0  0.00000000000E+00  0.00000000000E+00  0.74505805969E-08  0.10566000000E+00  0.10566000000E+00 0.  1.
     999900   -1    0    0    0    0 -0.00000000000E+00 -0.00000000000E+00 -0.74505805969E-08  0.93827000000E+00  0.93827000000E+00 0.  1.
     999902    2    1    2    0    0  0.17942350228E-01  0.74310840358E-02  0.37485235716E-02  0.10241512141E+01  0.10239602087E+01 0.  0.
     999903    2    3    3    0    0 -0.12689462575E+00 -0.25072150009E-03 -0.29651756746E-01  0.13165340546E+00  0.18737224636E-01 0.  0.
         14    1    1    2    0    0 -0.17942350228E-01 -0.74310840358E-02 -0.37485235716E-02  0.19778785873E-01  0.00000000000E+00 0. -1.
     999901    1    3    3    0    0  0.14483697597E+00  0.76818055358E-02  0.33400280317E-01  0.89249780866E+00  0.88000000000E+00 0.  1.
        -11    1    4    4    0    0 -0.97377116463E-01 -0.42450279343E-02 -0.15587369402E-01  0.98709423454E-01  0.51100000000E-03 0. -1.
         11    1    4    4    0    0 -0.29517509284E-01  0.39943064342E-02 -0.14064387343E-01  0.32943982008E-01  0.51100000000E-03 0.  1.
</event>
<event>
 8    1  0.1112171E+005  0.1043930E+01  0.7957747E-01            NaN
         13   -1    0    0    0    0  0.00000000000E+00  0.00000000000E+00  0.74505805969E-08  0.10566000000E+00  0.10566000000E+00 0. -1.
     999900   -1    0    0    0    0 -0.00000000000E+00 -0.00000000000E+00 -0.74505805969E-08  0.93827000000E+00  0.93827000000E+00 0. -1.
     999902    2    1    2    0    0  0.20876672893E-02  0.21249484052E-01 -0.11912472799E-01  0.10194799297E+01  0.10191866960E+01 0.  0.
     999903    2    3    3    0    0  0.83799832497E-01 -0.79908203751E-01 -0.52481135266E-01  0.12899940098E+00  0.21882480214E-01 0.  0.
         14    1    1    2    0    0 -0.20876672893E-02 -0.21249484052E-01  0.11912472799E-01  0.24450070253E-01  0.00000000000E+00 0. -1.
     999901    1    3    3    0    0 -0.81712165207E-01  0.10115768780E+00  0.40568662467E-01  0.89048052877E+00  0.88000000000E+00 0.  1.
        -11    1    4    4    0    0  0.31790500045E-01 -0.25337336816E-01 -0.78971714251E-02  0.41415491879E-01  0.51100000000E-03 0. -1.
         11    1    4    4    0    0  0.52009332452E-01 -0.54570866935E-01 -0.44583963841E-01  0.87583909098E-01  0.51100000000E-03 0.  1.
</event>
<event>
 8    1  0.1112171E+005  0.1043930E+01  0.7957747E-01            NaN
         13   -1    0    0    0    0  0.00000000000E+00  0.00000000000E+00  0.74505805969E-08  0.10566000000E+00  0.10566000000E+00 0.  1.
     999900   -1    0    0    0    0 -0.00000000000E+00 -0.00000000000E+00 -0.74505805969E-08  0.93827000000E+00  0.93827000000E+00 0. -1.
     999902    2    1    2    0    0  0.13434019961E-01 -0.12276730192E-01 -0.10679386299E-01  0.10228292823E+01  0.10226116078E+01 0.  0.
     999903    2    3    3    0    0 -0.19410630301E-01  0.56411309133E-01 -0.11718148019E+00  0.13314421789E+00  0.20901557172E-01 0.  0.
         14    1    1    2    0    0 -0.13434019961E-01  0.12276730192E-01  0.10679386299E-01  0.21100717719E-01  0.00000000000E+00 0.  1.
     999901    1    3    3    0    0  0.32844650262E-01 -0.68688039325E-01  0.10650209389E+00  0.88968506439E+00  0.88000000000E+00 0.  1.
        -11    1    4    4    0    0 -0.14455908005E-02  0.35026936518E-01 -0.59675118046E-01  0.69212403869E-01  0.51100000000E-03 0.  1.
         11    1    4    4    0    0 -0.17965039501E-01  0.21384372615E-01 -0.57506362141E-01  0.63931814021E-01  0.51100000000E-03 0. -1.
</event>
<event>
 8    1  0.1112171E+005  0.1043930E+01  0.7957747E-01            NaN
         13   -1    0    0    0    0  0.00000000000E+00  0.00000000000E+00  0.74505805969E-08  0.10566000000E+00  0.10566000000E+00 0.  1.
     999900   -1    0    0    0    0 -0.00000000000E+00 -0.00000000000E+00 -0.74505805969E-08  0.93827000000E+00  0.93827000000E+00 0. -1.
     999902    2    1    2    0    0 -0.20946315034E-01 -0.45083089890E-02  0.10754680615E-01  0.10199563453E+01  0.10196745609E+01 0.  0.
     999903    2    3    3    0    0 -0.92196232940E-01  0.40954777886E-01 -0.81245795590E-01  0.13113266726E+00  0.20431787022E-01 0.  0.
         14    1    1    2    0    0  0.20946315034E-01  0.45083089890E-02 -0.10754680615E-01  0.23973654677E-01  0.00000000000E+00 0.  1.
     999901    1    3    3    0    0  0.71249917906E-01 -0.45463086875E-01  0.92000476205E-01  0.88882367807E+00  0.88000000000E+00 0.  1.
        -11    1    4    4    0    0 -0.18451836781E-01  0.12515322105E-01 -0.28154784444E-01  0.35917357588E-01  0.51100000000E-03 0. -1.
         11    1    4    4    0    0 -0.73744396158E-01  0.28439455781E-01 -0.53091011146E-01  0.95215309669E-01  0.51100000000E-03 0.  1.
</event>
<event>
 8    1  0.1112171E+005  0.1043930E+01  0.7957747E-01            NaN
         13   -1    0    0    0    0  0.00000000000E+00  0.00000000000E+00  0.74505805969E-08  0.10566000000E+00  0.10566000000E+00 0.  1.
     999900   -1    0    0    0    0 -0.00000000000E+00 -0.00000000000E+00 -0.74505805969E-08  0.93827000000E+00  0.93827000000E+00 0. -1.
     999902    2    1    2    0    0 -0.13955897411E-01 -0.95447142251E-02  0.16230845729E-01  0.10204926581E+01  0.10202234835E+01 0.  0.
     999903    2    3    3    0    0  0.21945563315E-01  0.99752243837E-02 -0.12336216574E+00  0.12855311321E+00  0.26954890632E-01 0.  0.
         14    1    1    2    0    0  0.13955897411E-01  0.95447142251E-02 -0.16230845729E-01  0.23437341898E-01  0.00000000000E+00 0. -1.
     999901    1    3    3    0    0 -0.35901460726E-01 -0.19519938609E-01  0.13959301147E+00  0.89193954489E+00  0.88000000000E+00 0.  1.
        -11    1    4    4    0    0  0.87182390009E-02  0.12603126577E-01 -0.25426607452E-01  0.29692086123E-01  0.51100000000E-03 0.  1.
         11    1    4    4    0    0  0.13227324314E-01 -0.26279021928E-02 -0.97935558291E-01  0.98861027090E-01  0.51100000000E-03 0. -1.
</event>
<event>
 8    1  0.1112171E+005  0.1043930E+01  0.7957747E-01            NaN
         13   -1    0    0    0    0  0.00000000000E+00  0.00000000000E+00  0.74505805969E-08  0.10566000000E+00  0.10566000000E+00 0.  1.
     999900   -1    0    0    0    0 -0.00000000000E+00 -0.00000000000E+00 -0.74505805969E-08  0.93827000000E+00  0.93827000000E+00 0.  1.
     999902    2    1    2    0    0  0.14152515336E-01 -0.16227696331E-01 -0.10221810924E-01  0.10200947900E+01  0.10198162890E+01 0.  0.
     999903    2    3    3    0    0  0.34765000181E-01  0.12257009787E+00 -0.76170576818E-03  0.12892746797E+00  0.19740255124E-01 0.  0.
         14    1    1    2    0    0 -0.14152515336E-01  0.16227696331E-01  0.10221810924E-01  0.23835210028E-01  0.00000000000E+00 0. -1.
     999901    1    3    3    0    0 -0.20612484846E-01 -0.13879779420E+00 -0.94601051554E-02  0.89116732200E+00  0.88000000000E+00 0.  1.
        -11    1    4    4    0    0 -0.12521037850E-02  0.22862107603E-01 -0.68999514660E-03  0.22912462597E-01  0.51100000000E-03 0.  1.
         11    1    4    4    0    0  0.36017103966E-01  0.99707990269E-01 -0.71710621577E-04  0.10601500538E+00  0.51100000000E-03 0. -1.
</event>
<event>
 8    1  0.1112171E+005  0.1043930E+01  0.7957747E-01            NaN
         13   -1    0    0    0    0  0.00000000000E+00  0.00000000000E+00  0.74505805969E-08  0.10566000000E+00  0.10566000000E+00 0. -1.
     999900   -1    0    0    0    0 -0.00000000000E+00 -0.00000000000E+00 -0.74505805969E-08  0.93827000000E+00  0.93827000000E+00 0.  1.
     999902    2    1    2    0    0  0.20132667006E-02 -0.23254027594E-01  0.78912562950E-02  0.10192911086E+01  0.10189932724E+01 0.  0.
     999903    2    3    3    0    0 -0.10136590909E+00 -0.12644872548E-01 -0.76664366571E-01  0.12915097274E+00  0.19173114779E-01 0.  0.
         14    1    1    2    0    0 -0.20132667006E-02  0.23254027594E-01 -0.78912562950E-02  0.24638891372E-01  0.00000000000E+00 0.  1.
     999901    1    3    3    0    0  0.10337917579E+00 -0.10609155046E-01  0.84555622866E-01  0.89014013589E+00  0.88000000000E+00 0. -1.
        -11    1    4    4    0    0 -0.30846277674E-01  0.27251192057E-02 -0.30535019264E-01  0.43492156114E-01  0.51100000000E-03 0.  1.
         11    1    4    4    0    0 -0.70519631418E-01 -0.15369991754E-01 -0.46129347307E-01  0.85658816627E-01  0.51100000000E-03 0. -1.
</event>
<event>
 8    1  0.1112171E+005  0.1043930E+01  0.7957747E-01            NaN
         13   -1    0    0    0    0  0.00000000000E+00  0.00000000000E+00  0.74505805969E-08  0.10566000000E+00  0.10566000000E+00 0. -1.
     999900   -1    0    0    0    0 -0.00000000000E+00 -0.00000000000E+00 -0.74505805969E-08  0.93827000000E+00  0.93827000000E+00 0. -1.
     999902    2    1    2    0    0  0.18146384188E-01  0.15985728421E-01  0.49155557139E-02  0.10192521261E+01  0.10189533351E+01 0.  0.
     999903    2    3    3    0    0  0.62504320653E-01  0.57444373065E-01  0.99194207459E-01  0.13213606271E+00  0.20342128180E-01 0.  0.
         14    1    1    2    0    0 -0.18146384188E-01 -0.15985728421E-01 -0.49155557139E-02  0.24677873900E-01  0.00000000000E+00 0.  1.
     999901    1    3    3    0    0 -0.44357936465E-01 -0.41458644644E-01 -0.94278651745E-01  0.88711606339E+00  0.88000000000E+00 0. -1.
        -11    1    4    4    0    0  0.31188107379E-01  0.16041908329E-01  0.34650145450E-01  0.49304508572E-01  0.51100000000E-03 0.  1.
         11    1    4    4    0    0  0.31316213273E-01  0.41402464736E-01  0.64544062009E-01  0.82831554142E-01  0.51100000000E-03 0. -1.
</event>
<event>
 8    1  0.1112171E+005  0.1043930E+01  0.7957747E-01            NaN
         13   -1    0    0    0    0  0.00000000000E+00  0.00000000000E+00  0.74505805969E-08  0.10566000000E+00  0.10566000000E+00 0. -1.
     999900   -1    0    0    0    0 -0.00000000000E+00 -0.00000000000E+00 -0.74505805969E-08  0.93827000000E+00  0.93827000000E+00 0. -1.
     999902    2    1    2    0    0 -0.17073305511E-01 -0.11689255899E-01 -0.12373997209E-01  0.10198208260E+01  0.10195358085E+01 0.  0.
     999903    2    3    3    0    0  0.21952997397E-01  0.55291323495E-01 -0.11266814100E+00  0.13073794706E+00  0.29312731974E-01 0.  0.
         14    1    1    2    0    0  0.17073305511E-01  0.11689255899E-01  0.12373997209E-01  0.24109174011E-01  0.00000000000E+00 0. -1.
     999901    1    3    3    0    0 -0.39026302909E-01 -0.66980579394E-01  0.10029414379E+00  0.88908287893E+00  0.88000000000E+00 0.  1.
        -11    1    4    4    0    0  0.78995216474E-02  0.35964088631E-01 -0.40615390891E-01  0.54824166310E-01  0.51100000000E-03 0.  1.
         11    1    4    4    0    0  0.14053475750E-01  0.19327234864E-01 -0.72052750107E-01  0.75913780745E-01  0.51100000000E-03 0. -1.
</event>
<event>
 8    1  0.1112171E+005  0.1043930E+01  0.7957747E-01            NaN
         13   -1    0    0    0    0  0.00000000000E+00  0.00000000000E+00  0.74505805969E-08  0.10566000000E+00  0.10566000000E+00 0. -1.
     999900   -1    0    0    0    0 -0.00000000000E+00 -0.00000000000E+00 -0.74505805969E-08  0.93827000000E+00  0.93827000000E+00 0. -1.
     999902    2    1    2    0    0 -0.64049793528E-02 -0.22408730772E-01 -0.10645225313E-01  0.10183078261E+01  0.10179854286E+01 0.  0.
     999903    2    3    3    0    0 -0.98941207149E-01  0.25307963315E-01 -0.77238848671E-01  0.12967148479E+00  0.20469458849E-01 0.  0.
         14    1    1    2    0    0  0.64049793528E-02  0.22408730772E-01  0.10645225313E-01  0.25622173938E-01  0.00000000000E+00 0. -1.
     999901    1    3    3    0    0  0.92536227796E-01 -0.47716694087E-01  0.66593623358E-01  0.88863634127E+00  0.88000000000E+00 0. -1.
        -11    1    4    4    0    0 -0.17322112297E-01 -0.29958708866E-02 -0.16031779109E-01  0.23797266212E-01  0.51100000000E-03 0. -1.
         11    1    4    4    0    0 -0.81619094853E-01  0.28303834202E-01 -0.61207069562E-01  0.10587421858E+00  0.51100000000E-03 0.  1.
</event>
<event>
 8    1  0.1112171E+005  0.1043930E+01  0.7957747E-01            NaN
         13   -1    0    0    0    0  0.00000000000E+00  0.00000000000E+00  0.74505805969E-08  0.10566000000E+00  0.10566000000E+00 0.  1.
     999900   -1    0    0    0    0 -0.00000000000E+00 -0.00000000000E+00 -0.74505805969E-08  0.93827000000E+00  0.93827000000E+00 0. -1.
     999902    2    1    2    0    0 -0.90705349720E-04  0.32393421717E-02  0.23280799970E-01  0.10204247407E+01  0.10201539856E+01 0.  0.
     999903    2    3    3    0    0  0.95917013427E-01  0.25513028489E-01  0.85953269199E-01  0.13270776019E+00  0.19297591621E-01 0.  0.
         14    1    1    2    0    0  0.90705349720E-04 -0.32393421717E-02 -0.23280799970E-01  0.23505259250E-01  0.00000000000E+00 0. -1.
     999901    1    3    3    0    0 -0.96007718777E-01 -0.22273686318E-01 -0.62672469228E-01  0.88771698056E+00  0.88000000000E+00 0. -1.
        -11    1    4    4    0    0  0.22772619991E-01  0.12394988483E-01  0.14982715265E-01  0.29949471422E-01  0.51100000000E-03 0.  1.
         11    1    4    4    0    0  0.73144393436E-01  0.13118040006E-01  0.70970553934E-01  0.10275828877E+00  0.51100000000E-03 0. -1.
</event>
<event>
 8    1  0.1112171E+005  0.1043930E+01  0.7957747E-01            NaN
         13   -1    0    0    0    0  0.00000000000E+00  0.00000000000E+00  0.74505805969E-08  0.10566000000E+00  0.10566000000E+00 0. -1.
     999900   -1    0    0    0    0 -0.00000000000E+00 -0.00000000000E+00 -0.74505805969E-08  0.93827000000E+00  0.93827000000E+00 0. -1.
     999902    2    1    2    0    0  0.13909103970E-01  0.89136892934E-02 -0.17338543277E-01  0.10199812607E+01  0.10197000687E+01 0.  0.
     999903    2    3    3    0    0 -0.69633279528E-01  0.99754095994E-02 -0.10937406957E+00  0.13124564470E+00  0.17732166896E-01 0.  0.
         14    1    1    2    0    0 -0.13909103970E-01 -0.89136892934E-02  0.17338543277E-01  0.23948739278E-01  0.00000000000E+00 0. -1.
     999901    1    3    3    0    0  0.83542383498E-01 -0.10617203060E-02  0.92035526295E-01  0.88873561602E+00  0.88000000000E+00 0.  1.
        -11    1    4    4    0    0 -0.31525586994E-01 -0.42838634386E-02 -0.46009941106E-01  0.55940950321E-01  0.51100000000E-03 0.  1.
         11    1    4    4    0    0 -0.38107692534E-01  0.14259273038E-01 -0.63364128465E-01  0.75304694376E-01  0.51100000000E-03 0. -1.
</event>
<event>
 8    1  0.1112171E+005  0.1043930E+01  0.7957747E-01            NaN
         13   -1    0    0    0    0  0.00000000000E+00  0.00000000000E+00  0.74505805969E-08  0.10566000000E+00  0.10566000000E+00 0. -1.
     999900   -1    0    0    0    0 -0.00000000000E+00 -0.00000000000E+00 -0.74505805969E-08  0.93827000000E+00  0.93827000000E+00 0.  1.
     999902    2    1    2    0    0  0.10360268643E-01 -0.52884468791E-02  0.20198220334E-01  0.10206218267E+01  0.10203556450E+01 0.  0.
     999903    2    3    3    0    0 -0.62941529233E-01  0.11139303722E+00 -0.43506881523E-02  0.12956045330E+00  0.19923296139E-01 0.  0.
         14    1    1    2    0    0 -0.10360268643E-01  0.52884468791E-02 -0.20198220334E-01  0.23308173275E-01  0.00000000000E+00 0.  1.
     999901    1    3    3    0    0  0.73301797876E-01 -0.11668148410E+00  0.24548908486E-01  0.89106137343E+00  0.88000000000E+00 0.  1.
        -11    1    4    4    0    0 -0.24843039328E-01  0.44245202191E-01  0.80064641416E-02  0.51372941409E-01  0.51100000000E-03 0.  1.
         11    1    4    4    0    0 -0.38098489905E-01  0.67147835027E-01 -0.12357152294E-01  0.78187511891E-01  0.51100000000E-03 0. -1.
</event>
<event>
 8    1  0.1112171E+005  0.1043930E+01  0.7957747E-01            NaN
         13   -1    0    0    0    0  0.00000000000E+00  0.00000000000E+00  0.74505805969E-08  0.10566000000E+00  0.10566000000E+00 0.  1.
     999900   -1    0    0    0    0 -0.00000000000E+00 -0.00000000000E+00 -0.74505805969E-08  0.93827000000E+00  0.93827000000E+00 0.  1.
     999902    2    1    2    0    0  0.49870415894E-02 -0.17407102528E-01  0.15270536317E-01  0.10202431454E+01  0.10199681410E+01 0.  0.
     999903    2    3    3    0    0 -0.34962111231E-01 -0.94707500439E-01 -0.80684994528E-01  0.13076085201E+00  0.19911610054E-01 0.  0.
         14    1    1    2    0    0 -0.49870415894E-02  0.17407102528E-01 -0.15270536317E-01  0.23686854617E-01  0.00000000000E+00 0. -1.
     999901    1    3    3    0    0  0.39949152820E-01  0.77300397911E-01  0.95955530845E-01  0.88948229338E+00  0.88000000000E+00 0. -1.
        -11    1    4    4    0    0 -0.16264413194E-01 -0.63126762429E-01 -0.42642625422E-01  0.77898484550E-01  0.51100000000E-03 0.  1.
         11    1    4    4    0    0 -0.18697698037E-01 -0.31580738009E-01 -0.38042369106E-01  0.52862367458E-01  0.51100000000E-03 0. -1.
</event>
<event>
 8    1  0.1112171E+005  0.1043930E+01  0.7957747E-01            NaN
         13   -1    0    0    0    0  0.00000000000E+00  0.00000000000E+00  0.74505805969E-08  0.10566000000E+00  0.10566000000E+00 0.  1.
     999900   -1    0    0    0    0 -0.00000000000E+00 -0.00000000000E+00 -0.74505805969E-08  0.93827000000E+00  0.93827000000E+00 0. -1.
     999902    2    1    2    0    0 -0.63333654055E-02 -0.11274957141E-01 -0.19751841090E-01  0.10203212855E+01  0.10200481136E+01 0.  0.
     999903    2    3    3    0    0  0.69440128965E-01 -0.33604843523E-01  0.10074643537E+00  0.12860379606E+00  0.20925465375E-01 0.  0.
         14    1    1    2    0    0  0.63333654055E-02  0.11274957141E-01  0.19751841090E-01  0.23608714542E-01  0.00000000000E+00 0.  1.
     999901    1    3    3    0    0 -0.75773494371E-01  0.22329886382E-01 -0.12049827646E+00  0.89171748940E+00  0.88000000000E+00 0. -1.
        -11    1    4    4    0    0  0.25879459763E-01 -0.96065100001E-02  0.52468873599E-01  0.59289757039E-01  0.51100000000E-03 0.  1.
         11    1    4    4    0    0  0.43560669202E-01 -0.23998333523E-01  0.48277561773E-01  0.69314039018E-01  0.51100000000E-03 0. -1.
</event>
<event>
 8    1  0.1112171E+005  0.1043930E+01  0.7957747E-01            NaN
         13   -1    0    0    0    0  0.00000000000E+00  0.00000000000E+00  0.74505805969E-08  0.10566000000E+00  0.10566000000E+00 0. -1.
     999900   -1    0    0    0    0 -0.00000000000E+00 -0.00000000000E+00 -0.74505805969E-08  0.93827000000E+00  0.93827000000E+00 0. -1.
     999902    2    1    2    0    0 -0.15183130161E-02 -0.30394922819E-02  0.25596321192E-01  0.10181091664E+01  0.10177816855E+01 0.  0.
     999903    2    3    3    0    0  0.91863959465E-01  0.67263143076E-01  0.58856961057E-01  0.12975733325E+00  0.20236259576E-01 0.  0.
         14    1    1    2    0    0  0.15183130161E-02  0.30394922819E-02 -0.25596321192E-01  0.25820833571E-01  0.00000000000E+00 0.  1.
     999901    1    3    3    0    0 -0.93382272481E-01 -0.70302635358E-01 -0.33260639866E-01  0.88835183318E+00  0.88000000000E+00 0. -1.
        -11    1    4    4    0    0  0.48378920082E-01  0.47035761121E-01  0.38163202575E-01  0.77521441449E-01  0.51100000000E-03 0.  1.
         11    1    4    4    0    0  0.43485039383E-01  0.20227381955E-01  0.20693758482E-01  0.52235891799E-01  0.51100000000E-03 0. -1.
</event>
<event>
 8    1  0.1112171E+005  0.1043930E+01  0.7957747E-01            NaN
         13   -1    0    0    0    0  0.00000000000E+00  0.00000000000E+00  0.74505805969E-08  0.10566000000E+00  0.10566000000E+00 0. -1.
     999900   -1    0    0    0    0 -0.00000000000E+00 -0.00000000000E+00 -0.74505805969E-08  0.93827000000E+00  0.93827000000E+00 0. -1.
     999902    2    1    2    0    0 -0.10900408754E-01  0.11624673451E-01  0.17507293544E-01  0.10202560212E+01  0.10199813192E+01 0.  0.
     999903    2    3    3    0    0 -0.66659068247E-01 -0.86775148843E-01  0.68460798561E-01  0.13155595213E+00  0.25430882107E-01 0.  0.
         14    1    1    2    0    0  0.10900408754E-01 -0.11624673451E-01 -0.17507293544E-01  0.23673978776E-01  0.00000000000E+00 0.  1.
     999901    1    3    3    0    0  0.55758659493E-01  0.98399822294E-01 -0.50953505017E-01  0.88870006909E+00  0.88000000000E+00 0.  1.
        -11    1    4    4    0    0 -0.38900738752E-01 -0.31611746341E-01  0.24818322023E-01  0.55935500456E-01  0.51100000000E-03 0. -1.
         11    1    4    4    0    0 -0.27758329495E-01 -0.55163402502E-01  0.43642476538E-01  0.75620451673E-01  0.51100000000E-03 0.  1.
</event>
<event>
 8    1  0.1112171E+005  0.1043930E+01  0.7957747E-01            NaN
         13   -1    0    0    0    0  0.00000000000E+00  0.00000000000E+00  0.74505805969E-08  0.10566000000E+00  0.10566000000E+00 0. -1.
     999900   -1    0    0    0    0 -0.00000000000E+00 -0.00000000000E+00 -0.74505805969E-08  0.93827000000E+00  0.93827000000E+00 0. -1.
     999902    2    1    2    0    0 -0.14616645888E-01 -0.27218439160E-01  0.15605412897E-01  0.10093175936E+01  0.10087239394E+01 0.  0.
     999903    2    3    3    0    0 -0.50327820300E-01 -0.10829064017E+00  0.30887516082E-01  0.12473773147E+00  0.18593298760E-01 0.  0.
         14    1    1    2    0    0  0.14616645888E-01  0.27218439160E-01 -0.15605412897E-01  0.34612406431E-01  0.00000000000E+00 0.  1.
     999901    1    3    3    0    0  0.35711174412E-01  0.81072201006E-01 -0.15282103186E-01  0.88457986210E+00  0.88000000000E+00 0. -1.
        -11    1    4    4    0    0 -0.20607984196E-02 -0.93014399564E-02 -0.21068218052E-02  0.97705421808E-02  0.51100000000E-03 0. -1.
         11    1    4    4    0    0 -0.48267021880E-01 -0.98989200209E-01  0.32994337888E-01  0.11496718929E+00  0.51100000000E-03 0.  1.
</event>
<event>
 8    1  0.1112171E+005  0.1043930E+01  0.7957747E-01            NaN
         13   -1    0    0    0    0  0.00000000000E+00  0.00000000000E+00  0.74505805969E-08  0.10566000000E+00  0.10566000000E+00 0.  1.
     999900   -1    0    0    0    0 -0.00000000000E+00 -0.00000000000E+00 -0.74505805969E-08  0.93827000000E+00  0.93827000000E+00 0.  1.
     999902    2    1    2    0    0 -0.30218347377E-02 -0.36943478435E-02 -0.22620092413E-01  0.10208118627E+01  0.10205500530E+01 0.  0.
     999903    2    3    3    0    0 -0.91269005481E-01  0.78365219145E-01  0.45070710233E-01  0.13002379563E+00  0.20091778828E-01 0.  0.
         14    1    1    2    0    0  0.30218347377E-02  0.36943478435E-02  0.22620092413E-01  0.23118137294E-01  0.00000000000E+00 0.  1.
     999901    1    3    3    0    0  0.88247170743E-01 -0.82059566989E-01 -0.67690802646E-01  0.89078806707E+00  0.88000000000E+00 0. -1.
        -11    1    4    4    0    0 -0.29343347937E-01  0.23498900003E-01  0.24144841520E-01  0.44681818031E-01  0.51100000000E-03 0. -1.
         11    1    4    4    0    0 -0.61925657544E-01  0.54866319142E-01  0.20925868713E-01  0.85341977601E-01  0.51100000000E-03 0.  1.
</event>
<event>
 8    1  0.1112171E+005  0.1043930E+01  0.7957747E-01            NaN
         13   -1    0    0    0    0  0.00000000000E+00  0.00000000000E+00  0.74505805969E-08  0.10566000000E+00  0.10566000000E+00 0.  1.
     999900   -1    0    0    0    0 -0.00000000000E+00 -0.00000000000E+00 -0.74505805969E-08  0.93827000000E+00  0.93827000000E+00 0.  1.
     999902    2    1    2    0    0 -0.13929086745E-01 -0.17106201746E-01 -0.83267888866E-02  0.10203508353E+01  0.10200783549E+01 0.  0.
     999903    2    3    3    0    0 -0.62670464522E-01  0.87930702048E-01 -0.72781158264E-01  0.13042789547E+00  0.74123837381E-02 0.  0.
         14    1    1    2    0    0  0.13929086745E-01  0.17106201746E-01  0.83267888866E-02  0.23579164719E-01  0.00000000000E+00 0. -1.
     999901    1    3    3    0    0  0.48741377778E-01 -0.10503690379E+00  0.64454369378E-01  0.88992293981E+00  0.88000000000E+00 0. -1.
        -11    1    4    4    0    0 -0.54869625788E-01  0.72387818672E-01 -0.61099460731E-01  0.10947181075E+00  0.51100000000E-03 0.  1.
         11    1    4    4    0    0 -0.78008387347E-02  0.15542883376E-01 -0.11681697533E-01  0.20956084722E-01  0.51100000000E-03 0. -1.
</event>
<event>
 8    1  0.1112171E+005  0.1043930E+01  0.7957747E-01            NaN
         13   -1    0    0    0    0  0.00000000000E+00  0.00000000000E+00  0.74505805969E-08  0.10566000000E+00  0.10566000000E+00 0. -1.
     999900   -1    0    0    0    0 -0.00000000000E+00 -0.00000000000E+00 -0.74505805969E-08  0.93827000000E+00  0.93827000000E+00 0. -1.
     999902    2    1    2    0    0 -0.58936038189E-02  0.23225625345E-01 -0.35684758307E-02  0.10197040169E+01  0.10194161975E+01 0.  0.
     999903    2    3    3    0    0 -0.11093175015E+00 -0.56138818647E-01 -0.29890129671E-01  0.12952170037E+00  0.20616276712E-01 0.  0.
         14    1    1    2    0    0  0.58936038189E-02 -0.23225625345E-01  0.35684758307E-02  0.24225983125E-01  0.00000000000E+00 0.  1.
     999901    1    3    3    0    0  0.10503814633E+00  0.79364443992E-01  0.26321653840E-01  0.89018231650E+00  0.88000000000E+00 0. -1.
        -11    1    4    4    0    0 -0.75907879171E-02 -0.90946196958E-02  0.85059083571E-03  0.11887674053E-01  0.51100000000E-03 0.  1.
         11    1    4    4    0    0 -0.10334096223E+00 -0.47044198952E-01 -0.30740720507E-01  0.11763402632E+00  0.51100000000E-03 0. -1.
</event>
<event>
 8    1  0.1112171E+005  0.1043930E+01  0.7957747E-01            NaN
         13   -1    0    0    0    0  0.00000000000E+00  0.00000000000E+00  0.74505805969E-08  0.10566000000E+00  0.10566000000E+00 0. -1.
     999900   -1    0    0    0    0 -0.00000000000E+00 -0.00000000000E+00 -0.74505805969E-08  0.93827000000E+00  0.93827000000E+00 0.  1.
     999902    2    1    2    0    0 -0.16623426761E-02  0.21702709273E-01 -0.10975202590E-01  0.10195532479E+01  0.10192617913E+01 0.  0.
     999903    2    3    3    0    0  0.62966624463E-01 -0.10564075536E+00  0.27378009377E-01  0.12721685936E+00  0.17601389677E-01 0.  0.
         14    1    1    2    0    0  0.16623426761E-02 -0.21702709273E-01  0.10975202590E-01  0.24376752139E-01  0.00000000000E+00 0. -1.
     999901    1    3    3    0    0 -0.64628967139E-01  0.12734346463E+00 -0.38353211967E-01  0.89233638850E+00  0.88000000000E+00 0. -1.
        -11    1    4    4    0    0  0.41494549512E-01 -0.52635823512E-01  0.13693842767E-01  0.68411329520E-01  0.51100000000E-03 0.  1.
         11    1    4    4    0    0  0.21472074952E-01 -0.53004931847E-01  0.13684166610E-01  0.58805529839E-01  0.51100000000E-03 0. -1.
</event>
<event>
 8    1  0.1112171E+005  0.1043930E+01  0.7957747E-01            NaN
         13   -1    0    0    0    0  0.00000000000E+00  0.00000000000E+00  0.74505805969E-08  0.10566000000E+00  0.10566000000E+00 0. -1.
     999900   -1    0    0    0    0 -0.00000000000E+00 -0.00000000000E+00 -0.74505805969E-08  0.93827000000E+00  0.93827000000E+00 0. -1.
     999902    2    1    2    0    0  0.10155511839E-03  0.23504467922E-01 -0.15796061857E-03  0.10204247819E+01  0.10201540277E+01 0.  0.
     999903    2    3    3    0    0  0.37823772761E-01 -0.12023753730E+00 -0.10610978914E-01  0.12790363630E+00  0.18948460241E-01 0.  0.
         14    1    1    2    0    0 -0.10155511839E-03 -0.23504467922E-01  0.15796061857E-03  0.23505218087E-01  0.00000000000E+00 0. -1.
     999901    1    3    3    0    0 -0.37722217643E-01  0.14374200522E+00  0.10453018295E-01  0.89252114561E+00  0.88000000000E+00 0.  1.
        -11    1    4    4    0    0  0.30633668697E-01 -0.84639335215E-01 -0.15220495690E-01  0.91291638902E-01  0.51100000000E-03 0. -1.
         11    1    4    4    0    0  0.71901040643E-02 -0.35598202080E-01  0.46095167761E-02  0.36611997401E-01  0.51100000000E-03 0.  1.
</event>
<event>
 8    1  0.1112171E+005  0.1043930E+01  0.7957747E-01            NaN
         13   -1    0    0    0    0  0.00000000000E+00  0.00000000000E+00  0.74505805969E-08  0.10566000000E+00  0.10566000000E+00 0. -1.
     999900   -1    0    0    0    0 -0.00000000000E+00 -0.00000000000E+00 -0.74505805969E-08  0.93827000000E+00  0.93827000000E+00 0.  1.
     999902    2    1    2    0    0  0.73225900492E-02 -0.18851590415E-01 -0.12346260505E-01  0.10202354239E+01  0.10199602381E+01 0.  0.
     999903    2    3    3    0    0  0.30314337367E-01  0.70873053000E-01 -0.10372898579E+00  0.13066815017E+00  0.19300629115E-01 0.  0.
         14    1    1    2    0    0 -0.73225900492E-02  0.18851590415E-01  0.12346260505E-01  0.23694576060E-01  0.00000000000E+00 0.  1.
     999901    1    3    3    0    0 -0.22991747318E-01 -0.89724643415E-01  0.91382725286E-01  0.88956727377E+00  0.88000000000E+00 0. -1.
        -11    1    4    4    0    0  0.14115310466E-01  0.46173390032E-01 -0.76662670049E-01  0.90601600629E-01  0.51100000000E-03 0. -1.
         11    1    4    4    0    0  0.16199026902E-01  0.24699662968E-01 -0.27066315742E-01  0.40066549542E-01  0.51100000000E-03 0.  1.
</event>
<event>
 8    1  0.1112171E+005  0.1043930E+01  0.7957747E-01            NaN
         13   -1    0    0    0    0  0.00000000000E+00  0.00000000000E+00  0.74505805969E-08  0.10566000000E+00  0.10566000000E+00 0. -1.
     999900   -1    0    0    0    0 -0.00000000000E+00 -0.00000000000E+00 -0.74505805969E-08  0.93827000000E+00  0.93827000000E+00 0. -1.
     999902    2    1    2    0    0 -0.15731297055E-01  0.17187443748E-01  0.40678853107E-02  0.10202777354E+01  0.10200035430E+01 0.  0.
     999903    2    3    3    0    0  0.14615481449E-01  0.37507042609E-01  0.12371607264E+00  0.13143044717E+00  0.18652218953E-01 0.  0.
         14    1    1    2    0    0  0.15731297055E-01 -0.17187443748E-01 -0.40678853107E-02  0.23652264597E-01  0.00000000000E+00 0.  1.
     999901    1    3    3    0    0 -0.30346778505E-01 -0.20319598860E-01 -0.11964818733E+00  0.88884728823E+00  0.88000000000E+00 0. -1.
        -11    1    4    4    0    0  0.96832144195E-02  0.14604597291E-01  0.29247282941E-01  0.34098732879E-01  0.51100000000E-03 0. -1.
         11    1    4    4    0    0  0.49322670298E-02  0.22902445318E-01  0.94468789697E-01  0.97331714294E-01  0.51100000000E-03 0.  1.
</event>
<event>
 8    1  0.1112171E+005  0.1043930E+01  0.7957747E-01            NaN
         13   -1    0    0    0    0  0.00000000000E+00  0.00000000000E+00  0.74505805969E-08  0.10566000000E+00  0.10566000000E+00 0. -1.
     999900   -1    0    0    0    0 -0.00000000000E+00 -0.00000000000E+00 -0.74505805969E-08  0.93827000000E+00  0.93827000000E+00 0.  1.
     999902    2    1    2    0    0 -0.23470145530E-01 -0.35689942518E-02  0.32016285288E-02  0.10199751283E+01  0.10196937906E+01 0.  0.
     999903    2    3    3    0    0 -0.65194661266E-01 -0.94389411570E-01  0.62459962434E-01  0.13233734548E+00  0.21265493825E-01 0.  0.
         14    1    1    2    0    0  0.23470145530E-01  0.35689942518E-02 -0.32016285288E-02  0.23954871664E-01  0.00000000000E+00 0.  1.
     999901    1    3    3    0    0  0.41724515736E-01  0.90820417318E-01 -0.59258333905E-01  0.88763778286E+00  0.88000000000E+00 0.  1.
        -11    1    4    4    0    0 -0.12517212728E-01 -0.71324592577E-02  0.11151484931E-01  0.18225513071E-01  0.51100000000E-03 0.  1.
         11    1    4    4    0    0 -0.52677448538E-01 -0.87256952312E-01  0.51308477503E-01  0.11411183241E+00  0.51100000000E-03 0. -1.
</event>
<event>
 8    1  0.1112171E+005  0.1043930E+01  0.7957747E-01            NaN
         13   -1    0    0    0    0  0.00000000000E+00  0.00000000000E+00  0.74505805969E-08  0.10566000000E+00  0.10566000000E+00 0.  1.
     999900   -1    0    0    0    0 -0.00000000000E+00 -0.00000000000E+00 -0.74505805969E-08  0.93827000000E+00  0.93827000000E+00 0. -1.
     999902    2    1    2    0    0 -0.13702874843E-01 -0.11986192706E-01  0.15305195899E-01  0.10201458327E+01  0.10198685373E+01 0.  0.
     999903    2    3    3    0    0 -0.10021875648E+00 -0.55786796784E-01  0.65400659980E-01  0.13340289008E+00  0.19055679215E-01 0.  0.
         14    1    1    2    0    0  0.13702874843E-01  0.11986192706E-01 -0.15305195899E-01  0.23784167340E-01  0.00000000000E+00 0. -1.
     999901    1    3    3    0    0  0.86515881636E-01  0.43800604078E-01 -0.50095464082E-01  0.88674294258E+00  0.88000000000E+00 0. -1.
        -11    1    4    4    0    0 -0.75411129595E-01 -0.42385030907E-01  0.39447676739E-01  0.95077387600E-01  0.51100000000E-03 0.  1.
         11    1    4    4    0    0 -0.24807626885E-01 -0.13401765877E-01  0.25952983242E-01  0.38325502481E-01  0.51100000000E-03 0. -1.
</event>
<event>
 8    1  0.1112171E+005  0.1043930E+01  0.7957747E-01            NaN
         13   -1    0    0    0    0  0.00000000000E+00  0.00000000000E+00  0.74505805969E-08  0.10566000000E+00  0.10566000000E+00 0. -1.
     999900   -1    0    0    0    0 -0.00000000000E+00 -0.00000000000E+00 -0.74505805969E-08  0.93827000000E+00  0.93827000000E+00 0. -1.
     999902    2    1    2    0    0  0.13412684703E-01 -0.19092572753E-01 -0.15252752862E-02  0.10205472519E+01  0.10202793443E+01 0.  0.
     999903    2    3    3    0    0 -0.11391289277E+00 -0.37295127644E-01 -0.46144677370E-01  0.13007882081E+00  0.20593559367E-01 0.  0.
         14    1    1    2    0    0 -0.13412684703E-01  0.19092572753E-01  0.15252752862E-02  0.23382748127E-01  0.00000000000E+00 0. -1.
     999901    1    3    3    0    0  0.12732557747E+00  0.18202554890E-01  0.44619402084E-01  0.89046843107E+00  0.88000000000E+00 0.  1.
        -11    1    4    4    0    0 -0.60742764833E-01 -0.25585287819E-01 -0.34517849592E-01  0.74404526030E-01  0.51100000000E-03 0.  1.
         11    1    4    4    0    0 -0.53170127938E-01 -0.11709839825E-01 -0.11626827779E-01  0.55674294776E-01  0.51100000000E-03 0. -1.
</event>
<event>
 8    1  0.1112171E+005  0.1043930E+01  0.7957747E-01            NaN
         13   -1    0    0    0    0  0.00000000000E+00  0.00000000000E+00  0.74505805969E-08  0.10566000000E+00  0.10566000000E+00 0. -1.
     999900   -1    0    0    0    0 -0.00000000000E+00 -0.00000000000E+00 -0.74505805969E-08  0.93827000000E+00  0.93827000000E+00 0.  1.
     999902    2    1    2    0    0 -0.10542642565E-01 -0.17588277359E-01 -0.11245332466E-01  0.10205429883E+01  0.10202749819E+01 0.  0.
     999903    2    3    3    0    0 -0.11937944349E+00 -0.49570177824E-01 -0.25188064361E-01  0.13315204237E+00  0.19656391909E-01 0.  0.
         14    1    1    2    0    0  0.10542642565E-01  0.17588277359E-01  0.11245332466E-01  0.23387011673E-01  0.00000000000E+00 0. -1.
     999901    1    3    3    0    0  0.10883680093E+00  0.31981900465E-01  0.13942731896E-01  0.88739094596E+00  0.88000000000E+00 0.  1.
        -11    1    4    4    0    0 -0.24896298434E-01 -0.16135071211E-01 -0.12223379867E-01  0.32091094327E-01  0.51100000000E-03 0. -1.
         11    1    4    4    0    0 -0.94483145059E-01 -0.33435106613E-01 -0.12964684495E-01  0.10106094804E+00  0.51100000000E-03 0.  1.
</event>
<event>
 8    1  0.1112171E+005  0.1043930E+01  0.7957747E-01            NaN
         13   -1    0    0    0    0  0.00000000000E+00  0.00000000000E+00  0.74505805969E-08  0.10566000000E+00  0.10566000000E+00 0. -1.
     999900   -1    0    0    0    0 -0.00000000000E+00 -0.00000000000E+00 -0.74505805969E-08  0.93827000000E+00  0.93827000000E+00 0.  1.
     999902    2    1    2    0    0  0.29213509821E-03  0.20433144788E-01 -0.12767270808E-01  0.10198343167E+01  0.10195496219E+01 0.  0.
     999903    2    3    3    0    0 -0.95120020225E-01 -0.50616807452E-02 -0.87790484474E-01  0.13113754723E+00  0.20407064217E-01 0.  0.
         14    1    1    2    0    0 -0.29213509821E-03 -0.20433144788E-01  0.12767270808E-01  0.24095683280E-01  0.00000000000E+00 0. -1.
     999901    1    3    3    0    0  0.95412155323E-01  0.25494825533E-01  0.75023213666E-01  0.88869676949E+00  0.88000000000E+00 0. -1.
        -11    1    4    4    0    0 -0.67204065257E-01  0.21471606032E-02 -0.70920469464E-01  0.97729068325E-01  0.51100000000E-03 0. -1.
         11    1    4    4    0    0 -0.27915954968E-01 -0.72088413484E-02 -0.16870015011E-01  0.33408478906E-01  0.51100000000E-03 0.  1.
</event>
<event>
 8    1  0.1112171E+005  0.1043930E+01  0.7957747E-01            NaN
         13   -1    0    0    0    0  0.00000000000E+00  0.00000000000E+00  0.74505805969E-08  0.10566000000E+00  0.10566000000E+00 0. -1.
     999900   -1    0    0    0    0 -0.00000000000E+00 -0.00000000000E+00 -0.74505805969E-08  0.93827000000E+00  0.93827000000E+00 0.  1.
     999902    2    1    2    0    0 -0.13535872709E-01 -0.19549230092E-01 -0.24090734778E-02  0.10200302954E+01  0.10197502673E+01 0.  0.
     999903    2    3    3    0    0 -0.72979596231E-01 -0.65895681891E-02  0.10667730581E+00  0.13121009574E+00  0.21600874367E-01 0.  0.
         14    1    1    2    0    0  0.13535872709E-01  0.19549230092E-01  0.24090734778E-02  0.23899704646E-01  0.00000000000E+00 0. -1.
     999901    1    3    3    0    0  0.59443723522E-01 -0.12959661903E-01 -0.10908637929E+00  0.88882019962E+00  0.88000000000E+00 0.  1.
        -11    1    4    4    0    0 -0.21140593375E-01  0.78178485174E-02  0.29537561342E-01  0.37158741834E-01  0.51100000000E-03 0.  1.
         11    1    4    4    0    0 -0.51839002856E-01 -0.14407416706E-01  0.77139744467E-01  0.94051353901E-01  0.51100000000E-03 0. -1.
</event>
<event>
 8    1  0.1112171E+005  0.1043930E+01  0.7957747E-01            NaN
         13   -1    0    0    0    0  0.00000000000E+00  0.00000000000E+00  0.74505805969E-08  0.10566000000E+00  0.10566000000E+00 0. -1.
     999900   -1    0    0    0    0 -0.00000000000E+00 -0.00000000000E+00 -0.74505805969E-08  0.93827000000E+00  0.93827000000E+00 0.  1.
     999902    2    1    2    0    0  0.16412403142E-01  0.12825097488E-01 -0.83418228903E-02  0.10214926180E+01  0.10212461665E+01 0.  0.
     999903    2    3    3    0    0 -0.66820523870E-01 -0.62517345447E-01 -0.90822592915E-01  0.13053398748E+00  0.20420029685E-01 0.  0.
         14    1    1    2    0    0 -0.16412403142E-01 -0.12825097488E-01  0.83418228903E-02  0.22437382013E-01  0.00000000000E+00 0.  1.
     999901    1    3    3    0    0  0.83232927011E-01  0.75342442935E-01  0.82480770025E-01  0.89095863050E+00  0.88000000000E+00 0. -1.
        -11    1    4    4    0    0 -0.53485230140E-01 -0.39329101047E-01 -0.71232407157E-01  0.97374354851E-01  0.51100000000E-03 0.  1.
         11    1    4    4    0    0 -0.13335293730E-01 -0.23188244401E-01 -0.19590185758E-01  0.33159632632E-01  0.51100000000E-03 0. -1.
</event>
<event>
 8    1  0.1112171E+005  0.1043930E+01  0.7957747E-01            NaN
         13   -1    0    0    0    0  0.00000000000E+00  0.00000000000E+00  0.74505805969E-08  0.10566000000E+00  0.10566000000E+00 0.  1.
     999900   -1    0    0    0    0 -0.00000000000E+00 -0.00000000000E+00 -0.74505805969E-08  0.93827000000E+00  0.93827000000E+00 0. -1.
     999902    2    1    2    0    0 -0.20715553995E-02 -0.23748024883E-01 -0.83260213755E-03  0.10200772590E+01  0.10197983433E+01 0.  0.
     999903    2    3    3    0    0 -0.55438597053E-01  0.12713863872E-01  0.11534882006E+00  0.13009094823E+00  0.19576111575E-01 0.  0.
         14    1    1    2    0    0  0.20715553995E-02  0.23748024883E-01  0.83260213755E-03  0.23852741015E-01  0.00000000000E+00 0.  1.
     999901    1    3    3    0    0  0.53367041654E-01 -0.36461888755E-01 -0.11618142220E+00  0.88998631075E+00  0.88000000000E+00 0. -1.
        -11    1    4    4    0    0 -0.43750820767E-01  0.17595030113E-01  0.96025620852E-01  0.10698084120E+00  0.51100000000E-03 0. -1.
         11    1    4    4    0    0 -0.11687776286E-01 -0.48811662416E-02  0.19323199208E-01  0.23110107032E-01  0.51100000000E-03 0.  1.
</event>
<event>
 7    1  0.1340390E+005  0.1043930E+01  0.7957747E-01            NaN
         13   -1    0    0    0    0  0.00000000000E+00  0.00000000000E+00  0.74505805969E-08  0.10566000000E+00  0.10566000000E+00 0. -1.
     999900   -1    0    0    0    0 -0.00000000000E+00 -0.00000000000E+00 -0.74505805969E-08  0.93827000000E+00  0.93827000000E+00 0. -1.
     999903    2    1    2    0    0  0.77310870054E-01 -0.10669558316E-01  0.29554996320E-01  0.85833640437E-01  0.20077497855E-01 0.  0.
         14    1    1    2    0    0  0.62210318960E-01  0.23549655157E-01  0.91570196463E-04  0.66518557022E-01  0.00000000000E+00 0. -1.
     999901    1    1    2    0    0 -0.13952118901E+00 -0.12880096842E-01 -0.29646566516E-01  0.89157780254E+00  0.88000000000E+00 0. -1.
        -11    1    3    3    0    0  0.27650764479E-01 -0.87333738161E-02  0.19983656754E-01  0.35219941123E-01  0.51100000000E-03 0. -1.
         11    1    3    3    0    0  0.49660105575E-01 -0.19361844995E-02  0.95713395656E-02  0.50613699314E-01  0.51100000000E-03 0.  1.
</event>
<event>
 8    1  0.1112171E+005  0.1043930E+01  0.7957747E-01            NaN
         13   -1    0    0    0    0  0.00000000000E+00  0.00000000000E+00  0.74505805969E-08  0.10566000000E+00  0.10566000000E+00 0.  1.
     999900   -1    0    0    0    0 -0.00000000000E+00 -0.00000000000E+00 -0.74505805969E-08  0.93827000000E+00  0.93827000000E+00 0.  1.
     999902    2    1    2    0    0 -0.12397171413E-01  0.19510880888E-01 -0.72098214065E-02  0.10197154206E+01  0.10194278754E+01 0.  0.
     999903    2    3    3    0    0 -0.23031823750E-01 -0.12132324842E+00 -0.29389201068E-01  0.12817783152E+00  0.17777396966E-01 0.  0.
         14    1    1    2    0    0  0.12397171413E-01 -0.19510880888E-01  0.72098214065E-02  0.24214579426E-01  0.00000000000E+00 0. -1.
     999901    1    3    3    0    0  0.10634652337E-01  0.14083412931E+00  0.22179379661E-01  0.89153758905E+00  0.88000000000E+00 0.  1.
        -11    1    4    4    0    0 -0.25574581010E-01 -0.10696138817E+00 -0.28199042155E-01  0.11353521415E+00  0.51100000000E-03 0. -1.
         11    1    4    4    0    0  0.25427572599E-02 -0.14361860251E-01 -0.11901589128E-02  0.14642617375E-01  0.51100000000E-03 0.  1.
</event>
<event>
 8    1  0.1112171E+005  0.1043930E+01  0.7957747E-01            NaN
         13   -1    0    0    0    0  0.00000000000E+00  0.00000000000E+00  0.74505805969E-08  0.10566000000E+00  0.10566000000E+00 0. -1.
     999900   -1    0    0    0    0 -0.00000000000E+00 -0.00000000000E+00 -0.74505805969E-08  0.93827000000E+00  0.93827000000E+00 0.  1.
     999902    2    1    2    0    0  0.19721992050E-01  0.73908875845E-03  0.14557180276E-01  0.10194062417E+01  0.10191112162E+01 0.  0.
     999903    2    3    3    0    0  0.10098906382E+00  0.16677004058E-01  0.82371323118E-01  0.13292042002E+00  0.20146704736E-01 0.  0.
         14    1    1    2    0    0 -0.19721992050E-01 -0.73908875845E-03 -0.14557180276E-01  0.24523758280E-01  0.00000000000E+00 0.  1.
     999901    1    3    3    0    0 -0.81267071770E-01 -0.15937915300E-01 -0.67814142842E-01  0.88648582170E+00  0.88000000000E+00 0.  1.
        -11    1    4    4    0    0  0.59248420008E-01  0.74725261603E-04  0.43353818139E-01  0.73417950976E-01  0.51100000000E-03 0.  1.
         11    1    4    4    0    0  0.41740643812E-01  0.16602278797E-01  0.39017504979E-01  0.59502469048E-01  0.51100000000E-03 0. -1.
</event>
<event>
 8    1  0.1112171E+005  0.1043930E+01  0.7957747E-01            NaN
         13   -1    0    0    0    0  0.00000000000E+00  0.00000000000E+00  0.74505805969E-08  0.10566000000E+00  0.10566000000E+00 0.  1.
     999900   -1    0    0    0    0 -0.00000000000E+00 -0.00000000000E+00 -0.74505805969E-08  0.93827000000E+00  0.93827000000E+00 0. -1.
     999902    2    1    2    0    0 -0.17987732861E-01 -0.12007870809E-01 -0.13306485426E-01  0.10185368897E+01  0.10182203031E+01 0.  0.
     999903    2    3    3    0    0  0.13574697947E-02  0.34922564486E-01 -0.12369359028E+00  0.13018897616E+00  0.20679385921E-01 0.  0.
         14    1    1    2    0    0  0.17987732861E-01  0.12007870809E-01  0.13306485426E-01  0.25393110272E-01  0.00000000000E+00 0.  1.
     999901    1    3    3    0    0 -0.19345202656E-01 -0.46930435296E-01  0.11038710486E+00  0.88834791357E+00  0.88000000000E+00 0.  1.
        -11    1    4    4    0    0  0.98978787689E-02  0.10179177240E-01 -0.37234639637E-01  0.39853019501E-01  0.51100000000E-03 0.  1.
         11    1    4    4    0    0 -0.85404089742E-02  0.24743387246E-01 -0.86458950645E-01  0.90335956659E-01  0.51100000000E-03 0. -1.
</event>
<event>
 8    1  0.1112171E+005  0.1043930E+01  0.7957747E-01            NaN
         13   -1    0    0    0    0  0.00000000000E+00  0.00000000000E+00  0.74505805969E-08  0.10566000000E+00  0.10566000000E+00 0. -1.
     999900   -1    0    0    0    0 -0.00000000000E+00 -0.00000000000E+00 -0.74505805969E-08  0.93827000000E+00  0.93827000000E+00 0. -1.
     999902    2    1    2    0    0 -0.16245918364E-01  0.17780318716E-02  0.15795072179E-01  0.10212017012E+01  0.10209487445E+01 0.  0.
     999903    2    3    3    0    0  0.21198261753E-01 -0.66700469568E-01 -0.10682063143E+00  0.12927906860E+00  0.20102520670E-01 0.  0.
         14    1    1    2    0    0  0.16245918364E-01 -0.17780318716E-02 -0.15795072179E-01  0.22728298792E-01  0.00000000000E+00 0.  1.
     999901    1    3    3    0    0 -0.37444180117E-01  0.68478501440E-01  0.12261570361E+00  0.89192263261E+00  0.88000000000E+00 0.  1.
        -11    1    4    4    0    0  0.83681639818E-03 -0.17365854061E-01 -0.41005249747E-01  0.44541719508E-01  0.51100000000E-03 0. -1.
         11    1    4    4    0    0  0.20361445355E-01 -0.49334615507E-01 -0.65815381683E-01  0.84737349093E-01  0.51100000000E-03 0.  1.
</event>
<event>
 8    1  0.1112171E+005  0.1043930E+01  0.7957747E-01            NaN
         13   -1    0    0    0    0  0.00000000000E+00  0.00000000000E+00  0.74505805969E-08  0.10566000000E+00  0.10566000000E+00 0.  1.
     999900   -1    0    0    0    0 -0.00000000000E+00 -0.00000000000E+00 -0.74505805969E-08  0.93827000000E+00  0.93827000000E+00 0. -1.
     999902    2    1    2    0    0 -0.19813273582E-01  0.10605961263E-01 -0.72987238822E-02  0.10203011279E+01  0.10200274840E+01 0.  0.
     999903    2    3    3    0    0 -0.11286142563E+00 -0.65370107118E-01 -0.70626670400E-02  0.13213989411E+00  0.20002951038E-01 0.  0.
         14    1    1    2    0    0  0.19813273582E-01 -0.10605961263E-01  0.72987238822E-02  0.23628872057E-01  0.00000000000E+00 0. -1.
     999901    1    3    3    0    0  0.93048152043E-01  0.75976068381E-01 -0.23605684222E-03  0.88816123384E+00  0.88000000000E+00 0.  1.
        -11    1    4    4    0    0 -0.77079053400E-01 -0.34392396248E-01 -0.91030690481E-03  0.84410349912E-01  0.51100000000E-03 0. -1.
         11    1    4    4    0    0 -0.35782372226E-01 -0.30977710870E-01 -0.61523601352E-02  0.47729544196E-01  0.51100000000E-03 0.  1.
</event>
<event>
 8    1  0.1112171E+005  0.1043930E+01  0.7957747E-01            NaN
         13   -1    0    0    0    0  0.00000000000E+00  0.00000000000E+00  0.74505805969E-08  0.10566000000E+00  0.10566000000E+00 0.  1.
     999900   -1    0    0    0    0 -0.00000000000E+00 -0.00000000000E+00 -0.74505805969E-08  0.93827000000E+00  0.93827000000E+00 0.  1.
     999902    2    1    2    0    0 -0.84646835938E-02 -0.10597006937E-01  0.18668792669E-01  0.10208546616E+01  0.10205938314E+01 0.  0.
     999903    2    3    3    0    0 -0.34653791741E-01  0.12008025677E+00  0.30708845417E-01  0.13073816384E+00  0.23006106784E-01 0.  0.
         14    1    1    2    0    0  0.84646835938E-02  0.10597006937E-01 -0.18668792669E-01  0.23075338439E-01  0.00000000000E+00 0. -1.
     999901    1    3    3    0    0  0.26189108147E-01 -0.13067726371E+00 -0.12040052748E-01  0.89011649772E+00  0.88000000000E+00 0.  1.
        -11    1    4    4    0    0 -0.12598360523E-01  0.54288868978E-01  0.25085135459E-01  0.61118942438E-01  0.51100000000E-03 0.  1.
         11    1    4    4    0    0 -0.22055431218E-01  0.65791387797E-01  0.56237099579E-02  0.69619221406E-01  0.51100000000E-03 0. -1.
</event>
<event>
 8    1  0.1112171E+005  0.1043930E+01  0.7957747E-01            NaN
         13   -1    0    0    0    0  0.00000000000E+00  0.00000000000E+00  0.74505805969E-08  0.10566000000E+00  0.10566000000E+00 0.  1.
     999900   -1    0    0    0    0 -0.00000000000E+00 -0.00000000000E+00 -0.74505805969E-08  0.93827000000E+00  0.93827000000E+00 0. -1.
     999902    2    1    2    0    0 -0.18417390343E-01  0.10192088117E-01 -0.88173747410E-02  0.10211084088E+01  0.10208533477E+01 0.  0.
     999903    2    3    3    0    0 -0.67941030899E-01 -0.57839756112E-01  0.93966452994E-01  0.13113906212E+00  0.20157833670E-01 0.  0.
         14    1    1    2    0    0  0.18417390343E-01 -0.10192088117E-01  0.88173747410E-02  0.22821591192E-01  0.00000000000E+00 0. -1.
     999901    1    3    3    0    0  0.49523640556E-01  0.68031844229E-01 -0.10278382773E+00  0.88996934669E+00  0.88000000000E+00 0. -1.
        -11    1    4    4    0    0 -0.51075271329E-01 -0.43214734634E-01  0.56725690337E-01  0.87716940758E-01  0.51100000000E-03 0.  1.
         11    1    4    4    0    0 -0.16865759571E-01 -0.14625021478E-01  0.37240762657E-01  0.43422121360E-01  0.51100000000E-03 0. -1.
</event>
<event>
 8    1  0.1112171E+005  0.1043930E+01  0.7957747E-01            NaN
         13   -1    0    0    0    0  0.00000000000E+00  0.00000000000E+00  0.74505805969E-08  0.10566000000E+00  0.10566000000E+00 0.  1.
     999900   -1    0    0    0    0 -0.00000000000E+00 -0.00000000000E+00 -0.74505805969E-08  0.93827000000E+00  0.93827000000E+00 0.  1.
     999902    2    1    2    0    0  0.12488373031E-01  0.61189212765E-02  0.67906639118E-02  0.10284537674E+01  0.10283373172E+01 0.  0.
     999903    2    3    3    0    0  0.96087089900E-01 -0.95731452907E-01 -0.17717208618E-01  0.13830609428E+00  0.20431258207E-01 0.  0.
         14    1    1    2    0    0 -0.12488373031E-01 -0.61189212765E-02 -0.67906639118E-02  0.15476232581E-01  0.00000000000E+00 0. -1.
     999901    1    3    3    0    0 -0.83598716868E-01  0.10185037418E+00  0.24507872530E-01  0.89014767314E+00  0.88000000000E+00 0.  1.
        -11    1    4    4    0    0  0.16757387662E-01 -0.12372557598E-01 -0.96116674450E-02  0.22946361255E-01  0.51100000000E-03 0. -1.
         11    1    4    4    0    0  0.79329702237E-01 -0.83358895309E-01 -0.81055411729E-02  0.11535973302E+00  0.51100000000E-03 0.  1.
</event>
<event>
 8    1  0.1112171E+005  0.1043930E+01  0.7957747E-01            NaN
         13   -1    0    0    0    0  0.00000000000E+00  0.00000000000E+00  0.74505805969E-08  0.10566000000E+00  0.10566000000E+00 0. -1.
     999900   -1    0    0    0    0 -0.00000000000E+00 -0.00000000000E+00 -0.74505805969E-08  0.93827000000E+00  0.93827000000E+00 0.  1.
     999902    2    1    2    0    0 -0.28193587684E-02 -0.23616507602E-01 -0.12314127787E-01  0.10171470584E+01  0.10167943807E+01 0.  0.
     999903    2    3    3    0    0  0.36228508782E-01 -0.74767057721E-01 -0.98682253239E-01  0.13058032783E+00  0.20258754734E-01 0.  0.
         14    1    1    2    0    0  0.28193587684E-02  0.23616507602E-01  0.12314127787E-01  0.26782941555E-01  0.00000000000E+00 0.  1.
     999901    1    3    3    0    0 -0.39047867550E-01  0.51150550119E-01  0.86368125452E-01  0.88656673061E+00  0.88000000000E+00 0. -1.
        -11    1    4    4    0    0  0.23351309910E-01 -0.62130201375E-01 -0.68289433964E-01  0.95232103355E-01  0.51100000000E-03 0.  1.
         11    1    4    4    0    0  0.12877198872E-01 -0.12636856346E-01 -0.30392819276E-01  0.35348224476E-01  0.51100000000E-03 0. -1.
</event>
<event>
 8    1  0.1112171E+005  0.1043930E+01  0.7957747E-01            NaN
         13   -1    0    0    0    0  0.00000000000E+00  0.00000000000E+00  0.74505805969E-08  0.10566000000E+00  0.10566000000E+00 0. -1.
     999900   -1    0    0    0    0 -0.00000000000E+00 -0.00000000000E+00 -0.74505805969E-08  0.93827000000E+00  0.93827000000E+00 0. -1.
     999902    2    1    2    0    0 -0.57872980548E-02  0.19870769534E-01  0.44787971312E-02  0.10227545443E+01  0.10225353089E+01 0.  0.
     999903    2    3    3    0    0  0.91672938537E-01  0.44595970842E-01 -0.82215975614E-01  0.13279622116E+00  0.21969101763E-01 0.  0.
         14    1    1    2    0    0  0.57872980548E-02 -0.19870769534E-01 -0.44787971312E-02  0.21175455707E-01  0.00000000000E+00 0. -1.
     999901    1    3    3    0    0 -0.97460236591E-01 -0.24725201308E-01  0.86694772745E-01  0.88995832314E+00  0.88000000000E+00 0.  1.
        -11    1    4    4    0    0  0.31684176569E-02  0.77962750932E-02 -0.68959266680E-02  0.10892001716E-01  0.51100000000E-03 0. -1.
         11    1    4    4    0    0  0.88504520880E-01  0.36799695749E-01 -0.75320048946E-01  0.12190421944E+00  0.51100000000E-03 0.  1.
</event>
<event>
 8    1  0.1112171E+005  0.1043930E+01  0.7957747E-01            NaN
         13   -1    0    0    0    0  0.00000000000E+00  0.00000000000E+00  0.74505805969E-08  0.10566000000E+00  0.10566000000E+00 0.  1.
     999900   -1    0    0    0    0 -0.00000000000E+00 -0.00000000000E+00 -0.74505805969E-08  0.93827000000E+00  0.93827000000E+00 0.  1.
     999902    2    1    2    0    0  0.51474549729E-02 -0.74275469154E-02  0.18490247313E-01  0.10233495726E+01  0.10231426068E+01 0.  0.
     999903    2    3    3    0    0  0.14424423266E-02  0.76482107578E-01 -0.10427026751E+00  0.13086724716E+00  0.20058770492E-01 0.  0.
         14    1    1    2    0    0 -0.51474549729E-02  0.74275469154E-02 -0.18490247313E-01  0.20580427391E-01  0.00000000000E+00 0. -1.
     999901    1    3    3    0    0  0.37050126463E-02 -0.83909654493E-01  0.12276051482E+00  0.89248232545E+00  0.88000000000E+00 0. -1.
        -11    1    4    4    0    0 -0.68536423189E-02  0.60418624556E-01 -0.76447029755E-01  0.97682097058E-01  0.51100000000E-03 0.  1.
         11    1    4    4    0    0  0.82960846456E-02  0.16063483022E-01 -0.27823237755E-01  0.33185150104E-01  0.51100000000E-03 0. -1.
</event>
<event>
 8    1  0.1112171E+005  0.1043930E+01  0.7957747E-01            NaN
         13   -1    0    0    0    0  0.00000000000E+00  0.00000000000E+00  0.74505805969E-08  0.10566000000E+00  0.10566000000E+00 0.  1.
     999900   -1    0    0    0    0 -0.00000000000E+00 -0.00000000000E+00 -0.74505805969E-08  0.93827000000E+00  0.93827000000E+00 0. -1.
     999902    2    1    2    0    0  0.19066881464E-01  0.90792595918E-02 -0.74067112948E-02  0.10215505832E+01  0.10213054175E+01 0.  0.
     999903    2    3    3    0    0 -0.18184922189E-01  0.76880514881E-01 -0.10483277412E+00  0.13280059316E+00  0.20119196087E-01 0.  0.
         14    1    1    2    0    0 -0.19066881464E-01 -0.90792595918E-02  0.74067112948E-02  0.22379416787E-01  0.00000000000E+00 0.  1.
     999901    1    3    3    0    0  0.37251803654E-01 -0.67801255289E-01  0.97426062828E-01  0.88874999005E+00  0.88000000000E+00 0.  1.
        -11    1    4    4    0    0 -0.10215000011E-01  0.47790246520E-01 -0.79910680433E-01  0.93670869836E-01  0.51100000000E-03 0.  1.
         11    1    4    4    0    0 -0.79699221783E-02  0.29090268361E-01 -0.24922093690E-01  0.39129723328E-01  0.51100000000E-03 0. -1.
</event>
<event>
 8    1  0.1112171E+005  0.1043930E+01  0.7957747E-01            NaN
         13   -1    0    0    0    0  0.00000000000E+00  0.00000000000E+00  0.74505805969E-08  0.10566000000E+00  0.10566000000E+00 0.  1.
     999900   -1    0    0    0    0 -0.00000000000E+00 -0.00000000000E+00 -0.74505805969E-08  0.93827000000E+00  0.93827000000E+00 0.  1.
     999902    2    1    2    0    0 -0.63809573222E-02 -0.50112306278E-02 -0.22093672554E-01  0.10203936576E+01  0.10201221775E+01 0.  0.
     999903    2    3    3    0    0  0.11348873131E+00 -0.51896235239E-01 -0.34329263397E-01  0.13094626979E+00  0.19887581077E-01 0.  0.
         14    1    1    2    0    0  0.63809573222E-02  0.50112306278E-02  0.22093672554E-01  0.23536342445E-01  0.00000000000E+00 0.  1.
     999901    1    3    3    0    0 -0.11986968863E+00  0.46885004612E-01  0.12235590843E-01  0.88944738776E+00  0.88000000000E+00 0.  1.
        -11    1    4    4    0    0  0.53835352230E-01 -0.33158269718E-01 -0.10847088221E-01  0.64153226297E-01  0.51100000000E-03 0. -1.
         11    1    4    4    0    0  0.59653379081E-01 -0.18737965521E-01 -0.23482175177E-01  0.66793043498E-01  0.51100000000E-03 0.  1.
</event>
<event>
 8    1  0.1112171E+005  0.1043930E+01  0.7957747E-01            NaN
         13   -1    0    0    0    0  0.00000000000E+00  0.00000000000E+00  0.74505805969E-08  0.10566000000E+00  0.10566000000E+00 0.  1.
     999900   -1    0    0    0    0 -0.00000000000E+00 -0.00000000000E+00 -0.74505805969E-08  0.93827000000E+00  0.93827000000E+00 0. -1.
     999902    2    1    2    0    0  0.25000140347E-02  0.43482419778E-02  0.24937041850E-01  0.10184935432E+01  0.10181758611E+01 0.  0.
     999903    2    3    3    0    0  0.81199514616E-01  0.67353320482E-01  0.75014890981E-01  0.13132329895E+00  0.22107555799E-01 0.  0.
         14    1    1    2    0    0 -0.25000140347E-02 -0.43482419778E-02 -0.24937041850E-01  0.25436456804E-01  0.00000000000E+00 0. -1.
     999901    1    3    3    0    0 -0.78699500581E-01 -0.63005078504E-01 -0.50077849131E-01  0.88717024425E+00  0.88000000000E+00 0. -1.
        -11    1    4    4    0    0  0.41139501611E-01  0.34655477758E-01  0.51657093850E-01  0.74580005346E-01  0.51100000000E-03 0.  1.
         11    1    4    4    0    0  0.40060013005E-01  0.32697842724E-01  0.23357797132E-01  0.56743293600E-01  0.51100000000E-03 0. -1.
</event>
<event>
 8    1  0.1199468E+005  0.1043930E+01  0.7957747E-01            NaN
         13   -1    0    0    0    0  0.00000000000E+00  0.00000000000E+00  0.74505805969E-08  0.10566000000E+00  0.10566000000E+00 0.  1.
     999900   -1    0    0    0    0 -0.00000000000E+00 -0.00000000000E+00 -0.74505805969E-08  0.93827000000E+00  0.93827000000E+00 0.  1.
     999902    2    1    2    0    0  0.39338497941E-02  0.27891333331E-01  0.57203302092E-02  0.10151876301E+01  0.10147806662E+01 0.  0.
     999903    2    3    3    0    0  0.23795213270E-04  0.28323772466E-01 -0.12123495066E+00  0.12606833616E+00  0.19826130921E-01 0.  0.
         14    1    1    2    0    0 -0.39338497941E-02 -0.27891333331E-01 -0.57203302092E-02  0.28742369890E-01  0.00000000000E+00 0.  1.
     999901    1    3    3    0    0  0.39100545808E-02 -0.43243913525E-03  0.12695528087E+00  0.88911929395E+00  0.88000000000E+00 0. -1.
        -11    1    4    4    0    0 -0.58268433464E-02  0.24262474094E-01 -0.69547795292E-01  0.73890301823E-01  0.51100000000E-03 0.  1.
         11    1    4    4    0    0  0.58506385597E-02  0.40612983717E-02 -0.51687155372E-01  0.52178034339E-01  0.51100000000E-03 0. -1.
</event>
<event>
 8    1  0.1112171E+005  0.1043930E+01  0.7957747E-01            NaN
         13   -1    0    0    0    0  0.00000000000E+00  0.00000000000E+00  0.74505805969E-08  0.10566000000E+00  0.10566000000E+00 0.  1.
     999900   -1    0    0    0    0 -0.00000000000E+00 -0.00000000000E+00 -0.74505805969E-08  0.93827000000E+00  0.93827000000E+00 0.  1.
     999902    2    1    2    0    0 -0.88748772626E-02  0.12346381960E-02  0.20371672782E-01  0.10216748247E+01  0.10214324033E+01 0.  0.
     999903    2    3    3    0    0 -0.31879351909E-01  0.12013374511E+00 -0.37625151814E-01  0.13148954329E+00  0.20626152213E-01 0.  0.
         14    1    1    2    0    0  0.88748772626E-02 -0.12346381960E-02 -0.20371672782E-01  0.22255175350E-01  0.00000000000E+00 0. -1.
     999901    1    3    3    0    0  0.23004474647E-01 -0.11889910691E+00  0.57996824597E-01  0.89018528136E+00  0.88000000000E+00 0. -1.
        -11    1    4    4    0    0 -0.25736896375E-01  0.89415772336E-01 -0.18765671865E-01  0.94920913075E-01  0.51100000000E-03 0.  1.
         11    1    4    4    0    0 -0.61424555340E-02  0.30717972772E-01 -0.18859479949E-01  0.36568630220E-01  0.51100000000E-03 0. -1.
</event>
<event>
 8    1  0.1112171E+005  0.1043930E+01  0.7957747E-01            NaN
         13   -1    0    0    0    0  0.00000000000E+00  0.00000000000E+00  0.74505805969E-08  0.10566000000E+00  0.10566000000E+00 0.  1.
     999900   -1    0    0    0    0 -0.00000000000E+00 -0.00000000000E+00 -0.74505805969E-08  0.93827000000E+00  0.93827000000E+00 0. -1.
     999902    2    1    2    0    0  0.20190224086E-01 -0.62045570400E-02 -0.61311159947E-02  0.10219360858E+01  0.10216993840E+01 0.  0.
     999903    2    3    3    0    0 -0.85792354398E-01  0.90889995369E-01  0.19519878800E-01  0.12990602324E+00  0.29550463185E-01 0.  0.
         14    1    1    2    0    0 -0.20190224086E-01  0.62045570400E-02  0.61311159947E-02  0.21993914159E-01  0.00000000000E+00 0.  1.
     999901    1    3    3    0    0  0.10598257848E+00 -0.97094552409E-01 -0.25650994795E-01  0.89203006260E+00  0.88000000000E+00 0.  1.
        -11    1    4    4    0    0 -0.29429994941E-01  0.49105137156E-01  0.16899651594E-01  0.59693370171E-01  0.51100000000E-03 0.  1.
         11    1    4    4    0    0 -0.56362359457E-01  0.41784858212E-01  0.26202272059E-02  0.70212653069E-01  0.51100000000E-03 0. -1.
</event>
<event>
 8    1  0.1112171E+005  0.1043930E+01  0.7957747E-01            NaN
         13   -1    0    0    0    0  0.00000000000E+00  0.00000000000E+00  0.74505805969E-08  0.10566000000E+00  0.10566000000E+00 0.  1.
     999900   -1    0    0    0    0 -0.00000000000E+00 -0.00000000000E+00 -0.74505805969E-08  0.93827000000E+00  0.93827000000E+00 0.  1.
     999902    2    1    2    0    0  0.63426001036E-02 -0.17844427167E-01  0.17201349900E-01  0.10183460481E+01  0.10180246240E+01 0.  0.
     999903    2    3    3    0    0 -0.65559878920E-01  0.37087845962E-01  0.10344670732E+00  0.12951210252E+00  0.19963902453E-01 0.  0.
         14    1    1    2    0    0 -0.63426001036E-02  0.17844427167E-01 -0.17201349900E-01  0.25583951911E-01  0.00000000000E+00 0. -1.
     999901    1    3    3    0    0  0.71902479023E-01 -0.54932273129E-01 -0.86245357421E-01  0.88883394557E+00  0.88000000000E+00 0.  1.
        -11    1    4    4    0    0 -0.36901144174E-01  0.23651753384E-01  0.75416595799E-01  0.87229719261E-01  0.51100000000E-03 0. -1.
         11    1    4    4    0    0 -0.28658734746E-01  0.13436092578E-01  0.28030111523E-01  0.42282383258E-01  0.51100000000E-03 0.  1.
</event>
<event>
 8    1  0.1112171E+005  0.1043930E+01  0.7957747E-01            NaN
         13   -1    0    0    0    0  0.00000000000E+00  0.00000000000E+00  0.74505805969E-08  0.10566000000E+00  0.10566000000E+00 0.  1.
     999900   -1    0    0    0    0 -0.00000000000E+00 -0.00000000000E+00 -0.74505805969E-08  0.93827000000E+00  0.93827000000E+00 0.  1.
     999902    2    1    2    0    0 -0.62267708916E-02 -0.18567146706E-01 -0.13301780065E-01  0.10202561966E+01  0.10199814988E+01 0.  0.
     999903    2    3    3    0    0 -0.55427692050E-02  0.12064904456E+00 -0.40407480113E-01  0.12889973891E+00  0.19886276604E-01 0.  0.
         14    1    1    2    0    0  0.62267708916E-02  0.18567146706E-01  0.13301780065E-01  0.23673803359E-01  0.00000000000E+00 0. -1.
     999901    1    3    3    0    0 -0.68400168655E-03 -0.13921619127E+00  0.27105700047E-01  0.89135645773E+00  0.88000000000E+00 0.  1.
        -11    1    4    4    0    0 -0.18810251904E-02  0.33576910237E-01 -0.20922227953E-02  0.33698452102E-01  0.51100000000E-03 0.  1.
         11    1    4    4    0    0 -0.36617440146E-02  0.87072134324E-01 -0.38315257317E-01  0.95201286805E-01  0.51100000000E-03 0. -1.
</event>
<event>
 8    1  0.1112171E+005  0.1043930E+01  0.7957747E-01            NaN
         13   -1    0    0    0    0  0.00000000000E+00  0.00000000000E+00  0.74505805969E-08  0.10566000000E+00  0.10566000000E+00 0.  1.
     999900   -1    0    0    0    0 -0.00000000000E+00 -0.00000000000E+00 -0.74505805969E-08  0.93827000000E+00  0.93827000000E+00 0. -1.
     999902    2    1    2    0    0  0.56325923989E-02 -0.11568973491E-01  0.20184697497E-01  0.10199928060E+01  0.10197118882E+01 0.  0.
     999903    2    3    3    0    0  0.20887595630E-01  0.98864602463E-02 -0.12404515197E+00  0.12786316280E+00  0.20682236946E-01 0.  0.
         14    1    1    2    0    0 -0.56325923989E-02  0.11568973491E-01 -0.20184697497E-01  0.23937194026E-01  0.00000000000E+00 0. -1.
     999901    1    3    3    0    0 -0.15255003231E-01 -0.21455433737E-01  0.14422984947E+00  0.89212964318E+00  0.88000000000E+00 0.  1.
        -11    1    4    4    0    0 -0.18201072366E-02  0.47392283011E-03 -0.45902744442E-01  0.45944101488E-01  0.51100000000E-03 0. -1.
         11    1    4    4    0    0  0.22707702866E-01  0.94125374162E-02 -0.78142407529E-01  0.81919061307E-01  0.51100000000E-03 0.  1.
</event>
<event>
 8    1  0.1112171E+005  0.1043930E+01  0.7957747E-01            NaN
         13   -1    0    0    0    0  0.00000000000E+00  0.00000000000E+00  0.74505805969E-08  0.10566000000E+00  0.10566000000E+00 0.  1.
     999900   -1    0    0    0    0 -0.00000000000E+00 -0.00000000000E+00 -0.74505805969E-08  0.93827000000E+00  0.93827000000E+00 0.  1.
     999902    2    1    2    0    0  0.13784477592E-01  0.16610939415E-01  0.79575020022E-02  0.10209244144E+01  0.10206651767E+01 0.  0.
     999903    2    3    3    0    0 -0.12376170947E+00 -0.29590037322E-01  0.78941615598E-02  0.12904242230E+00  0.19927316065E-01 0.  0.
         14    1    1    2    0    0 -0.13784477592E-01 -0.16610939415E-01 -0.79575020022E-02  0.23005585601E-01  0.00000000000E+00 0.  1.
     999901    1    3    3    0    0  0.13754618706E+00  0.46200976737E-01  0.63340442342E-04  0.89188199210E+00  0.88000000000E+00 0.  1.
        -11    1    4    4    0    0 -0.85682756692E-01 -0.29781344844E-01  0.50129107302E-02  0.90850722012E-01  0.51100000000E-03 0.  1.
         11    1    4    4    0    0 -0.38078952777E-01  0.19130752227E-03  0.28812508296E-02  0.38191700283E-01  0.51100000000E-03 0. -1.
</event>
<event>
 8    1  0.1112171E+005  0.1043930E+01  0.7957747E-01            NaN
         13   -1    0    0    0    0  0.00000000000E+00  0.00000000000E+00  0.74505805969E-08  0.10566000000E+00  0.10566000000E+00 0.  1.
     999900   -1    0    0    0    0 -0.00000000000E+00 -0.00000000000E+00 -0.74505805969E-08  0.93827000000E+00  0.93827000000E+00 0. -1.
     999902    2    1    2    0    0 -0.15697398950E-01  0.14125824664E-01 -0.92593661615E-02  0.10208717451E+01  0.10206113055E+01 0.  0.
     999903    2    3    3    0    0 -0.12329169776E+00 -0.17442335999E-01  0.40174497941E-01  0.13238044588E+00  0.20137386781E-01 0.  0.
         14    1    1    2    0    0  0.15697398950E-01 -0.14125824664E-01  0.92593661615E-02  0.23058254876E-01  0.00000000000E+00 0.  1.
     999901    1    3    3    0    0  0.10759429881E+00  0.31568160662E-01 -0.49433864102E-01  0.88849129924E+00  0.88000000000E+00 0.  1.
        -11    1    4    4    0    0 -0.79410548873E-01 -0.88733133392E-02  0.35455354239E-01  0.87419186837E-01  0.51100000000E-03 0. -1.
         11    1    4    4    0    0 -0.43881148886E-01 -0.85690226593E-02  0.47191437012E-02  0.44961259048E-01  0.51100000000E-03 0.  1.
</event>
<event>
 8    1  0.1112171E+005  0.1043930E+01  0.7957747E-01            NaN
         13   -1    0    0    0    0  0.00000000000E+00  0.00000000000E+00  0.74505805969E-08  0.10566000000E+00  0.10566000000E+00 0. -1.
     999900   -1    0    0    0    0 -0.00000000000E+00 -0.00000000000E+00 -0.74505805969E-08  0.93827000000E+00  0.93827000000E+00 0.  1.
     999902    2    1    2    0    0 -0.70675256127E-02 -0.16096062079E-01  0.18184291243E-01  0.10186376774E+01  0.10183236304E+01 0.  0.
     999903    2    3    3    0    0  0.28776755215E-02  0.53174863587E-01 -0.11269484315E+00  0.12621024846E+00  0.19825539336E-01 0.  0.
         14    1    1    2    0    0  0.70675256127E-02  0.16096062079E-01 -0.18184291243E-01  0.25292322565E-01  0.00000000000E+00 0.  1.
     999901    1    3    3    0    0 -0.99452011342E-02 -0.69270925666E-01  0.13087913439E+00  0.89242742898E+00  0.88000000000E+00 0.  1.
        -11    1    4    4    0    0 -0.61915599948E-02  0.19986036881E-01 -0.57250985086E-01  0.60956652628E-01  0.51100000000E-03 0. -1.
         11    1    4    4    0    0  0.90692355162E-02  0.33188826706E-01 -0.55443858063E-01  0.65253595831E-01  0.51100000000E-03 0.  1.
</event>
<event>
 8    1  0.1112171E+005  0.1043930E+01  0.7957747E-01            NaN
         13   -1    0    0    0    0  0.00000000000E+00  0.00000000000E+00  0.74505805969E-08  0.10566000000E+00  0.10566000000E+00 0. -1.
     999900   -1    0    0    0    0 -0.00000000000E+00 -0.00000000000E+00 -0.74505805969E-08  0.93827000000E+00  0.93827000000E+00 0. -1.
     999902    2    1    2    0    0  0.13978178615E-01 -0.77520400760E-02  0.18971239903E-01  0.10191229134E+01  0.10188209465E+01 0.  0.
     999903    2    3    3    0    0 -0.21265736477E-01 -0.19589990362E-01  0.12690783998E+00  0.13174893346E+00  0.20400547729E-01 0.  0.
         14    1    1    2    0    0 -0.13978178615E-01  0.77520400760E-02 -0.18971239903E-01  0.24807086613E-01  0.00000000000E+00 0.  1.
     999901    1    3    3    0    0  0.35243915092E-01  0.11837950286E-01 -0.10793660008E+00  0.88737397993E+00  0.88000000000E+00 0. -1.
        -11    1    4    4    0    0 -0.47524186002E-02 -0.93446548680E-03  0.62484249374E-01  0.62673768429E-01  0.51100000000E-03 0.  1.
         11    1    4    4    0    0 -0.16513317876E-01 -0.18655524875E-01  0.64423590611E-01  0.69075165030E-01  0.51100000000E-03 0. -1.
</event>
<event>
 7    1  0.1112171E+005  0.1043930E+01  0.7957747E-01            NaN
         13   -1    0    0    0    0  0.00000000000E+00  0.00000000000E+00  0.74505805969E-08  0.10566000000E+00  0.10566000000E+00 0. -1.
     999900   -1    0    0    0    0 -0.00000000000E+00 -0.00000000000E+00 -0.74505805969E-08  0.93827000000E+00  0.93827000000E+00 0. -1.
     999902    2    1    2    0    0 -0.19388604838E-01  0.12608034312E-01  0.43428000464E-02  0.10203983099E+01  0.10201269384E+01 0.  0.
         14    1    1    2    0    0  0.19388604838E-01 -0.12608034312E-01 -0.43428000464E-02  0.23531690101E-01  0.00000000000E+00 0.  1.
     999901    1    3    3    0    0 -0.70699589495E-01  0.12762387389E-03  0.12215018618E+00  0.89124582256E+00  0.88000000000E+00 0.  1.
        -11    1    3    3    0    0  0.43077529427E-01  0.92190953266E-02 -0.97367673923E-01  0.10687090486E+00  0.51100000000E-03 0. -1.
         11    1    3    3    0    0  0.82334552307E-02  0.32613151113E-02 -0.20439712215E-01  0.22281582478E-01  0.51100000000E-03 0.  1.
</event>
<event>
 8    1  0.1112171E+005  0.1043930E+01  0.7957747E-01            NaN
         13   -1    0    0    0    0  0.00000000000E+00  0.00000000000E+00  0.74505805969E-08  0.10566000000E+00  0.10566000000E+00 0.  1.
     999900   -1    0    0    0    0 -0.00000000000E+00 -0.00000000000E+00 -0.74505805969E-08  0.93827000000E+00  0.93827000000E+00 0.  1.
     999902    2    1    2    0    0 -0.14519482191E-01  0.60743168791E-02  0.17562174332E-01  0.10203473230E+01  0.10200747604E+01 0.  0.
     999903    2    3    3    0    0 -0.74076199819E-01 -0.47522279259E-01  0.98047186193E-01  0.13304949537E+00  0.18527468570E-01 0.  0.
         14    1    1    2    0    0  0.14519482191E-01 -0.60743168791E-02 -0.17562174332E-01  0.23582677030E-01  0.00000000000E+00 0.  1.
     999901    1    3    3    0    0  0.59556717628E-01  0.53596596138E-01 -0.80485011861E-01  0.88729782760E+00  0.88000000000E+00 0. -1.
        -11    1    4    4    0    0 -0.51122344630E-01 -0.39394884806E-01  0.79701715419E-01  0.10255766978E+00  0.51100000000E-03 0.  1.
         11    1    4    4    0    0 -0.22953855189E-01 -0.81273944527E-02  0.18345470775E-01  0.30491825586E-01  0.51100000000E-03 0. -1.
</event>
<event>
 8    1  0.1112171E+005  0.1043930E+01  0.7957747E-01            NaN
         13   -1    0    0    0    0  0.00000000000E+00  0.00000000000E+00  0.74505805969E-08  0.10566000000E+00  0.10566000000E+00 0. -1.
     999900   -1    0    0    0    0 -0.00000000000E+00 -0.00000000000E+00 -0.74505805969E-08  0.93827000000E+00  0.93827000000E+00 0. -1.
     999902    2    1    2    0    0 -0.91461473832E-02  0.17302242812E-01  0.12881923019E-01  0.10205000286E+01  0.10202310252E+01 0.  0.
     999903    2    3    3    0    0  0.48415208932E-01  0.96126147124E-01 -0.71333704231E-01  0.13110765767E+00  0.22725578604E-01 0.  0.
         14    1    1    2    0    0  0.91461473832E-02 -0.17302242812E-01 -0.12881923019E-01  0.23429971382E-01  0.00000000000E+00 0. -1.
     999901    1    3    3    0    0 -0.57561356315E-01 -0.78823904312E-01  0.84215627251E-01  0.88939237095E+00  0.88000000000E+00 0. -1.
        -11    1    4    4    0    0  0.39004878150E-01  0.55175030780E-01 -0.49420803976E-01  0.83715837974E-01  0.51100000000E-03 0.  1.
         11    1    4    4    0    0  0.94103307821E-02  0.40951116345E-01 -0.21912900255E-01  0.47391819694E-01  0.51100000000E-03 0. -1.
</event>
<event>
 8    1  0.1112171E+005  0.1043930E+01  0.7957747E-01            NaN
         13   -1    0    0    0    0  0.00000000000E+00  0.00000000000E+00  0.74505805969E-08  0.10566000000E+00  0.10566000000E+00 0. -1.
     999900   -1    0    0    0    0 -0.00000000000E+00 -0.00000000000E+00 -0.74505805969E-08  0.93827000000E+00  0.93827000000E+00 0. -1.
     999902    2    1    2    0    0 -0.13781770867E-01  0.12236749861E-01  0.14125122461E-01  0.10207094414E+01  0.10204452800E+01 0.  0.
     999903    2    3    3    0    0  0.33939371964E-01  0.96987148826E-01  0.81657632125E-01  0.13277893883E+00  0.20097007399E-01 0.  0.
         14    1    1    2    0    0  0.13781770867E-01 -0.12236749861E-01 -0.14125122461E-01  0.23220558561E-01  0.00000000000E+00 0.  1.
     999901    1    3    3    0    0 -0.47721142831E-01 -0.84750398965E-01 -0.67532509664E-01  0.88793050261E+00  0.88000000000E+00 0. -1.
        -11    1    4    4    0    0  0.82401271240E-02  0.44093769566E-01  0.44661030261E-01  0.63301097577E-01  0.51100000000E-03 0. -1.
         11    1    4    4    0    0  0.25699244840E-01  0.52893379260E-01  0.36996601864E-01  0.69477841255E-01  0.51100000000E-03 0.  1.
</event>
<event>
 7    1  0.1112171E+005  0.1043930E+01  0.7957747E-01            NaN
         13   -1    0    0    0    0  0.00000000000E+00  0.00000000000E+00  0.74505805969E-08  0.10566000000E+00  0.10566000000E+00 0. -1.
     999900   -1    0    0    0    0 -0.00000000000E+00 -0.00000000000E+00 -0.74505805969E-08  0.93827000000E+00  0.93827000000E+00 0. -1.
     999903    2    1    2    0    0  0.29209508966E-01  0.94108085529E-01  0.20156311307E-01  0.10251071946E+00  0.19815235130E-01 0.  0.
         14    1    1    2    0    0 -0.35747115357E-01  0.15402824372E-01 -0.38042038832E-01  0.54427015107E-01  0.00000000000E+00 0.  1.
     999901    1    1    2    0    0  0.65376063910E-02 -0.10951090990E+00  0.17885727526E-01  0.88699226543E+00  0.88000000000E+00 0.  1.
        -11    1    3    3    0    0 -0.15346847978E-03  0.22074340359E-01 -0.27392711208E-03  0.22082486543E-01  0.51100000000E-03 0.  1.
         11    1    3    3    0    0  0.29362977445E-01  0.72033745170E-01  0.20430238419E-01  0.80428232919E-01  0.51100000000E-03 0. -1.
</event>
<event>
 8    1  0.1112171E+005  0.1043930E+01  0.7957747E-01            NaN
         13   -1    0    0    0    0  0.00000000000E+00  0.00000000000E+00  0.74505805969E-08  0.10566000000E+00  0.10566000000E+00 0.  1.
     999900   -1    0    0    0    0 -0.00000000000E+00 -0.00000000000E+00 -0.74505805969E-08  0.93827000000E+00  0.93827000000E+00 0.  1.
     999902    2    1    2    0    0 -0.66966177506E-02  0.15879721484E-01  0.16427334895E-01  0.10201210190E+01  0.10198431379E+01 0.  0.
     999903    2    3    3    0    0 -0.13483777832E-01  0.13053502463E+00 -0.37037712116E-02  0.13242897472E+00  0.17392829043E-01 0.  0.
         14    1    1    2    0    0  0.66966177506E-02 -0.15879721484E-01 -0.16427334895E-01  0.23808980983E-01  0.00000000000E+00 0. -1.
     999901    1    3    3    0    0  0.67871600811E-02 -0.11465530315E+00  0.20131106106E-01  0.88769204430E+00  0.88000000000E+00 0.  1.
        -11    1    4    4    0    0 -0.92852837578E-02  0.62352126557E-01  0.64245282621E-02  0.63368287535E-01  0.51100000000E-03 0. -1.
         11    1    4    4    0    0 -0.41984940740E-02  0.68182898077E-01 -0.10128299474E-01  0.69060687181E-01  0.51100000000E-03 0.  1.
</event>
<event>
 8    1  0.1112171E+005  0.1043930E+01  0.7957747E-01            NaN
         13   -1    0    0    0    0  0.00000000000E+00  0.00000000000E+00  0.74505805969E-08  0.10566000000E+00  0.10566000000E+00 0.  1.
     999900   -1    0    0    0    0 -0.00000000000E+00 -0.00000000000E+00 -0.74505805969E-08  0.93827000000E+00  0.93827000000E+00 0. -1.
     999902    2    1    2    0    0  0.14963112727E-01 -0.66116077916E-02 -0.13272998263E-01  0.10228638997E+01  0.10226469462E+01 0.  0.
     999903    2    3    3    0    0  0.49041435805E-01 -0.10468083257E+00  0.63640675447E-01  0.13342890027E+00  0.19748334726E-01 0.  0.
         14    1    1    2    0    0 -0.14963112727E-01  0.66116077916E-02  0.13272998263E-01  0.21066100327E-01  0.00000000000E+00 0.  1.
     999901    1    3    3    0    0 -0.34078323078E-01  0.98069224775E-01 -0.76913673710E-01  0.88943499940E+00  0.88000000000E+00 0.  1.
        -11    1    4    4    0    0  0.97668028084E-02 -0.11500112070E-01  0.26166322701E-02  0.15321582821E-01  0.51100000000E-03 0. -1.
         11    1    4    4    0    0  0.39274632997E-01 -0.93180720497E-01  0.61024043177E-01  0.11810731745E+00  0.51100000000E-03 0.  1.
</event>
<event>
 8    1  0.1112171E+005  0.1043930E+01  0.7957747E-01            NaN
         13   -1    0    0    0    0  0.00000000000E+00  0.00000000000E+00  0.74505805969E-08  0.10566000000E+00  0.10566000000E+00 0. -1.
     999900   -1    0    0    0    0 -0.00000000000E+00 -0.00000000000E+00 -0.74505805969E-08  0.93827000000E+00  0.93827000000E+00 0. -1.
     999902    2    1    2    0    0 -0.22005225362E-01 -0.60631494924E-02  0.44741896435E-02  0.10206703762E+01  0.10204053150E+01 0.  0.
     999903    2    3    3    0    0  0.87896880877E-02 -0.93303601083E-01  0.91385696064E-01  0.13156249018E+00  0.13210707217E-01 0.  0.
         14    1    1    2    0    0  0.22005225362E-01  0.60631494924E-02 -0.44741896435E-02  0.23259623771E-01  0.00000000000E+00 0.  1.
     999901    1    3    3    0    0 -0.30794913450E-01  0.87240451591E-01 -0.86911506421E-01  0.88910788605E+00  0.88000000000E+00 0. -1.
        -11    1    4    4    0    0  0.37014491973E-02 -0.45891254112E-01  0.54019276301E-01  0.70979231210E-01  0.51100000000E-03 0. -1.
         11    1    4    4    0    0  0.50882388903E-02 -0.47412346971E-01  0.37366419763E-01  0.60583258968E-01  0.51100000000E-03 0.  1.
</event>
<event>
 8    1  0.1112171E+005  0.1043930E+01  0.7957747E-01            NaN
         13   -1    0    0    0    0  0.00000000000E+00  0.00000000000E+00  0.74505805969E-08  0.10566000000E+00  0.10566000000E+00 0.  1.
     999900   -1    0    0    0    0 -0.00000000000E+00 -0.00000000000E+00 -0.74505805969E-08  0.93827000000E+00  0.93827000000E+00 0.  1.
     999902    2    1    2    0    0 -0.90162815436E-03  0.22923385838E-01  0.19438862726E-02  0.10209066804E+01  0.10206470383E+01 0.  0.
     999903    2    3    3    0    0  0.66943101987E-01  0.37763987439E-01  0.10561785762E+00  0.13210330327E+00  0.19714290127E-01 0.  0.
         14    1    1    2    0    0  0.90162815436E-03 -0.22923385838E-01 -0.19438862726E-02  0.23023319601E-01  0.00000000000E+00 0.  1.
     999901    1    3    3    0    0 -0.67844730141E-01 -0.14840601601E-01 -0.10367397135E+00  0.88880337713E+00  0.88000000000E+00 0.  1.
        -11    1    4    4    0    0  0.41779057628E-01  0.13919125902E-01  0.67293313343E-01  0.80423148806E-01  0.51100000000E-03 0. -1.
         11    1    4    4    0    0  0.25164044359E-01  0.23844861537E-01  0.38324544277E-01  0.51680154463E-01  0.51100000000E-03 0.  1.
</event>
<event>
 8    1  0.1112171E+005  0.1043930E+01  0.7957747E-01            NaN
         13   -1    0    0    0    0  0.00000000000E+00  0.00000000000E+00  0.74505805969E-08  0.10566000000E+00  0.10566000000E+00 0. -1.
     999900   -1    0    0    0    0 -0.00000000000E+00 -0.00000000000E+00 -0.74505805969E-08  0.93827000000E+00  0.93827000000E+00 0. -1.
     999902    2    1    2    0    0 -0.11216536263E-01 -0.16604971408E-01 -0.10235581658E-01  0.10214288246E+01  0.10211809540E+01 0.  0.
     999903    2    3    3    0    0 -0.57205982483E-01 -0.50115636456E-01 -0.10846202932E+00  0.13413719903E+00  0.21087316347E-01 0.  0.
         14    1    1    2    0    0  0.11216536263E-01  0.16604971408E-01  0.10235581658E-01  0.22501175370E-01  0.00000000000E+00 0. -1.
     999901    1    3    3    0    0  0.45989446220E-01  0.33510665049E-01  0.98226447662E-01  0.88729162560E+00  0.88000000000E+00 0.  1.
        -11    1    4    4    0    0 -0.18457229513E-01 -0.26623895308E-01 -0.57013759433E-01  0.65576909110E-01  0.51100000000E-03 0.  1.
         11    1    4    4    0    0 -0.38748752970E-01 -0.23491741148E-01 -0.51448269886E-01  0.68560289922E-01  0.51100000000E-03 0. -1.
</event>
<event>
 8    1  0.1112171E+005  0.1043930E+01  0.7957747E-01            NaN
         13   -1    0    0    0    0  0.00000000000E+00  0.00000000000E+00  0.74505805969E-08  0.10566000000E+00  0.10566000000E+00 0. -1.
     999900   -1    0    0    0    0 -0.00000000000E+00 -0.00000000000E+00 -0.74505805969E-08  0.93827000000E+00  0.93827000000E+00 0. -1.
     999902    2    1    2    0    0  0.20537091773E-01 -0.76181510925E-02  0.11735119907E-01  0.10190800221E+01  0.10187769972E+01 0.  0.
     999903    2    3    3    0    0  0.52806448055E-01  0.67121615112E-01  0.97450358844E-01  0.13117549667E+00  0.20410936225E-01 0.  0.
         14    1    1    2    0    0 -0.20537091773E-01  0.76181510925E-02 -0.11735119907E-01  0.24849977943E-01  0.00000000000E+00 0. -1.
     999901    1    3    3    0    0 -0.32269356282E-01 -0.74739766205E-01 -0.85715238937E-01  0.88790452538E+00  0.88000000000E+00 0. -1.
        -11    1    4    4    0    0  0.35525993742E-01  0.44437469306E-01  0.49648819829E-01  0.75511928469E-01  0.51100000000E-03 0.  1.
         11    1    4    4    0    0  0.17280454313E-01  0.22684145807E-01  0.47801539015E-01  0.55663568206E-01  0.51100000000E-03 0. -1.
</event>
<event>
 8    1  0.1112171E+005  0.1043930E+01  0.7957747E-01            NaN
         13   -1    0    0    0    0  0.00000000000E+00  0.00000000000E+00  0.74505805969E-08  0.10566000000E+00  0.10566000000E+00 0. -1.
     999900   -1    0    0    0    0 -0.00000000000E+00 -0.00000000000E+00 -0.74505805969E-08  0.93827000000E+00  0.93827000000E+00 0. -1.
     999902    2    1    2    0    0 -0.19128792344E-01 -0.51284339846E-02  0.12325152823E-01  0.10206036003E+01  0.10203369973E+01 0.  0.
     999903    2    3    3    0    0 -0.12327491845E+00  0.33714891851E-01  0.32372719419E-01  0.13338484233E+00  0.20251512252E-01 0.  0.
         14    1    1    2    0    0  0.19128792344E-01  0.51284339846E-02 -0.12325152823E-01  0.23326399718E-01  0.00000000000E+00 0.  1.
     999901    1    3    3    0    0  0.10414612610E+00 -0.38843325836E-01 -0.20047566596E-01  0.88721875796E+00  0.88000000000E+00 0. -1.
        -11    1    4    4    0    0 -0.42641236503E-01  0.28304437877E-02  0.63929863261E-02  0.43213630462E-01  0.51100000000E-03 0. -1.
         11    1    4    4    0    0 -0.80633681946E-01  0.30884448063E-01  0.25979733093E-01  0.90171211863E-01  0.51100000000E-03 0.  1.
</event>
<event>
 8    1  0.1112171E+005  0.1043930E+01  0.7957747E-01            NaN
         13   -1    0    0    0    0  0.00000000000E+00  0.00000000000E+00  0.74505805969E-08  0.10566000000E+00  0.10566000000E+00 0.  1.
     999900   -1    0    0    0    0 -0.00000000000E+00 -0.00000000000E+00 -0.74505805969E-08  0.93827000000E+00  0.93827000000E+00 0. -1.
     999902    2    1    2    0    0 -0.73813104313E-02 -0.19833028508E-01  0.10972740463E-01  0.10200923450E+01  0.10198137862E+01 0.  0.
     999903    2    3    3    0    0 -0.50883657092E-01 -0.56456605511E-01  0.10718315241E+00  0.13302403649E+00  0.20752620525E-01 0.  0.
         14    1    1    2    0    0  0.73813104313E-02  0.19833028508E-01 -0.10972740463E-01  0.23837655018E-01  0.00000000000E+00 0. -1.
     999901    1    3    3    0    0  0.43502346661E-01  0.36623577003E-01 -0.96210411951E-01  0.88706830849E+00  0.88000000000E+00 0. -1.
        -11    1    4    4    0    0 -0.29327373361E-01 -0.40873768477E-01  0.55586274673E-01  0.74972360445E-01  0.51100000000E-03 0.  1.
         11    1    4    4    0    0 -0.21556283731E-01 -0.15582837034E-01  0.51596877741E-01  0.58051676048E-01  0.51100000000E-03 0. -1.
</event>
<event>
 8    1  0.1112171E+005  0.1043930E+01  0.7957747E-01            NaN
         13   -1    0    0    0    0  0.00000000000E+00  0.00000000000E+00  0.74505805969E-08  0.10566000000E+00  0.10566000000E+00 0. -1.
     999900   -1    0    0    0    0 -0.00000000000E+00 -0.00000000000E+00 -0.74505805969E-08  0.93827000000E+00  0.93827000000E+00 0.  1.
     999902    2    1    2    0    0  0.15642313211E-01  0.19091271139E-01 -0.11588105751E-01  0.10166638527E+01  0.10162981583E+01 0.  0.
     999903    2    3    3    0    0 -0.36220091310E-01 -0.80069964154E-01 -0.88365213309E-01  0.12626091924E+00  0.20256224461E-01 0.  0.
         14    1    1    2    0    0 -0.15642313211E-01 -0.19091271139E-01  0.11588105751E-01  0.27266147348E-01  0.00000000000E+00 0. -1.
     999901    1    3    3    0    0  0.51862404521E-01  0.99161235294E-01  0.76777107558E-01  0.89040293341E+00  0.88000000000E+00 0. -1.
        -11    1    4    4    0    0  0.11245585891E-02 -0.61104552241E-02 -0.12279064511E-01  0.13770941919E-01  0.51100000000E-03 0.  1.
         11    1    4    4    0    0 -0.37344649900E-01 -0.73959508930E-01 -0.76086148798E-01  0.11248997732E+00  0.51100000000E-03 0. -1.
</event>
<event>
 8    1  0.1112171E+005  0.1043930E+01  0.7957747E-01            NaN
         13   -1    0    0    0    0  0.00000000000E+00  0.00000000000E+00  0.74505805969E-08  0.10566000000E+00  0.10566000000E+00 0. -1.
     999900   -1    0    0    0    0 -0.00000000000E+00 -0.00000000000E+00 -0.74505805969E-08  0.93827000000E+00  0.93827000000E+00 0. -1.
     999902    2    1    2    0    0  0.83501682224E-02  0.18116438036E-01 -0.12767212203E-01  0.10202459897E+01  0.10199710521E+01 0.  0.
     999903    2    3    3    0    0  0.22973356706E-01  0.10701629010E+00  0.70481176689E-01  0.13173751164E+00  0.20172115419E-01 0.  0.
         14    1    1    2    0    0 -0.83501682224E-02 -0.18116438036E-01  0.12767212203E-01  0.23684010301E-01  0.00000000000E+00 0. -1.
     999901    1    3    3    0    0 -0.14623188484E-01 -0.88899852059E-01 -0.83248388892E-01  0.88850847806E+00  0.88000000000E+00 0. -1.
        -11    1    4    4    0    0  0.87321011451E-02  0.42798079146E-01  0.16685976292E-01  0.46761181495E-01  0.51100000000E-03 0. -1.
         11    1    4    4    0    0  0.14241255561E-01  0.64218210949E-01  0.53795200397E-01  0.84976330141E-01  0.51100000000E-03 0.  1.
</event>
<event>
 8    1  0.1112171E+005  0.1043930E+01  0.7957747E-01            NaN
         13   -1    0    0    0    0  0.00000000000E+00  0.00000000000E+00  0.74505805969E-08  0.10566000000E+00  0.10566000000E+00 0.  1.
     999900   -1    0    0    0    0 -0.00000000000E+00 -0.00000000000E+00 -0.74505805969E-08  0.93827000000E+00  0.93827000000E+00 0.  1.
     999902    2    1    2    0    0 -0.18737719101E-01  0.15669963731E-01  0.24267102639E-02  0.10193833342E+01  0.10190877505E+01 0.  0.
     999903    2    3    3    0    0  0.28691556824E-01  0.51461212102E-01  0.11463445555E+00  0.13027078349E+00  0.18919747613E-01 0.  0.
         14    1    1    2    0    0  0.18737719101E-01 -0.15669963731E-01 -0.24267102639E-02  0.24546665826E-01  0.00000000000E+00 0.  1.
     999901    1    3    3    0    0 -0.47429275926E-01 -0.35791248371E-01 -0.11220774528E+00  0.88911255068E+00  0.88000000000E+00 0.  1.
        -11    1    4    4    0    0  0.12173749585E-01  0.13360107697E-01  0.52570720726E-01  0.55593474934E-01  0.51100000000E-03 0.  1.
         11    1    4    4    0    0  0.16517807239E-01  0.38101104405E-01  0.62063734821E-01  0.74677308560E-01  0.51100000000E-03 0. -1.
</event>
<event>
 8    1  0.1112171E+005  0.1043930E+01  0.7957747E-01            NaN
         13   -1    0    0    0    0  0.00000000000E+00  0.00000000000E+00  0.74505805969E-08  0.10566000000E+00  0.10566000000E+00 0.  1.
     999900   -1    0    0    0    0 -0.00000000000E+00 -0.00000000000E+00 -0.74505805969E-08  0.93827000000E+00  0.93827000000E+00 0. -1.
     999902    2    1    2    0    0  0.26977748151E-03 -0.42282597001E-02 -0.23188473508E-01  0.10203576377E+01  0.10200853163E+01 0.  0.
     999903    2    3    3    0    0 -0.28004608888E-01  0.11490868197E+00 -0.50438355102E-01  0.13146191389E+00  0.27385102263E-01 0.  0.
         14    1    1    2    0    0 -0.26977748151E-03  0.42282597001E-02  0.23188473508E-01  0.23572362283E-01  0.00000000000E+00 0.  1.
     999901    1    3    3    0    0  0.28274386370E-01 -0.11913694167E+00  0.27249881595E-01  0.88889572383E+00  0.88000000000E+00 0.  1.
        -11    1    4    4    0    0 -0.42964263344E-02  0.15829120058E-01 -0.18423914300E-01  0.24672293371E-01  0.51100000000E-03 0. -1.
         11    1    4    4    0    0 -0.23708182554E-01  0.99079561914E-01 -0.32014440802E-01  0.10678962052E+00  0.51100000000E-03 0.  1.
</event>
<event>
 8    1  0.1112171E+005  0.1043930E+01  0.7957747E-01            NaN
         13   -1    0    0    0    0  0.00000000000E+00  0.00000000000E+00  0.74505805969E-08  0.10566000000E+00  0.10566000000E+00 0. -1.
     999900   -1    0    0    0    0 -0.00000000000E+00 -0.00000000000E+00 -0.74505805969E-08  0.93827000000E+00  0.93827000000E+00 0.  1.
     999902    2    1    2    0    0 -0.24071761458E-01 -0.63448922025E-02  0.82795819805E-02  0.10176953124E+01  0.10173571104E+01 0.  0.
     999903    2    3    3    0    0  0.11999866352E+00 -0.17776137953E-02 -0.29587720242E-01  0.12516459584E+00  0.19695271131E-01 0.  0.
         14    1    1    2    0    0  0.24071761458E-01  0.63448922025E-02 -0.82795819805E-02  0.26234687620E-01  0.00000000000E+00 0.  1.
     999901    1    3    3    0    0 -0.14407042498E+00 -0.45672784072E-02  0.37867302222E-01  0.89253071654E+00  0.88000000000E+00 0.  1.
        -11    1    4    4    0    0  0.28875660933E-01  0.15473086192E-02  0.11324736419E-02  0.28943765751E-01  0.51100000000E-03 0.  1.
         11    1    4    4    0    0  0.91123002590E-01 -0.33249224145E-02 -0.30720193884E-01  0.96220830091E-01  0.51100000000E-03 0. -1.
</event>
<event>
 7    1  0.1112171E+005  0.1043930E+01  0.7957747E-01            NaN
         13   -1    0    0    0    0  0.00000000000E+00  0.00000000000E+00  0.74505805969E-08  0.10566000000E+00  0.10566000000E+00 0. -1.
     999900   -1    0    0    0    0 -0.00000000000E+00 -0.00000000000E+00 -0.74505805969E-08  0.93827000000E+00  0.93827000000E+00 0.  1.
     999903    2    1    2    0    0 -0.93897332471E-01 -0.42672068523E-01 -0.60755276592E-01  0.12134104369E+00  0.19870349060E-01 0.  0.
         14    1    1    2    0    0  0.27826431797E-01  0.94244485377E-02  0.25305217958E-01  0.38774793264E-01  0.00000000000E+00 0. -1.
     999901    1    1    2    0    0  0.66070900675E-01  0.33247619985E-01  0.35450058634E-01  0.88381416305E+00  0.88000000000E+00 0. -1.
        -11    1    3    3    0    0 -0.35765533956E-01 -0.84580698324E-02 -0.28826321842E-01  0.46711136963E-01  0.51100000000E-03 0. -1.
         11    1    3    3    0    0 -0.58131798516E-01 -0.34213998690E-01 -0.31928954750E-01  0.74629906723E-01  0.51100000000E-03 0.  1.
</event>
<event>
 8    1  0.1112171E+005  0.1043930E+01  0.7957747E-01            NaN
         13   -1    0    0    0    0  0.00000000000E+00  0.00000000000E+00  0.74505805969E-08  0.10566000000E+00  0.10566000000E+00 0.  1.
     999900   -1    0    0    0    0 -0.00000000000E+00 -0.00000000000E+00 -0.74505805969E-08  0.93827000000E+00  0.93827000000E+00 0.  1.
     999902    2    1    2    0    0 -0.19036759027E-01 -0.13403913565E-02  0.13381735271E-01  0.10206219395E+01  0.10203557604E+01 0.  0.
     999903    2    3    3    0    0 -0.20519118682E-01  0.36224899605E-01 -0.12116629851E+00  0.12960200606E+00  0.19548158412E-01 0.  0.
         14    1    1    2    0    0  0.19036759027E-01  0.13403913565E-02 -0.13381735271E-01  0.23308060454E-01  0.00000000000E+00 0.  1.
     999901    1    3    3    0    0  0.14823596549E-02 -0.37565290961E-01  0.13454803378E+00  0.89101993349E+00  0.88000000000E+00 0. -1.
        -11    1    4    4    0    0 -0.75938296578E-02  0.26200289994E-01 -0.54387752665E-01  0.60847433846E-01  0.51100000000E-03 0. -1.
         11    1    4    4    0    0 -0.12925289024E-01  0.10024609611E-01 -0.66778545845E-01  0.68754572214E-01  0.51100000000E-03 0.  1.
</event>
<event>
 8    1  0.1112171E+005  0.1043930E+01  0.7957747E-01            NaN
         13   -1    0    0    0    0  0.00000000000E+00  0.00000000000E+00  0.74505805969E-08  0.10566000000E+00  0.10566000000E+00 0. -1.
     999900   -1    0    0    0    0 -0.00000000000E+00 -0.00000000000E+00 -0.74505805969E-08  0.93827000000E+00  0.93827000000E+00 0.  1.
     999902    2    1    2    0    0  0.43049167961E-02 -0.63482874917E-02 -0.21949236190E-01  0.10206791499E+01  0.10204142908E+01 0.  0.
     999903    2    3    3    0    0  0.10111307015E+00  0.61591964494E-01  0.49611990060E-01  0.12988809384E+00  0.19802634095E-01 0.  0.
         14    1    1    2    0    0 -0.43049167961E-02  0.63482874917E-02  0.21949236190E-01  0.23250850135E-01  0.00000000000E+00 0. -1.
     999901    1    3    3    0    0 -0.96808153356E-01 -0.67940251986E-01 -0.71561226250E-01  0.89079105603E+00  0.88000000000E+00 0.  1.
        -11    1    4    4    0    0  0.30974335310E-01  0.11474881279E-01  0.71862020358E-02  0.33808060710E-01  0.51100000000E-03 0.  1.
         11    1    4    4    0    0  0.70138734842E-01  0.50117083215E-01  0.42425788025E-01  0.96080033127E-01  0.51100000000E-03 0. -1.
</event>
