<event>
 8    1  0.1162192E+005  0.1043930E+01  0.7957747E-01            NaN
         13   -1    0    0    0    0  0.00000000000E+00  0.00000000000E+00  0.74505805969E-08  0.10566000000E+00  0.10566000000E+00 0. -1.
     999900   -1    0    0    0    0 -0.00000000000E+00 -0.00000000000E+00 -0.74505805969E-08  0.93827000000E+00  0.93827000000E+00 0.  1.
     999902    2    1    2    0    0  0.22132486092E-01 -0.58731511100E-02 -0.60319449772E-02  0.10202503631E+01  0.10199755282E+01 0.  0.
     999903    2    3    3    0    0 -0.67513989529E-01  0.49728061217E-01 -0.96410541680E-01  0.12935403008E+00  0.20160696833E-01 0.  0.
         14    1    1    2    0    0 -0.22132486092E-01  0.58731511100E-02  0.60319449772E-02  0.23679636923E-01  0.00000000000E+00 0. -1.
     999901    1    3    3    0    0  0.89646475621E-01 -0.55601212327E-01  0.90378596703E-01  0.89089633300E+00  0.88000000000E+00 0.  1.
        -11    1    4    4    0    0 -0.23288585998E-01  0.25012820576E-01 -0.50513784509E-01  0.60991007348E-01  0.51100000000E-03 0. -1.
         11    1    4    4    0    0 -0.44225403531E-01  0.24715240641E-01 -0.45896757171E-01  0.68363022733E-01  0.51100000000E-03 0.  1.
</event>
<event>
 8    1  0.1162192E+005  0.1043930E+01  0.7957747E-01            NaN
         13   -1    0    0    0    0  0.00000000000E+00  0.00000000000E+00  0.74505805969E-08  0.10566000000E+00  0.10566000000E+00 0. -1.
     999900   -1    0    0    0    0 -0.00000000000E+00 -0.00000000000E+00 -0.74505805969E-08  0.93827000000E+00  0.93827000000E+00 0. -1.
     999902    2    1    2    0    0 -0.19070370441E-01 -0.13724946889E-01  0.39621969089E-02  0.10201024487E+01  0.10198241288E+01 0.  0.
     999903    2    3    3    0    0 -0.90843432458E-02 -0.13039827026E+00  0.54578015215E-02  0.13234424855E+00  0.19974442355E-01 0.  0.
         14    1    1    2    0    0  0.19070370441E-01  0.13724946889E-01 -0.39621969089E-02  0.23827551285E-01  0.00000000000E+00 0.  1.
     999901    1    3    3    0    0 -0.99860271955E-02  0.11667332337E+00 -0.14956046126E-02  0.88775820016E+00  0.88000000000E+00 0. -1.
        -11    1    4    4    0    0  0.61873013863E-02 -0.48588573148E-01  0.32298922406E-02  0.49089973150E-01  0.51100000000E-03 0.  1.
         11    1    4    4    0    0 -0.15271644632E-01 -0.81809697115E-01  0.22279092810E-02  0.83254275401E-01  0.51100000000E-03 0. -1.
</event>
<event>
 8    1  0.1162192E+005  0.1043930E+01  0.7957747E-01            NaN
         13   -1    0    0    0    0  0.00000000000E+00  0.00000000000E+00  0.74505805969E-08  0.10566000000E+00  0.10566000000E+00 0.  1.
     999900   -1    0    0    0    0 -0.00000000000E+00 -0.00000000000E+00 -0.74505805969E-08  0.93827000000E+00  0.93827000000E+00 0.  1.
     999902    2    1    2    0    0  0.70653627838E-03 -0.17573490984E-01  0.16286415949E-01  0.10199597242E+01  0.10196780202E+01 0.  0.
     999903    2    3    3    0    0 -0.12714946897E-01  0.76062930132E-01 -0.99290319827E-01  0.12737589202E+00  0.20464873346E-01 0.  0.
         14    1    1    2    0    0 -0.70653627838E-03  0.17573490984E-01 -0.16286415949E-01  0.23970275829E-01  0.00000000000E+00 0.  1.
     999901    1    3    3    0    0  0.13421483175E-01 -0.93636421116E-01  0.11557673578E+00  0.89258383215E+00  0.88000000000E+00 0. -1.
        -11    1    4    4    0    0 -0.12021114573E-01  0.42564799021E-01 -0.70345452280E-01  0.83096408399E-01  0.51100000000E-03 0.  1.
         11    1    4    4    0    0 -0.69383232341E-03  0.33498131111E-01 -0.28944867546E-01  0.44279483618E-01  0.51100000000E-03 0. -1.
</event>
<event>
 8    1  0.1162192E+005  0.1043930E+01  0.7957747E-01            NaN
         13   -1    0    0    0    0  0.00000000000E+00  0.00000000000E+00  0.74505805969E-08  0.10566000000E+00  0.10566000000E+00 0. -1.
     999900   -1    0    0    0    0 -0.00000000000E+00 -0.00000000000E+00 -0.74505805969E-08  0.93827000000E+00  0.93827000000E+00 0. -1.
     999902    2    1    2    0    0 -0.20078700336E-01  0.10098267921E-01 -0.76484010001E-02  0.10201891647E+01  0.10199128907E+01 0.  0.
     999903    2    3    3    0    0 -0.11806099224E+00 -0.34497663289E-01  0.43252566188E-01  0.13216876232E+00  0.21663577528E-01 0.  0.
         14    1    1    2    0    0  0.20078700336E-01 -0.10098267921E-01  0.76484010001E-02  0.23740835286E-01  0.00000000000E+00 0. -1.
     999901    1    3    3    0    0  0.97982291900E-01  0.44595931210E-01 -0.50900967188E-01  0.88802040239E+00  0.88000000000E+00 0. -1.
        -11    1    4    4    0    0 -0.13557780419E-01 -0.22093744852E-02 -0.18222408666E-02  0.13866377619E-01  0.51100000000E-03 0.  1.
         11    1    4    4    0    0 -0.10450321182E+00 -0.32288288804E-01  0.45074807055E-01  0.11830238470E+00  0.51100000000E-03 0. -1.
</event>
<event>
 8    1  0.1162192E+005  0.1043930E+01  0.7957747E-01            NaN
         13   -1    0    0    0    0  0.00000000000E+00  0.00000000000E+00  0.74505805969E-08  0.10566000000E+00  0.10566000000E+00 0. -1.
     999900   -1    0    0    0    0 -0.00000000000E+00 -0.00000000000E+00 -0.74505805969E-08  0.93827000000E+00  0.93827000000E+00 0. -1.
     999902    2    1    2    0    0  0.45984232031E-02 -0.34860273422E-02 -0.24803247228E-01  0.10184643573E+01  0.10181459366E+01 0.  0.
     999903    2    3    3    0    0 -0.37889454418E-01 -0.61643052502E-01 -0.10766439235E+00  0.13164226206E+00  0.22418454527E-01 0.  0.
         14    1    1    2    0    0 -0.45984232031E-02  0.34860273422E-02  0.24803247228E-01  0.25465642652E-01  0.00000000000E+00 0. -1.
     999901    1    3    3    0    0  0.42487877621E-01  0.58157025159E-01  0.82861145118E-01  0.88682209529E+00  0.88000000000E+00 0.  1.
        -11    1    4    4    0    0 -0.30555886873E-01 -0.59961775897E-01 -0.89545385390E-01  0.11201657894E+00  0.51100000000E-03 0.  1.
         11    1    4    4    0    0 -0.73335675449E-02 -0.16812766044E-02 -0.18119006956E-01  0.19625683122E-01  0.51100000000E-03 0. -1.
</event>
<event>
 8    1  0.1162192E+005  0.1043930E+01  0.7957747E-01            NaN
         13   -1    0    0    0    0  0.00000000000E+00  0.00000000000E+00  0.74505805969E-08  0.10566000000E+00  0.10566000000E+00 0. -1.
     999900   -1    0    0    0    0 -0.00000000000E+00 -0.00000000000E+00 -0.74505805969E-08  0.93827000000E+00  0.93827000000E+00 0.  1.
     999902    2    1    2    0    0  0.51962033763E-02  0.12591594651E-01 -0.19194144876E-01  0.10203935605E+01  0.10201220782E+01 0.  0.
     999903    2    3    3    0    0  0.73223952445E-01  0.42378075868E-01 -0.10115724554E+00  0.13347024988E+00  0.20588121601E-01 0.  0.
         14    1    1    2    0    0 -0.51962033763E-02 -0.12591594651E-01  0.19194144876E-01  0.23536439469E-01  0.00000000000E+00 0.  1.
     999901    1    3    3    0    0 -0.68027749069E-01 -0.29786481217E-01  0.81963100666E-01  0.88692331065E+00  0.88000000000E+00 0. -1.
        -11    1    4    4    0    0  0.32991995037E-01  0.99903135999E-02 -0.50325512965E-01  0.61001610458E-01  0.51100000000E-03 0. -1.
         11    1    4    4    0    0  0.40231957409E-01  0.32387762268E-01 -0.50831732577E-01  0.72468639421E-01  0.51100000000E-03 0.  1.
</event>
<event>
 8    1  0.1162192E+005  0.1043930E+01  0.7957747E-01            NaN
         13   -1    0    0    0    0  0.00000000000E+00  0.00000000000E+00  0.74505805969E-08  0.10566000000E+00  0.10566000000E+00 0.  1.
     999900   -1    0    0    0    0 -0.00000000000E+00 -0.00000000000E+00 -0.74505805969E-08  0.93827000000E+00  0.93827000000E+00 0. -1.
     999902    2    1    2    0    0 -0.87796400791E-02  0.43450795841E-02 -0.22312878116E-01  0.10195614480E+01  0.10192701899E+01 0.  0.
     999903    2    3    3    0    0  0.12541597170E+00  0.19637488057E-01 -0.13621138368E-01  0.12921439976E+00  0.19900472396E-01 0.  0.
         14    1    1    2    0    0  0.87796400791E-02 -0.43450795841E-02  0.22312878116E-01  0.24368551995E-01  0.00000000000E+00 0.  1.
     999901    1    3    3    0    0 -0.13419561177E+00 -0.15292408473E-01 -0.86917397482E-02  0.89034704824E+00  0.88000000000E+00 0. -1.
        -11    1    4    4    0    0  0.29803025848E-01  0.27606044590E-03  0.40159381597E-02  0.30077989284E-01  0.51100000000E-03 0. -1.
         11    1    4    4    0    0  0.95612945848E-01  0.19361427611E-01 -0.17637076528E-01  0.99136410477E-01  0.51100000000E-03 0.  1.
</event>
<event>
 8    1  0.1162192E+005  0.1043930E+01  0.7957747E-01            NaN
         13   -1    0    0    0    0  0.00000000000E+00  0.00000000000E+00  0.74505805969E-08  0.10566000000E+00  0.10566000000E+00 0. -1.
     999900   -1    0    0    0    0 -0.00000000000E+00 -0.00000000000E+00 -0.74505805969E-08  0.93827000000E+00  0.93827000000E+00 0. -1.
     999902    2    1    2    0    0  0.21433710100E-01  0.11124602860E-01 -0.10917373968E-02  0.10197566136E+01  0.10194700577E+01 0.  0.
     999903    2    3    3    0    0 -0.11938458461E+00  0.18276833587E-02 -0.40494283880E-01  0.12764183094E+00  0.19915584602E-01 0.  0.
         14    1    1    2    0    0 -0.21433710100E-01 -0.11124602860E-01  0.10917373968E-02  0.24173386358E-01  0.00000000000E+00 0.  1.
     999901    1    3    3    0    0  0.14081829471E+00  0.92969195012E-02  0.39402546483E-01  0.89211478270E+00  0.88000000000E+00 0.  1.
        -11    1    4    4    0    0 -0.46952986225E-01  0.10228658297E-01 -0.13933565753E-01  0.50036124366E-01  0.51100000000E-03 0. -1.
         11    1    4    4    0    0 -0.72431598389E-01 -0.84009749388E-02 -0.26560718127E-01  0.77605706578E-01  0.51100000000E-03 0.  1.
</event>
<event>
 8    1  0.1162192E+005  0.1043930E+01  0.7957747E-01            NaN
         13   -1    0    0    0    0  0.00000000000E+00  0.00000000000E+00  0.74505805969E-08  0.10566000000E+00  0.10566000000E+00 0.  1.
     999900   -1    0    0    0    0 -0.00000000000E+00 -0.00000000000E+00 -0.74505805969E-08  0.93827000000E+00  0.93827000000E+00 0. -1.
     999902    2    1    2    0    0 -0.12879837566E-01  0.86993327742E-02 -0.16792415509E-01  0.10210487014E+01  0.10207922888E+01 0.  0.
     999903    2    3    3    0    0  0.11614205737E+00 -0.47699710649E-01 -0.26159900685E-01  0.12980504716E+00  0.20019240150E-01 0.  0.
         14    1    1    2    0    0  0.12879837566E-01 -0.86993327742E-02  0.16792415509E-01  0.22881298587E-01  0.00000000000E+00 0.  1.
     999901    1    3    3    0    0 -0.12902189494E+00  0.56399043423E-01  0.93674851768E-02  0.89124365426E+00  0.88000000000E+00 0.  1.
        -11    1    4    4    0    0  0.54919069786E-01 -0.33205639388E-01 -0.14937412603E-01  0.65894659341E-01  0.51100000000E-03 0.  1.
         11    1    4    4    0    0  0.61222987589E-01 -0.14494071261E-01 -0.11222488082E-01  0.63910387816E-01  0.51100000000E-03 0. -1.
</event>
<event>
 8    1  0.1162192E+005  0.1043930E+01  0.7957747E-01            NaN
         13   -1    0    0    0    0  0.00000000000E+00  0.00000000000E+00  0.74505805969E-08  0.10566000000E+00  0.10566000000E+00 0.  1.
     999900   -1    0    0    0    0 -0.00000000000E+00 -0.00000000000E+00 -0.74505805969E-08  0.93827000000E+00  0.93827000000E+00 0.  1.
     999902    2    1    2    0    0  0.14469291883E-01  0.16089857554E-01 -0.10416442144E-01  0.10199144594E+01  0.10196316778E+01 0.  0.
     999903    2    3    3    0    0 -0.10193202538E+00  0.36201563909E-01  0.66780162200E-01  0.12867203271E+00  0.19905047414E-01 0.  0.
         14    1    1    2    0    0 -0.14469291883E-01 -0.16089857554E-01  0.10416442144E-01  0.24015540607E-01  0.00000000000E+00 0.  1.
     999901    1    3    3    0    0  0.11640131726E+00 -0.20111706355E-01 -0.77196604343E-01  0.89124242668E+00  0.88000000000E+00 0. -1.
        -11    1    4    4    0    0 -0.17993539262E-01  0.13607068080E-01  0.18872556220E-01  0.29416904259E-01  0.51100000000E-03 0.  1.
         11    1    4    4    0    0 -0.83938486113E-01  0.22594495829E-01  0.47907605980E-01  0.99255128454E-01  0.51100000000E-03 0. -1.
</event>
<event>
 8    1  0.1162192E+005  0.1043930E+01  0.7957747E-01            NaN
         13   -1    0    0    0    0  0.00000000000E+00  0.00000000000E+00  0.74505805969E-08  0.10566000000E+00  0.10566000000E+00 0. -1.
     999900   -1    0    0    0    0 -0.00000000000E+00 -0.00000000000E+00 -0.74505805969E-08  0.93827000000E+00  0.93827000000E+00 0.  1.
     999902    2    1    2    0    0 -0.81322275119E-02 -0.44762495781E-02 -0.21017037906E-01  0.10209542341E+01  0.10206956757E+01 0.  0.
     999903    2    3    3    0    0  0.11549969083E-01  0.39635596398E-01  0.11990085324E+00  0.12843471286E+00  0.20368568271E-01 0.  0.
         14    1    1    2    0    0  0.81322275119E-02  0.44762495781E-02  0.21017037906E-01  0.22975765862E-01  0.00000000000E+00 0. -1.
     999901    1    3    3    0    0 -0.19682196595E-01 -0.44111845976E-01 -0.14091789114E+00  0.89251952128E+00  0.88000000000E+00 0.  1.
        -11    1    4    4    0    0 -0.21040847720E-02  0.27773581912E-01  0.68867995389E-01  0.74289036437E-01  0.51100000000E-03 0.  1.
         11    1    4    4    0    0  0.13654053855E-01  0.11862014487E-01  0.51032857847E-01  0.54145676423E-01  0.51100000000E-03 0. -1.
</event>
<event>
 8    1  0.1162192E+005  0.1043930E+01  0.7957747E-01            NaN
         13   -1    0    0    0    0  0.00000000000E+00  0.00000000000E+00  0.74505805969E-08  0.10566000000E+00  0.10566000000E+00 0.  1.
     999900   -1    0    0    0    0 -0.00000000000E+00 -0.00000000000E+00 -0.74505805969E-08  0.93827000000E+00  0.93827000000E+00 0.  1.
     999902    2    1    2    0    0 -0.13442092616E-01 -0.88632368093E-02  0.18447683476E-01  0.10194440071E+01  0.10191499006E+01 0.  0.
     999903    2    3    3    0    0 -0.10385623324E+00  0.72183999760E-01 -0.24669077293E-01  0.13006083525E+00  0.17624145050E-01 0.  0.
         14    1    1    2    0    0  0.13442092616E-01  0.88632368093E-02 -0.18447683476E-01  0.24485992859E-01  0.00000000000E+00 0. -1.
     999901    1    3    3    0    0  0.90414140620E-01 -0.81047236570E-01  0.43116760769E-01  0.88938317189E+00  0.88000000000E+00 0. -1.
        -11    1    4    4    0    0 -0.20994913506E-01  0.12020626389E-01  0.18909647281E-02  0.24271767973E-01  0.51100000000E-03 0.  1.
         11    1    4    4    0    0 -0.82861319730E-01  0.60163373372E-01 -0.26560042021E-01  0.10578906728E+00  0.51100000000E-03 0. -1.
</event>
<event>
 8    1  0.1162192E+005  0.1043930E+01  0.7957747E-01            NaN
         13   -1    0    0    0    0  0.00000000000E+00  0.00000000000E+00  0.74505805969E-08  0.10566000000E+00  0.10566000000E+00 0.  1.
     999900   -1    0    0    0    0 -0.00000000000E+00 -0.00000000000E+00 -0.74505805969E-08  0.93827000000E+00  0.93827000000E+00 0.  1.
     999902    2    1    2    0    0  0.46320791734E-02  0.18440378939E-01  0.14024984844E-01  0.10203036602E+01  0.10200300756E+01 0.  0.
     999903    2    3    3    0    0  0.83734189177E-01  0.92783788907E-01 -0.32518265641E-01  0.13241269809E+00  0.29247890430E-01 0.  0.
         14    1    1    2    0    0 -0.46320791734E-02 -0.18440378939E-01 -0.14024984844E-01  0.23626339808E-01  0.00000000000E+00 0. -1.
     999901    1    3    3    0    0 -0.79102110004E-01 -0.74343409968E-01  0.46543250485E-01  0.88789096210E+00  0.88000000000E+00 0. -1.
        -11    1    4    4    0    0  0.27306528837E-01  0.47949750196E-01 -0.22723229315E-01  0.59677728949E-01  0.51100000000E-03 0.  1.
         11    1    4    4    0    0  0.56427660340E-01  0.44834038710E-01 -0.97950363258E-02  0.72734969143E-01  0.51100000000E-03 0. -1.
</event>
<event>
 8    1  0.1162192E+005  0.1043930E+01  0.7957747E-01            NaN
         13   -1    0    0    0    0  0.00000000000E+00  0.00000000000E+00  0.74505805969E-08  0.10566000000E+00  0.10566000000E+00 0. -1.
     999900   -1    0    0    0    0 -0.00000000000E+00 -0.00000000000E+00 -0.74505805969E-08  0.93827000000E+00  0.93827000000E+00 0.  1.
     999902    2    1    2    0    0  0.19704643527E-01 -0.29086682541E-02  0.12805468449E-01  0.10202506134E+01  0.10199757844E+01 0.  0.
     999903    2    3    3    0    0  0.80997679774E-01 -0.96300216932E-01 -0.34497985972E-01  0.13192835518E+00  0.19509586190E-01 0.  0.
         14    1    1    2    0    0 -0.19704643527E-01  0.29086682541E-02 -0.12805468449E-01  0.23679386600E-01  0.00000000000E+00 0. -1.
     999901    1    3    3    0    0 -0.61293036246E-01  0.93391548678E-01  0.47303454421E-01  0.88832225822E+00  0.88000000000E+00 0. -1.
        -11    1    4    4    0    0  0.41774634553E-01 -0.51423474902E-01 -0.81290677201E-02  0.66752054096E-01  0.51100000000E-03 0.  1.
         11    1    4    4    0    0  0.39223045221E-01 -0.44876742030E-01 -0.26368918252E-01  0.65176301080E-01  0.51100000000E-03 0. -1.
</event>
<event>
 8    1  0.1162192E+005  0.1043930E+01  0.7957747E-01            NaN
         13   -1    0    0    0    0  0.00000000000E+00  0.00000000000E+00  0.74505805969E-08  0.10566000000E+00  0.10566000000E+00 0.  1.
     999900   -1    0    0    0    0 -0.00000000000E+00 -0.00000000000E+00 -0.74505805969E-08  0.93827000000E+00  0.93827000000E+00 0. -1.
     999902    2    1    2    0    0 -0.19465593018E-01  0.30853273058E-02  0.12824543318E-01  0.10204162281E+01  0.10201452745E+01 0.  0.
     999903    2    3    3    0    0 -0.75152662169E-01  0.81038544315E-01  0.71831606185E-01  0.13325243988E+00  0.19526002967E-01 0.  0.
         14    1    1    2    0    0  0.19465593018E-01 -0.30853273058E-02 -0.12824543318E-01  0.23513771868E-01  0.00000000000E+00 0. -1.
     999901    1    3    3    0    0  0.55687069151E-01 -0.77953217009E-01 -0.59007062868E-01  0.88716378825E+00  0.88000000000E+00 0. -1.
        -11    1    4    4    0    0 -0.62555450081E-01  0.76241325437E-01  0.61096851266E-01  0.11601297511E+00  0.51100000000E-03 0.  1.
         11    1    4    4    0    0 -0.12597212087E-01  0.47972188787E-02  0.10734754920E-01  0.17239464769E-01  0.51100000000E-03 0. -1.
</event>
<event>
 8    1  0.1162192E+005  0.1043930E+01  0.7957747E-01            NaN
         13   -1    0    0    0    0  0.00000000000E+00  0.00000000000E+00  0.74505805969E-08  0.10566000000E+00  0.10566000000E+00 0. -1.
     999900   -1    0    0    0    0 -0.00000000000E+00 -0.00000000000E+00 -0.74505805969E-08  0.93827000000E+00  0.93827000000E+00 0.  1.
     999902    2    1    2    0    0  0.93110002564E-02  0.16128342792E-01 -0.14256304929E-01  0.10204766336E+01  0.10202070865E+01 0.  0.
     999903    2    3    3    0    0  0.24152031080E-01 -0.10706405214E+00  0.63704451700E-01  0.12835864701E+00  0.19278309830E-01 0.  0.
         14    1    1    2    0    0 -0.93110002564E-02 -0.16128342792E-01  0.14256304929E-01  0.23453366437E-01  0.00000000000E+00 0. -1.
     999901    1    3    3    0    0 -0.14841030823E-01  0.12319239493E+00 -0.77960756628E-01  0.89211798656E+00  0.88000000000E+00 0.  1.
        -11    1    4    4    0    0  0.14197487235E-01 -0.36857675670E-01  0.14630530958E-01  0.42123276899E-01  0.51100000000E-03 0.  1.
         11    1    4    4    0    0  0.99545438450E-02 -0.70206376466E-01  0.49073920741E-01  0.86235370107E-01  0.51100000000E-03 0. -1.
</event>
<event>
 8    1  0.1162192E+005  0.1043930E+01  0.7957747E-01            NaN
         13   -1    0    0    0    0  0.00000000000E+00  0.00000000000E+00  0.74505805969E-08  0.10566000000E+00  0.10566000000E+00 0. -1.
     999900   -1    0    0    0    0 -0.00000000000E+00 -0.00000000000E+00 -0.74505805969E-08  0.93827000000E+00  0.93827000000E+00 0.  1.
     999902    2    1    2    0    0 -0.15787895367E-01 -0.11224477449E-01 -0.65446945244E-02  0.10234830061E+01  0.10232787422E+01 0.  0.
     999903    2    3    3    0    0 -0.33080890989E-01 -0.91329638559E-01  0.90678483150E-01  0.13434396700E+00  0.19755149574E-01 0.  0.
         14    1    1    2    0    0  0.15787895367E-01  0.11224477449E-01  0.65446945244E-02  0.20446993924E-01  0.00000000000E+00 0. -1.
     999901    1    3    3    0    0  0.17292995623E-01  0.80105161110E-01 -0.97223177675E-01  0.88913903908E+00  0.88000000000E+00 0.  1.
        -11    1    4    4    0    0 -0.16498155740E-01 -0.33035823949E-01  0.46303919766E-01  0.59227264950E-01  0.51100000000E-03 0.  1.
         11    1    4    4    0    0 -0.16582735250E-01 -0.58293814610E-01  0.44374563384E-01  0.75116702049E-01  0.51100000000E-03 0. -1.
</event>
<event>
 8    1  0.1162192E+005  0.1043930E+01  0.7957747E-01            NaN
         13   -1    0    0    0    0  0.00000000000E+00  0.00000000000E+00  0.74505805969E-08  0.10566000000E+00  0.10566000000E+00 0.  1.
     999900   -1    0    0    0    0 -0.00000000000E+00 -0.00000000000E+00 -0.74505805969E-08  0.93827000000E+00  0.93827000000E+00 0. -1.
     999902    2    1    2    0    0 -0.21807169934E-01 -0.31352007587E-02  0.74240327761E-02  0.10206813784E+01  0.10204165707E+01 0.  0.
     999903    2    3    3    0    0 -0.63892563505E-01 -0.70444158357E-01 -0.89046093643E-01  0.13185734551E+00  0.20310432144E-01 0.  0.
         14    1    1    2    0    0  0.21807169934E-01  0.31352007587E-02 -0.74240327761E-02  0.23248621615E-01  0.00000000000E+00 0. -1.
     999901    1    3    3    0    0  0.42085393570E-01  0.67308957599E-01  0.96470126419E-01  0.88882403288E+00  0.88000000000E+00 0.  1.
        -11    1    4    4    0    0 -0.48619315092E-01 -0.54476212880E-01 -0.79007378084E-01  0.10758216619E+00  0.51100000000E-03 0. -1.
         11    1    4    4    0    0 -0.15273248413E-01 -0.15967945477E-01 -0.10038715559E-01  0.24275179318E-01  0.51100000000E-03 0.  1.
</event>
<event>
 8    1  0.1162192E+005  0.1043930E+01  0.7957747E-01            NaN
         13   -1    0    0    0    0  0.00000000000E+00  0.00000000000E+00  0.74505805969E-08  0.10566000000E+00  0.10566000000E+00 0. -1.
     999900   -1    0    0    0    0 -0.00000000000E+00 -0.00000000000E+00 -0.74505805969E-08  0.93827000000E+00  0.93827000000E+00 0. -1.
     999902    2    1    2    0    0  0.55868583861E-03  0.90867593279E-02 -0.21219250506E-01  0.10208402205E+01  0.10205790601E+01 0.  0.
     999903    2    3    3    0    0 -0.66961816901E-01 -0.30763236575E-01 -0.10861509233E+00  0.13304234169E+00  0.21743154206E-01 0.  0.
         14    1    1    2    0    0 -0.55868583861E-03 -0.90867593279E-02  0.21219250506E-01  0.23089779492E-01  0.00000000000E+00 0. -1.
     999901    1    3    3    0    0  0.67520502739E-01  0.39849995902E-01  0.87395841819E-01  0.88779787882E+00  0.88000000000E+00 0.  1.
        -11    1    4    4    0    0 -0.37982576585E-01 -0.14494310191E-01 -0.77480854180E-01  0.87500314499E-01  0.51100000000E-03 0.  1.
         11    1    4    4    0    0 -0.28979240316E-01 -0.16268926384E-01 -0.31134238145E-01  0.45542027193E-01  0.51100000000E-03 0. -1.
</event>
<event>
 8    1  0.1162192E+005  0.1043930E+01  0.7957747E-01            NaN
         13   -1    0    0    0    0  0.00000000000E+00  0.00000000000E+00  0.74505805969E-08  0.10566000000E+00  0.10566000000E+00 0.  1.
     999900   -1    0    0    0    0 -0.00000000000E+00 -0.00000000000E+00 -0.74505805969E-08  0.93827000000E+00  0.93827000000E+00 0. -1.
     999902    2    1    2    0    0 -0.85658158644E-02 -0.54836153346E-02 -0.20451331347E-01  0.10210892427E+01  0.10208337482E+01 0.  0.
     999903    2    3    3    0    0  0.10957012366E-01  0.57763416173E-01  0.11268625325E+00  0.12861686543E+00  0.19683445654E-01 0.  0.
         14    1    1    2    0    0  0.85658158644E-02  0.54836153346E-02  0.20451331347E-01  0.22840757265E-01  0.00000000000E+00 0.  1.
     999901    1    3    3    0    0 -0.19522828231E-01 -0.63247031508E-01 -0.13313758460E+00  0.89247237730E+00  0.88000000000E+00 0. -1.
        -11    1    4    4    0    0  0.41209298798E-02  0.98986682709E-02  0.39249054496E-01  0.40690479187E-01  0.51100000000E-03 0. -1.
         11    1    4    4    0    0  0.68360824864E-02  0.47864747903E-01  0.73437198759E-01  0.87926386245E-01  0.51100000000E-03 0.  1.
</event>
<event>
 8    1  0.1162192E+005  0.1043930E+01  0.7957747E-01            NaN
         13   -1    0    0    0    0  0.00000000000E+00  0.00000000000E+00  0.74505805969E-08  0.10566000000E+00  0.10566000000E+00 0.  1.
     999900   -1    0    0    0    0 -0.00000000000E+00 -0.00000000000E+00 -0.74505805969E-08  0.93827000000E+00  0.93827000000E+00 0.  1.
     999902    2    1    2    0    0  0.13784141143E-01  0.99367921851E-02 -0.17966201721E-01  0.10192009323E+01  0.10189008851E+01 0.  0.
     999903    2    3    3    0    0  0.11181214475E-01 -0.63085765816E-01  0.10788059706E+00  0.12724998858E+00  0.21201484981E-01 0.  0.
         14    1    1    2    0    0 -0.13784141143E-01 -0.99367921851E-02  0.17966201721E-01  0.24729067719E-01  0.00000000000E+00 0.  1.
     999901    1    3    3    0    0  0.26029266679E-02  0.73022558001E-01 -0.12584679878E+00  0.89195094370E+00  0.88000000000E+00 0.  1.
        -11    1    4    4    0    0  0.15628274629E-01 -0.31297413368E-01  0.49341293258E-01  0.60486324014E-01  0.51100000000E-03 0.  1.
         11    1    4    4    0    0 -0.44470601533E-02 -0.31788352448E-01  0.58539303804E-01  0.66763664566E-01  0.51100000000E-03 0. -1.
</event>
<event>
 8    1  0.1162192E+005  0.1043930E+01  0.7957747E-01            NaN
         13   -1    0    0    0    0  0.00000000000E+00  0.00000000000E+00  0.74505805969E-08  0.10566000000E+00  0.10566000000E+00 0. -1.
     999900   -1    0    0    0    0 -0.00000000000E+00 -0.00000000000E+00 -0.74505805969E-08  0.93827000000E+00  0.93827000000E+00 0.  1.
     999902    2    1    2    0    0 -0.17694769237E-01  0.68537896723E-02  0.13399919035E-01  0.10206999091E+01  0.10204355283E+01 0.  0.
     999903    2    3    3    0    0  0.11360680863E+00  0.34295930611E-01 -0.44010867675E-01  0.12868579833E+00  0.23245653281E-01 0.  0.
         14    1    1    2    0    0  0.17694769237E-01 -0.68537896723E-02 -0.13399919035E-01  0.23230090860E-01  0.00000000000E+00 0. -1.
     999901    1    3    3    0    0 -0.13130157786E+00 -0.27442140939E-01  0.57410786710E-01  0.89201411081E+00  0.88000000000E+00 0. -1.
        -11    1    4    4    0    0  0.70518246910E-01  0.94940084417E-02 -0.24080500181E-01  0.75120509540E-01  0.51100000000E-03 0.  1.
         11    1    4    4    0    0  0.43088561716E-01  0.24801922170E-01 -0.19930367494E-01  0.53565288793E-01  0.51100000000E-03 0. -1.
</event>
<event>
 8    1  0.1162192E+005  0.1043930E+01  0.7957747E-01            NaN
         13   -1    0    0    0    0  0.00000000000E+00  0.00000000000E+00  0.74505805969E-08  0.10566000000E+00  0.10566000000E+00 0.  1.
     999900   -1    0    0    0    0 -0.00000000000E+00 -0.00000000000E+00 -0.74505805969E-08  0.93827000000E+00  0.93827000000E+00 0.  1.
     999902    2    1    2    0    0 -0.10369887144E-01 -0.91475181235E-04 -0.21343262551E-01  0.10202007399E+01  0.10199247384E+01 0.  0.
     999903    2    3    3    0    0  0.26332665803E-01 -0.58588305052E-01  0.10892947665E+00  0.12793399558E+00  0.19377243458E-01 0.  0.
         14    1    1    2    0    0  0.10369887144E-01  0.91475181235E-04  0.21343262551E-01  0.23729260069E-01  0.00000000000E+00 0.  1.
     999901    1    3    3    0    0 -0.36702552947E-01  0.58496829870E-01 -0.13027273920E+00  0.89226674435E+00  0.88000000000E+00 0.  1.
        -11    1    4    4    0    0  0.95351892737E-02 -0.16690515409E-01  0.17647363958E-01  0.26099496447E-01  0.51100000000E-03 0.  1.
         11    1    4    4    0    0  0.16797476529E-01 -0.41897789642E-01  0.91282112693E-01  0.10183449913E+00  0.51100000000E-03 0. -1.
</event>
<event>
 7    1  0.1162192E+005  0.1043930E+01  0.7957747E-01            NaN
         13   -1    0    0    0    0  0.00000000000E+00  0.00000000000E+00  0.74505805969E-08  0.10566000000E+00  0.10566000000E+00 0.  1.
     999900   -1    0    0    0    0 -0.00000000000E+00 -0.00000000000E+00 -0.74505805969E-08  0.93827000000E+00  0.93827000000E+00 0. -1.
     999903    2    1    2    0    0  0.64596723103E-01  0.16453956861E-01 -0.64264281985E-01  0.94734661809E-01  0.20032196012E-01 0.  0.
         14    1    1    2    0    0 -0.10832542976E-01 -0.58547739215E-01  0.28023401645E-01  0.65806479881E-01  0.00000000000E+00 0.  1.
     999901    1    1    2    0    0 -0.53764180126E-01  0.42093782355E-01  0.36240880340E-01  0.88338885831E+00  0.88000000000E+00 0.  1.
        -11    1    3    3    0    0  0.59046076945E-01  0.95149795555E-02 -0.50172506414E-01  0.78067378331E-01  0.51100000000E-03 0. -1.
         11    1    3    3    0    0  0.55506461571E-02  0.69389773050E-02 -0.14091775571E-01  0.16667283478E-01  0.51100000000E-03 0.  1.
</event>
<event>
 8    1  0.1162192E+005  0.1043930E+01  0.7957747E-01            NaN
         13   -1    0    0    0    0  0.00000000000E+00  0.00000000000E+00  0.74505805969E-08  0.10566000000E+00  0.10566000000E+00 0. -1.
     999900   -1    0    0    0    0 -0.00000000000E+00 -0.00000000000E+00 -0.74505805969E-08  0.93827000000E+00  0.93827000000E+00 0.  1.
     999902    2    1    2    0    0  0.54369195339E-02 -0.95295319094E-02 -0.20887709803E-01  0.10203361768E+01  0.10200633535E+01 0.  0.
     999903    2    3    3    0    0 -0.11418032347E+00 -0.13154180904E-01  0.55047873477E-01  0.12899581773E+00  0.19986842483E-01 0.  0.
         14    1    1    2    0    0 -0.54369195339E-02  0.95295319094E-02  0.20887709803E-01  0.23593823201E-01  0.00000000000E+00 0.  1.
     999901    1    3    3    0    0  0.11961724301E+00  0.36246489950E-02 -0.75935583280E-01  0.89134035907E+00  0.88000000000E+00 0.  1.
        -11    1    4    4    0    0 -0.41824390169E-01 -0.14407967391E-01  0.22765377486E-01  0.49753318185E-01  0.51100000000E-03 0. -1.
         11    1    4    4    0    0 -0.72355933305E-01  0.12537864870E-02  0.32282495992E-01  0.79242499540E-01  0.51100000000E-03 0.  1.
</event>
<event>
 8    1  0.1162192E+005  0.1043930E+01  0.7957747E-01            NaN
         13   -1    0    0    0    0  0.00000000000E+00  0.00000000000E+00  0.74505805969E-08  0.10566000000E+00  0.10566000000E+00 0. -1.
     999900   -1    0    0    0    0 -0.00000000000E+00 -0.00000000000E+00 -0.74505805969E-08  0.93827000000E+00  0.93827000000E+00 0. -1.
     999902    2    1    2    0    0 -0.86049312187E-03  0.18361628243E-01 -0.15947381704E-01  0.10195946590E+01  0.10193042037E+01 0.  0.
     999903    2    3    3    0    0  0.27915085607E-01 -0.11598442383E+00 -0.43604089958E-01  0.12850443393E+00  0.19504725166E-01 0.  0.
         14    1    1    2    0    0  0.86049312187E-03 -0.18361628243E-01  0.15947381704E-01  0.24335341036E-01  0.00000000000E+00 0. -1.
     999901    1    3    3    0    0 -0.28775578729E-01  0.13434605207E+00  0.27656708254E-01  0.89109022503E+00  0.88000000000E+00 0. -1.
        -11    1    4    4    0    0  0.29110808055E-01 -0.10331655129E+00 -0.34142537711E-01  0.11263979278E+00  0.51100000000E-03 0. -1.
         11    1    4    4    0    0 -0.11957224485E-02 -0.12667872539E-01 -0.94615522473E-02  0.15864641149E-01  0.51100000000E-03 0.  1.
</event>
<event>
 8    1  0.1162192E+005  0.1043930E+01  0.7957747E-01            NaN
         13   -1    0    0    0    0  0.00000000000E+00  0.00000000000E+00  0.74505805969E-08  0.10566000000E+00  0.10566000000E+00 0. -1.
     999900   -1    0    0    0    0 -0.00000000000E+00 -0.00000000000E+00 -0.74505805969E-08  0.93827000000E+00  0.93827000000E+00 0.  1.
     999902    2    1    2    0    0 -0.18273919104E-01  0.14081731447E-01  0.45461395799E-02  0.10204162027E+01  0.10201452485E+01 0.  0.
     999903    2    3    3    0    0  0.32631354190E-01  0.38422916275E-01  0.11941726134E+00  0.13115852643E+00  0.20023760342E-01 0.  0.
         14    1    1    2    0    0  0.18273919104E-01 -0.14081731447E-01 -0.45461395799E-02  0.23513797333E-01  0.00000000000E+00 0. -1.
     999901    1    3    3    0    0 -0.50905273293E-01 -0.24341184829E-01 -0.11487112176E+00  0.88925767623E+00  0.88000000000E+00 0.  1.
        -11    1    4    4    0    0  0.82224142692E-02 -0.94435776165E-04  0.24635739814E-01  0.25976870707E-01  0.51100000000E-03 0. -1.
         11    1    4    4    0    0  0.24408939920E-01  0.38517352052E-01  0.94781521527E-01  0.10518165572E+00  0.51100000000E-03 0.  1.
</event>
<event>
 8    1  0.1162192E+005  0.1043930E+01  0.7957747E-01            NaN
         13   -1    0    0    0    0  0.00000000000E+00  0.00000000000E+00  0.74505805969E-08  0.10566000000E+00  0.10566000000E+00 0. -1.
     999900   -1    0    0    0    0 -0.00000000000E+00 -0.00000000000E+00 -0.74505805969E-08  0.93827000000E+00  0.93827000000E+00 0.  1.
     999902    2    1    2    0    0  0.15777039984E-01 -0.15470600807E-01  0.89991255744E-02  0.10200712754E+01  0.10197922181E+01 0.  0.
     999903    2    3    3    0    0 -0.65669251220E-01  0.10391829549E+00 -0.28148251323E-01  0.12750915735E+00  0.18836094645E-01 0.  0.
         14    1    1    2    0    0 -0.15777039984E-01  0.15470600807E-01 -0.89991255744E-02  0.23858724632E-01  0.00000000000E+00 0.  1.
     999901    1    3    3    0    0  0.81446291204E-01 -0.11938889630E+00  0.37147376897E-01  0.89256211802E+00  0.88000000000E+00 0.  1.
        -11    1    4    4    0    0 -0.24548226961E-01  0.31345350931E-01 -0.11493044254E-02  0.39833760726E-01  0.51100000000E-03 0. -1.
         11    1    4    4    0    0 -0.41121024259E-01  0.72572944562E-01 -0.26998946898E-01  0.87675396624E-01  0.51100000000E-03 0.  1.
</event>
<event>
 8    1  0.1162192E+005  0.1043930E+01  0.7957747E-01            NaN
         13   -1    0    0    0    0  0.00000000000E+00  0.00000000000E+00  0.74505805969E-08  0.10566000000E+00  0.10566000000E+00 0.  1.
     999900   -1    0    0    0    0 -0.00000000000E+00 -0.00000000000E+00 -0.74505805969E-08  0.93827000000E+00  0.93827000000E+00 0.  1.
     999902    2    1    2    0    0  0.21553820592E-01 -0.20481354967E-01  0.10399149311E-01  0.10124308668E+01  0.10119407417E+01 0.  0.
     999903    2    3    3    0    0 -0.59443727441E-01  0.95880426466E-01 -0.35035802990E-01  0.11992596385E+00  0.20690973966E-01 0.  0.
         14    1    1    2    0    0 -0.21553820592E-01  0.20481354967E-01 -0.10399149311E-01  0.31499133159E-01  0.00000000000E+00 0. -1.
     999901    1    3    3    0    0  0.80997548033E-01 -0.11636178143E+00  0.45434952301E-01  0.89250490299E+00  0.88000000000E+00 0. -1.
        -11    1    4    4    0    0 -0.10163198229E-01  0.15500979147E-01 -0.14227249717E-01  0.23371921365E-01  0.51100000000E-03 0. -1.
         11    1    4    4    0    0 -0.49280529212E-01  0.80379447318E-01 -0.20808553274E-01  0.96554042489E-01  0.51100000000E-03 0.  1.
</event>
<event>
 8    1  0.1162192E+005  0.1043930E+01  0.7957747E-01            NaN
         13   -1    0    0    0    0  0.00000000000E+00  0.00000000000E+00  0.74505805969E-08  0.10566000000E+00  0.10566000000E+00 0. -1.
     999900   -1    0    0    0    0 -0.00000000000E+00 -0.00000000000E+00 -0.74505805969E-08  0.93827000000E+00  0.93827000000E+00 0.  1.
     999902    2    1    2    0    0  0.16379293653E-01 -0.12509536912E-01 -0.11284949485E-01  0.10204327691E+01  0.10201622010E+01 0.  0.
     999903    2    3    3    0    0 -0.22808308284E-01  0.61082154260E-01 -0.11153988000E+00  0.13082473394E+00  0.20560099348E-01 0.  0.
         14    1    1    2    0    0 -0.16379293653E-01  0.12509536912E-01  0.11284949485E-01  0.23497230883E-01  0.00000000000E+00 0. -1.
     999901    1    3    3    0    0  0.39187601936E-01 -0.73591691171E-01  0.10025493051E+00  0.88960803517E+00  0.88000000000E+00 0. -1.
        -11    1    4    4    0    0 -0.72239702692E-02  0.39037506266E-01 -0.51797906326E-01  0.65264054905E-01  0.51100000000E-03 0. -1.
         11    1    4    4    0    0 -0.15584338015E-01  0.22044647994E-01 -0.59741973673E-01  0.65560679038E-01  0.51100000000E-03 0.  1.
</event>
<event>
 8    1  0.1162192E+005  0.1043930E+01  0.7957747E-01            NaN
         13   -1    0    0    0    0  0.00000000000E+00  0.00000000000E+00  0.74505805969E-08  0.10566000000E+00  0.10566000000E+00 0.  1.
     999900   -1    0    0    0    0 -0.00000000000E+00 -0.00000000000E+00 -0.74505805969E-08  0.93827000000E+00  0.93827000000E+00 0. -1.
     999902    2    1    2    0    0  0.20152565000E-01  0.10753246778E-01  0.13484442324E-02  0.10210482061E+01  0.10207917822E+01 0.  0.
     999903    2    3    3    0    0 -0.14061891768E-01 -0.10479515655E+00 -0.72789778690E-01  0.12974660802E+00  0.18869784702E-01 0.  0.
         14    1    1    2    0    0 -0.20152565000E-01 -0.10753246778E-01 -0.13484442324E-02  0.22881793946E-01  0.00000000000E+00 0.  1.
     999901    1    3    3    0    0  0.34214456768E-01  0.11554840333E+00  0.74138222922E-01  0.89130159804E+00  0.88000000000E+00 0.  1.
        -11    1    4    4    0    0 -0.68120199624E-02 -0.97736148353E-02 -0.10567926548E-01  0.15933278239E-01  0.51100000000E-03 0.  1.
         11    1    4    4    0    0 -0.72498718054E-02 -0.95021541712E-01 -0.62221852142E-01  0.11381332978E+00  0.51100000000E-03 0. -1.
</event>
<event>
 8    1  0.1162192E+005  0.1043930E+01  0.7957747E-01            NaN
         13   -1    0    0    0    0  0.00000000000E+00  0.00000000000E+00  0.74505805969E-08  0.10566000000E+00  0.10566000000E+00 0.  1.
     999900   -1    0    0    0    0 -0.00000000000E+00 -0.00000000000E+00 -0.74505805969E-08  0.93827000000E+00  0.93827000000E+00 0.  1.
     999902    2    1    2    0    0  0.22993387190E-01  0.24316431934E-02 -0.10903245680E-01  0.10183665591E+01  0.10180456568E+01 0.  0.
     999903    2    3    3    0    0  0.87057983598E-01  0.85847401894E-01 -0.44156300271E-01  0.13147974168E+00  0.19704687232E-01 0.  0.
         14    1    1    2    0    0 -0.22993387190E-01 -0.24316431934E-02  0.10903245680E-01  0.25563440877E-01  0.00000000000E+00 0.  1.
     999901    1    3    3    0    0 -0.64064596408E-01 -0.83415758701E-01  0.33253054591E-01  0.88688681744E+00  0.88000000000E+00 0.  1.
        -11    1    4    4    0    0  0.15343996644E-02  0.53333357024E-02  0.95449652974E-03  0.56542936491E-02  0.51100000000E-03 0. -1.
         11    1    4    4    0    0  0.85523583934E-01  0.80514066192E-01 -0.45110796800E-01  0.12582544803E+00  0.51100000000E-03 0.  1.
</event>
<event>
 8    1  0.1162192E+005  0.1043930E+01  0.7957747E-01            NaN
         13   -1    0    0    0    0  0.00000000000E+00  0.00000000000E+00  0.74505805969E-08  0.10566000000E+00  0.10566000000E+00 0.  1.
     999900   -1    0    0    0    0 -0.00000000000E+00 -0.00000000000E+00 -0.74505805969E-08  0.93827000000E+00  0.93827000000E+00 0. -1.
     999902    2    1    2    0    0  0.55598141664E-02 -0.18594130527E-01 -0.12893718647E-01  0.10206297596E+01  0.10203637611E+01 0.  0.
     999903    2    3    3    0    0 -0.11753845439E-01  0.12121998095E+00  0.34434639257E-01  0.12816815141E+00  0.20221127344E-01 0.  0.
         14    1    1    2    0    0 -0.55598141664E-02  0.18594130527E-01  0.12893718647E-01  0.23300240431E-01  0.00000000000E+00 0.  1.
     999901    1    3    3    0    0  0.17313659606E-01 -0.13981411148E+00 -0.47328357903E-01  0.89246160816E+00  0.88000000000E+00 0.  1.
        -11    1    4    4    0    0 -0.15700681311E-01  0.10478986644E+00  0.25244840145E-01  0.10892653752E+00  0.51100000000E-03 0.  1.
         11    1    4    4    0    0  0.39468358720E-02  0.16430114511E-01  0.91897991121E-02  0.19241613886E-01  0.51100000000E-03 0. -1.
</event>
<event>
 8    1  0.1162192E+005  0.1043930E+01  0.7957747E-01            NaN
         13   -1    0    0    0    0  0.00000000000E+00  0.00000000000E+00  0.74505805969E-08  0.10566000000E+00  0.10566000000E+00 0.  1.
     999900   -1    0    0    0    0 -0.00000000000E+00 -0.00000000000E+00 -0.74505805969E-08  0.93827000000E+00  0.93827000000E+00 0. -1.
     999902    2    1    2    0    0  0.12735203818E-01 -0.14137199590E-01 -0.12170836753E-01  0.10213429441E+01  0.10210931565E+01 0.  0.
     999903    2    3    3    0    0 -0.11950760369E+00  0.28903343498E-01  0.34121165767E-01  0.12921985952E+00  0.20397243297E-01 0.  0.
         14    1    1    2    0    0 -0.12735203818E-01  0.14137199590E-01  0.12170836753E-01  0.22587055935E-01  0.00000000000E+00 0.  1.
     999901    1    3    3    0    0  0.13224280751E+00 -0.43040543089E-01 -0.46292002519E-01  0.89212308455E+00  0.88000000000E+00 0.  1.
        -11    1    4    4    0    0 -0.78246327786E-01  0.26883116548E-01  0.16820087363E-01  0.84429652536E-01  0.51100000000E-03 0.  1.
         11    1    4    4    0    0 -0.41261275907E-01  0.20202269501E-02  0.17301078403E-01  0.44790206980E-01  0.51100000000E-03 0. -1.
</event>
<event>
 8    1  0.1162192E+005  0.1043930E+01  0.7957747E-01            NaN
         13   -1    0    0    0    0  0.00000000000E+00  0.00000000000E+00  0.74505805969E-08  0.10566000000E+00  0.10566000000E+00 0.  1.
     999900   -1    0    0    0    0 -0.00000000000E+00 -0.00000000000E+00 -0.74505805969E-08  0.93827000000E+00  0.93827000000E+00 0. -1.
     999902    2    1    2    0    0 -0.22544329502E-01  0.67092011091E-02 -0.53601642239E-02  0.10198054993E+01  0.10195201150E+01 0.  0.
     999903    2    3    3    0    0 -0.63639628685E-01  0.87553743265E-01 -0.73647057877E-01  0.13251312167E+00  0.20498243359E-01 0.  0.
         14    1    1    2    0    0  0.22544329502E-01 -0.67092011091E-02  0.53601642239E-02  0.24124500673E-01  0.00000000000E+00 0. -1.
     999901    1    3    3    0    0  0.41095299183E-01 -0.80844542156E-01  0.68286893653E-01  0.88729237766E+00  0.88000000000E+00 0.  1.
        -11    1    4    4    0    0 -0.52374020383E-01  0.81790858504E-01 -0.61454447004E-01  0.11493342735E+00  0.51100000000E-03 0. -1.
         11    1    4    4    0    0 -0.11265608302E-01  0.57628847614E-02 -0.12192610873E-01  0.17579694311E-01  0.51100000000E-03 0.  1.
</event>
<event>
 8    1  0.1162192E+005  0.1043930E+01  0.7957747E-01            NaN
         13   -1    0    0    0    0  0.00000000000E+00  0.00000000000E+00  0.74505805969E-08  0.10566000000E+00  0.10566000000E+00 0.  1.
     999900   -1    0    0    0    0 -0.00000000000E+00 -0.00000000000E+00 -0.74505805969E-08  0.93827000000E+00  0.93827000000E+00 0. -1.
     999902    2    1    2    0    0 -0.37496901366E-02  0.12287435470E-01  0.20432907089E-01  0.10197940323E+01  0.10195083733E+01 0.  0.
     999903    2    3    3    0    0 -0.68161446954E-01 -0.89173600303E-01  0.63000698100E-01  0.13060606955E+00  0.22157247140E-01 0.  0.
         14    1    1    2    0    0  0.37496901366E-02 -0.12287435470E-01 -0.20432907089E-01  0.24135967738E-01  0.00000000000E+00 0. -1.
     999901    1    3    3    0    0  0.64411756817E-01  0.10146103577E+00 -0.42567791011E-01  0.88918796271E+00  0.88000000000E+00 0. -1.
        -11    1    4    4    0    0 -0.53473146200E-01 -0.78136050199E-01  0.44828450239E-01  0.10475910833E+00  0.51100000000E-03 0.  1.
         11    1    4    4    0    0 -0.14688300754E-01 -0.11037550104E-01  0.18172247860E-01  0.25846961226E-01  0.51100000000E-03 0. -1.
</event>
<event>
 8    1  0.1162192E+005  0.1043930E+01  0.7957747E-01            NaN
         13   -1    0    0    0    0  0.00000000000E+00  0.00000000000E+00  0.74505805969E-08  0.10566000000E+00  0.10566000000E+00 0.  1.
     999900   -1    0    0    0    0 -0.00000000000E+00 -0.00000000000E+00 -0.74505805969E-08  0.93827000000E+00  0.93827000000E+00 0. -1.
     999902    2    1    2    0    0  0.27480645298E-02  0.96132187994E-02 -0.21651444663E-01  0.10200815013E+01  0.10198026860E+01 0.  0.
     999903    2    3    3    0    0 -0.12073238366E+00  0.36403229963E-01  0.23662406405E-01  0.12990260305E+00  0.20329121671E-01 0.  0.
         14    1    1    2    0    0 -0.27480645298E-02 -0.96132187994E-02  0.21651444663E-01  0.23848498702E-01  0.00000000000E+00 0.  1.
     999901    1    3    3    0    0  0.12348044819E+00 -0.26790011163E-01 -0.45313851068E-01  0.89017889825E+00  0.88000000000E+00 0. -1.
        -11    1    4    4    0    0 -0.75331665476E-01  0.24955861974E-01  0.24549318742E-01  0.83069760093E-01  0.51100000000E-03 0. -1.
         11    1    4    4    0    0 -0.45400718180E-01  0.11447367989E-01 -0.88691233743E-03  0.46832842960E-01  0.51100000000E-03 0.  1.
</event>
<event>
 8    1  0.1162192E+005  0.1043930E+01  0.7957747E-01            NaN
         13   -1    0    0    0    0  0.00000000000E+00  0.00000000000E+00  0.74505805969E-08  0.10566000000E+00  0.10566000000E+00 0.  1.
     999900   -1    0    0    0    0 -0.00000000000E+00 -0.00000000000E+00 -0.74505805969E-08  0.93827000000E+00  0.93827000000E+00 0.  1.
     999902    2    1    2    0    0  0.18115465061E-01 -0.67258410449E-02 -0.13183440095E-01  0.10205374776E+01  0.10202693434E+01 0.  0.
     999903    2    3    3    0    0 -0.97071157452E-01 -0.11858842996E-01 -0.83517353016E-01  0.13023350420E+00  0.20546912076E-01 0.  0.
         14    1    1    2    0    0 -0.18115465061E-01  0.67258410449E-02  0.13183440095E-01  0.23392522414E-01  0.00000000000E+00 0.  1.
     999901    1    3    3    0    0  0.11518662251E+00  0.51330019513E-02  0.70333912921E-01  0.89030397338E+00  0.88000000000E+00 0. -1.
        -11    1    4    4    0    0 -0.84447819929E-01 -0.78920907531E-02 -0.62362640204E-01  0.10527620530E+00  0.51100000000E-03 0.  1.
         11    1    4    4    0    0 -0.12623337523E-01 -0.39667522430E-02 -0.21154712813E-01  0.24957298908E-01  0.51100000000E-03 0. -1.
</event>
<event>
 8    1  0.1162192E+005  0.1043930E+01  0.7957747E-01            NaN
         13   -1    0    0    0    0  0.00000000000E+00  0.00000000000E+00  0.74505805969E-08  0.10566000000E+00  0.10566000000E+00 0. -1.
     999900   -1    0    0    0    0 -0.00000000000E+00 -0.00000000000E+00 -0.74505805969E-08  0.93827000000E+00  0.93827000000E+00 0. -1.
     999902    2    1    2    0    0 -0.76579881526E-02  0.12340071172E-01  0.16790432778E-01  0.10217299826E+01  0.10214887746E+01 0.  0.
     999903    2    3    3    0    0 -0.19224999684E-01  0.11778828178E+00 -0.54073750930E-01  0.13253098722E+00  0.19920142981E-01 0.  0.
         14    1    1    2    0    0  0.76579881526E-02 -0.12340071172E-01 -0.16790432778E-01  0.22200017386E-01  0.00000000000E+00 0.  1.
     999901    1    3    3    0    0  0.11567011531E-01 -0.10544821061E+00  0.70864183708E-01  0.88919899539E+00  0.88000000000E+00 0. -1.
        -11    1    4    4    0    0 -0.74420317015E-02  0.91653205137E-01 -0.36729055773E-01  0.99020091430E-01  0.51100000000E-03 0. -1.
         11    1    4    4    0    0 -0.11782967982E-01  0.26135076643E-01 -0.17344695157E-01  0.33510895790E-01  0.51100000000E-03 0.  1.
</event>
<event>
 8    1  0.1162192E+005  0.1043930E+01  0.7957747E-01            NaN
         13   -1    0    0    0    0  0.00000000000E+00  0.00000000000E+00  0.74505805969E-08  0.10566000000E+00  0.10566000000E+00 0. -1.
     999900   -1    0    0    0    0 -0.00000000000E+00 -0.00000000000E+00 -0.74505805969E-08  0.93827000000E+00  0.93827000000E+00 0. -1.
     999902    2    1    2    0    0 -0.10886474887E-01 -0.21022941388E-01 -0.35277769940E-02  0.10199941564E+01  0.10197132707E+01 0.  0.
     999903    2    3    3    0    0 -0.10675843712E+00 -0.75952771693E-01  0.11246035331E-01  0.13296147098E+00  0.19649224706E-01 0.  0.
         14    1    1    2    0    0  0.10886474887E-01  0.21022941388E-01  0.35277769940E-02  0.23935843636E-01  0.00000000000E+00 0.  1.
     999901    1    3    3    0    0  0.95871962233E-01  0.54929830306E-01 -0.14773812325E-01  0.88703268538E+00  0.88000000000E+00 0. -1.
        -11    1    4    4    0    0 -0.83491497979E-01 -0.62606755064E-01  0.13515166356E-02  0.10436725412E+00  0.51100000000E-03 0. -1.
         11    1    4    4    0    0 -0.23266939141E-01 -0.13346016629E-01  0.98945186959E-02  0.28594216865E-01  0.51100000000E-03 0.  1.
</event>
<event>
 8    1  0.1162192E+005  0.1043930E+01  0.7957747E-01            NaN
         13   -1    0    0    0    0  0.00000000000E+00  0.00000000000E+00  0.74505805969E-08  0.10566000000E+00  0.10566000000E+00 0.  1.
     999900   -1    0    0    0    0 -0.00000000000E+00 -0.00000000000E+00 -0.74505805969E-08  0.93827000000E+00  0.93827000000E+00 0.  1.
     999902    2    1    2    0    0  0.15216009515E-01 -0.67596608083E-02  0.16957270259E-01  0.10201651315E+01  0.10198882912E+01 0.  0.
     999903    2    3    3    0    0 -0.21191435610E-02 -0.62057730855E-01  0.11526417221E+00  0.13279675758E+00  0.22214785610E-01 0.  0.
         14    1    1    2    0    0 -0.15216009515E-01  0.67596608083E-02 -0.16957270259E-01  0.23764868492E-01  0.00000000000E+00 0. -1.
     999901    1    3    3    0    0  0.17335153076E-01  0.55298070047E-01 -0.98306901950E-01  0.88736837393E+00  0.88000000000E+00 0.  1.
        -11    1    4    4    0    0 -0.10837679725E-01 -0.46877810812E-01  0.78477947609E-01  0.92054515535E-01  0.51100000000E-03 0.  1.
         11    1    4    4    0    0  0.87185361643E-02 -0.15179920043E-01  0.36786224599E-01  0.40742242042E-01  0.51100000000E-03 0. -1.
</event>
<event>
 8    1  0.1162192E+005  0.1043930E+01  0.7957747E-01            NaN
         13   -1    0    0    0    0  0.00000000000E+00  0.00000000000E+00  0.74505805969E-08  0.10566000000E+00  0.10566000000E+00 0.  1.
     999900   -1    0    0    0    0 -0.00000000000E+00 -0.00000000000E+00 -0.74505805969E-08  0.93827000000E+00  0.93827000000E+00 0. -1.
     999902    2    1    2    0    0 -0.22976655224E-01  0.44696681652E-02 -0.44092965723E-02  0.10201109632E+01  0.10198328445E+01 0.  0.
     999903    2    3    3    0    0 -0.12131563244E+00 -0.29579973194E-01  0.40491679371E-01  0.13284210305E+00  0.20371321908E-01 0.  0.
         14    1    1    2    0    0  0.22976655224E-01 -0.44696681652E-02  0.44092965723E-02  0.23819036820E-01  0.00000000000E+00 0. -1.
     999901    1    3    3    0    0  0.98338977214E-01  0.34049641359E-01 -0.44900975944E-01  0.88726886013E+00  0.88000000000E+00 0. -1.
        -11    1    4    4    0    0 -0.77206542212E-01 -0.94784958687E-02  0.20814752690E-01  0.80524574478E-01  0.51100000000E-03 0. -1.
         11    1    4    4    0    0 -0.44109090226E-01 -0.20101477325E-01  0.19676926681E-01  0.52317528571E-01  0.51100000000E-03 0.  1.
</event>
<event>
 8    1  0.1162192E+005  0.1043930E+01  0.7957747E-01            NaN
         13   -1    0    0    0    0  0.00000000000E+00  0.00000000000E+00  0.74505805969E-08  0.10566000000E+00  0.10566000000E+00 0.  1.
     999900   -1    0    0    0    0 -0.00000000000E+00 -0.00000000000E+00 -0.74505805969E-08  0.93827000000E+00  0.93827000000E+00 0.  1.
     999902    2    1    2    0    0 -0.23745070343E-02  0.18278994666E-01  0.14934037168E-01  0.10202069016E+01  0.10199310451E+01 0.  0.
     999903    2    3    3    0    0  0.29821297841E-01  0.28002393670E-01  0.12463157964E+00  0.13275850023E+00  0.20453480993E-01 0.  0.
         14    1    1    2    0    0  0.23745070343E-02 -0.18278994666E-01 -0.14934037168E-01  0.23723098360E-01  0.00000000000E+00 0. -1.
     999901    1    3    3    0    0 -0.32195804875E-01 -0.97233990040E-02 -0.10969754247E+00  0.88744840141E+00  0.88000000000E+00 0.  1.
        -11    1    4    4    0    0  0.18971791030E-01  0.44492339371E-02  0.61183241468E-01  0.64213508665E-01  0.51100000000E-03 0.  1.
         11    1    4    4    0    0  0.10849506811E-01  0.23553159733E-01  0.63448338168E-01  0.68544991566E-01  0.51100000000E-03 0. -1.
</event>
<event>
 8    1  0.1162192E+005  0.1043930E+01  0.7957747E-01            NaN
         13   -1    0    0    0    0  0.00000000000E+00  0.00000000000E+00  0.74505805969E-08  0.10566000000E+00  0.10566000000E+00 0. -1.
     999900   -1    0    0    0    0 -0.00000000000E+00 -0.00000000000E+00 -0.74505805969E-08  0.93827000000E+00  0.93827000000E+00 0.  1.
     999902    2    1    2    0    0 -0.12125111945E-01  0.67999576041E-03  0.20263688939E-01  0.10203059059E+01  0.10200323739E+01 0.  0.
     999903    2    3    3    0    0  0.57360512932E-01  0.71615677621E-01  0.92331939240E-01  0.13179369114E+00  0.20624167762E-01 0.  0.
         14    1    1    2    0    0  0.12125111945E-01 -0.67999576041E-03 -0.20263688939E-01  0.23624094127E-01  0.00000000000E+00 0.  1.
     999901    1    3    3    0    0 -0.69485624877E-01 -0.70935681860E-01 -0.72068250300E-01  0.88851221473E+00  0.88000000000E+00 0.  1.
        -11    1    4    4    0    0  0.81441446587E-02  0.24341992330E-01  0.28345923781E-01  0.38244113257E-01  0.51100000000E-03 0. -1.
         11    1    4    4    0    0  0.49216368274E-01  0.47273685291E-01  0.63986015459E-01  0.93549577884E-01  0.51100000000E-03 0.  1.
</event>
<event>
 8    1  0.1162192E+005  0.1043930E+01  0.7957747E-01            NaN
         13   -1    0    0    0    0  0.00000000000E+00  0.00000000000E+00  0.74505805969E-08  0.10566000000E+00  0.10566000000E+00 0. -1.
     999900   -1    0    0    0    0 -0.00000000000E+00 -0.00000000000E+00 -0.74505805969E-08  0.93827000000E+00  0.93827000000E+00 0.  1.
     999902    2    1    2    0    0 -0.48118076157E-02 -0.98574953390E-02  0.20747902799E-01  0.10204608889E+01  0.10201909755E+01 0.  0.
     999903    2    3    3    0    0  0.10460416161E+00 -0.29735301445E-02  0.77896989441E-01  0.13181851907E+00  0.18902605559E-01 0.  0.
         14    1    1    2    0    0  0.48118076157E-02  0.98574953390E-02 -0.20747902799E-01  0.23469111135E-01  0.00000000000E+00 0.  1.
     999901    1    3    3    0    0 -0.10941596923E+00 -0.68839651945E-02 -0.57149086642E-01  0.88864236980E+00  0.88000000000E+00 0.  1.
        -11    1    4    4    0    0  0.85790492245E-01 -0.10360029371E-02  0.71984805159E-01  0.11199622831E+00  0.51100000000E-03 0. -1.
         11    1    4    4    0    0  0.18813669366E-01 -0.19375272074E-02  0.59121842827E-02  0.19822290752E-01  0.51100000000E-03 0.  1.
</event>
<event>
 8    1  0.1162192E+005  0.1043930E+01  0.7957747E-01            NaN
         13   -1    0    0    0    0  0.00000000000E+00  0.00000000000E+00  0.74505805969E-08  0.10566000000E+00  0.10566000000E+00 0. -1.
     999900   -1    0    0    0    0 -0.00000000000E+00 -0.00000000000E+00 -0.74505805969E-08  0.93827000000E+00  0.93827000000E+00 0.  1.
     999902    2    1    2    0    0  0.19957797089E-01 -0.11113594814E-01 -0.74959043511E-02  0.10198880734E+01  0.10196046626E+01 0.  0.
     999903    2    3    3    0    0  0.75679686517E-01  0.25105190510E-01  0.10144019099E+00  0.13068404602E+00  0.20749023971E-01 0.  0.
         14    1    1    2    0    0 -0.19957797089E-01  0.11113594814E-01  0.74959043511E-02  0.24041926636E-01  0.00000000000E+00 0.  1.
     999901    1    3    3    0    0 -0.55721889428E-01 -0.36218785324E-01 -0.10893609534E+00  0.88920402734E+00  0.88000000000E+00 0.  1.
        -11    1    4    4    0    0  0.20840105426E-01  0.16531828483E-01  0.27977220970E-01  0.38608255093E-01  0.51100000000E-03 0.  1.
         11    1    4    4    0    0  0.54839581091E-01  0.85733620270E-02  0.73462970017E-01  0.92075790930E-01  0.51100000000E-03 0. -1.
</event>
<event>
 8    1  0.1162192E+005  0.1043930E+01  0.7957747E-01            NaN
         13   -1    0    0    0    0  0.00000000000E+00  0.00000000000E+00  0.74505805969E-08  0.10566000000E+00  0.10566000000E+00 0.  1.
     999900   -1    0    0    0    0 -0.00000000000E+00 -0.00000000000E+00 -0.74505805969E-08  0.93827000000E+00  0.93827000000E+00 0.  1.
     999902    2    1    2    0    0 -0.10640854852E-01 -0.64437156822E-02 -0.19510904775E-01  0.10207907548E+01  0.10205284613E+01 0.  0.
     999903    2    3    3    0    0 -0.90068785213E-01 -0.83061803509E-01  0.43716786915E-01  0.13164685839E+00  0.20201202795E-01 0.  0.
         14    1    1    2    0    0  0.10640854852E-01  0.64437156822E-02  0.19510904775E-01  0.23139245211E-01  0.00000000000E+00 0. -1.
     999901    1    3    3    0    0  0.79427930362E-01  0.76618087827E-01 -0.63227691690E-01  0.88914389640E+00  0.88000000000E+00 0.  1.
        -11    1    4    4    0    0 -0.39619891164E-01 -0.46007934975E-01  0.13792331484E-01  0.62265202041E-01  0.51100000000E-03 0. -1.
         11    1    4    4    0    0 -0.50448894049E-01 -0.37053868535E-01  0.29924455431E-01  0.69381656351E-01  0.51100000000E-03 0.  1.
</event>
<event>
 8    1  0.1162192E+005  0.1043930E+01  0.7957747E-01            NaN
         13   -1    0    0    0    0  0.00000000000E+00  0.00000000000E+00  0.74505805969E-08  0.10566000000E+00  0.10566000000E+00 0.  1.
     999900   -1    0    0    0    0 -0.00000000000E+00 -0.00000000000E+00 -0.74505805969E-08  0.93827000000E+00  0.93827000000E+00 0. -1.
     999902    2    1    2    0    0 -0.57359905287E-02  0.13354596069E-01 -0.19130176482E-01  0.10199047950E+01  0.10196217830E+01 0.  0.
     999903    2    3    3    0    0 -0.39852389468E-02 -0.10236013317E+00 -0.78208184176E-01  0.13036380398E+00  0.19614339780E-01 0.  0.
         14    1    1    2    0    0  0.57359905287E-02 -0.13354596069E-01  0.19130176482E-01  0.24025205010E-01  0.00000000000E+00 0.  1.
     999901    1    3    3    0    0 -0.17507515819E-02  0.11571472924E+00  0.59078007695E-01  0.88954099101E+00  0.88000000000E+00 0.  1.
        -11    1    4    4    0    0 -0.89795364230E-02 -0.69579443681E-01 -0.44520903218E-01  0.83092135618E-01  0.51100000000E-03 0.  1.
         11    1    4    4    0    0  0.49942974762E-02 -0.32780689485E-01 -0.33687280959E-01  0.47271668363E-01  0.51100000000E-03 0. -1.
</event>
<event>
 8    1  0.1162192E+005  0.1043930E+01  0.7957747E-01            NaN
         13   -1    0    0    0    0  0.00000000000E+00  0.00000000000E+00  0.74505805969E-08  0.10566000000E+00  0.10566000000E+00 0. -1.
     999900   -1    0    0    0    0 -0.00000000000E+00 -0.00000000000E+00 -0.74505805969E-08  0.93827000000E+00  0.93827000000E+00 0. -1.
     999902    2    1    2    0    0 -0.42198156451E-02  0.15937395076E-01  0.17144009256E-01  0.10201450371E+01  0.10198677229E+01 0.  0.
     999903    2    3    3    0    0 -0.92198152407E-01  0.92556300753E-01 -0.21378323266E-02  0.13223601370E+00  0.20362339672E-01 0.  0.
         14    1    1    2    0    0  0.42198156451E-02 -0.15937395076E-01 -0.17144009256E-01  0.23784962881E-01  0.00000000000E+00 0.  1.
     999901    1    3    3    0    0  0.87978336762E-01 -0.76618905677E-01  0.19281841583E-01  0.88790902341E+00  0.88000000000E+00 0.  1.
        -11    1    4    4    0    0 -0.32855593966E-01  0.46347622586E-01 -0.44404559195E-02  0.56987463042E-01  0.51100000000E-03 0. -1.
         11    1    4    4    0    0 -0.59342558441E-01  0.46208678167E-01  0.23026235930E-02  0.75248550662E-01  0.51100000000E-03 0.  1.
</event>
<event>
 8    1  0.1162192E+005  0.1043930E+01  0.7957747E-01            NaN
         13   -1    0    0    0    0  0.00000000000E+00  0.00000000000E+00  0.74505805969E-08  0.10566000000E+00  0.10566000000E+00 0.  1.
     999900   -1    0    0    0    0 -0.00000000000E+00 -0.00000000000E+00 -0.74505805969E-08  0.93827000000E+00  0.93827000000E+00 0.  1.
     999902    2    1    2    0    0  0.10909806393E-01  0.66165017338E-02  0.20418467582E-01  0.10198527122E+01  0.10195684571E+01 0.  0.
     999903    2    3    3    0    0 -0.82477727096E-01  0.47332239202E-01  0.88280424294E-01  0.13137972561E+00  0.20598122537E-01 0.  0.
         14    1    1    2    0    0 -0.10909806393E-01 -0.66165017338E-02 -0.20418467582E-01  0.24077287827E-01  0.00000000000E+00 0. -1.
     999901    1    3    3    0    0  0.93387533489E-01 -0.40715737468E-01 -0.67861956712E-01  0.88847298657E+00  0.88000000000E+00 0.  1.
        -11    1    4    4    0    0 -0.26909486089E-01  0.19391615632E-01  0.43651245003E-01  0.54825609980E-01  0.51100000000E-03 0.  1.
         11    1    4    4    0    0 -0.55568241007E-01  0.27940623570E-01  0.44629179291E-01  0.76554115626E-01  0.51100000000E-03 0. -1.
</event>
<event>
 8    1  0.1162192E+005  0.1043930E+01  0.7957747E-01            NaN
         13   -1    0    0    0    0  0.00000000000E+00  0.00000000000E+00  0.74505805969E-08  0.10566000000E+00  0.10566000000E+00 0. -1.
     999900   -1    0    0    0    0 -0.00000000000E+00 -0.00000000000E+00 -0.74505805969E-08  0.93827000000E+00  0.93827000000E+00 0.  1.
     999902    2    1    2    0    0  0.23519623538E-01  0.74052602937E-02  0.48956816208E-03  0.10192672701E+01  0.10189688501E+01 0.  0.
     999903    2    3    3    0    0  0.89311790503E-01  0.10093062352E-01 -0.94407007448E-01  0.13171941581E+00  0.18943484770E-01 0.  0.
         14    1    1    2    0    0 -0.23519623538E-01 -0.74052602937E-02 -0.48956816208E-03  0.24662729945E-01  0.00000000000E+00 0.  1.
     999901    1    3    3    0    0 -0.65792166965E-01 -0.26878020588E-02  0.94896575610E-01  0.88754785425E+00  0.88000000000E+00 0. -1.
        -11    1    4    4    0    0  0.39824603199E-01  0.43106922423E-02 -0.28809531094E-01  0.49344009672E-01  0.51100000000E-03 0. -1.
         11    1    4    4    0    0  0.49487187303E-01  0.57823701102E-02 -0.65597476353E-01  0.82375406137E-01  0.51100000000E-03 0.  1.
</event>
<event>
 8    1  0.1162192E+005  0.1043930E+01  0.7957747E-01            NaN
         13   -1    0    0    0    0  0.00000000000E+00  0.00000000000E+00  0.74505805969E-08  0.10566000000E+00  0.10566000000E+00 0. -1.
     999900   -1    0    0    0    0 -0.00000000000E+00 -0.00000000000E+00 -0.74505805969E-08  0.93827000000E+00  0.93827000000E+00 0. -1.
     999902    2    1    2    0    0  0.20567748317E-02 -0.19514029527E-01 -0.13959467552E-01  0.10198490032E+01  0.10195646595E+01 0.  0.
     999903    2    3    3    0    0 -0.12112761144E+00  0.37675115595E-01  0.82740251519E-02  0.12915302842E+00  0.22819567694E-01 0.  0.
         14    1    1    2    0    0 -0.20567748317E-02  0.19514029527E-01  0.13959467552E-01  0.24080996770E-01  0.00000000000E+00 0. -1.
     999901    1    3    3    0    0  0.12318438627E+00 -0.57189145123E-01 -0.22233492704E-01  0.89069597481E+00  0.88000000000E+00 0. -1.
        -11    1    4    4    0    0 -0.19154405486E-01  0.14369388927E-01  0.51751655731E-02  0.24503347676E-01  0.51100000000E-03 0.  1.
         11    1    4    4    0    0 -0.10197320596E+00  0.23305726668E-01  0.30988595788E-02  0.10464968075E+00  0.51100000000E-03 0. -1.
</event>
<event>
 8    1  0.1162192E+005  0.1043930E+01  0.7957747E-01            NaN
         13   -1    0    0    0    0  0.00000000000E+00  0.00000000000E+00  0.74505805969E-08  0.10566000000E+00  0.10566000000E+00 0. -1.
     999900   -1    0    0    0    0 -0.00000000000E+00 -0.00000000000E+00 -0.74505805969E-08  0.93827000000E+00  0.93827000000E+00 0. -1.
     999902    2    1    2    0    0  0.53894287583E-02  0.13930245143E-01 -0.16664028067E-01  0.10215517180E+01  0.10213065774E+01 0.  0.
     999903    2    3    3    0    0  0.43281675427E-01  0.12261052877E+00 -0.25737028977E-01  0.13401042562E+00  0.19742196492E-01 0.  0.
         14    1    1    2    0    0 -0.53894287583E-02 -0.13930245143E-01  0.16664028067E-01  0.22378281960E-01  0.00000000000E+00 0. -1.
     999901    1    3    3    0    0 -0.37892246669E-01 -0.10868028362E+00  0.90730009107E-02  0.88754129242E+00  0.88000000000E+00 0.  1.
        -11    1    4    4    0    0  0.45017101559E-01  0.11272960197E+00 -0.22483486067E-01  0.12345149193E+00  0.51100000000E-03 0.  1.
         11    1    4    4    0    0 -0.17354261316E-02  0.98809267988E-02 -0.32535429100E-02  0.10558933693E-01  0.51100000000E-03 0. -1.
</event>
<event>
 8    1  0.1162192E+005  0.1043930E+01  0.7957747E-01            NaN
         13   -1    0    0    0    0  0.00000000000E+00  0.00000000000E+00  0.74505805969E-08  0.10566000000E+00  0.10566000000E+00 0. -1.
     999900   -1    0    0    0    0 -0.00000000000E+00 -0.00000000000E+00 -0.74505805969E-08  0.93827000000E+00  0.93827000000E+00 0.  1.
     999902    2    1    2    0    0 -0.90799329014E-02  0.20790132135E-01 -0.54831185657E-02  0.10205903478E+01  0.10203234383E+01 0.  0.
     999903    2    3    3    0    0  0.49832345652E-01 -0.57568474415E-01  0.10175705866E+00  0.12867601144E+00  0.20140134392E-01 0.  0.
         14    1    1    2    0    0  0.90799329014E-02 -0.20790132135E-01  0.54831185657E-02  0.23339652202E-01  0.00000000000E+00 0. -1.
     999901    1    3    3    0    0 -0.58912278554E-01  0.78358606550E-01 -0.10724017723E+00  0.89191433636E+00  0.88000000000E+00 0.  1.
        -11    1    4    4    0    0  0.20615926686E-01 -0.37595207172E-01  0.48589928586E-01  0.64804770784E-01  0.51100000000E-03 0.  1.
         11    1    4    4    0    0  0.29216418967E-01 -0.19973267243E-01  0.53167130077E-01  0.63871240658E-01  0.51100000000E-03 0. -1.
</event>
<event>
 8    1  0.1162192E+005  0.1043930E+01  0.7957747E-01            NaN
         13   -1    0    0    0    0  0.00000000000E+00  0.00000000000E+00  0.74505805969E-08  0.10566000000E+00  0.10566000000E+00 0. -1.
     999900   -1    0    0    0    0 -0.00000000000E+00 -0.00000000000E+00 -0.74505805969E-08  0.93827000000E+00  0.93827000000E+00 0. -1.
     999902    2    1    2    0    0  0.31011916900E-03  0.13567392885E-01 -0.20412185875E-01  0.10194182139E+01  0.10191234799E+01 0.  0.
     999903    2    3    3    0    0 -0.70241841193E-01 -0.96497595638E-01  0.40811259048E-01  0.12765580667E+00  0.19614889604E-01 0.  0.
         14    1    1    2    0    0 -0.31011916900E-03 -0.13567392885E-01  0.20412185875E-01  0.24511786059E-01  0.00000000000E+00 0. -1.
     999901    1    3    3    0    0  0.70551960362E-01  0.11006498852E+00 -0.61223444922E-01  0.89176240727E+00  0.88000000000E+00 0. -1.
        -11    1    4    4    0    0 -0.26701856680E-01 -0.48349825463E-01  0.26107012517E-01  0.61094451434E-01  0.51100000000E-03 0. -1.
         11    1    4    4    0    0 -0.43539984512E-01 -0.48147770175E-01  0.14704246530E-01  0.66561355239E-01  0.51100000000E-03 0.  1.
</event>
<event>
 8    1  0.1162192E+005  0.1043930E+01  0.7957747E-01            NaN
         13   -1    0    0    0    0  0.00000000000E+00  0.00000000000E+00  0.74505805969E-08  0.10566000000E+00  0.10566000000E+00 0.  1.
     999900   -1    0    0    0    0 -0.00000000000E+00 -0.00000000000E+00 -0.74505805969E-08  0.93827000000E+00  0.93827000000E+00 0.  1.
     999902    2    1    2    0    0 -0.30285311649E-02 -0.16370049005E-01 -0.16902242431E-01  0.10202058287E+01  0.10199299469E+01 0.  0.
     999903    2    3    3    0    0  0.11917711853E+00  0.41858736074E-01 -0.23643063189E-01  0.12982936286E+00  0.18475109092E-01 0.  0.
         14    1    1    2    0    0  0.30285311649E-02  0.16370049005E-01  0.16902242431E-01  0.23724171316E-01  0.00000000000E+00 0.  1.
     999901    1    3    3    0    0 -0.12220564970E+00 -0.58228785079E-01  0.67408207582E-02  0.89037646582E+00  0.88000000000E+00 0.  1.
        -11    1    4    4    0    0  0.41409562876E-01  0.10563831169E-01 -0.35149786337E-04  0.42738843960E-01  0.51100000000E-03 0. -1.
         11    1    4    4    0    0  0.77767555657E-01  0.31294904905E-01 -0.23607913403E-01  0.87090518899E-01  0.51100000000E-03 0.  1.
</event>
<event>
 8    1  0.1162192E+005  0.1043930E+01  0.7957747E-01            NaN
         13   -1    0    0    0    0  0.00000000000E+00  0.00000000000E+00  0.74505805969E-08  0.10566000000E+00  0.10566000000E+00 0. -1.
     999900   -1    0    0    0    0 -0.00000000000E+00 -0.00000000000E+00 -0.74505805969E-08  0.93827000000E+00  0.93827000000E+00 0.  1.
     999902    2    1    2    0    0  0.13685372131E-01 -0.20059950078E-01 -0.50605967972E-02  0.10191247456E+01  0.10188228238E+01 0.  0.
     999903    2    3    3    0    0 -0.52774285997E-01  0.28371792063E-01  0.11090852486E+00  0.12771498739E+00  0.20502030854E-01 0.  0.
         14    1    1    2    0    0 -0.13685372131E-01  0.20059950078E-01  0.50605967972E-02  0.24805254432E-01  0.00000000000E+00 0. -1.
     999901    1    3    3    0    0  0.66459658129E-01 -0.48431742141E-01 -0.11596912166E+00  0.89140975818E+00  0.88000000000E+00 0.  1.
        -11    1    4    4    0    0 -0.17380353064E-01  0.20160594072E-01  0.53783081964E-01  0.60011725959E-01  0.51100000000E-03 0.  1.
         11    1    4    4    0    0 -0.35393932933E-01  0.82111979908E-02  0.57125442895E-01  0.67703261427E-01  0.51100000000E-03 0. -1.
</event>
<event>
 8    1  0.1162192E+005  0.1043930E+01  0.7957747E-01            NaN
         13   -1    0    0    0    0  0.00000000000E+00  0.00000000000E+00  0.74505805969E-08  0.10566000000E+00  0.10566000000E+00 0. -1.
     999900   -1    0    0    0    0 -0.00000000000E+00 -0.00000000000E+00 -0.74505805969E-08  0.93827000000E+00  0.93827000000E+00 0.  1.
     999902    2    1    2    0    0  0.14465327540E-01  0.13622894315E-01  0.98840448595E-02  0.10217371342E+01  0.10214960832E+01 0.  0.
     999903    2    3    3    0    0 -0.89387447068E-02  0.11633852208E+00  0.62794855868E-01  0.13387576848E+00  0.19104308031E-01 0.  0.
         14    1    1    2    0    0 -0.14465327540E-01 -0.13622894315E-01 -0.98840448595E-02  0.22192865816E-01  0.00000000000E+00 0.  1.
     999901    1    3    3    0    0  0.23404072246E-01 -0.10271562777E+00 -0.52910811009E-01  0.88786136570E+00  0.88000000000E+00 0.  1.
        -11    1    4    4    0    0 -0.45209243882E-02  0.74552166345E-01  0.50249409286E-01  0.90020711609E-01  0.51100000000E-03 0.  1.
         11    1    4    4    0    0 -0.44178203186E-02  0.41786355739E-01  0.12545446583E-01  0.43855056872E-01  0.51100000000E-03 0. -1.
</event>
<event>
 8    1  0.1162192E+005  0.1043930E+01  0.7957747E-01            NaN
         13   -1    0    0    0    0  0.00000000000E+00  0.00000000000E+00  0.74505805969E-08  0.10566000000E+00  0.10566000000E+00 0. -1.
     999900   -1    0    0    0    0 -0.00000000000E+00 -0.00000000000E+00 -0.74505805969E-08  0.93827000000E+00  0.93827000000E+00 0.  1.
     999902    2    1    2    0    0  0.75796489184E-02 -0.20739488493E-02  0.22361348646E-01  0.10202280538E+01  0.10199526947E+01 0.  0.
     999903    2    3    3    0    0  0.76107714969E-01 -0.25385593867E-01  0.10471220549E+00  0.13342413393E+00  0.20013517504E-01 0.  0.
         14    1    1    2    0    0 -0.75796489184E-02  0.20739488493E-02 -0.22361348646E-01  0.23701946224E-01  0.00000000000E+00 0.  1.
     999901    1    3    3    0    0 -0.68528066051E-01  0.23311645018E-01 -0.82350856844E-01  0.88680391985E+00  0.88000000000E+00 0. -1.
        -11    1    4    4    0    0  0.35514352146E-01 -0.16980024459E-01  0.36987933162E-01  0.54018133618E-01  0.51100000000E-03 0.  1.
         11    1    4    4    0    0  0.40593362823E-01 -0.84055694078E-02  0.67724272327E-01  0.79406000312E-01  0.51100000000E-03 0. -1.
</event>
<event>
 8    1  0.1162192E+005  0.1043930E+01  0.7957747E-01            NaN
         13   -1    0    0    0    0  0.00000000000E+00  0.00000000000E+00  0.74505805969E-08  0.10566000000E+00  0.10566000000E+00 0.  1.
     999900   -1    0    0    0    0 -0.00000000000E+00 -0.00000000000E+00 -0.74505805969E-08  0.93827000000E+00  0.93827000000E+00 0. -1.
     999902    2    1    2    0    0  0.23055409249E-01 -0.41722273178E-02 -0.35786975915E-02  0.10202283871E+01  0.10199530359E+01 0.  0.
     999903    2    3    3    0    0 -0.10787428094E+00 -0.45206093595E-01 -0.49320780905E-01  0.12842196186E+00  0.19473301566E-01 0.  0.
         14    1    1    2    0    0 -0.23055409249E-01  0.41722273178E-02  0.35786975915E-02  0.23701612875E-01  0.00000000000E+00 0.  1.
     999901    1    3    3    0    0  0.13092969019E+00  0.41033866277E-01  0.45742083314E-01  0.89180642526E+00  0.88000000000E+00 0.  1.
        -11    1    4    4    0    0 -0.77671381354E-01 -0.22976729326E-01 -0.31674207765E-01  0.86972927573E-01  0.51100000000E-03 0. -1.
         11    1    4    4    0    0 -0.30202899581E-01 -0.22229364269E-01 -0.17646573140E-01  0.41449034289E-01  0.51100000000E-03 0.  1.
</event>
<event>
 8    1  0.1162192E+005  0.1043930E+01  0.7957747E-01            NaN
         13   -1    0    0    0    0  0.00000000000E+00  0.00000000000E+00  0.74505805969E-08  0.10566000000E+00  0.10566000000E+00 0.  1.
     999900   -1    0    0    0    0 -0.00000000000E+00 -0.00000000000E+00 -0.74505805969E-08  0.93827000000E+00  0.93827000000E+00 0.  1.
     999902    2    1    2    0    0 -0.19054619643E-01  0.20426716989E-03 -0.13713750049E-01  0.10204526238E+01  0.10201825181E+01 0.  0.
     999903    2    3    3    0    0  0.44260490357E-01  0.30759908969E-01 -0.11805079247E+00  0.13150455507E+00  0.21267237625E-01 0.  0.
         14    1    1    2    0    0  0.19054619643E-01 -0.20426716989E-03  0.13713750049E-01  0.23477376242E-01  0.00000000000E+00 0. -1.
     999901    1    3    3    0    0 -0.63315110000E-01 -0.30555641800E-01  0.10433704242E+00  0.88894806869E+00  0.88000000000E+00 0. -1.
        -11    1    4    4    0    0  0.14710036127E-01  0.20601152603E-01 -0.38973300789E-01  0.46475498350E-01  0.51100000000E-03 0.  1.
         11    1    4    4    0    0  0.29550454230E-01  0.10158756366E-01 -0.79077491677E-01  0.85029056722E-01  0.51100000000E-03 0. -1.
</event>
<event>
 8    1  0.1162192E+005  0.1043930E+01  0.7957747E-01            NaN
         13   -1    0    0    0    0  0.00000000000E+00  0.00000000000E+00  0.74505805969E-08  0.10566000000E+00  0.10566000000E+00 0.  1.
     999900   -1    0    0    0    0 -0.00000000000E+00 -0.00000000000E+00 -0.74505805969E-08  0.93827000000E+00  0.93827000000E+00 0. -1.
     999902    2    1    2    0    0 -0.18094829961E-01 -0.15264877519E-01 -0.47117835873E-02  0.10197920576E+01  0.10195063514E+01 0.  0.
     999903    2    3    3    0    0 -0.76113403245E-01 -0.99663140909E-01 -0.39904245779E-01  0.13315361323E+00  0.20286549110E-01 0.  0.
         14    1    1    2    0    0  0.18094829961E-01  0.15264877519E-01  0.47117835873E-02  0.24137942364E-01  0.00000000000E+00 0.  1.
     999901    1    3    3    0    0  0.58018573284E-01  0.84398263391E-01  0.35192462192E-01  0.88663844441E+00  0.88000000000E+00 0.  1.
        -11    1    4    4    0    0 -0.27873215627E-01 -0.26661633105E-01 -0.47989196871E-02  0.38872221192E-01  0.51100000000E-03 0. -1.
         11    1    4    4    0    0 -0.48240187618E-01 -0.73001507804E-01 -0.35105326092E-01  0.94281392035E-01  0.51100000000E-03 0.  1.
</event>
<event>
 8    1  0.1162192E+005  0.1043930E+01  0.7957747E-01            NaN
         13   -1    0    0    0    0  0.00000000000E+00  0.00000000000E+00  0.74505805969E-08  0.10566000000E+00  0.10566000000E+00 0.  1.
     999900   -1    0    0    0    0 -0.00000000000E+00 -0.00000000000E+00 -0.74505805969E-08  0.93827000000E+00  0.93827000000E+00 0.  1.
     999902    2    1    2    0    0 -0.23367656028E-01  0.27337260046E-02  0.36196235447E-02  0.10201261709E+01  0.10198484114E+01 0.  0.
     999903    2    3    3    0    0 -0.94210017136E-01  0.79810856741E-01  0.44780288112E-01  0.13296568680E+00  0.20719543428E-01 0.  0.
         14    1    1    2    0    0  0.23367656028E-01 -0.27337260046E-02 -0.36196235447E-02  0.23803829119E-01  0.00000000000E+00 0. -1.
     999901    1    3    3    0    0  0.70842361107E-01 -0.77077130737E-01 -0.41160664568E-01  0.88716048408E+00  0.88000000000E+00 0. -1.
        -11    1    4    4    0    0 -0.51859026673E-01  0.31591599055E-01  0.17229493033E-01  0.63122930299E-01  0.51100000000E-03 0.  1.
         11    1    4    4    0    0 -0.42350990463E-01  0.48219257686E-01  0.27550795080E-01  0.69842756500E-01  0.51100000000E-03 0. -1.
</event>
<event>
 8    1  0.1162192E+005  0.1043930E+01  0.7957747E-01            NaN
         13   -1    0    0    0    0  0.00000000000E+00  0.00000000000E+00  0.74505805969E-08  0.10566000000E+00  0.10566000000E+00 0. -1.
     999900   -1    0    0    0    0 -0.00000000000E+00 -0.00000000000E+00 -0.74505805969E-08  0.93827000000E+00  0.93827000000E+00 0. -1.
     999902    2    1    2    0    0 -0.21310004391E-01  0.39931717899E-02  0.90802043209E-02  0.10204244301E+01  0.10201536677E+01 0.  0.
     999903    2    3    3    0    0  0.43204720831E-01 -0.10948024294E+00 -0.48085698204E-01  0.12896141566E+00  0.21592611252E-01 0.  0.
         14    1    1    2    0    0  0.21310004391E-01 -0.39931717899E-02 -0.90802043209E-02  0.23505569948E-01  0.00000000000E+00 0. -1.
     999901    1    3    3    0    0 -0.64514725221E-01  0.11347341473E+00  0.57165902525E-01  0.89146301439E+00  0.88000000000E+00 0.  1.
        -11    1    4    4    0    0  0.28427903466E-01 -0.50962744093E-01 -0.31739907568E-01  0.66430639274E-01  0.51100000000E-03 0. -1.
         11    1    4    4    0    0  0.14776817364E-01 -0.58517498846E-01 -0.16345790636E-01  0.62530776384E-01  0.51100000000E-03 0.  1.
</event>
<event>
 8    1  0.1162192E+005  0.1043930E+01  0.7957747E-01            NaN
         13   -1    0    0    0    0  0.00000000000E+00  0.00000000000E+00  0.74505805969E-08  0.10566000000E+00  0.10566000000E+00 0.  1.
     999900   -1    0    0    0    0 -0.00000000000E+00 -0.00000000000E+00 -0.74505805969E-08  0.93827000000E+00  0.93827000000E+00 0.  1.
     999902    2    1    2    0    0  0.22069086304E-01  0.77792709133E-02 -0.24304109407E-03  0.10205287031E+01  0.10202603654E+01 0.  0.
     999903    2    3    3    0    0  0.11717337062E+00 -0.35614585816E-01 -0.48575295406E-01  0.13302441666E+00  0.18383106314E-01 0.  0.
         14    1    1    2    0    0 -0.22069086304E-01 -0.77792709133E-02  0.24304109407E-03  0.23401296870E-01  0.00000000000E+00 0.  1.
     999901    1    3    3    0    0 -0.95104284319E-01  0.43393856729E-01  0.48332254311E-01  0.88750428647E+00  0.88000000000E+00 0. -1.
        -11    1    4    4    0    0  0.96913384791E-01 -0.24644808333E-01 -0.45176332756E-01  0.10973027336E+00  0.51100000000E-03 0. -1.
         11    1    4    4    0    0  0.20259985832E-01 -0.10969777483E-01 -0.33989626497E-02  0.23294143299E-01  0.51100000000E-03 0.  1.
</event>
<event>
 7    1  0.1162192E+005  0.1043930E+01  0.7957747E-01            NaN
         13   -1    0    0    0    0  0.00000000000E+00  0.00000000000E+00  0.74505805969E-08  0.10566000000E+00  0.10566000000E+00 0. -1.
     999900   -1    0    0    0    0 -0.00000000000E+00 -0.00000000000E+00 -0.74505805969E-08  0.93827000000E+00  0.93827000000E+00 0. -1.
     999902    2    1    2    0    0  0.84404668870E-02 -0.75622278845E-02  0.20091921390E-01  0.10208624020E+01  0.10206017489E+01 0.  0.
         14    1    1    2    0    0 -0.84404668870E-02  0.75622278845E-02 -0.20091921390E-01  0.23067597990E-01  0.00000000000E+00 0.  1.
     999901    1    3    3    0    0 -0.89901102679E-01 -0.32640157617E-01 -0.58788754962E-01  0.88713229333E+00  0.88000000000E+00 0. -1.
        -11    1    3    3    0    0  0.85097299996E-01  0.26933390635E-01  0.50995577385E-01  0.10279964996E+00  0.51100000000E-03 0.  1.
         11    1    3    3    0    0  0.13244269570E-01 -0.18554609019E-02  0.27885098967E-01  0.30930458726E-01  0.51100000000E-03 0. -1.
</event>
<event>
 8    1  0.1162192E+005  0.1043930E+01  0.7957747E-01            NaN
         13   -1    0    0    0    0  0.00000000000E+00  0.00000000000E+00  0.74505805969E-08  0.10566000000E+00  0.10566000000E+00 0.  1.
     999900   -1    0    0    0    0 -0.00000000000E+00 -0.00000000000E+00 -0.74505805969E-08  0.93827000000E+00  0.93827000000E+00 0. -1.
     999902    2    1    2    0    0  0.12643968961E-01 -0.11830679269E-01  0.15581499479E-01  0.10206358366E+01  0.10203699784E+01 0.  0.
     999903    2    3    3    0    0  0.33201571817E-01 -0.99959268578E-01 -0.75986579568E-01  0.13126865910E+00  0.19060452308E-01 0.  0.
         14    1    1    2    0    0 -0.12643968961E-01  0.11830679269E-01 -0.15581499479E-01  0.23294163412E-01  0.00000000000E+00 0. -1.
     999901    1    3    3    0    0 -0.20557602857E-01  0.88128589309E-01  0.91568079047E-01  0.88936717749E+00  0.88000000000E+00 0. -1.
        -11    1    4    4    0    0  0.34070879582E-01 -0.79318930382E-01 -0.59763397845E-01  0.10499639230E+00  0.51100000000E-03 0.  1.
         11    1    4    4    0    0 -0.86930776538E-03 -0.20640338197E-01 -0.16223181723E-01  0.26272266805E-01  0.51100000000E-03 0. -1.
</event>
<event>
 8    1  0.1162192E+005  0.1043930E+01  0.7957747E-01            NaN
         13   -1    0    0    0    0  0.00000000000E+00  0.00000000000E+00  0.74505805969E-08  0.10566000000E+00  0.10566000000E+00 0.  1.
     999900   -1    0    0    0    0 -0.00000000000E+00 -0.00000000000E+00 -0.74505805969E-08  0.93827000000E+00  0.93827000000E+00 0.  1.
     999902    2    1    2    0    0  0.89694709377E-02  0.15665776643E-01  0.13058082320E-01  0.10216503797E+01  0.10214074196E+01 0.  0.
     999903    2    3    3    0    0  0.16982724603E-01  0.11624475777E+00  0.62013165316E-01  0.13453316996E+00  0.21266981486E-01 0.  0.
         14    1    1    2    0    0 -0.89694709377E-02 -0.15665776643E-01 -0.13058082320E-01  0.22279620297E-01  0.00000000000E+00 0. -1.
     999901    1    3    3    0    0 -0.80132536657E-02 -0.10057898113E+00 -0.48955082997E-01  0.88711720975E+00  0.88000000000E+00 0.  1.
        -11    1    4    4    0    0 -0.49262521513E-02  0.29767048511E-01  0.15484931590E-01  0.33917390298E-01  0.51100000000E-03 0.  1.
         11    1    4    4    0    0  0.21908976755E-01  0.86477709260E-01  0.46528233727E-01  0.10061577966E+00  0.51100000000E-03 0. -1.
</event>
<event>
 8    1  0.1162192E+005  0.1043930E+01  0.7957747E-01            NaN
         13   -1    0    0    0    0  0.00000000000E+00  0.00000000000E+00  0.74505805969E-08  0.10566000000E+00  0.10566000000E+00 0. -1.
     999900   -1    0    0    0    0 -0.00000000000E+00 -0.00000000000E+00 -0.74505805969E-08  0.93827000000E+00  0.93827000000E+00 0. -1.
     999902    2    1    2    0    0  0.17524434073E-01  0.16159971939E-01 -0.16138440484E-02  0.10200374285E+01  0.10197575695E+01 0.  0.
     999903    2    3    3    0    0  0.54782058579E-01 -0.37192758271E-01  0.11068546572E+00  0.13051745713E+00  0.19978966037E-01 0.  0.
         14    1    1    2    0    0 -0.17524434073E-01 -0.16159971939E-01  0.16138440484E-02  0.23892571550E-01  0.00000000000E+00 0.  1.
     999901    1    3    3    0    0 -0.37257624507E-01  0.53352730210E-01 -0.11229930977E+00  0.88951997132E+00  0.88000000000E+00 0. -1.
        -11    1    4    4    0    0  0.22276133301E-01 -0.18064674681E-01  0.66491684435E-01  0.72415218057E-01  0.51100000000E-03 0.  1.
         11    1    4    4    0    0  0.32505925278E-01 -0.19128083590E-01  0.44193781285E-01  0.58102239072E-01  0.51100000000E-03 0. -1.
</event>
<event>
 8    1  0.1162192E+005  0.1043930E+01  0.7957747E-01            NaN
         13   -1    0    0    0    0  0.00000000000E+00  0.00000000000E+00  0.74505805969E-08  0.10566000000E+00  0.10566000000E+00 0. -1.
     999900   -1    0    0    0    0 -0.00000000000E+00 -0.00000000000E+00 -0.74505805969E-08  0.93827000000E+00  0.93827000000E+00 0.  1.
     999902    2    1    2    0    0  0.10672965735E-01  0.76467826547E-02  0.19821532910E-01  0.10201544106E+01  0.10198773176E+01 0.  0.
     999903    2    3    3    0    0  0.63970980741E-01 -0.46803743015E-01  0.10444816672E+00  0.13281726767E+00  0.21169088853E-01 0.  0.
         14    1    1    2    0    0 -0.10672965735E-01 -0.76467826547E-02 -0.19821532910E-01  0.23775589361E-01  0.00000000000E+00 0. -1.
     999901    1    3    3    0    0 -0.53298015006E-01  0.54450525670E-01 -0.84626633806E-01  0.88733714297E+00  0.88000000000E+00 0.  1.
        -11    1    4    4    0    0  0.46195271049E-02 -0.11720702423E-02  0.17176271008E-01  0.17832531678E-01  0.51100000000E-03 0. -1.
         11    1    4    4    0    0  0.59351453636E-01 -0.45631672773E-01  0.87271895708E-01  0.11498473599E+00  0.51100000000E-03 0.  1.
</event>
<event>
 8    1  0.1162192E+005  0.1043930E+01  0.7957747E-01            NaN
         13   -1    0    0    0    0  0.00000000000E+00  0.00000000000E+00  0.74505805969E-08  0.10566000000E+00  0.10566000000E+00 0. -1.
     999900   -1    0    0    0    0 -0.00000000000E+00 -0.00000000000E+00 -0.74505805969E-08  0.93827000000E+00  0.93827000000E+00 0.  1.
     999902    2    1    2    0    0 -0.11339639671E-01 -0.11731287186E-01  0.17318726155E-01  0.10201361184E+01  0.10198585937E+01 0.  0.
     999903    2    3    3    0    0  0.11356429179E+00  0.43224145131E-01  0.39649334985E-01  0.12933886438E+00  0.19781228072E-01 0.  0.
         14    1    1    2    0    0  0.11339639671E-01  0.11731287186E-01 -0.17318726155E-01  0.23793881620E-01  0.00000000000E+00 0.  1.
     999901    1    3    3    0    0 -0.12490393146E+00 -0.54955432317E-01 -0.22330608830E-01  0.89079725400E+00  0.88000000000E+00 0.  1.
        -11    1    4    4    0    0  0.58150864176E-01  0.29378270710E-01  0.28633417133E-01  0.71166983160E-01  0.51100000000E-03 0. -1.
         11    1    4    4    0    0  0.55413427611E-01  0.13845874420E-01  0.11015917853E-01  0.58171881225E-01  0.51100000000E-03 0.  1.
</event>
<event>
 8    1  0.1162192E+005  0.1043930E+01  0.7957747E-01            NaN
         13   -1    0    0    0    0  0.00000000000E+00  0.00000000000E+00  0.74505805969E-08  0.10566000000E+00  0.10566000000E+00 0. -1.
     999900   -1    0    0    0    0 -0.00000000000E+00 -0.00000000000E+00 -0.74505805969E-08  0.93827000000E+00  0.93827000000E+00 0. -1.
     999902    2    1    2    0    0  0.21247051104E-01  0.89703325193E-03 -0.10230901315E-01  0.10203309917E+01  0.10200580471E+01 0.  0.
     999903    2    3    3    0    0  0.12704078335E+00 -0.34147297114E-01  0.31443549695E-02  0.13320117240E+00  0.20670433638E-01 0.  0.
         14    1    1    2    0    0 -0.21247051104E-01 -0.89703325193E-03  0.10230901315E-01  0.23599008263E-01  0.00000000000E+00 0. -1.
     999901    1    3    3    0    0 -0.10579373224E+00  0.35044330366E-01 -0.13375256284E-01  0.88712981934E+00  0.88000000000E+00 0.  1.
        -11    1    4    4    0    0  0.65968226583E-01 -0.24451764815E-01  0.96740190410E-02  0.71017909618E-01  0.51100000000E-03 0.  1.
         11    1    4    4    0    0  0.61072556767E-01 -0.96955322986E-02 -0.65296640715E-02  0.62183262784E-01  0.51100000000E-03 0. -1.
</event>
<event>
 8    1  0.1162192E+005  0.1043930E+01  0.7957747E-01            NaN
         13   -1    0    0    0    0  0.00000000000E+00  0.00000000000E+00  0.74505805969E-08  0.10566000000E+00  0.10566000000E+00 0.  1.
     999900   -1    0    0    0    0 -0.00000000000E+00 -0.00000000000E+00 -0.74505805969E-08  0.93827000000E+00  0.93827000000E+00 0.  1.
     999902    2    1    2    0    0  0.53586447284E-02  0.35376209035E-02  0.22920494522E-01  0.10201270820E+01  0.10198493441E+01 0.  0.
     999903    2    3    3    0    0  0.76946630375E-01  0.34305712033E-01 -0.95007615403E-01  0.12884791463E+00  0.21855715868E-01 0.  0.
         14    1    1    2    0    0 -0.53586447284E-02 -0.35376209035E-02 -0.22920494522E-01  0.23802917975E-01  0.00000000000E+00 0. -1.
     999901    1    3    3    0    0 -0.71587985646E-01 -0.30768091130E-01  0.11792810992E+00  0.89127916739E+00  0.88000000000E+00 0. -1.
        -11    1    4    4    0    0  0.16449763553E-01  0.11991858158E-01 -0.11649529660E-01  0.23460009491E-01  0.51100000000E-03 0. -1.
         11    1    4    4    0    0  0.60496866821E-01  0.22313853875E-01 -0.83358085743E-01  0.10538790514E+00  0.51100000000E-03 0.  1.
</event>
<event>
 8    1  0.1162192E+005  0.1043930E+01  0.7957747E-01            NaN
         13   -1    0    0    0    0  0.00000000000E+00  0.00000000000E+00  0.74505805969E-08  0.10566000000E+00  0.10566000000E+00 0.  1.
     999900   -1    0    0    0    0 -0.00000000000E+00 -0.00000000000E+00 -0.74505805969E-08  0.93827000000E+00  0.93827000000E+00 0. -1.
     999902    2    1    2    0    0 -0.21670476429E-01 -0.61133702633E-02 -0.52286397087E-02  0.10208146043E+01  0.10205528575E+01 0.  0.
     999903    2    3    3    0    0 -0.55999110986E-01 -0.39786579678E-01 -0.11242736247E+00  0.13300611914E+00  0.18216573298E-01 0.  0.
         14    1    1    2    0    0  0.21670476429E-01  0.61133702633E-02  0.52286397087E-02  0.23115395689E-01  0.00000000000E+00 0.  1.
     999901    1    3    3    0    0  0.34328634556E-01  0.33673209415E-01  0.10719872276E+00  0.88780848517E+00  0.88000000000E+00 0.  1.
        -11    1    4    4    0    0 -0.23986676494E-01 -0.26491897028E-01 -0.48014263543E-01  0.59856594306E-01  0.51100000000E-03 0. -1.
         11    1    4    4    0    0 -0.32012434491E-01 -0.13294682650E-01 -0.64413098927E-01  0.73149524832E-01  0.51100000000E-03 0.  1.
</event>
<event>
 8    1  0.1162192E+005  0.1043930E+01  0.7957747E-01            NaN
         13   -1    0    0    0    0  0.00000000000E+00  0.00000000000E+00  0.74505805969E-08  0.10566000000E+00  0.10566000000E+00 0.  1.
     999900   -1    0    0    0    0 -0.00000000000E+00 -0.00000000000E+00 -0.74505805969E-08  0.93827000000E+00  0.93827000000E+00 0.  1.
     999902    2    1    2    0    0  0.37700421587E-02  0.30823895692E-01 -0.15761705859E-01  0.10091053373E+01  0.10085042511E+01 0.  0.
     999903    2    3    3    0    0  0.94610574310E-01 -0.28523443147E-01  0.63125115723E-01  0.11893836442E+00  0.19920007936E-01 0.  0.
         14    1    1    2    0    0 -0.37700421587E-02 -0.30823895692E-01  0.15761705859E-01  0.34824662742E-01  0.00000000000E+00 0.  1.
     999901    1    3    3    0    0 -0.90840532151E-01  0.59347338840E-01 -0.78886821581E-01  0.89016697284E+00  0.88000000000E+00 0.  1.
        -11    1    4    4    0    0  0.69384605288E-01 -0.11968911831E-01  0.47701732195E-01  0.85048190320E-01  0.51100000000E-03 0. -1.
         11    1    4    4    0    0  0.25225969022E-01 -0.16554531316E-01  0.15423383528E-01  0.33890174102E-01  0.51100000000E-03 0.  1.
</event>
<event>
 8    1  0.1162192E+005  0.1043930E+01  0.7957747E-01            NaN
         13   -1    0    0    0    0  0.00000000000E+00  0.00000000000E+00  0.74505805969E-08  0.10566000000E+00  0.10566000000E+00 0.  1.
     999900   -1    0    0    0    0 -0.00000000000E+00 -0.00000000000E+00 -0.74505805969E-08  0.93827000000E+00  0.93827000000E+00 0.  1.
     999902    2    1    2    0    0 -0.21678000129E-01  0.90402618679E-02 -0.73455989054E-02  0.10193206553E+01  0.10190235416E+01 0.  0.
     999903    2    3    3    0    0  0.11040777527E+00 -0.33192388823E-02  0.59203850863E-01  0.12689237324E+00  0.19891813433E-01 0.  0.
         14    1    1    2    0    0  0.21678000129E-01 -0.90402618679E-02  0.73455989054E-02  0.24609344719E-01  0.00000000000E+00 0.  1.
     999901    1    3    3    0    0 -0.13208577540E+00  0.12359500750E-01 -0.66549449769E-01  0.89242828204E+00  0.88000000000E+00 0.  1.
        -11    1    4    4    0    0  0.36666146484E-01 -0.74663367946E-02  0.27874366632E-01  0.46662553716E-01  0.51100000000E-03 0.  1.
         11    1    4    4    0    0  0.73741628790E-01  0.41470979123E-02  0.31329484231E-01  0.80229819524E-01  0.51100000000E-03 0. -1.
</event>
<event>
 8    1  0.1439438E+005  0.1043930E+01  0.7957747E-01            NaN
         13   -1    0    0    0    0  0.00000000000E+00  0.00000000000E+00  0.74505805969E-08  0.10566000000E+00  0.10566000000E+00 0. -1.
     999900   -1    0    0    0    0 -0.00000000000E+00 -0.00000000000E+00 -0.74505805969E-08  0.93827000000E+00  0.93827000000E+00 0.  1.
     999902    2    1    2    0    0 -0.19239307661E-01  0.66132870380E-02  0.11990680561E-01  0.10203151118E+01  0.10200417954E+01 0.  0.
     999903    2    3    3    0    0  0.14036431369E-01  0.15203006323E-01  0.12878752723E+00  0.13193312105E+00  0.19798193211E-01 0.  0.
         14    1    1    2    0    0  0.19239307661E-01 -0.66132870380E-02 -0.11990680561E-01  0.23614888207E-01  0.00000000000E+00 0.  1.
     999901    1    3    3    0    0 -0.33275739030E-01 -0.85897192853E-02 -0.11679684666E+00  0.88838199074E+00  0.88000000000E+00 0.  1.
        -11    1    4    4    0    0  0.81133356406E-02  0.16427110828E-01  0.56662527866E-01  0.59553164236E-01  0.51100000000E-03 0.  1.
         11    1    4    4    0    0  0.59230957286E-02 -0.12241045044E-02  0.72124999359E-01  0.72379956814E-01  0.51100000000E-03 0. -1.
</event>
<event>
 8    1  0.1162192E+005  0.1043930E+01  0.7957747E-01            NaN
         13   -1    0    0    0    0  0.00000000000E+00  0.00000000000E+00  0.74505805969E-08  0.10566000000E+00  0.10566000000E+00 0. -1.
     999900   -1    0    0    0    0 -0.00000000000E+00 -0.00000000000E+00 -0.74505805969E-08  0.93827000000E+00  0.93827000000E+00 0.  1.
     999902    2    1    2    0    0  0.24544452854E-01  0.10028799129E-01 -0.19337976488E-02  0.10173452948E+01  0.10169978871E+01 0.  0.
     999903    2    3    3    0    0  0.40419364750E-01 -0.80253911141E-01  0.88850915071E-01  0.12793827623E+00  0.19982545250E-01 0.  0.
         14    1    1    2    0    0 -0.24544452854E-01 -0.10028799129E-01  0.19337976488E-02  0.26584705212E-01  0.00000000000E+00 0. -1.
     999901    1    3    3    0    0 -0.15874911896E-01  0.90282710270E-01 -0.90784712720E-01  0.88940701856E+00  0.88000000000E+00 0.  1.
        -11    1    4    4    0    0  0.11475196344E-01 -0.41841251721E-01  0.49227490346E-01  0.65619946689E-01  0.51100000000E-03 0. -1.
         11    1    4    4    0    0  0.28944168406E-01 -0.38412659420E-01  0.39623424725E-01  0.62318329538E-01  0.51100000000E-03 0.  1.
</event>
<event>
 8    1  0.1162192E+005  0.1043930E+01  0.7957747E-01            NaN
         13   -1    0    0    0    0  0.00000000000E+00  0.00000000000E+00  0.74505805969E-08  0.10566000000E+00  0.10566000000E+00 0.  1.
     999900   -1    0    0    0    0 -0.00000000000E+00 -0.00000000000E+00 -0.74505805969E-08  0.93827000000E+00  0.93827000000E+00 0.  1.
     999902    2    1    2    0    0 -0.52437837979E-04  0.19692227047E-01 -0.12574134539E-01  0.10205655951E+01  0.10202981126E+01 0.  0.
     999903    2    3    3    0    0 -0.63095611825E-01 -0.90550745334E-01 -0.65572645825E-01  0.12987103640E+00  0.19652493545E-01 0.  0.
         14    1    1    2    0    0  0.52437837979E-04 -0.19692227047E-01  0.12574134539E-01  0.23364404876E-01  0.00000000000E+00 0.  1.
     999901    1    3    3    0    0  0.63043173987E-01  0.11024297238E+00  0.52998511286E-01  0.89069455873E+00  0.88000000000E+00 0. -1.
        -11    1    4    4    0    0 -0.55090189986E-01 -0.65436263025E-01 -0.53330143551E-01  0.10080277220E+00  0.51100000000E-03 0. -1.
         11    1    4    4    0    0 -0.80054218396E-02 -0.25114482310E-01 -0.12242502274E-01  0.29068264197E-01  0.51100000000E-03 0.  1.
</event>
<event>
 8    1  0.1162192E+005  0.1043930E+01  0.7957747E-01            NaN
         13   -1    0    0    0    0  0.00000000000E+00  0.00000000000E+00  0.74505805969E-08  0.10566000000E+00  0.10566000000E+00 0. -1.
     999900   -1    0    0    0    0 -0.00000000000E+00 -0.00000000000E+00 -0.74505805969E-08  0.93827000000E+00  0.93827000000E+00 0.  1.
     999902    2    1    2    0    0  0.16913092856E-01 -0.89035707126E-02  0.14610687109E-01  0.10198717694E+01  0.10195879695E+01 0.  0.
     999903    2    3    3    0    0  0.85556550658E-01 -0.15302235394E-01  0.98575978843E-01  0.13319085869E+00  0.21644848492E-01 0.  0.
         14    1    1    2    0    0 -0.16913092856E-01  0.89035707126E-02 -0.14610687109E-01  0.24058230591E-01  0.00000000000E+00 0.  1.
     999901    1    3    3    0    0 -0.68643457802E-01  0.63986646813E-02 -0.83965291734E-01  0.88668091071E+00  0.88000000000E+00 0.  1.
        -11    1    4    4    0    0  0.84171316598E-01 -0.14511732884E-01  0.88571002982E-01  0.12304667659E+00  0.51100000000E-03 0.  1.
         11    1    4    4    0    0  0.13852340604E-02 -0.79050250948E-03  0.10004975861E-01  0.10144182106E-01  0.51100000000E-03 0. -1.
</event>
<event>
 8    1  0.1162192E+005  0.1043930E+01  0.7957747E-01            NaN
         13   -1    0    0    0    0  0.00000000000E+00  0.00000000000E+00  0.74505805969E-08  0.10566000000E+00  0.10566000000E+00 0. -1.
     999900   -1    0    0    0    0 -0.00000000000E+00 -0.00000000000E+00 -0.74505805969E-08  0.93827000000E+00  0.93827000000E+00 0.  1.
     999902    2    1    2    0    0 -0.27635644209E-01 -0.60561522462E-02 -0.36874273460E-02  0.10153992634E+01  0.10149983553E+01 0.  0.
     999903    2    3    3    0    0 -0.88957962705E-01 -0.53115327381E-01  0.73584629241E-01  0.12863776026E+00  0.19955414623E-01 0.  0.
         14    1    1    2    0    0  0.27635644209E-01  0.60561522462E-02  0.36874273460E-02  0.28530736606E-01  0.00000000000E+00 0. -1.
     999901    1    3    3    0    0  0.61322318496E-01  0.47059175135E-01 -0.77272056587E-01  0.88676150313E+00  0.88000000000E+00 0.  1.
        -11    1    4    4    0    0 -0.68542436954E-01 -0.44561302803E-01  0.66513772886E-01  0.10539505907E+00  0.51100000000E-03 0. -1.
         11    1    4    4    0    0 -0.20415525751E-01 -0.85540245778E-02  0.70708563543E-02  0.23242701193E-01  0.51100000000E-03 0.  1.
</event>
<event>
 8    1  0.1162192E+005  0.1043930E+01  0.7957747E-01            NaN
         13   -1    0    0    0    0  0.00000000000E+00  0.00000000000E+00  0.74505805969E-08  0.10566000000E+00  0.10566000000E+00 0.  1.
     999900   -1    0    0    0    0 -0.00000000000E+00 -0.00000000000E+00 -0.74505805969E-08  0.93827000000E+00  0.93827000000E+00 0.  1.
     999902    2    1    2    0    0  0.33026005877E-02 -0.23096047430E-01  0.31463518251E-02  0.10203878228E+01  0.10201162065E+01 0.  0.
     999903    2    3    3    0    0  0.49374818887E-01 -0.66291231095E-01 -0.10095650965E+00  0.13200396491E+00  0.20010743420E-01 0.  0.
         14    1    1    2    0    0 -0.33026005877E-02  0.23096047430E-01 -0.31463518251E-02  0.23542177200E-01  0.00000000000E+00 0. -1.
     999901    1    3    3    0    0 -0.46072218300E-01  0.43195183666E-01  0.10410286147E+00  0.88838385789E+00  0.88000000000E+00 0. -1.
        -11    1    4    4    0    0  0.24091132956E-01 -0.32818524140E-01 -0.65266337584E-01  0.76924600464E-01  0.51100000000E-03 0.  1.
         11    1    4    4    0    0  0.25283685931E-01 -0.33472706956E-01 -0.35690172061E-01  0.55079364448E-01  0.51100000000E-03 0. -1.
</event>
<event>
 8    1  0.1162192E+005  0.1043930E+01  0.7957747E-01            NaN
         13   -1    0    0    0    0  0.00000000000E+00  0.00000000000E+00  0.74505805969E-08  0.10566000000E+00  0.10566000000E+00 0. -1.
     999900   -1    0    0    0    0 -0.00000000000E+00 -0.00000000000E+00 -0.74505805969E-08  0.93827000000E+00  0.93827000000E+00 0. -1.
     999902    2    1    2    0    0 -0.40454053329E-02  0.18270503440E-01 -0.13901038429E-01  0.10206187266E+01  0.10203524732E+01 0.  0.
     999903    2    3    3    0    0  0.80257613111E-01  0.44565809813E-01 -0.93461028754E-01  0.13262760379E+00  0.20681429434E-01 0.  0.
         14    1    1    2    0    0  0.40454053329E-02 -0.18270503440E-01  0.13901038429E-01  0.23311273445E-01  0.00000000000E+00 0.  1.
     999901    1    3    3    0    0 -0.84303018444E-01 -0.26295306373E-01  0.79559990326E-01  0.88799112277E+00  0.88000000000E+00 0.  1.
        -11    1    4    4    0    0  0.21467114129E-01  0.28595653261E-02 -0.26649713463E-01  0.34343594040E-01  0.51100000000E-03 0. -1.
         11    1    4    4    0    0  0.58790498982E-01  0.41706244487E-01 -0.66811315291E-01  0.98284009746E-01  0.51100000000E-03 0.  1.
</event>
<event>
 8    1  0.1162192E+005  0.1043930E+01  0.7957747E-01            NaN
         13   -1    0    0    0    0  0.00000000000E+00  0.00000000000E+00  0.74505805969E-08  0.10566000000E+00  0.10566000000E+00 0.  1.
     999900   -1    0    0    0    0 -0.00000000000E+00 -0.00000000000E+00 -0.74505805969E-08  0.93827000000E+00  0.93827000000E+00 0.  1.
     999902    2    1    2    0    0 -0.20768710740E-01 -0.46952835876E-02 -0.12773128103E-01  0.10190998201E+01  0.10187972838E+01 0.  0.
     999903    2    3    3    0    0 -0.11899230107E+00  0.50139705359E-01 -0.13889218325E-01  0.13193805615E+00  0.23271925305E-01 0.  0.
         14    1    1    2    0    0  0.20768710740E-01  0.46952835876E-02  0.12773128103E-01  0.24830179929E-01  0.00000000000E+00 0.  1.
     999901    1    3    3    0    0  0.98223590328E-01 -0.54834988947E-01  0.11160902218E-02  0.88716176392E+00  0.88000000000E+00 0. -1.
        -11    1    4    4    0    0 -0.36926410199E-01  0.26972994021E-01 -0.83167099992E-02  0.46481512054E-01  0.51100000000E-03 0. -1.
         11    1    4    4    0    0 -0.82065890869E-01  0.23166711338E-01 -0.55725083257E-02  0.85456544094E-01  0.51100000000E-03 0.  1.
</event>
<event>
 8    1  0.1162192E+005  0.1043930E+01  0.7957747E-01            NaN
         13   -1    0    0    0    0  0.00000000000E+00  0.00000000000E+00  0.74505805969E-08  0.10566000000E+00  0.10566000000E+00 0. -1.
     999900   -1    0    0    0    0 -0.00000000000E+00 -0.00000000000E+00 -0.74505805969E-08  0.93827000000E+00  0.93827000000E+00 0.  1.
     999902    2    1    2    0    0 -0.87496391888E-02  0.20203814216E-01 -0.80849720301E-02  0.10204754254E+01  0.10202058502E+01 0.  0.
     999903    2    3    3    0    0  0.18352762505E-02 -0.12614634379E+00 -0.11252915357E-01  0.12832048092E+00  0.20573026693E-01 0.  0.
         14    1    1    2    0    0  0.87496391888E-02 -0.20203814216E-01  0.80849720301E-02  0.23454574554E-01  0.00000000000E+00 0.  1.
     999901    1    3    3    0    0 -0.10584915439E-01  0.14635015801E+00  0.31679433268E-02  0.89215494453E+00  0.88000000000E+00 0.  1.
        -11    1    4    4    0    0  0.11158185199E-01 -0.76166147107E-01 -0.66097668465E-02  0.77264074451E-01  0.51100000000E-03 0.  1.
         11    1    4    4    0    0 -0.93229089485E-02 -0.49980196686E-01 -0.46431485105E-02  0.51056406465E-01  0.51100000000E-03 0. -1.
</event>
<event>
 8    1  0.1162192E+005  0.1043930E+01  0.7957747E-01            NaN
         13   -1    0    0    0    0  0.00000000000E+00  0.00000000000E+00  0.74505805969E-08  0.10566000000E+00  0.10566000000E+00 0. -1.
     999900   -1    0    0    0    0 -0.00000000000E+00 -0.00000000000E+00 -0.74505805969E-08  0.93827000000E+00  0.93827000000E+00 0.  1.
     999902    2    1    2    0    0  0.18230263166E-01  0.14436916066E-01 -0.11144766869E-02  0.10206489111E+01  0.10203833548E+01 0.  0.
     999903    2    3    3    0    0 -0.94694693833E-01 -0.21412344731E-02  0.85276361069E-01  0.12908272860E+00  0.20460282012E-01 0.  0.
         14    1    1    2    0    0 -0.18230263166E-01 -0.14436916066E-01  0.11144766869E-02  0.23281088869E-01  0.00000000000E+00 0.  1.
     999901    1    3    3    0    0  0.11292495700E+00  0.16578150539E-01 -0.86390837756E-01  0.89156618253E+00  0.88000000000E+00 0.  1.
        -11    1    4    4    0    0 -0.52135131956E-01 -0.10383356938E-01  0.41191250410E-01  0.67252258822E-01  0.51100000000E-03 0. -1.
         11    1    4    4    0    0 -0.42559561878E-01  0.82421224653E-02  0.44085110659E-01  0.61830469776E-01  0.51100000000E-03 0.  1.
</event>
<event>
 8    1  0.1162192E+005  0.1043930E+01  0.7957747E-01            NaN
         13   -1    0    0    0    0  0.00000000000E+00  0.00000000000E+00  0.74505805969E-08  0.10566000000E+00  0.10566000000E+00 0. -1.
     999900   -1    0    0    0    0 -0.00000000000E+00 -0.00000000000E+00 -0.74505805969E-08  0.93827000000E+00  0.93827000000E+00 0. -1.
     999902    2    1    2    0    0 -0.16481116867E-01  0.84018125231E-02  0.15044080635E-01  0.10200858806E+01  0.10198071689E+01 0.  0.
     999903    2    3    3    0    0 -0.44901858506E-01 -0.12048665581E+00 -0.39107283301E-03  0.13010935296E+00  0.19876610996E-01 0.  0.
         14    1    1    2    0    0  0.16481116867E-01 -0.84018125231E-02 -0.15044080635E-01  0.23844119380E-01  0.00000000000E+00 0.  1.
     999901    1    3    3    0    0  0.28420741640E-01  0.12888846833E+00  0.15435153468E-01  0.88997652766E+00  0.88000000000E+00 0.  1.
        -11    1    4    4    0    0 -0.36125593486E-01 -0.11137098827E+00  0.25330444256E-02  0.11711205305E+00  0.51100000000E-03 0.  1.
         11    1    4    4    0    0 -0.87762650202E-02 -0.91156675342E-02 -0.29241172586E-02  0.12997299914E-01  0.51100000000E-03 0. -1.
</event>
<event>
 8    1  0.1162192E+005  0.1043930E+01  0.7957747E-01            NaN
         13   -1    0    0    0    0  0.00000000000E+00  0.00000000000E+00  0.74505805969E-08  0.10566000000E+00  0.10566000000E+00 0. -1.
     999900   -1    0    0    0    0 -0.00000000000E+00 -0.00000000000E+00 -0.74505805969E-08  0.93827000000E+00  0.93827000000E+00 0.  1.
     999902    2    1    2    0    0  0.37307925854E-02 -0.21462425621E-01 -0.11958193617E-01  0.10190793879E+01  0.10187763474E+01 0.  0.
     999903    2    3    3    0    0  0.82256302332E-01 -0.63418196720E-01 -0.79325612500E-01  0.13202532443E+00  0.18712737445E-01 0.  0.
         14    1    1    2    0    0 -0.37307925854E-02  0.21462425621E-01  0.11958193617E-01  0.24850612094E-01  0.00000000000E+00 0. -1.
     999901    1    3    3    0    0 -0.78525509747E-01  0.41955771099E-01  0.67367418883E-01  0.88705406348E+00  0.88000000000E+00 0. -1.
        -11    1    4    4    0    0  0.15461850010E-01 -0.22117199542E-01 -0.21197541403E-01  0.34319618352E-01  0.51100000000E-03 0.  1.
         11    1    4    4    0    0  0.66794452322E-01 -0.41300997178E-01 -0.58128071097E-01  0.97705706074E-01  0.51100000000E-03 0. -1.
</event>
<event>
 8    1  0.1162192E+005  0.1043930E+01  0.7957747E-01            NaN
         13   -1    0    0    0    0  0.00000000000E+00  0.00000000000E+00  0.74505805969E-08  0.10566000000E+00  0.10566000000E+00 0.  1.
     999900   -1    0    0    0    0 -0.00000000000E+00 -0.00000000000E+00 -0.74505805969E-08  0.93827000000E+00  0.93827000000E+00 0. -1.
     999902    2    1    2    0    0 -0.12989638739E-01 -0.13622000522E-01  0.14854552106E-01  0.10199519406E+01  0.10196700515E+01 0.  0.
     999903    2    3    3    0    0  0.57289815070E-01 -0.92631009662E-01 -0.67688340621E-01  0.12978625140E+00  0.20003318066E-01 0.  0.
         14    1    1    2    0    0  0.12989638739E-01  0.13622000522E-01 -0.14854552106E-01  0.23978059368E-01  0.00000000000E+00 0. -1.
     999901    1    3    3    0    0 -0.70279453809E-01  0.79009009140E-01  0.82542892726E-01  0.89016568924E+00  0.88000000000E+00 0.  1.
        -11    1    4    4    0    0  0.10202047401E-01 -0.29668337977E-01 -0.26251987654E-01  0.40911123503E-01  0.51100000000E-03 0.  1.
         11    1    4    4    0    0  0.47087767670E-01 -0.62962671686E-01 -0.41436352967E-01  0.88875127894E-01  0.51100000000E-03 0. -1.
</event>
<event>
 8    1  0.1162192E+005  0.1043930E+01  0.7957747E-01            NaN
         13   -1    0    0    0    0  0.00000000000E+00  0.00000000000E+00  0.74505805969E-08  0.10566000000E+00  0.10566000000E+00 0. -1.
     999900   -1    0    0    0    0 -0.00000000000E+00 -0.00000000000E+00 -0.74505805969E-08  0.93827000000E+00  0.93827000000E+00 0. -1.
     999902    2    1    2    0    0  0.21657962102E-01 -0.68574295617E-02  0.33824033770E-02  0.10209619284E+01  0.10207035450E+01 0.  0.
     999903    2    3    3    0    0  0.31594290694E-01 -0.12708326022E+00 -0.68686618361E-02  0.13267252432E+00  0.20161000980E-01 0.  0.
         14    1    1    2    0    0 -0.21657962102E-01  0.68574295617E-02 -0.33824033770E-02  0.22968071648E-01  0.00000000000E+00 0. -1.
     999901    1    3    3    0    0 -0.99363285912E-02  0.12022583066E+00  0.10251065213E-01  0.88828940404E+00  0.88000000000E+00 0. -1.
        -11    1    4    4    0    0  0.23402937427E-01 -0.58657810787E-01  0.20032968798E-02  0.63187898889E-01  0.51100000000E-03 0. -1.
         11    1    4    4    0    0  0.81913532667E-02 -0.68425449433E-01 -0.88719587159E-02  0.69484625428E-01  0.51100000000E-03 0.  1.
</event>
<event>
 8    1  0.1162192E+005  0.1043930E+01  0.7957747E-01            NaN
         13   -1    0    0    0    0  0.00000000000E+00  0.00000000000E+00  0.74505805969E-08  0.10566000000E+00  0.10566000000E+00 0.  1.
     999900   -1    0    0    0    0 -0.00000000000E+00 -0.00000000000E+00 -0.74505805969E-08  0.93827000000E+00  0.93827000000E+00 0. -1.
     999902    2    1    2    0    0  0.10363512155E-01 -0.19740330221E-01  0.72682193830E-02  0.10204798394E+01  0.10202103668E+01 0.  0.
     999903    2    3    3    0    0  0.10334327029E+00 -0.55613352079E-01  0.60011514679E-01  0.13328540501E+00  0.19772224237E-01 0.  0.
         14    1    1    2    0    0 -0.10363512155E-01  0.19740330221E-01 -0.72682193830E-02  0.23450160648E-01  0.00000000000E+00 0.  1.
     999901    1    3    3    0    0 -0.92979758139E-01  0.35873021859E-01 -0.52743295296E-01  0.88719443434E+00  0.88000000000E+00 0. -1.
        -11    1    4    4    0    0  0.38715919615E-01 -0.27174848809E-01  0.15328691148E-01  0.49725493791E-01  0.51100000000E-03 0.  1.
         11    1    4    4    0    0  0.64627350679E-01 -0.28438503270E-01  0.44682823531E-01  0.83559911224E-01  0.51100000000E-03 0. -1.
</event>
<event>
 8    1  0.1162192E+005  0.1043930E+01  0.7957747E-01            NaN
         13   -1    0    0    0    0  0.00000000000E+00  0.00000000000E+00  0.74505805969E-08  0.10566000000E+00  0.10566000000E+00 0. -1.
     999900   -1    0    0    0    0 -0.00000000000E+00 -0.00000000000E+00 -0.74505805969E-08  0.93827000000E+00  0.93827000000E+00 0.  1.
     999902    2    1    2    0    0 -0.23297988394E-01 -0.64551228695E-04  0.55407277862E-02  0.10199821380E+01  0.10197009668E+01 0.  0.
     999903    2    3    3    0    0 -0.63321634429E-02  0.12013948009E+00 -0.45321889204E-01  0.13019348097E+00  0.20559131243E-01 0.  0.
         14    1    1    2    0    0  0.23297988394E-01  0.64551228695E-04 -0.55407277862E-02  0.23947862002E-01  0.00000000000E+00 0. -1.
     999901    1    3    3    0    0 -0.16965824951E-01 -0.12020403132E+00  0.50862616990E-01  0.88978865702E+00  0.88000000000E+00 0. -1.
        -11    1    4    4    0    0 -0.60282901105E-02  0.96053861287E-02 -0.23119316511E-02  0.11584898502E-01  0.51100000000E-03 0.  1.
         11    1    4    4    0    0 -0.30387333236E-03  0.11053409396E+00 -0.43009957553E-01  0.11860858247E+00  0.51100000000E-03 0. -1.
</event>
<event>
 8    1  0.1162192E+005  0.1043930E+01  0.7957747E-01            NaN
         13   -1    0    0    0    0  0.00000000000E+00  0.00000000000E+00  0.74505805969E-08  0.10566000000E+00  0.10566000000E+00 0. -1.
     999900   -1    0    0    0    0 -0.00000000000E+00 -0.00000000000E+00 -0.74505805969E-08  0.93827000000E+00  0.93827000000E+00 0.  1.
     999902    2    1    2    0    0 -0.22630806580E-01 -0.34703570787E-02 -0.22558798590E-02  0.10209237883E+01  0.10206645363E+01 0.  0.
     999903    2    3    3    0    0  0.13158993993E-01  0.11912034213E+00 -0.47895329945E-01  0.13053491324E+00  0.19559803443E-01 0.  0.
         14    1    1    2    0    0  0.22630806580E-01  0.34703570787E-02  0.22558798590E-02  0.23006211740E-01  0.00000000000E+00 0. -1.
     999901    1    3    3    0    0 -0.35789800573E-01 -0.12259069921E+00  0.45639450086E-01  0.89038887502E+00  0.88000000000E+00 0. -1.
        -11    1    4    4    0    0 -0.48660639157E-02  0.18615539928E-01 -0.59598177988E-02  0.20149378503E-01  0.51100000000E-03 0. -1.
         11    1    4    4    0    0  0.18025057909E-01  0.10050480220E+00 -0.41935512146E-01  0.11038553474E+00  0.51100000000E-03 0.  1.
</event>
<event>
 8    1  0.1162192E+005  0.1043930E+01  0.7957747E-01            NaN
         13   -1    0    0    0    0  0.00000000000E+00  0.00000000000E+00  0.74505805969E-08  0.10566000000E+00  0.10566000000E+00 0. -1.
     999900   -1    0    0    0    0 -0.00000000000E+00 -0.00000000000E+00 -0.74505805969E-08  0.93827000000E+00  0.93827000000E+00 0. -1.
     999902    2    1    2    0    0 -0.73632931391E-02 -0.21776218768E-01 -0.69641217611E-02  0.10199108247E+01  0.10196279565E+01 0.  0.
     999903    2    3    3    0    0  0.90788359508E-02 -0.92582148193E-01 -0.92672197101E-01  0.13276388230E+00  0.19601859647E-01 0.  0.
         14    1    1    2    0    0  0.73632931391E-02  0.21776218768E-01  0.69641217611E-02  0.24019175289E-01  0.00000000000E+00 0.  1.
     999901    1    3    3    0    0 -0.16442129090E-01  0.70805929425E-01  0.85708075340E-01  0.88714694241E+00  0.88000000000E+00 0. -1.
        -11    1    4    4    0    0  0.50173139461E-02 -0.74789697882E-01 -0.83900326808E-01  0.11250865881E+00  0.51100000000E-03 0. -1.
         11    1    4    4    0    0  0.40615220046E-02 -0.17792450310E-01 -0.87718702931E-02  0.20255223486E-01  0.51100000000E-03 0.  1.
</event>
<event>
 8    1  0.1162192E+005  0.1043930E+01  0.7957747E-01            NaN
         13   -1    0    0    0    0  0.00000000000E+00  0.00000000000E+00  0.74505805969E-08  0.10566000000E+00  0.10566000000E+00 0.  1.
     999900   -1    0    0    0    0 -0.00000000000E+00 -0.00000000000E+00 -0.74505805969E-08  0.93827000000E+00  0.93827000000E+00 0.  1.
     999902    2    1    2    0    0  0.89229259263E-02 -0.16444420802E-01 -0.17192330619E-01  0.10185210682E+01  0.10182040820E+01 0.  0.
     999903    2    3    3    0    0 -0.22657320751E-01  0.21178902113E-01 -0.12520586331E+00  0.13055724594E+00  0.20168941026E-01 0.  0.
         14    1    1    2    0    0 -0.89229259263E-02  0.16444420802E-01  0.17192330619E-01  0.25408931791E-01  0.00000000000E+00 0.  1.
     999901    1    3    3    0    0  0.31580246677E-01 -0.37623322915E-01  0.10801353269E+00  0.88796382227E+00  0.88000000000E+00 0.  1.
        -11    1    4    4    0    0 -0.11754328846E-01  0.80853645777E-02 -0.93275158009E-01  0.94361292857E-01  0.51100000000E-03 0. -1.
         11    1    4    4    0    0 -0.10902991905E-01  0.13093537535E-01 -0.31930705304E-01  0.36195953087E-01  0.51100000000E-03 0.  1.
</event>
<event>
 8    1  0.1162192E+005  0.1043930E+01  0.7957747E-01            NaN
         13   -1    0    0    0    0  0.00000000000E+00  0.00000000000E+00  0.74505805969E-08  0.10566000000E+00  0.10566000000E+00 0.  1.
     999900   -1    0    0    0    0 -0.00000000000E+00 -0.00000000000E+00 -0.74505805969E-08  0.93827000000E+00  0.93827000000E+00 0. -1.
     999902    2    1    2    0    0  0.92014835198E-02 -0.14482499685E-01 -0.16578994164E-01  0.10200705544E+01  0.10197914801E+01 0.  0.
     999903    2    3    3    0    0  0.33155348864E-01  0.12286844686E+00 -0.73001510455E-03  0.12895313212E+00  0.20795311209E-01 0.  0.
         14    1    1    2    0    0 -0.92014835198E-02  0.14482499685E-01  0.16578994164E-01  0.23859445584E-01  0.00000000000E+00 0.  1.
     999901    1    3    3    0    0 -0.23953865344E-01 -0.13735094655E+00 -0.15848979060E-01  0.89111742230E+00  0.88000000000E+00 0. -1.
        -11    1    4    4    0    0  0.30569947476E-01  0.76905727219E-01  0.25363195000E-02  0.82799194473E-01  0.51100000000E-03 0. -1.
         11    1    4    4    0    0  0.25854013872E-02  0.45962719645E-01 -0.32663346045E-02  0.46153937646E-01  0.51100000000E-03 0.  1.
</event>
<event>
 8    1  0.1162192E+005  0.1043930E+01  0.7957747E-01            NaN
         13   -1    0    0    0    0  0.00000000000E+00  0.00000000000E+00  0.74505805969E-08  0.10566000000E+00  0.10566000000E+00 0.  1.
     999900   -1    0    0    0    0 -0.00000000000E+00 -0.00000000000E+00 -0.74505805969E-08  0.93827000000E+00  0.93827000000E+00 0.  1.
     999902    2    1    2    0    0 -0.14266022422E-01  0.64203818132E-02 -0.18392865402E-01  0.10197838161E+01  0.10194979124E+01 0.  0.
     999903    2    3    3    0    0 -0.88566631064E-01 -0.93337697218E-01  0.88354849180E-02  0.13061924314E+00  0.20672373474E-01 0.  0.
         14    1    1    2    0    0  0.14266022422E-01 -0.64203818132E-02  0.18392865402E-01  0.24146183882E-01  0.00000000000E+00 0.  1.
     999901    1    3    3    0    0  0.74300608643E-01  0.99758079031E-01 -0.27228350320E-01  0.88916457298E+00  0.88000000000E+00 0. -1.
        -11    1    4    4    0    0 -0.68091808102E-01 -0.79718655995E-01  0.13097493741E-01  0.10565682140E+00  0.51100000000E-03 0.  1.
         11    1    4    4    0    0 -0.20474822962E-01 -0.13619041223E-01 -0.42620088230E-02  0.24962421745E-01  0.51100000000E-03 0. -1.
</event>
<event>
 8    1  0.1162192E+005  0.1043930E+01  0.7957747E-01            NaN
         13   -1    0    0    0    0  0.00000000000E+00  0.00000000000E+00  0.74505805969E-08  0.10566000000E+00  0.10566000000E+00 0.  1.
     999900   -1    0    0    0    0 -0.00000000000E+00 -0.00000000000E+00 -0.74505805969E-08  0.93827000000E+00  0.93827000000E+00 0.  1.
     999902    2    1    2    0    0 -0.15387667322E-01  0.16664967977E-01 -0.64956347753E-02  0.10203356207E+01  0.10200627844E+01 0.  0.
     999903    2    3    3    0    0  0.35848956023E-01 -0.21898543227E-01  0.12016441677E+00  0.12895741555E+00  0.20635748702E-01 0.  0.
         14    1    1    2    0    0  0.15387667322E-01 -0.16664967977E-01  0.64956347753E-02  0.23594379298E-01  0.00000000000E+00 0. -1.
     999901    1    3    3    0    0 -0.51236623345E-01  0.38563511204E-01 -0.12666005154E+00  0.89137820515E+00  0.88000000000E+00 0.  1.
        -11    1    4    4    0    0  0.10059257014E-01 -0.10076840693E-01  0.68962607729E-01  0.70418987183E-01  0.51100000000E-03 0. -1.
         11    1    4    4    0    0  0.25789699008E-01 -0.11821702533E-01  0.51201809037E-01  0.58538428365E-01  0.51100000000E-03 0.  1.
</event>
<event>
 8    1  0.1162192E+005  0.1043930E+01  0.7957747E-01            NaN
         13   -1    0    0    0    0  0.00000000000E+00  0.00000000000E+00  0.74505805969E-08  0.10566000000E+00  0.10566000000E+00 0. -1.
     999900   -1    0    0    0    0 -0.00000000000E+00 -0.00000000000E+00 -0.74505805969E-08  0.93827000000E+00  0.93827000000E+00 0.  1.
     999902    2    1    2    0    0 -0.15880014476E-01  0.79484585494E-02 -0.16717009899E-01  0.10195412470E+01  0.10192494999E+01 0.  0.
     999903    2    3    3    0    0 -0.43270517260E-01  0.94382261351E-01  0.75869955897E-01  0.13005072532E+00  0.19405979183E-01 0.  0.
         14    1    1    2    0    0  0.15880014476E-01 -0.79484585494E-02  0.16717009899E-01  0.24388753003E-01  0.00000000000E+00 0. -1.
     999901    1    3    3    0    0  0.27390502783E-01 -0.86433802801E-01 -0.92586965796E-01  0.88949052167E+00  0.88000000000E+00 0.  1.
        -11    1    4    4    0    0 -0.21186917732E-01  0.40370326289E-01  0.21968846868E-01  0.50611659540E-01  0.51100000000E-03 0. -1.
         11    1    4    4    0    0 -0.22083599528E-01  0.54011935062E-01  0.53901109029E-01  0.79439065785E-01  0.51100000000E-03 0.  1.
</event>
<event>
 8    1  0.1162192E+005  0.1043930E+01  0.7957747E-01            NaN
         13   -1    0    0    0    0  0.00000000000E+00  0.00000000000E+00  0.74505805969E-08  0.10566000000E+00  0.10566000000E+00 0.  1.
     999900   -1    0    0    0    0 -0.00000000000E+00 -0.00000000000E+00 -0.74505805969E-08  0.93827000000E+00  0.93827000000E+00 0.  1.
     999902    2    1    2    0    0 -0.18121284448E-01  0.18797257565E-02  0.16055632773E-01  0.10196463087E+01  0.10193570999E+01 0.  0.
     999903    2    3    3    0    0  0.64103014382E-01 -0.10472822358E+00 -0.30984944693E-01  0.12816500991E+00  0.19723227420E-01 0.  0.
         14    1    1    2    0    0  0.18121284448E-01 -0.18797257565E-02 -0.16055632773E-01  0.24283691291E-01  0.00000000000E+00 0. -1.
     999901    1    3    3    0    0 -0.82224298829E-01  0.10660794934E+00  0.47040577466E-01  0.89148129880E+00  0.88000000000E+00 0. -1.
        -11    1    4    4    0    0  0.35666958583E-01 -0.62147399421E-01 -0.82183942285E-02  0.72126516026E-01  0.51100000000E-03 0. -1.
         11    1    4    4    0    0  0.28436055798E-01 -0.42580824162E-01 -0.22766550465E-01  0.56038493884E-01  0.51100000000E-03 0.  1.
</event>
<event>
 8    1  0.1162192E+005  0.1043930E+01  0.7957747E-01            NaN
         13   -1    0    0    0    0  0.00000000000E+00  0.00000000000E+00  0.74505805969E-08  0.10566000000E+00  0.10566000000E+00 0. -1.
     999900   -1    0    0    0    0 -0.00000000000E+00 -0.00000000000E+00 -0.74505805969E-08  0.93827000000E+00  0.93827000000E+00 0. -1.
     999902    2    1    2    0    0  0.49760794674E-02  0.85409784256E-02  0.21566771100E-01  0.10202058500E+01  0.10199299687E+01 0.  0.
     999903    2    3    3    0    0  0.79248249276E-01 -0.72522818042E-01  0.73686763153E-01  0.13183420033E+00  0.20265072451E-01 0.  0.
         14    1    1    2    0    0 -0.49760794674E-02 -0.85409784256E-02 -0.21566771100E-01  0.23724150038E-01  0.00000000000E+00 0.  1.
     999901    1    3    3    0    0 -0.74272169808E-01  0.81063796468E-01 -0.52119992053E-01  0.88837164964E+00  0.88000000000E+00 0. -1.
        -11    1    4    4    0    0  0.55680282612E-01 -0.47153987512E-01  0.60472383155E-01  0.94767941075E-01  0.51100000000E-03 0.  1.
         11    1    4    4    0    0  0.23567966663E-01 -0.25368830530E-01  0.13214379998E-01  0.37066259251E-01  0.51100000000E-03 0. -1.
</event>
<event>
 8    1  0.1162192E+005  0.1043930E+01  0.7957747E-01            NaN
         13   -1    0    0    0    0  0.00000000000E+00  0.00000000000E+00  0.74505805969E-08  0.10566000000E+00  0.10566000000E+00 0. -1.
     999900   -1    0    0    0    0 -0.00000000000E+00 -0.00000000000E+00 -0.74505805969E-08  0.93827000000E+00  0.93827000000E+00 0.  1.
     999902    2    1    2    0    0  0.14695008185E-02  0.15574939404E-01 -0.17402820690E-01  0.10205292236E+01  0.10202608979E+01 0.  0.
     999903    2    3    3    0    0 -0.12686471513E+00  0.21900728855E-01 -0.13115463666E-01  0.13118785601E+00  0.21539273620E-01 0.  0.
         14    1    1    2    0    0 -0.14695008185E-02 -0.15574939404E-01  0.17402820690E-01  0.23400776442E-01  0.00000000000E+00 0.  1.
     999901    1    3    3    0    0  0.12833421595E+00 -0.63257894514E-02 -0.42873570246E-02  0.88934136754E+00  0.88000000000E+00 0.  1.
        -11    1    4    4    0    0 -0.48630462918E-01  0.28639938194E-02 -0.13913306740E-01  0.50665230776E-01  0.51100000000E-03 0. -1.
         11    1    4    4    0    0 -0.78234252215E-01  0.19036735036E-01  0.79784307404E-03  0.80522625237E-01  0.51100000000E-03 0.  1.
</event>
<event>
 8    1  0.1162192E+005  0.1043930E+01  0.7957747E-01            NaN
         13   -1    0    0    0    0  0.00000000000E+00  0.00000000000E+00  0.74505805969E-08  0.10566000000E+00  0.10566000000E+00 0. -1.
     999900   -1    0    0    0    0 -0.00000000000E+00 -0.00000000000E+00 -0.74505805969E-08  0.93827000000E+00  0.93827000000E+00 0.  1.
     999902    2    1    2    0    0 -0.21552027474E-01  0.71492544686E-02 -0.79565243815E-02  0.10198694928E+01  0.10195856385E+01 0.  0.
     999903    2    3    3    0    0 -0.89725755106E-01 -0.69377518344E-01  0.62522807727E-01  0.13112243070E+00  0.20494857041E-01 0.  0.
         14    1    1    2    0    0  0.21552027474E-01 -0.71492544686E-02  0.79565243815E-02  0.24060507225E-01  0.00000000000E+00 0. -1.
     999901    1    3    3    0    0  0.68173727632E-01  0.76526772813E-01 -0.70479332108E-01  0.88874706208E+00  0.88000000000E+00 0.  1.
        -11    1    4    4    0    0 -0.71329952018E-01 -0.45928396026E-01  0.52023185585E-01  0.99519106586E-01  0.51100000000E-03 0. -1.
         11    1    4    4    0    0 -0.18395803088E-01 -0.23449122318E-01  0.10499622142E-01  0.31603324111E-01  0.51100000000E-03 0.  1.
</event>
<event>
 7    1  0.1162192E+005  0.1043930E+01  0.7957747E-01            NaN
         13   -1    0    0    0    0  0.00000000000E+00  0.00000000000E+00  0.74505805969E-08  0.10566000000E+00  0.10566000000E+00 0. -1.
     999900   -1    0    0    0    0 -0.00000000000E+00 -0.00000000000E+00 -0.74505805969E-08  0.93827000000E+00  0.93827000000E+00 0.  1.
     999903    2    1    2    0    0  0.31119562020E-01  0.40280139154E-01 -0.75759957397E-01  0.93447474965E-01  0.20048508221E-01 0.  0.
         14    1    1    2    0    0 -0.42750170993E-01 -0.49984208664E-01  0.19288829024E-01  0.68542374929E-01  0.00000000000E+00 0. -1.
     999901    1    1    2    0    0  0.11630608973E-01  0.97040695103E-02  0.56471128373E-01  0.88194015011E+00  0.88000000000E+00 0.  1.
        -11    1    3    3    0    0  0.19212798742E-01  0.27197889689E-01 -0.31750360167E-01  0.46013077823E-01  0.51100000000E-03 0. -1.
         11    1    3    3    0    0  0.11906763278E-01  0.13082249465E-01 -0.44009597230E-01  0.47434397142E-01  0.51100000000E-03 0.  1.
</event>
<event>
 8    1  0.1162192E+005  0.1043930E+01  0.7957747E-01            NaN
         13   -1    0    0    0    0  0.00000000000E+00  0.00000000000E+00  0.74505805969E-08  0.10566000000E+00  0.10566000000E+00 0. -1.
     999900   -1    0    0    0    0 -0.00000000000E+00 -0.00000000000E+00 -0.74505805969E-08  0.93827000000E+00  0.93827000000E+00 0. -1.
     999902    2    1    2    0    0  0.20880249922E-02  0.94227426709E-02 -0.21517270081E-01  0.10203473615E+01  0.10200747998E+01 0.  0.
     999903    2    3    3    0    0 -0.39408699664E-01  0.63701847469E-01  0.10300779932E+00  0.12895816910E+00  0.20214640160E-01 0.  0.
         14    1    1    2    0    0 -0.20880249922E-02 -0.94227426709E-02  0.21517270081E-01  0.23582638519E-01  0.00000000000E+00 0. -1.
     999901    1    3    3    0    0  0.41496724656E-01 -0.54279104799E-01 -0.12452506941E+00  0.89138919238E+00  0.88000000000E+00 0. -1.
        -11    1    4    4    0    0 -0.18882854908E-01  0.30767012995E-01  0.33001786729E-01  0.48913703054E-01  0.51100000000E-03 0. -1.
         11    1    4    4    0    0 -0.20525844756E-01  0.32934834475E-01  0.70006012595E-01  0.80044466051E-01  0.51100000000E-03 0.  1.
</event>
<event>
 8    1  0.1162192E+005  0.1043930E+01  0.7957747E-01            NaN
         13   -1    0    0    0    0  0.00000000000E+00  0.00000000000E+00  0.74505805969E-08  0.10566000000E+00  0.10566000000E+00 0.  1.
     999900   -1    0    0    0    0 -0.00000000000E+00 -0.00000000000E+00 -0.74505805969E-08  0.93827000000E+00  0.93827000000E+00 0. -1.
     999902    2    1    2    0    0 -0.11646621779E-01 -0.18040717343E-01  0.90981731919E-02  0.10206085927E+01  0.10203421051E+01 0.  0.
     999903    2    3    3    0    0  0.28810023697E-01  0.12274917280E+00 -0.12361861873E-01  0.12824147858E+00  0.19891815207E-01 0.  0.
         14    1    1    2    0    0  0.11646621779E-01  0.18040717343E-01 -0.90981731919E-02  0.23321407258E-01  0.00000000000E+00 0. -1.
     999901    1    3    3    0    0 -0.40456645475E-01 -0.14078989014E+00  0.21460035064E-01  0.89236711416E+00  0.88000000000E+00 0. -1.
        -11    1    4    4    0    0  0.19363533843E-01  0.10820443306E+00 -0.14005147593E-01  0.11081313576E+00  0.51100000000E-03 0.  1.
         11    1    4    4    0    0  0.94464898540E-02  0.14544739734E-01  0.16432857202E-02  0.17428342820E-01  0.51100000000E-03 0. -1.
</event>
<event>
 8    1  0.1162192E+005  0.1043930E+01  0.7957747E-01            NaN
         13   -1    0    0    0    0  0.00000000000E+00  0.00000000000E+00  0.74505805969E-08  0.10566000000E+00  0.10566000000E+00 0.  1.
     999900   -1    0    0    0    0 -0.00000000000E+00 -0.00000000000E+00 -0.74505805969E-08  0.93827000000E+00  0.93827000000E+00 0. -1.
     999902    2    1    2    0    0  0.76146666370E-02  0.12124497689E-01  0.10979049644E-01  0.10258876575E+01  0.10257289894E+01 0.  0.
     999903    2    3    3    0    0  0.23828403837E-01 -0.11216612690E+00 -0.65790419227E-01  0.13369676088E+00  0.19935188841E-01 0.  0.
         14    1    1    2    0    0 -0.76146666370E-02 -0.12124497689E-01 -0.10979049644E-01  0.18042342512E-01  0.00000000000E+00 0. -1.
     999901    1    3    3    0    0 -0.16213737200E-01  0.12429062459E+00  0.76769468871E-01  0.89219089661E+00  0.88000000000E+00 0.  1.
        -11    1    4    4    0    0  0.13266556019E-01 -0.49259785749E-01 -0.18414100452E-01  0.54238991667E-01  0.51100000000E-03 0.  1.
         11    1    4    4    0    0  0.10561847818E-01 -0.62906341156E-01 -0.47376318775E-01  0.79457769215E-01  0.51100000000E-03 0. -1.
</event>
<event>
 8    1  0.1162192E+005  0.1043930E+01  0.7957747E-01            NaN
         13   -1    0    0    0    0  0.00000000000E+00  0.00000000000E+00  0.74505805969E-08  0.10566000000E+00  0.10566000000E+00 0. -1.
     999900   -1    0    0    0    0 -0.00000000000E+00 -0.00000000000E+00 -0.74505805969E-08  0.93827000000E+00  0.93827000000E+00 0. -1.
     999902    2    1    2    0    0 -0.20635650951E-01  0.10619447732E-01 -0.37704602280E-02  0.10204178940E+01  0.10201469792E+01 0.  0.
     999903    2    3    3    0    0  0.39250032722E-01  0.10181312020E+00  0.69301630546E-01  0.13067517190E+00  0.19152233281E-01 0.  0.
         14    1    1    2    0    0  0.20635650951E-01 -0.10619447732E-01  0.37704602280E-02  0.23512106044E-01  0.00000000000E+00 0.  1.
     999901    1    3    3    0    0 -0.59885683673E-01 -0.91193672472E-01 -0.73072090774E-01  0.88974272206E+00  0.88000000000E+00 0. -1.
        -11    1    4    4    0    0  0.37960269646E-01  0.81613594739E-01  0.61310121758E-01  0.10890800278E+00  0.51100000000E-03 0.  1.
         11    1    4    4    0    0  0.12897630756E-02  0.20199525464E-01  0.79915087874E-02  0.21767169119E-01  0.51100000000E-03 0. -1.
</event>
<event>
 8    1  0.1162192E+005  0.1043930E+01  0.7957747E-01            NaN
         13   -1    0    0    0    0  0.00000000000E+00  0.00000000000E+00  0.74505805969E-08  0.10566000000E+00  0.10566000000E+00 0.  1.
     999900   -1    0    0    0    0 -0.00000000000E+00 -0.00000000000E+00 -0.74505805969E-08  0.93827000000E+00  0.93827000000E+00 0.  1.
     999902    2    1    2    0    0 -0.20522361109E-01  0.80016765781E-02  0.12652095114E-01  0.10185278417E+01  0.10182110266E+01 0.  0.
     999903    2    3    3    0    0 -0.14196117360E-01 -0.11490914217E+00  0.53359066250E-01  0.12903127164E+00  0.19905738040E-01 0.  0.
         14    1    1    2    0    0  0.20522361109E-01 -0.80016765781E-02 -0.12652095114E-01  0.25402158261E-01  0.00000000000E+00 0.  1.
     999901    1    3    3    0    0 -0.63262437484E-02  0.12291081875E+00 -0.40706971136E-01  0.88949657010E+00  0.88000000000E+00 0.  1.
        -11    1    4    4    0    0 -0.39550448490E-02 -0.82490365015E-01  0.30400497220E-01  0.88004284284E-01  0.51100000000E-03 0. -1.
         11    1    4    4    0    0 -0.10241072511E-01 -0.32418777154E-01  0.22958569030E-01  0.41026987353E-01  0.51100000000E-03 0.  1.
</event>
<event>
 8    1  0.1162192E+005  0.1043930E+01  0.7957747E-01            NaN
         13   -1    0    0    0    0  0.00000000000E+00  0.00000000000E+00  0.74505805969E-08  0.10566000000E+00  0.10566000000E+00 0.  1.
     999900   -1    0    0    0    0 -0.00000000000E+00 -0.00000000000E+00 -0.74505805969E-08  0.93827000000E+00  0.93827000000E+00 0. -1.
     999902    2    1    2    0    0 -0.21973523450E-01  0.96570338874E-03  0.86732881913E-02  0.10202869409E+01  0.10200129644E+01 0.  0.
     999903    2    3    3    0    0 -0.89000646529E-01 -0.79385421327E-01  0.54956552668E-01  0.13287999983E+00  0.20339898542E-01 0.  0.
         14    1    1    2    0    0  0.21973523450E-01 -0.96570338874E-03 -0.86732881913E-02  0.23643059107E-01  0.00000000000E+00 0. -1.
     999901    1    3    3    0    0  0.67027123078E-01  0.80351124716E-01 -0.46283264477E-01  0.88740694106E+00  0.88000000000E+00 0.  1.
        -11    1    4    4    0    0 -0.28969460713E-01 -0.21037814269E-01  0.26178399323E-01  0.44355258937E-01  0.51100000000E-03 0. -1.
         11    1    4    4    0    0 -0.60031185816E-01 -0.58347607058E-01  0.28778153345E-01  0.88524740897E-01  0.51100000000E-03 0.  1.
</event>
<event>
 8    1  0.1162192E+005  0.1043930E+01  0.7957747E-01            NaN
         13   -1    0    0    0    0  0.00000000000E+00  0.00000000000E+00  0.74505805969E-08  0.10566000000E+00  0.10566000000E+00 0. -1.
     999900   -1    0    0    0    0 -0.00000000000E+00 -0.00000000000E+00 -0.74505805969E-08  0.93827000000E+00  0.93827000000E+00 0.  1.
     999902    2    1    2    0    0  0.15665157066E-01  0.16965772937E-01  0.49935068065E-02  0.10203043845E+01  0.10200308169E+01 0.  0.
     999903    2    3    3    0    0  0.10037942549E-02 -0.61893306970E-01 -0.11136032238E+00  0.12902893684E+00  0.20385192941E-01 0.  0.
         14    1    1    2    0    0 -0.15665157066E-01 -0.16965772937E-01 -0.49935068065E-02  0.23625615495E-01  0.00000000000E+00 0. -1.
     999901    1    3    3    0    0  0.14661362812E-01  0.78859079908E-01  0.11635382919E+00  0.89127544766E+00  0.88000000000E+00 0. -1.
        -11    1    4    4    0    0 -0.73097832624E-02 -0.49566416643E-01 -0.89825206886E-01  0.10285471065E+00  0.51100000000E-03 0.  1.
         11    1    4    4    0    0  0.83135775173E-02 -0.12326890327E-01 -0.21535115493E-01  0.26174226188E-01  0.51100000000E-03 0. -1.
</event>
<event>
 8    1  0.1162192E+005  0.1043930E+01  0.7957747E-01            NaN
         13   -1    0    0    0    0  0.00000000000E+00  0.00000000000E+00  0.74505805969E-08  0.10566000000E+00  0.10566000000E+00 0. -1.
     999900   -1    0    0    0    0 -0.00000000000E+00 -0.00000000000E+00 -0.74505805969E-08  0.93827000000E+00  0.93827000000E+00 0.  1.
     999902    2    1    2    0    0 -0.16512780461E-01  0.22776915207E-02  0.18089828533E-01  0.10193311851E+01  0.10190343288E+01 0.  0.
     999903    2    3    3    0    0  0.10587661515E+00  0.44705722283E-01 -0.50679396041E-01  0.12719413948E+00  0.20037182823E-01 0.  0.
         14    1    1    2    0    0  0.16512780461E-01 -0.22776915207E-02 -0.18089828533E-01  0.24598814882E-01  0.00000000000E+00 0.  1.
     999901    1    3    3    0    0 -0.12238939561E+00 -0.42428030762E-01  0.68769224575E-01  0.89213704564E+00  0.88000000000E+00 0. -1.
        -11    1    4    4    0    0  0.85128754433E-01  0.43725517344E-01 -0.38872362091E-01  0.10329640533E+00  0.51100000000E-03 0.  1.
         11    1    4    4    0    0  0.20747860712E-01  0.98020493884E-03 -0.11807033950E-01  0.23897734151E-01  0.51100000000E-03 0. -1.
</event>
<event>
 8    1  0.1162192E+005  0.1043930E+01  0.7957747E-01            NaN
         13   -1    0    0    0    0  0.00000000000E+00  0.00000000000E+00  0.74505805969E-08  0.10566000000E+00  0.10566000000E+00 0. -1.
     999900   -1    0    0    0    0 -0.00000000000E+00 -0.00000000000E+00 -0.74505805969E-08  0.93827000000E+00  0.93827000000E+00 0.  1.
     999902    2    1    2    0    0 -0.18510624992E-01  0.13356671256E-01 -0.56361280852E-02  0.10204180914E+01  0.10201471813E+01 0.  0.
     999903    2    3    3    0    0  0.31733343675E-01 -0.40950801657E-01  0.11639537395E+00  0.12892190777E+00  0.19723132794E-01 0.  0.
         14    1    1    2    0    0  0.18510624992E-01 -0.13356671256E-01  0.56361280852E-02  0.23511908566E-01  0.00000000000E+00 0.  1.
     999901    1    3    3    0    0 -0.50243968667E-01  0.54307472913E-01 -0.12203150204E+00  0.89149618367E+00  0.88000000000E+00 0.  1.
        -11    1    4    4    0    0  0.18791628806E-02 -0.93982695393E-02  0.39050395590E-01  0.40212600515E-01  0.51100000000E-03 0.  1.
         11    1    4    4    0    0  0.29854180794E-01 -0.31552532117E-01  0.77344978365E-01  0.88709307252E-01  0.51100000000E-03 0. -1.
</event>
<event>
 8    1  0.1162192E+005  0.1043930E+01  0.7957747E-01            NaN
         13   -1    0    0    0    0  0.00000000000E+00  0.00000000000E+00  0.74505805969E-08  0.10566000000E+00  0.10566000000E+00 0. -1.
     999900   -1    0    0    0    0 -0.00000000000E+00 -0.00000000000E+00 -0.74505805969E-08  0.93827000000E+00  0.93827000000E+00 0.  1.
     999902    2    1    2    0    0 -0.73038226981E-02  0.23086770489E-01  0.29642730422E-03  0.10197136281E+01  0.10194260398E+01 0.  0.
     999903    2    3    3    0    0  0.41383135268E-01 -0.26962040631E-01  0.11762642867E+00  0.12918477818E+00  0.20327682395E-01 0.  0.
         14    1    1    2    0    0  0.73038226981E-02 -0.23086770489E-01 -0.29642730422E-03  0.24216371875E-01  0.00000000000E+00 0. -1.
     999901    1    3    3    0    0 -0.48686957966E-01  0.50048811120E-01 -0.11733000136E+00  0.89052884995E+00  0.88000000000E+00 0.  1.
        -11    1    4    4    0    0  0.57002778660E-02  0.32973893792E-02  0.15666305746E-01  0.17001770531E-01  0.51100000000E-03 0. -1.
         11    1    4    4    0    0  0.35682857402E-01 -0.30259430010E-01  0.10196012292E+00  0.11218300765E+00  0.51100000000E-03 0.  1.
</event>
<event>
 8    1  0.1162192E+005  0.1043930E+01  0.7957747E-01            NaN
         13   -1    0    0    0    0  0.00000000000E+00  0.00000000000E+00  0.74505805969E-08  0.10566000000E+00  0.10566000000E+00 0. -1.
     999900   -1    0    0    0    0 -0.00000000000E+00 -0.00000000000E+00 -0.74505805969E-08  0.93827000000E+00  0.93827000000E+00 0. -1.
     999902    2    1    2    0    0  0.23469054847E-01 -0.91462444157E-03  0.39260113627E-02  0.10201172589E+01  0.10198392889E+01 0.  0.
     999903    2    3    3    0    0 -0.22034805945E-01 -0.41275116943E-01  0.12025269131E+00  0.13038051853E+00  0.18686944502E-01 0.  0.
         14    1    1    2    0    0 -0.23469054847E-01  0.91462444157E-03 -0.39260113627E-02  0.23812741096E-01  0.00000000000E+00 0. -1.
     999901    1    3    3    0    0  0.45503860791E-01  0.40360492502E-01 -0.11632667994E+00  0.88973674037E+00  0.88000000000E+00 0. -1.
        -11    1    4    4    0    0 -0.45410057395E-02 -0.27862582934E-01  0.63466415435E-01  0.69463596725E-01  0.51100000000E-03 0. -1.
         11    1    4    4    0    0 -0.17493800205E-01 -0.13412534009E-01  0.56786275870E-01  0.60916921807E-01  0.51100000000E-03 0.  1.
</event>
<event>
 8    1  0.1162192E+005  0.1043930E+01  0.7957747E-01            NaN
         13   -1    0    0    0    0  0.00000000000E+00  0.00000000000E+00  0.74505805969E-08  0.10566000000E+00  0.10566000000E+00 0.  1.
     999900   -1    0    0    0    0 -0.00000000000E+00 -0.00000000000E+00 -0.74505805969E-08  0.93827000000E+00  0.93827000000E+00 0. -1.
     999902    2    1    2    0    0 -0.69412915427E-03 -0.60663820648E-02 -0.22776381237E-01  0.10203493650E+01  0.10200768502E+01 0.  0.
     999903    2    3    3    0    0  0.21246714026E-02 -0.12952439324E+00 -0.10701239697E-01  0.13164489484E+00  0.20851358117E-01 0.  0.
         14    1    1    2    0    0  0.69412915427E-03  0.60663820648E-02  0.22776381237E-01  0.23580635040E-01  0.00000000000E+00 0.  1.
     999901    1    3    3    0    0 -0.28188005568E-02  0.12345801117E+00 -0.12075141540E-01  0.88870447012E+00  0.88000000000E+00 0. -1.
        -11    1    4    4    0    0 -0.25211611739E-02 -0.22244085739E-02  0.14166676289E-02  0.36840623419E-02  0.51100000000E-03 0.  1.
         11    1    4    4    0    0  0.46458325765E-02 -0.12729998466E+00 -0.12117907326E-01  0.12796083250E+00  0.51100000000E-03 0. -1.
</event>
<event>
 8    1  0.1162192E+005  0.1043930E+01  0.7957747E-01            NaN
         13   -1    0    0    0    0  0.00000000000E+00  0.00000000000E+00  0.74505805969E-08  0.10566000000E+00  0.10566000000E+00 0. -1.
     999900   -1    0    0    0    0 -0.00000000000E+00 -0.00000000000E+00 -0.74505805969E-08  0.93827000000E+00  0.93827000000E+00 0. -1.
     999902    2    1    2    0    0 -0.17881099184E-01 -0.17992465288E-02 -0.15270618366E-01  0.10203468963E+01  0.10200743237E+01 0.  0.
     999903    2    3    3    0    0 -0.65188410685E-01  0.10906011422E+00 -0.32937225666E-01  0.13195515352E+00  0.13552280383E-01 0.  0.
         14    1    1    2    0    0  0.17881099184E-01  0.17992465288E-02  0.15270618366E-01  0.23583103727E-01  0.00000000000E+00 0. -1.
     999901    1    3    3    0    0  0.47307311501E-01 -0.11085936075E+00  0.17666607300E-01  0.88839174276E+00  0.88000000000E+00 0. -1.
        -11    1    4    4    0    0 -0.89636729252E-02  0.10847965183E-01  0.33893055174E-04  0.14081478994E-01  0.51100000000E-03 0. -1.
         11    1    4    4    0    0 -0.56224737760E-01  0.98212149035E-01 -0.32971118721E-01  0.11787367452E+00  0.51100000000E-03 0.  1.
</event>
<event>
 8    1  0.1162192E+005  0.1043930E+01  0.7957747E-01            NaN
         13   -1    0    0    0    0  0.00000000000E+00  0.00000000000E+00  0.74505805969E-08  0.10566000000E+00  0.10566000000E+00 0.  1.
     999900   -1    0    0    0    0 -0.00000000000E+00 -0.00000000000E+00 -0.74505805969E-08  0.93827000000E+00  0.93827000000E+00 0.  1.
     999902    2    1    2    0    0  0.14242914863E-01 -0.97457441027E-02 -0.16026023579E-01  0.10203784908E+01  0.10201066567E+01 0.  0.
     999903    2    3    3    0    0 -0.65538747943E-01  0.41768424054E-01  0.99262497526E-01  0.12779221135E+00  0.20925514004E-01 0.  0.
         14    1    1    2    0    0 -0.14242914863E-01  0.97457441027E-02  0.16026023579E-01  0.23551509159E-01  0.00000000000E+00 0.  1.
     999901    1    3    3    0    0  0.79781662806E-01 -0.51514168156E-01 -0.11528852110E+00  0.89258627949E+00  0.88000000000E+00 0.  1.
        -11    1    4    4    0    0 -0.64436363615E-01  0.42270261502E-01  0.90216375680E-01  0.11865106626E+00  0.51100000000E-03 0. -1.
         11    1    4    4    0    0 -0.11023843278E-02 -0.50183744835E-03  0.90461218453E-02  0.91411450853E-02  0.51100000000E-03 0.  1.
</event>
<event>
 8    1  0.1162192E+005  0.1043930E+01  0.7957747E-01            NaN
         13   -1    0    0    0    0  0.00000000000E+00  0.00000000000E+00  0.74505805969E-08  0.10566000000E+00  0.10566000000E+00 0. -1.
     999900   -1    0    0    0    0 -0.00000000000E+00 -0.00000000000E+00 -0.74505805969E-08  0.93827000000E+00  0.93827000000E+00 0.  1.
     999902    2    1    2    0    0  0.17417344796E-02  0.23870789592E-01  0.53745499513E-02  0.10193997325E+01  0.10191045484E+01 0.  0.
     999903    2    3    3    0    0 -0.10582298013E+00  0.67887336977E-01 -0.30643147250E-01  0.13102768278E+00  0.20544038933E-01 0.  0.
         14    1    1    2    0    0 -0.17417344796E-02 -0.23870789592E-01 -0.53745499513E-02  0.24530267466E-01  0.00000000000E+00 0.  1.
     999901    1    3    3    0    0  0.10756471461E+00 -0.44016547384E-01  0.36017697201E-01  0.88837204975E+00  0.88000000000E+00 0. -1.
        -11    1    4    4    0    0 -0.36903407551E-01  0.12504170380E-01 -0.86177476021E-02  0.39909177648E-01  0.51100000000E-03 0. -1.
         11    1    4    4    0    0 -0.68919572580E-01  0.55383166597E-01 -0.22025399648E-01  0.91118505132E-01  0.51100000000E-03 0.  1.
</event>
<event>
 8    1  0.1226716E+005  0.1043930E+01  0.7957747E-01            NaN
         13   -1    0    0    0    0  0.00000000000E+00  0.00000000000E+00  0.74505805969E-08  0.10566000000E+00  0.10566000000E+00 0.  1.
     999900   -1    0    0    0    0 -0.00000000000E+00 -0.00000000000E+00 -0.74505805969E-08  0.93827000000E+00  0.93827000000E+00 0. -1.
     999902    2    1    2    0    0  0.92240748733E-02 -0.29231403829E-01 -0.61424247634E-02  0.10126683956E+01  0.10121857495E+01 0.  0.
     999903    2    3    3    0    0  0.52091490919E-01 -0.46643221761E-01 -0.10301315295E+00  0.12614443951E+00  0.20287838138E-01 0.  0.
         14    1    1    2    0    0 -0.92240748733E-02  0.29231403829E-01  0.61424247634E-02  0.31261604390E-01  0.00000000000E+00 0. -1.
     999901    1    3    3    0    0 -0.42867416045E-01  0.17411817932E-01  0.96870728185E-01  0.88652395610E+00  0.88000000000E+00 0.  1.
        -11    1    4    4    0    0  0.18223075785E-01 -0.29798019153E-01 -0.47268920527E-01  0.58775967923E-01  0.51100000000E-03 0.  1.
         11    1    4    4    0    0  0.33868415133E-01 -0.16845202608E-01 -0.55744232421E-01  0.67368471585E-01  0.51100000000E-03 0. -1.
</event>
<event>
 8    1  0.1162192E+005  0.1043930E+01  0.7957747E-01            NaN
         13   -1    0    0    0    0  0.00000000000E+00  0.00000000000E+00  0.74505805969E-08  0.10566000000E+00  0.10566000000E+00 0. -1.
     999900   -1    0    0    0    0 -0.00000000000E+00 -0.00000000000E+00 -0.74505805969E-08  0.93827000000E+00  0.93827000000E+00 0. -1.
     999902    2    1    2    0    0 -0.10288391095E-01 -0.22608893691E-01 -0.93900877186E-02  0.10173746463E+01  0.10170280154E+01 0.  0.
     999903    2    3    3    0    0  0.89856905529E-01  0.83887037024E-01 -0.10173692816E-01  0.12531462712E+00  0.22112288295E-01 0.  0.
         14    1    1    2    0    0  0.10288391095E-01  0.22608893691E-01  0.93900877186E-02  0.26555353746E-01  0.00000000000E+00 0. -1.
     999901    1    3    3    0    0 -0.10014529662E+00 -0.10649593071E+00  0.78360509788E-03  0.89206001913E+00  0.88000000000E+00 0.  1.
        -11    1    4    4    0    0  0.26096257262E-01  0.37411669524E-01 -0.84503763745E-02  0.46393077517E-01  0.51100000000E-03 0.  1.
         11    1    4    4    0    0  0.63760648267E-01  0.46475367500E-01 -0.17233164420E-02  0.78921549606E-01  0.51100000000E-03 0. -1.
</event>
<event>
 8    1  0.1162192E+005  0.1043930E+01  0.7957747E-01            NaN
         13   -1    0    0    0    0  0.00000000000E+00  0.00000000000E+00  0.74505805969E-08  0.10566000000E+00  0.10566000000E+00 0.  1.
     999900   -1    0    0    0    0 -0.00000000000E+00 -0.00000000000E+00 -0.74505805969E-08  0.93827000000E+00  0.93827000000E+00 0.  1.
     999902    2    1    2    0    0 -0.71140315641E-02 -0.15492385996E-01 -0.16950796784E-01  0.10198893473E+01  0.10196059669E+01 0.  0.
     999903    2    3    3    0    0  0.84999588579E-01 -0.95884897635E-01 -0.21604670880E-01  0.13142464151E+00  0.19668018214E-01 0.  0.
         14    1    1    2    0    0  0.71140315641E-02  0.15492385996E-01  0.16950796784E-01  0.24040652665E-01  0.00000000000E+00 0. -1.
     999901    1    3    3    0    0 -0.92113620143E-01  0.80392511639E-01  0.46538740952E-02  0.88846470582E+00  0.88000000000E+00 0.  1.
        -11    1    4    4    0    0  0.22925065046E-01 -0.25972559118E-01 -0.14822949449E-01  0.37684391807E-01  0.51100000000E-03 0. -1.
         11    1    4    4    0    0  0.62074523533E-01 -0.69912338516E-01 -0.67817214308E-02  0.93740249708E-01  0.51100000000E-03 0.  1.
</event>
<event>
 8    1  0.1162192E+005  0.1043930E+01  0.7957747E-01            NaN
         13   -1    0    0    0    0  0.00000000000E+00  0.00000000000E+00  0.74505805969E-08  0.10566000000E+00  0.10566000000E+00 0.  1.
     999900   -1    0    0    0    0 -0.00000000000E+00 -0.00000000000E+00 -0.74505805969E-08  0.93827000000E+00  0.93827000000E+00 0.  1.
     999902    2    1    2    0    0  0.15959711074E-01  0.97120783046E-02  0.14589051127E-01  0.10202260498E+01  0.10199506436E+01 0.  0.
     999903    2    3    3    0    0 -0.34642288273E-01  0.12083940282E+00  0.33506517245E-01  0.13159355257E+00  0.19797145530E-01 0.  0.
         14    1    1    2    0    0 -0.15959711074E-01 -0.97120783046E-02 -0.14589051127E-01  0.23703950206E-01  0.00000000000E+00 0. -1.
     999901    1    3    3    0    0  0.50601999347E-01 -0.11112732451E+00 -0.18917466118E-01  0.88863249722E+00  0.88000000000E+00 0.  1.
        -11    1    4    4    0    0 -0.35596201175E-01  0.10040072199E+00  0.24940814522E-01  0.10940612352E+00  0.51100000000E-03 0. -1.
         11    1    4    4    0    0  0.95391290149E-03  0.20438680825E-01  0.85657027233E-02  0.22187429050E-01  0.51100000000E-03 0.  1.
</event>
<event>
 8    1  0.1162192E+005  0.1043930E+01  0.7957747E-01            NaN
         13   -1    0    0    0    0  0.00000000000E+00  0.00000000000E+00  0.74505805969E-08  0.10566000000E+00  0.10566000000E+00 0.  1.
     999900   -1    0    0    0    0 -0.00000000000E+00 -0.00000000000E+00 -0.74505805969E-08  0.93827000000E+00  0.93827000000E+00 0.  1.
     999902    2    1    2    0    0 -0.14411791446E-01 -0.18618899494E-01 -0.14518662903E-02  0.10203403610E+01  0.10200676356E+01 0.  0.
     999903    2    3    3    0    0  0.60935166929E-02 -0.49953226770E-02  0.12856997647E+00  0.13044612625E+00  0.20588074431E-01 0.  0.
         14    1    1    2    0    0  0.14411791446E-01  0.18618899494E-01  0.14518662903E-02  0.23589638971E-01  0.00000000000E+00 0. -1.
     999901    1    3    3    0    0 -0.20505308138E-01 -0.13623576817E-01 -0.13002184276E+00  0.88989423478E+00  0.88000000000E+00 0.  1.
        -11    1    4    4    0    0 -0.71777702477E-02  0.63385272302E-04  0.59164041015E-01  0.59600077799E-01  0.51100000000E-03 0. -1.
         11    1    4    4    0    0  0.13271286941E-01 -0.50587079493E-02  0.69405935454E-01  0.70846048446E-01  0.51100000000E-03 0.  1.
</event>
<event>
 8    1  0.1162192E+005  0.1043930E+01  0.7957747E-01            NaN
         13   -1    0    0    0    0  0.00000000000E+00  0.00000000000E+00  0.74505805969E-08  0.10566000000E+00  0.10566000000E+00 0. -1.
     999900   -1    0    0    0    0 -0.00000000000E+00 -0.00000000000E+00 -0.74505805969E-08  0.93827000000E+00  0.93827000000E+00 0. -1.
     999902    2    1    2    0    0 -0.22708964636E-01  0.34314558524E-02  0.20226768758E-02  0.10208743459E+01  0.10206139657E+01 0.  0.
     999903    2    3    3    0    0 -0.80192345569E-01 -0.66770612331E-01  0.79775734696E-01  0.13279878185E+00  0.19550489934E-01 0.  0.
         14    1    1    2    0    0  0.22708964636E-01 -0.34314558524E-02 -0.20226768758E-02  0.23055654097E-01  0.00000000000E+00 0.  1.
     999901    1    3    3    0    0  0.57483380932E-01  0.70202068184E-01 -0.77753057820E-01  0.88807556405E+00  0.88000000000E+00 0. -1.
        -11    1    4    4    0    0 -0.67308977299E-01 -0.52121607220E-01  0.55387148828E-01  0.10156356502E+00  0.51100000000E-03 0. -1.
         11    1    4    4    0    0 -0.12883368270E-01 -0.14649005112E-01  0.24388585868E-01  0.31235216829E-01  0.51100000000E-03 0.  1.
</event>
<event>
 8    1  0.1162192E+005  0.1043930E+01  0.7957747E-01            NaN
         13   -1    0    0    0    0  0.00000000000E+00  0.00000000000E+00  0.74505805969E-08  0.10566000000E+00  0.10566000000E+00 0.  1.
     999900   -1    0    0    0    0 -0.00000000000E+00 -0.00000000000E+00 -0.74505805969E-08  0.93827000000E+00  0.93827000000E+00 0. -1.
     999902    2    1    2    0    0 -0.11322692247E-01 -0.19316282479E-01  0.90686832491E-02  0.10197729484E+01  0.10194867841E+01 0.  0.
     999903    2    3    3    0    0 -0.11111677340E+00  0.33389548100E-01  0.57752623467E-01  0.13123094639E+00  0.20600886394E-01 0.  0.
         14    1    1    2    0    0  0.11322692247E-01  0.19316282479E-01 -0.90686832491E-02  0.24157051650E-01  0.00000000000E+00 0.  1.
     999901    1    3    3    0    0  0.99794081153E-01 -0.52705830579E-01 -0.48683940218E-01  0.88854200196E+00  0.88000000000E+00 0. -1.
        -11    1    4    4    0    0 -0.10124682365E+00  0.23848811168E-01  0.49393693927E-01  0.11515069784E+00  0.51100000000E-03 0. -1.
         11    1    4    4    0    0 -0.98699497506E-02  0.95407369316E-02  0.83589295395E-02  0.16080248547E-01  0.51100000000E-03 0.  1.
</event>
<event>
 8    1  0.1162192E+005  0.1043930E+01  0.7957747E-01            NaN
         13   -1    0    0    0    0  0.00000000000E+00  0.00000000000E+00  0.74505805969E-08  0.10566000000E+00  0.10566000000E+00 0.  1.
     999900   -1    0    0    0    0 -0.00000000000E+00 -0.00000000000E+00 -0.74505805969E-08  0.93827000000E+00  0.93827000000E+00 0. -1.
     999902    2    1    2    0    0 -0.83357643337E-02  0.63889150850E-02  0.20647291172E-01  0.10207650732E+01  0.10205021905E+01 0.  0.
     999903    2    3    3    0    0 -0.86988770274E-01 -0.30769788629E-01  0.94408491257E-01  0.13340506772E+00  0.19238576519E-01 0.  0.
         14    1    1    2    0    0  0.83357643337E-02 -0.63889150850E-02 -0.20647291172E-01  0.23164926845E-01  0.00000000000E+00 0. -1.
     999901    1    3    3    0    0  0.78653005940E-01  0.37158703714E-01 -0.73761200085E-01  0.88736000543E+00  0.88000000000E+00 0. -1.
        -11    1    4    4    0    0 -0.19375919414E-01 -0.14880879759E-01  0.29874459759E-01  0.38595482928E-01  0.51100000000E-03 0. -1.
         11    1    4    4    0    0 -0.67612850859E-01 -0.15888908870E-01  0.64534031498E-01  0.94809584794E-01  0.51100000000E-03 0.  1.
</event>
<event>
 8    1  0.1162192E+005  0.1043930E+01  0.7957747E-01            NaN
         13   -1    0    0    0    0  0.00000000000E+00  0.00000000000E+00  0.74505805969E-08  0.10566000000E+00  0.10566000000E+00 0.  1.
     999900   -1    0    0    0    0 -0.00000000000E+00 -0.00000000000E+00 -0.74505805969E-08  0.93827000000E+00  0.93827000000E+00 0. -1.
     999902    2    1    2    0    0  0.61114993031E-02  0.20370592651E-03 -0.25135942959E-01  0.10180609539E+01  0.10177322331E+01 0.  0.
     999903    2    3    3    0    0 -0.11036540050E+00 -0.30142930633E-01  0.50222128441E-01  0.12667628635E+00  0.20868671387E-01 0.  0.
         14    1    1    2    0    0 -0.61114993031E-02 -0.20370592651E-03  0.25135942959E-01  0.25869046142E-01  0.00000000000E+00 0.  1.
     999901    1    3    3    0    0  0.11647689980E+00  0.30346636560E-01 -0.75358071400E-01  0.89138466750E+00  0.88000000000E+00 0. -1.
        -11    1    4    4    0    0 -0.42653510920E-01 -0.12904573962E-02  0.19407214769E-01  0.46881642251E-01  0.51100000000E-03 0. -1.
         11    1    4    4    0    0 -0.67711889576E-01 -0.28852473237E-01  0.30814913672E-01  0.79794644103E-01  0.51100000000E-03 0.  1.
</event>
<event>
 8    1  0.1162192E+005  0.1043930E+01  0.7957747E-01            NaN
         13   -1    0    0    0    0  0.00000000000E+00  0.00000000000E+00  0.74505805969E-08  0.10566000000E+00  0.10566000000E+00 0.  1.
     999900   -1    0    0    0    0 -0.00000000000E+00 -0.00000000000E+00 -0.74505805969E-08  0.93827000000E+00  0.93827000000E+00 0. -1.
     999902    2    1    2    0    0 -0.14979790246E-01 -0.13163947888E-01  0.12808821451E-01  0.10202287438E+01  0.10199534009E+01 0.  0.
     999903    2    3    3    0    0 -0.96451316664E-01 -0.37746801168E-01 -0.78416970076E-01  0.13142951373E+00  0.19920301139E-01 0.  0.
         14    1    1    2    0    0  0.14979790246E-01  0.13163947888E-01 -0.12808821451E-01  0.23701256227E-01  0.00000000000E+00 0. -1.
     999901    1    3    3    0    0  0.81471526419E-01  0.24582853280E-01  0.91225791527E-01  0.88879923005E+00  0.88000000000E+00 0.  1.
        -11    1    4    4    0    0 -0.43813875231E-01 -0.96776831627E-02 -0.25076938221E-01  0.51404544212E-01  0.51100000000E-03 0. -1.
         11    1    4    4    0    0 -0.52637441434E-01 -0.28069118006E-01 -0.53340031855E-01  0.80024969513E-01  0.51100000000E-03 0.  1.
</event>
<event>
 8    1  0.1162192E+005  0.1043930E+01  0.7957747E-01            NaN
         13   -1    0    0    0    0  0.00000000000E+00  0.00000000000E+00  0.74505805969E-08  0.10566000000E+00  0.10566000000E+00 0. -1.
     999900   -1    0    0    0    0 -0.00000000000E+00 -0.00000000000E+00 -0.74505805969E-08  0.93827000000E+00  0.93827000000E+00 0.  1.
     999902    2    1    2    0    0  0.10961039299E-01  0.87288173526E-02  0.19208238483E-01  0.10201541076E+01  0.10198770074E+01 0.  0.
     999903    2    3    3    0    0 -0.63117632925E-01  0.11270377356E+00  0.77433221285E-02  0.13086794132E+00  0.19505970020E-01 0.  0.
         14    1    1    2    0    0 -0.10961039299E-01 -0.87288173526E-02 -0.19208238483E-01  0.23775892423E-01  0.00000000000E+00 0.  1.
     999901    1    3    3    0    0  0.74078672224E-01 -0.10397495621E+00  0.11464916355E-01  0.88928616626E+00  0.88000000000E+00 0. -1.
        -11    1    4    4    0    0 -0.98378022542E-02  0.96955652526E-02  0.54924808521E-02  0.14873291689E-01  0.51100000000E-03 0. -1.
         11    1    4    4    0    0 -0.53279830671E-01  0.10300820831E+00  0.22508412764E-02  0.11599464963E+00  0.51100000000E-03 0.  1.
</event>
<event>
 8    1  0.1162192E+005  0.1043930E+01  0.7957747E-01            NaN
         13   -1    0    0    0    0  0.00000000000E+00  0.00000000000E+00  0.74505805969E-08  0.10566000000E+00  0.10566000000E+00 0. -1.
     999900   -1    0    0    0    0 -0.00000000000E+00 -0.00000000000E+00 -0.74505805969E-08  0.93827000000E+00  0.93827000000E+00 0.  1.
     999902    2    1    2    0    0 -0.80948216423E-02  0.19860649842E-01  0.84274641443E-02  0.10208866994E+01  0.10206266013E+01 0.  0.
     999903    2    3    3    0    0  0.61046076509E-01  0.17586503716E-01  0.11332459487E+00  0.13196091873E+00  0.23136804029E-01 0.  0.
         14    1    1    2    0    0  0.80948216423E-02 -0.19860649842E-01 -0.84274641443E-02  0.23043300577E-01  0.00000000000E+00 0.  1.
     999901    1    3    3    0    0 -0.69140898151E-01  0.22741461262E-02 -0.10489713073E+00  0.88892578069E+00  0.88000000000E+00 0.  1.
        -11    1    4    4    0    0  0.42435027174E-01  0.17292313739E-01  0.60132067584E-01  0.75603454409E-01  0.51100000000E-03 0.  1.
         11    1    4    4    0    0  0.18611049336E-01  0.29418997698E-03  0.53192527286E-01  0.56357464326E-01  0.51100000000E-03 0. -1.
</event>
<event>
 8    1  0.1162192E+005  0.1043930E+01  0.7957747E-01            NaN
         13   -1    0    0    0    0  0.00000000000E+00  0.00000000000E+00  0.74505805969E-08  0.10566000000E+00  0.10566000000E+00 0.  1.
     999900   -1    0    0    0    0 -0.00000000000E+00 -0.00000000000E+00 -0.74505805969E-08  0.93827000000E+00  0.93827000000E+00 0. -1.
     999902    2    1    2    0    0  0.10243073021E-01 -0.21022023646E-01  0.31224424049E-03  0.10205431764E+01  0.10202751743E+01 0.  0.
     999903    2    3    3    0    0  0.12985413961E+00  0.70058340573E-02  0.87405635679E-02  0.13196937267E+00  0.20696342302E-01 0.  0.
         14    1    1    2    0    0 -0.10243073021E-01  0.21022023646E-01 -0.31224424049E-03  0.23386823631E-01  0.00000000000E+00 0. -1.
     999901    1    3    3    0    0 -0.11961106659E+00 -0.28027857703E-01 -0.84283193274E-02  0.88857380370E+00  0.88000000000E+00 0.  1.
        -11    1    4    4    0    0  0.10888627254E-01 -0.22110951873E-02 -0.43232363063E-02  0.11933257668E-01  0.51100000000E-03 0.  1.
         11    1    4    4    0    0  0.11896551236E+00  0.92169292446E-02  0.13063799874E-01  0.12003611500E+00  0.51100000000E-03 0. -1.
</event>
<event>
 8    1  0.1162192E+005  0.1043930E+01  0.7957747E-01            NaN
         13   -1    0    0    0    0  0.00000000000E+00  0.00000000000E+00  0.74505805969E-08  0.10566000000E+00  0.10566000000E+00 0. -1.
     999900   -1    0    0    0    0 -0.00000000000E+00 -0.00000000000E+00 -0.74505805969E-08  0.93827000000E+00  0.93827000000E+00 0. -1.
     999902    2    1    2    0    0 -0.11906666661E-01 -0.12201323619E-01  0.16270325269E-01  0.10203638273E+01  0.10200916506E+01 0.  0.
     999903    2    3    3    0    0 -0.12823751380E-01  0.10543437632E+00 -0.69131371396E-01  0.12843756989E+00  0.20885558152E-01 0.  0.
         14    1    1    2    0    0  0.11906666661E-01  0.12201323619E-01 -0.16270325269E-01  0.23566172651E-01  0.00000000000E+00 0.  1.
     999901    1    3    3    0    0  0.91708471857E-03 -0.11763569994E+00  0.85401696665E-01  0.89192625746E+00  0.88000000000E+00 0. -1.
        -11    1    4    4    0    0  0.45575164519E-02  0.42919250562E-01 -0.23882057031E-01  0.49329978655E-01  0.51100000000E-03 0.  1.
         11    1    4    4    0    0 -0.17381267832E-01  0.62515125759E-01 -0.45249314365E-01  0.79107591239E-01  0.51100000000E-03 0. -1.
</event>
<event>
 8    1  0.1162192E+005  0.1043930E+01  0.7957747E-01            NaN
         13   -1    0    0    0    0  0.00000000000E+00  0.00000000000E+00  0.74505805969E-08  0.10566000000E+00  0.10566000000E+00 0.  1.
     999900   -1    0    0    0    0 -0.00000000000E+00 -0.00000000000E+00 -0.74505805969E-08  0.93827000000E+00  0.93827000000E+00 0. -1.
     999902    2    1    2    0    0 -0.58972338647E-02 -0.19568559029E-01  0.11405164840E-01  0.10205252215E+01  0.10202568030E+01 0.  0.
     999903    2    3    3    0    0 -0.23039241195E-01  0.11898845713E+00  0.40144772775E-01  0.12905572671E+00  0.18833965372E-01 0.  0.
         14    1    1    2    0    0  0.58972338647E-02  0.19568559029E-01 -0.11405164840E-01  0.23404778460E-01  0.00000000000E+00 0. -1.
     999901    1    3    3    0    0  0.17142007330E-01 -0.13855701616E+00 -0.28739607935E-01  0.89146949483E+00  0.88000000000E+00 0.  1.
        -11    1    4    4    0    0 -0.61417377901E-02  0.61378771676E-01  0.12423098980E-01  0.62925901383E-01  0.51100000000E-03 0. -1.
         11    1    4    4    0    0 -0.16897503405E-01  0.57609685453E-01  0.27721673796E-01  0.66129825331E-01  0.51100000000E-03 0.  1.
</event>
<event>
 8    1  0.1162192E+005  0.1043930E+01  0.7957747E-01            NaN
         13   -1    0    0    0    0  0.00000000000E+00  0.00000000000E+00  0.74505805969E-08  0.10566000000E+00  0.10566000000E+00 0.  1.
     999900   -1    0    0    0    0 -0.00000000000E+00 -0.00000000000E+00 -0.74505805969E-08  0.93827000000E+00  0.93827000000E+00 0. -1.
     999902    2    1    2    0    0  0.13847758030E-01 -0.19181800804E-01  0.47664099334E-02  0.10197966093E+01  0.10195110121E+01 0.  0.
     999903    2    3    3    0    0  0.78148160310E-01  0.83547414542E-01 -0.57343846189E-01  0.12932172622E+00  0.18667799585E-01 0.  0.
         14    1    1    2    0    0 -0.13847758030E-01  0.19181800804E-01 -0.47664099334E-02  0.24133390731E-01  0.00000000000E+00 0. -1.
     999901    1    3    3    0    0 -0.64300402280E-01 -0.10272921535E+00  0.62110256123E-01  0.89047488305E+00  0.88000000000E+00 0.  1.
        -11    1    4    4    0    0  0.64291116337E-01  0.69619015558E-01 -0.54892902960E-01  0.10951550979E+00  0.51100000000E-03 0.  1.
         11    1    4    4    0    0  0.13857043972E-01  0.13928398983E-01 -0.24509432296E-02  0.19806216439E-01  0.51100000000E-03 0. -1.
</event>
<event>
 8    1  0.1162192E+005  0.1043930E+01  0.7957747E-01            NaN
         13   -1    0    0    0    0  0.00000000000E+00  0.00000000000E+00  0.74505805969E-08  0.10566000000E+00  0.10566000000E+00 0.  1.
     999900   -1    0    0    0    0 -0.00000000000E+00 -0.00000000000E+00 -0.74505805969E-08  0.93827000000E+00  0.93827000000E+00 0. -1.
     999902    2    1    2    0    0  0.21227904353E-01 -0.63928025207E-02 -0.53408660796E-02  0.10211261254E+01  0.10208714646E+01 0.  0.
     999903    2    3    3    0    0 -0.10117708311E+00 -0.61489558851E-01 -0.49140406973E-01  0.12987025118E+00  0.20826294660E-01 0.  0.
         14    1    1    2    0    0 -0.21227904353E-01  0.63928025207E-02  0.53408660796E-02  0.22803874622E-01  0.00000000000E+00 0.  1.
     999901    1    3    3    0    0  0.12240498746E+00  0.55096756331E-01  0.43799540894E-01  0.89125587420E+00  0.88000000000E+00 0. -1.
        -11    1    4    4    0    0 -0.39297231880E-01 -0.15704198319E-01 -0.25193337816E-01  0.49253016858E-01  0.51100000000E-03 0. -1.
         11    1    4    4    0    0 -0.61879851229E-01 -0.45785360532E-01 -0.23947069158E-01  0.80617234320E-01  0.51100000000E-03 0.  1.
</event>
<event>
 8    1  0.1162192E+005  0.1043930E+01  0.7957747E-01            NaN
         13   -1    0    0    0    0  0.00000000000E+00  0.00000000000E+00  0.74505805969E-08  0.10566000000E+00  0.10566000000E+00 0.  1.
     999900   -1    0    0    0    0 -0.00000000000E+00 -0.00000000000E+00 -0.74505805969E-08  0.93827000000E+00  0.93827000000E+00 0. -1.
     999902    2    1    2    0    0 -0.10704115796E-01  0.14035097180E-01 -0.15481668996E-01  0.10204514114E+01  0.10201812775E+01 0.  0.
     999903    2    3    3    0    0  0.80145264428E-01 -0.73895193898E-01  0.63535172211E-01  0.12791065201E+00  0.20991753101E-01 0.  0.
         14    1    1    2    0    0  0.10704115796E-01 -0.14035097180E-01  0.15481668996E-01  0.23478588602E-01  0.00000000000E+00 0.  1.
     999901    1    3    3    0    0 -0.90849380224E-01  0.87930291078E-01 -0.79016841206E-01  0.89254075939E+00  0.88000000000E+00 0. -1.
        -11    1    4    4    0    0  0.35441957715E-01 -0.23175782919E-01  0.33175782887E-01  0.53797239443E-01  0.51100000000E-03 0.  1.
         11    1    4    4    0    0  0.44703306713E-01 -0.50719410978E-01  0.30359389324E-01  0.74113412566E-01  0.51100000000E-03 0. -1.
</event>
<event>
 8    1  0.1162192E+005  0.1043930E+01  0.7957747E-01            NaN
         13   -1    0    0    0    0  0.00000000000E+00  0.00000000000E+00  0.74505805969E-08  0.10566000000E+00  0.10566000000E+00 0.  1.
     999900   -1    0    0    0    0 -0.00000000000E+00 -0.00000000000E+00 -0.74505805969E-08  0.93827000000E+00  0.93827000000E+00 0.  1.
     999902    2    1    2    0    0  0.13565109252E-01 -0.15013152217E-01  0.11569360312E-01  0.10206221252E+01  0.10203559504E+01 0.  0.
     999903    2    3    3    0    0 -0.81038566035E-01  0.95197220779E-01  0.19267055423E-01  0.12868298145E+00  0.23629013101E-01 0.  0.
         14    1    1    2    0    0 -0.13565109252E-01  0.15013152217E-01 -0.11569360312E-01  0.23307874776E-01  0.00000000000E+00 0.  1.
     999901    1    3    3    0    0  0.94603675287E-01 -0.11021037300E+00 -0.76976951109E-02  0.89193914378E+00  0.88000000000E+00 0.  1.
        -11    1    4    4    0    0 -0.65608152515E-01  0.62845726591E-01  0.84770036790E-02  0.91247661556E-01  0.51100000000E-03 0. -1.
         11    1    4    4    0    0 -0.15430413520E-01  0.32351494188E-01  0.10790051744E-01  0.37435319889E-01  0.51100000000E-03 0.  1.
</event>
<event>
 8    1  0.1162192E+005  0.1043930E+01  0.7957747E-01            NaN
         13   -1    0    0    0    0  0.00000000000E+00  0.00000000000E+00  0.74505805969E-08  0.10566000000E+00  0.10566000000E+00 0. -1.
     999900   -1    0    0    0    0 -0.00000000000E+00 -0.00000000000E+00 -0.74505805969E-08  0.93827000000E+00  0.93827000000E+00 0.  1.
     999902    2    1    2    0    0  0.19397465905E-01 -0.95842360117E-02 -0.97764615741E-02  0.10201876651E+01  0.10199113558E+01 0.  0.
     999903    2    3    3    0    0 -0.53862921937E-01  0.14309404915E-01 -0.11634053702E+00  0.13041584458E+00  0.19162425068E-01 0.  0.
         14    1    1    2    0    0 -0.19397465905E-01  0.95842360117E-02  0.97764615741E-02  0.23742334855E-01  0.00000000000E+00 0. -1.
     999901    1    3    3    0    0  0.73260387842E-01 -0.23893640926E-01  0.10656407544E+00  0.88977182057E+00  0.88000000000E+00 0. -1.
        -11    1    4    4    0    0 -0.47734023780E-02  0.24967132382E-02 -0.26676607354E-02  0.60329496977E-02  0.51100000000E-03 0. -1.
         11    1    4    4    0    0 -0.49089519559E-01  0.11812691677E-01 -0.11367287628E+00  0.12438289488E+00  0.51100000000E-03 0.  1.
</event>
<event>
 8    1  0.1162192E+005  0.1043930E+01  0.7957747E-01            NaN
         13   -1    0    0    0    0  0.00000000000E+00  0.00000000000E+00  0.74505805969E-08  0.10566000000E+00  0.10566000000E+00 0. -1.
     999900   -1    0    0    0    0 -0.00000000000E+00 -0.00000000000E+00 -0.74505805969E-08  0.93827000000E+00  0.93827000000E+00 0. -1.
     999902    2    1    2    0    0 -0.42772006063E-02  0.19320738528E-01  0.14260843685E-01  0.10195382587E+01  0.10192464392E+01 0.  0.
     999903    2    3    3    0    0 -0.10615751395E+00  0.57357411885E-01 -0.46573314816E-01  0.13075978143E+00  0.19229048881E-01 0.  0.
         14    1    1    2    0    0  0.42772006063E-02 -0.19320738528E-01 -0.14260843685E-01  0.24391741326E-01  0.00000000000E+00 0.  1.
     999901    1    3    3    0    0  0.10188031334E+00 -0.38036673356E-01  0.60834158501E-01  0.88877847724E+00  0.88000000000E+00 0. -1.
        -11    1    4    4    0    0 -0.42045752747E-01  0.16436365084E-01 -0.25427080445E-01  0.51815026414E-01  0.51100000000E-03 0.  1.
         11    1    4    4    0    0 -0.64111761204E-01  0.40921046800E-01 -0.21146234370E-01  0.78944755018E-01  0.51100000000E-03 0. -1.
</event>
<event>
 8    1  0.1162192E+005  0.1043930E+01  0.7957747E-01            NaN
         13   -1    0    0    0    0  0.00000000000E+00  0.00000000000E+00  0.74505805969E-08  0.10566000000E+00  0.10566000000E+00 0. -1.
     999900   -1    0    0    0    0 -0.00000000000E+00 -0.00000000000E+00 -0.74505805969E-08  0.93827000000E+00  0.93827000000E+00 0. -1.
     999902    2    1    2    0    0 -0.17997443587E-01 -0.65482189818E-02  0.14334439615E-01  0.10200079744E+01  0.10197274168E+01 0.  0.
     999903    2    3    3    0    0 -0.10294644463E+00  0.24500807881E-01  0.76871080175E-01  0.13316458001E+00  0.25007645860E-01 0.  0.
         14    1    1    2    0    0  0.17997443587E-01  0.65482189818E-02 -0.14334439615E-01  0.23922025554E-01  0.00000000000E+00 0.  1.
     999901    1    3    3    0    0  0.84949001047E-01 -0.31049026862E-01 -0.62536640560E-01  0.88684339444E+00  0.88000000000E+00 0. -1.
        -11    1    4    4    0    0 -0.11628147578E-01 -0.51410326410E-02  0.92764151422E-02  0.15746651441E-01  0.51100000000E-03 0. -1.
         11    1    4    4    0    0 -0.91318297056E-01  0.29641840522E-01  0.67594665033E-01  0.11741792857E+00  0.51100000000E-03 0.  1.
</event>
<event>
 8    1  0.1162192E+005  0.1043930E+01  0.7957747E-01            NaN
         13   -1    0    0    0    0  0.00000000000E+00  0.00000000000E+00  0.74505805969E-08  0.10566000000E+00  0.10566000000E+00 0. -1.
     999900   -1    0    0    0    0 -0.00000000000E+00 -0.00000000000E+00 -0.74505805969E-08  0.93827000000E+00  0.93827000000E+00 0.  1.
     999902    2    1    2    0    0 -0.15329658166E-01 -0.13801266989E-01  0.84500104909E-04  0.10233028206E+01  0.10230949038E+01 0.  0.
     999903    2    3    3    0    0  0.87251481072E-01  0.68479533299E-01  0.67654689393E-01  0.13096950243E+00  0.16540439536E-01 0.  0.
         14    1    1    2    0    0  0.15329658166E-01  0.13801266989E-01 -0.84500104909E-04  0.20627179406E-01  0.00000000000E+00 0. -1.
     999901    1    3    3    0    0 -0.10258113924E+00 -0.82280800287E-01 -0.67570189288E-01  0.89233331816E+00  0.88000000000E+00 0.  1.
        -11    1    4    4    0    0  0.35667762147E-01  0.18284203707E-01  0.26592351398E-01  0.48103176981E-01  0.51100000000E-03 0. -1.
         11    1    4    4    0    0  0.51583718925E-01  0.50195329592E-01  0.41062337995E-01  0.82866325450E-01  0.51100000000E-03 0.  1.
</event>
<event>
 8    1  0.1162192E+005  0.1043930E+01  0.7957747E-01            NaN
         13   -1    0    0    0    0  0.00000000000E+00  0.00000000000E+00  0.74505805969E-08  0.10566000000E+00  0.10566000000E+00 0.  1.
     999900   -1    0    0    0    0 -0.00000000000E+00 -0.00000000000E+00 -0.74505805969E-08  0.93827000000E+00  0.93827000000E+00 0. -1.
     999902    2    1    2    0    0 -0.15729806533E-01  0.20683149799E-02 -0.29218646274E-01  0.10106819319E+01  0.10101349086E+01 0.  0.
     999903    2    3    3    0    0  0.59274380129E-01 -0.90770204600E-01 -0.53835544505E-01  0.12228415480E+00  0.17391563447E-01 0.  0.
         14    1    1    2    0    0  0.15729806533E-01 -0.20683149799E-02  0.29218646274E-01  0.33248068072E-01  0.00000000000E+00 0.  1.
     999901    1    3    3    0    0 -0.75004186662E-01  0.92838519580E-01  0.24616898232E-01  0.88839777713E+00  0.88000000000E+00 0. -1.
        -11    1    4    4    0    0  0.48345964257E-01 -0.66625772602E-01 -0.47458152462E-01  0.95020330408E-01  0.51100000000E-03 0. -1.
         11    1    4    4    0    0  0.10928415872E-01 -0.24144431998E-01 -0.63773920438E-02  0.27263824388E-01  0.51100000000E-03 0.  1.
</event>
<event>
 8    1  0.1162192E+005  0.1043930E+01  0.7957747E-01            NaN
         13   -1    0    0    0    0  0.00000000000E+00  0.00000000000E+00  0.74505805969E-08  0.10566000000E+00  0.10566000000E+00 0.  1.
     999900   -1    0    0    0    0 -0.00000000000E+00 -0.00000000000E+00 -0.74505805969E-08  0.93827000000E+00  0.93827000000E+00 0.  1.
     999902    2    1    2    0    0  0.21036613830E-01  0.58192224371E-02  0.98861113323E-02  0.10199688300E+01  0.10196873425E+01 0.  0.
     999903    2    3    3    0    0 -0.27219061498E-01 -0.90044858238E-01  0.87544331923E-01  0.13005347930E+00  0.20023576643E-01 0.  0.
         14    1    1    2    0    0 -0.21036613830E-01 -0.58192224371E-02 -0.98861113323E-02  0.23961170015E-01  0.00000000000E+00 0.  1.
     999901    1    3    3    0    0  0.48255675328E-01  0.95864080675E-01 -0.77658220591E-01  0.88991535069E+00  0.88000000000E+00 0.  1.
        -11    1    4    4    0    0 -0.15844888884E-01 -0.22480285068E-01  0.28435182761E-01  0.39563170502E-01  0.51100000000E-03 0.  1.
         11    1    4    4    0    0 -0.11374172614E-01 -0.67564573170E-01  0.59109149162E-01  0.90490308795E-01  0.51100000000E-03 0. -1.
</event>
<event>
 8    1  0.1162192E+005  0.1043930E+01  0.7957747E-01            NaN
         13   -1    0    0    0    0  0.00000000000E+00  0.00000000000E+00  0.74505805969E-08  0.10566000000E+00  0.10566000000E+00 0.  1.
     999900   -1    0    0    0    0 -0.00000000000E+00 -0.00000000000E+00 -0.74505805969E-08  0.93827000000E+00  0.93827000000E+00 0.  1.
     999902    2    1    2    0    0 -0.18979952370E-01  0.71313083395E-02 -0.11577627122E-01  0.10205818609E+01  0.10203147549E+01 0.  0.
     999903    2    3    3    0    0  0.90131113045E-01  0.91143196427E-01 -0.90842581129E-02  0.12986897851E+00  0.18781055328E-01 0.  0.
         14    1    1    2    0    0  0.18979952370E-01 -0.71313083395E-02  0.11577627122E-01  0.23348139121E-01  0.00000000000E+00 0.  1.
     999901    1    3    3    0    0 -0.10911106542E+00 -0.84011888087E-01 -0.24933690093E-02  0.89071288237E+00  0.88000000000E+00 0.  1.
        -11    1    4    4    0    0  0.62954058611E-01  0.56840645527E-01  0.15317081863E-02  0.84833246611E-01  0.51100000000E-03 0.  1.
         11    1    4    4    0    0  0.27177054434E-01  0.34302550899E-01 -0.10615966299E-01  0.45035731896E-01  0.51100000000E-03 0. -1.
</event>
<event>
 8    1  0.1162192E+005  0.1043930E+01  0.7957747E-01            NaN
         13   -1    0    0    0    0  0.00000000000E+00  0.00000000000E+00  0.74505805969E-08  0.10566000000E+00  0.10566000000E+00 0. -1.
     999900   -1    0    0    0    0 -0.00000000000E+00 -0.00000000000E+00 -0.74505805969E-08  0.93827000000E+00  0.93827000000E+00 0. -1.
     999902    2    1    2    0    0  0.16536575318E-02  0.14659463064E-01  0.18542174345E-01  0.10202351341E+01  0.10199599415E+01 0.  0.
     999903    2    3    3    0    0 -0.36598977881E-01 -0.59227572396E-01 -0.10526538437E+00  0.12768212743E+00  0.19352881053E-01 0.  0.
         14    1    1    2    0    0 -0.16536575318E-02 -0.14659463064E-01 -0.18542174345E-01  0.23694865900E-01  0.00000000000E+00 0.  1.
     999901    1    3    3    0    0  0.38252635413E-01  0.73887035460E-01  0.12380755871E+00  0.89255300667E+00  0.88000000000E+00 0.  1.
        -11    1    4    4    0    0 -0.16294929690E-01 -0.14782380357E-01 -0.45014397345E-01  0.50105893785E-01  0.51100000000E-03 0. -1.
         11    1    4    4    0    0 -0.20304048191E-01 -0.44445192039E-01 -0.60250987020E-01  0.77576233643E-01  0.51100000000E-03 0.  1.
</event>
<event>
 8    1  0.1162192E+005  0.1043930E+01  0.7957747E-01            NaN
         13   -1    0    0    0    0  0.00000000000E+00  0.00000000000E+00  0.74505805969E-08  0.10566000000E+00  0.10566000000E+00 0.  1.
     999900   -1    0    0    0    0 -0.00000000000E+00 -0.00000000000E+00 -0.74505805969E-08  0.93827000000E+00  0.93827000000E+00 0.  1.
     999902    2    1    2    0    0 -0.10656486950E-01 -0.19830252258E-01 -0.72035567428E-02  0.10202933579E+01  0.10200195319E+01 0.  0.
     999903    2    3    3    0    0  0.79097837712E-01  0.88781930797E-01 -0.43883516962E-01  0.12833043012E+00  0.20105647628E-01 0.  0.
         14    1    1    2    0    0  0.10656486950E-01  0.19830252258E-01  0.72035567428E-02  0.23636642073E-01  0.00000000000E+00 0.  1.
     999901    1    3    3    0    0 -0.89754324662E-01 -0.10861218306E+00  0.36679960219E-01  0.89196292781E+00  0.88000000000E+00 0. -1.
        -11    1    4    4    0    0  0.33944597219E-01  0.41172830847E-01 -0.30145473184E-01  0.61289871551E-01  0.51100000000E-03 0.  1.
         11    1    4    4    0    0  0.45153240493E-01  0.47609099950E-01 -0.13738043778E-01  0.67040558567E-01  0.51100000000E-03 0. -1.
</event>
<event>
 8    1  0.1162192E+005  0.1043930E+01  0.7957747E-01            NaN
         13   -1    0    0    0    0  0.00000000000E+00  0.00000000000E+00  0.74505805969E-08  0.10566000000E+00  0.10566000000E+00 0.  1.
     999900   -1    0    0    0    0 -0.00000000000E+00 -0.00000000000E+00 -0.74505805969E-08  0.93827000000E+00  0.93827000000E+00 0.  1.
     999902    2    1    2    0    0  0.10075608757E-01 -0.16095359196E-02 -0.19774694952E-01  0.10216780999E+01  0.10214357507E+01 0.  0.
     999903    2    3    3    0    0 -0.43286053746E-01  0.55103822295E-01 -0.11175516603E+00  0.13346400460E+00  0.20330019878E-01 0.  0.
         14    1    1    2    0    0 -0.10075608757E-01  0.16095359196E-02  0.19774694952E-01  0.22251900102E-01  0.00000000000E+00 0.  1.
     999901    1    3    3    0    0  0.53361662503E-01 -0.56713358215E-01  0.91980471082E-01  0.88821409530E+00  0.88000000000E+00 0.  1.
        -11    1    4    4    0    0 -0.14590708973E-01  0.28433328987E-01 -0.65228755890E-01  0.72638796118E-01  0.51100000000E-03 0. -1.
         11    1    4    4    0    0 -0.28695344773E-01  0.26670493308E-01 -0.46526410144E-01  0.60825208482E-01  0.51100000000E-03 0.  1.
</event>
<event>
 8    1  0.1162192E+005  0.1043930E+01  0.7957747E-01            NaN
         13   -1    0    0    0    0  0.00000000000E+00  0.00000000000E+00  0.74505805969E-08  0.10566000000E+00  0.10566000000E+00 0.  1.
     999900   -1    0    0    0    0 -0.00000000000E+00 -0.00000000000E+00 -0.74505805969E-08  0.93827000000E+00  0.93827000000E+00 0. -1.
     999902    2    1    2    0    0 -0.18536619771E-01  0.13822238476E-01 -0.23168593168E-02  0.10206914892E+01  0.10204269144E+01 0.  0.
     999903    2    3    3    0    0 -0.35681806615E-01  0.45525594563E-01  0.11697380765E+00  0.13191180699E+00  0.19289428770E-01 0.  0.
         14    1    1    2    0    0  0.18536619771E-01 -0.13822238476E-01  0.23168593168E-02  0.23238510841E-01  0.00000000000E+00 0.  1.
     999901    1    3    3    0    0  0.17145186844E-01 -0.31703356087E-01 -0.11929066697E+00  0.88877968217E+00  0.88000000000E+00 0. -1.
        -11    1    4    4    0    0 -0.25460773998E-01  0.17291166313E-01  0.54416096179E-01  0.62518861869E-01  0.51100000000E-03 0.  1.
         11    1    4    4    0    0 -0.10221032617E-01  0.28234428250E-01  0.62557711472E-01  0.69392945117E-01  0.51100000000E-03 0. -1.
</event>
<event>
 8    1  0.1162192E+005  0.1043930E+01  0.7957747E-01            NaN
         13   -1    0    0    0    0  0.00000000000E+00  0.00000000000E+00  0.74505805969E-08  0.10566000000E+00  0.10566000000E+00 0. -1.
     999900   -1    0    0    0    0 -0.00000000000E+00 -0.00000000000E+00 -0.74505805969E-08  0.93827000000E+00  0.93827000000E+00 0.  1.
     999902    2    1    2    0    0 -0.23500652041E-01 -0.13045785825E-01  0.15835073069E-01  0.10127334824E+01  0.10122528753E+01 0.  0.
     999903    2    3    3    0    0 -0.21358684100E-01 -0.10992074617E+00 -0.51505951578E-01  0.12485727501E+00  0.19942724230E-01 0.  0.
         14    1    1    2    0    0  0.23500652041E-01  0.13045785825E-01 -0.15835073069E-01  0.31196517645E-01  0.00000000000E+00 0. -1.
     999901    1    3    3    0    0 -0.21419679403E-02  0.96874960346E-01  0.67341024646E-01  0.88787620734E+00  0.88000000000E+00 0. -1.
        -11    1    4    4    0    0  0.42380255965E-03 -0.40391988166E-02  0.16271460443E-02  0.44049359744E-02  0.51100000000E-03 0.  1.
         11    1    4    4    0    0 -0.21782486660E-01 -0.10588154735E+00 -0.53133097622E-01  0.12045233904E+00  0.51100000000E-03 0. -1.
</event>
<event>
 8    1  0.1162192E+005  0.1043930E+01  0.7957747E-01            NaN
         13   -1    0    0    0    0  0.00000000000E+00  0.00000000000E+00  0.74505805969E-08  0.10566000000E+00  0.10566000000E+00 0.  1.
     999900   -1    0    0    0    0 -0.00000000000E+00 -0.00000000000E+00 -0.74505805969E-08  0.93827000000E+00  0.93827000000E+00 0. -1.
     999902    2    1    2    0    0 -0.13755838032E-01 -0.19419507975E-01 -0.47810816592E-03  0.10201272910E+01  0.10198495579E+01 0.  0.
     999903    2    3    3    0    0  0.99900151761E-01  0.25258317881E-01  0.74338140846E-01  0.12854932844E+00  0.19512757742E-01 0.  0.
         14    1    1    2    0    0  0.13755838032E-01  0.19419507975E-01  0.47810816592E-03  0.23802709035E-01  0.00000000000E+00 0. -1.
     999901    1    3    3    0    0 -0.11365598979E+00 -0.44677825856E-01 -0.74816249012E-01  0.89157796252E+00  0.88000000000E+00 0.  1.
        -11    1    4    4    0    0  0.46103749729E-01  0.73350575617E-02  0.22947623654E-01  0.52021277963E-01  0.51100000000E-03 0.  1.
         11    1    4    4    0    0  0.53796402031E-01  0.17923260319E-01  0.51390517192E-01  0.76528050480E-01  0.51100000000E-03 0. -1.
</event>
<event>
 8    1  0.1162192E+005  0.1043930E+01  0.7957747E-01            NaN
         13   -1    0    0    0    0  0.00000000000E+00  0.00000000000E+00  0.74505805969E-08  0.10566000000E+00  0.10566000000E+00 0.  1.
     999900   -1    0    0    0    0 -0.00000000000E+00 -0.00000000000E+00 -0.74505805969E-08  0.93827000000E+00  0.93827000000E+00 0.  1.
     999902    2    1    2    0    0 -0.13996303302E-01 -0.26536698863E-01  0.16989631221E-01  0.10094518843E+01  0.10088629076E+01 0.  0.
     999903    2    3    3    0    0 -0.10177370694E+00 -0.55630508373E-01  0.39707205720E-01  0.12431493980E+00  0.20613131390E-01 0.  0.
         14    1    1    2    0    0  0.13996303302E-01  0.26536698863E-01 -0.16989631221E-01  0.34478115692E-01  0.00000000000E+00 0.  1.
     999901    1    3    3    0    0  0.87777403636E-01  0.29093809511E-01 -0.22717574499E-01  0.88513694451E+00  0.88000000000E+00 0.  1.
        -11    1    4    4    0    0 -0.19824097136E-01 -0.24053442751E-02  0.47606779178E-02  0.20535473785E-01  0.51100000000E-03 0. -1.
         11    1    4    4    0    0 -0.81949609802E-01 -0.53225164098E-01  0.34946527802E-01  0.10377946602E+00  0.51100000000E-03 0.  1.
</event>
<event>
 8    1  0.1162192E+005  0.1043930E+01  0.7957747E-01            NaN
         13   -1    0    0    0    0  0.00000000000E+00  0.00000000000E+00  0.74505805969E-08  0.10566000000E+00  0.10566000000E+00 0. -1.
     999900   -1    0    0    0    0 -0.00000000000E+00 -0.00000000000E+00 -0.74505805969E-08  0.93827000000E+00  0.93827000000E+00 0. -1.
     999902    2    1    2    0    0  0.17217475687E-01  0.10061404902E-01 -0.12784982865E-01  0.10202418358E+01  0.10199668006E+01 0.  0.
     999903    2    3    3    0    0  0.90954281863E-01 -0.26967235630E-02  0.92056205695E-01  0.13086477218E+00  0.19268883809E-01 0.  0.
         14    1    1    2    0    0 -0.17217475687E-01 -0.10061404902E-01  0.12784982865E-01  0.23688164228E-01  0.00000000000E+00 0. -1.
     999901    1    3    3    0    0 -0.73736806176E-01  0.12758128464E-01 -0.10484118856E+00  0.88937706359E+00  0.88000000000E+00 0.  1.
        -11    1    4    4    0    0  0.40697478446E-01 -0.61630825760E-02  0.53065025578E-01  0.67159708153E-01  0.51100000000E-03 0.  1.
         11    1    4    4    0    0  0.50256803418E-01  0.34663590130E-02  0.38991180117E-01  0.63705064026E-01  0.51100000000E-03 0. -1.
</event>
<event>
 8    1  0.1162192E+005  0.1043930E+01  0.7957747E-01            NaN
         13   -1    0    0    0    0  0.00000000000E+00  0.00000000000E+00  0.74505805969E-08  0.10566000000E+00  0.10566000000E+00 0. -1.
     999900   -1    0    0    0    0 -0.00000000000E+00 -0.00000000000E+00 -0.74505805969E-08  0.93827000000E+00  0.93827000000E+00 0.  1.
     999902    2    1    2    0    0  0.41819940177E-02  0.21984310276E-01  0.62334110676E-02  0.10206995375E+01  0.10204351481E+01 0.  0.
     999903    2    3    3    0    0  0.66837308362E-01 -0.66333691416E-01 -0.86192606527E-01  0.12925782517E+00  0.20274011477E-01 0.  0.
         14    1    1    2    0    0 -0.41819940177E-02 -0.21984310276E-01 -0.62334110676E-02  0.23230462454E-01  0.00000000000E+00 0. -1.
     999901    1    3    3    0    0 -0.62655314344E-01  0.88318001692E-01  0.92426017595E-01  0.89144171238E+00  0.88000000000E+00 0. -1.
        -11    1    4    4    0    0  0.21919461720E-01 -0.14807052518E-01 -0.14382152941E-01  0.30113436380E-01  0.51100000000E-03 0.  1.
         11    1    4    4    0    0  0.44917846642E-01 -0.51526638898E-01 -0.71810453586E-01  0.99144388789E-01  0.51100000000E-03 0. -1.
</event>
<event>
 8    1  0.1162192E+005  0.1043930E+01  0.7957747E-01            NaN
         13   -1    0    0    0    0  0.00000000000E+00  0.00000000000E+00  0.74505805969E-08  0.10566000000E+00  0.10566000000E+00 0. -1.
     999900   -1    0    0    0    0 -0.00000000000E+00 -0.00000000000E+00 -0.74505805969E-08  0.93827000000E+00  0.93827000000E+00 0.  1.
     999902    2    1    2    0    0 -0.14238850404E-01 -0.59749961361E-02 -0.17919536783E-01  0.10202750800E+01  0.10200008254E+01 0.  0.
     999903    2    3    3    0    0  0.89520837197E-01  0.77068954012E-01 -0.51015434349E-01  0.12968105982E+00  0.16155456303E-01 0.  0.
         14    1    1    2    0    0  0.14238850404E-01  0.59749961361E-02  0.17919536783E-01  0.23654919957E-01  0.00000000000E+00 0. -1.
     999901    1    3    3    0    0 -0.10375968760E+00 -0.83043950148E-01  0.33095897566E-01  0.89059402023E+00  0.88000000000E+00 0. -1.
        -11    1    4    4    0    0  0.19739177266E-01  0.11656265143E-01 -0.15381575971E-01  0.27610824626E-01  0.51100000000E-03 0. -1.
         11    1    4    4    0    0  0.69781659931E-01  0.65412688869E-01 -0.35633858379E-01  0.10207023519E+00  0.51100000000E-03 0.  1.
</event>
<event>
 8    1  0.1162192E+005  0.1043930E+01  0.7957747E-01            NaN
         13   -1    0    0    0    0  0.00000000000E+00  0.00000000000E+00  0.74505805969E-08  0.10566000000E+00  0.10566000000E+00 0. -1.
     999900   -1    0    0    0    0 -0.00000000000E+00 -0.00000000000E+00 -0.74505805969E-08  0.93827000000E+00  0.93827000000E+00 0. -1.
     999902    2    1    2    0    0  0.14447370544E-01 -0.41951773090E-03  0.20246980116E-01  0.10190534505E+01  0.10187497692E+01 0.  0.
     999903    2    3    3    0    0  0.43344910659E-01  0.12007146268E+00 -0.10756725756E-01  0.12983223283E+00  0.21089431079E-01 0.  0.
         14    1    1    2    0    0 -0.14447370544E-01  0.41951773090E-03 -0.20246980116E-01  0.24876549491E-01  0.00000000000E+00 0.  1.
     999901    1    3    3    0    0 -0.28897540115E-01 -0.12049098041E+00  0.31003705872E-01  0.88922121767E+00  0.88000000000E+00 0.  1.
        -11    1    4    4    0    0  0.43915401371E-01  0.10742412605E+00 -0.13592441538E-01  0.11684828165E+00  0.51100000000E-03 0.  1.
         11    1    4    4    0    0 -0.57049071188E-03  0.12647336629E-01  0.28357157817E-02  0.12983951188E-01  0.51100000000E-03 0. -1.
</event>
<event>
 8    1  0.1162192E+005  0.1043930E+01  0.7957747E-01            NaN
         13   -1    0    0    0    0  0.00000000000E+00  0.00000000000E+00  0.74505805969E-08  0.10566000000E+00  0.10566000000E+00 0.  1.
     999900   -1    0    0    0    0 -0.00000000000E+00 -0.00000000000E+00 -0.74505805969E-08  0.93827000000E+00  0.93827000000E+00 0. -1.
     999902    2    1    2    0    0  0.90141964704E-02 -0.19800002634E-01  0.46548334981E-02  0.10216822289E+01  0.10214399706E+01 0.  0.
     999903    2    3    3    0    0  0.30292847306E-01 -0.12334990848E+00  0.39943254442E-01  0.13465312196E+00  0.20078425161E-01 0.  0.
         14    1    1    2    0    0 -0.90141964704E-02  0.19800002634E-01 -0.46548334981E-02  0.22247771061E-01  0.00000000000E+00 0. -1.
     999901    1    3    3    0    0 -0.21278650836E-01  0.10354990585E+00 -0.35288420944E-01  0.88702910698E+00  0.88000000000E+00 0. -1.
        -11    1    4    4    0    0  0.18318571842E-01 -0.10020282937E+00  0.37193446611E-01  0.10844256857E+00  0.51100000000E-03 0.  1.
         11    1    4    4    0    0  0.11974275465E-01 -0.23147079114E-01  0.27498078309E-02  0.26210553381E-01  0.51100000000E-03 0. -1.
</event>
<event>
 8    1  0.1162192E+005  0.1043930E+01  0.7957747E-01            NaN
         13   -1    0    0    0    0  0.00000000000E+00  0.00000000000E+00  0.74505805969E-08  0.10566000000E+00  0.10566000000E+00 0. -1.
     999900   -1    0    0    0    0 -0.00000000000E+00 -0.00000000000E+00 -0.74505805969E-08  0.93827000000E+00  0.93827000000E+00 0.  1.
     999902    2    1    2    0    0 -0.18586125947E-02  0.20778487414E-01  0.14105181142E-01  0.10187475435E+01  0.10184362529E+01 0.  0.
     999903    2    3    3    0    0 -0.62376308672E-01  0.50676988309E-01 -0.98960417858E-01  0.12894973413E+00  0.19388362542E-01 0.  0.
         14    1    1    2    0    0  0.18586125947E-02 -0.20778487414E-01 -0.14105181142E-01  0.25182456493E-01  0.00000000000E+00 0. -1.
     999901    1    3    3    0    0  0.60517696077E-01 -0.29898500895E-01  0.11306559900E+00  0.88979780938E+00  0.88000000000E+00 0. -1.
        -11    1    4    4    0    0 -0.72979764324E-02  0.15857587821E-01 -0.22704490516E-01  0.28643996965E-01  0.51100000000E-03 0. -1.
         11    1    4    4    0    0 -0.55078332239E-01  0.34819400488E-01 -0.76255927341E-01  0.10030573717E+00  0.51100000000E-03 0.  1.
</event>
<event>
 8    1  0.1162192E+005  0.1043930E+01  0.7957747E-01            NaN
         13   -1    0    0    0    0  0.00000000000E+00  0.00000000000E+00  0.74505805969E-08  0.10566000000E+00  0.10566000000E+00 0. -1.
     999900   -1    0    0    0    0 -0.00000000000E+00 -0.00000000000E+00 -0.74505805969E-08  0.93827000000E+00  0.93827000000E+00 0. -1.
     999902    2    1    2    0    0 -0.22951065786E-01  0.91219275046E-02 -0.18502654923E-01  0.10130704922E+01  0.10126003718E+01 0.  0.
     999903    2    3    3    0    0  0.25822770845E-03 -0.12043796340E+00 -0.17113522490E-01  0.12328042352E+00  0.19995511044E-01 0.  0.
         14    1    1    2    0    0  0.22951065786E-01 -0.91219275046E-02  0.18502654923E-01  0.30859507794E-01  0.00000000000E+00 0. -1.
     999901    1    3    3    0    0 -0.23209293494E-01  0.12955989091E+00 -0.13891324322E-02  0.88979006868E+00  0.88000000000E+00 0.  1.
        -11    1    4    4    0    0  0.96089190756E-02 -0.62112545535E-01 -0.11983551060E-01  0.63985672269E-01  0.51100000000E-03 0. -1.
         11    1    4    4    0    0 -0.93506913671E-02 -0.58325417868E-01 -0.51299714301E-02  0.59294751255E-01  0.51100000000E-03 0.  1.
</event>
<event>
 8    1  0.1162192E+005  0.1043930E+01  0.7957747E-01            NaN
         13   -1    0    0    0    0  0.00000000000E+00  0.00000000000E+00  0.74505805969E-08  0.10566000000E+00  0.10566000000E+00 0.  1.
     999900   -1    0    0    0    0 -0.00000000000E+00 -0.00000000000E+00 -0.74505805969E-08  0.93827000000E+00  0.93827000000E+00 0. -1.
     999902    2    1    2    0    0 -0.12348213555E-01 -0.21906294992E-01 -0.24693678381E-02  0.10186621961E+01  0.10183487653E+01 0.  0.
     999903    2    3    3    0    0  0.62889089968E-01  0.95304006170E-01 -0.51911685560E-01  0.12633745175E+00  0.15114145256E-01 0.  0.
         14    1    1    2    0    0  0.12348213555E-01  0.21906294992E-01  0.24693678381E-02  0.25267803937E-01  0.00000000000E+00 0.  1.
     999901    1    3    3    0    0 -0.75237303523E-01 -0.11721030116E+00  0.49442317722E-01  0.89232474432E+00  0.88000000000E+00 0.  1.
        -11    1    4    4    0    0  0.26165399409E-01  0.30436231650E-01 -0.12649309576E-01  0.42086321733E-01  0.51100000000E-03 0.  1.
         11    1    4    4    0    0  0.36723690559E-01  0.64867774520E-01 -0.39262375984E-01  0.84251130012E-01  0.51100000000E-03 0. -1.
</event>
<event>
 8    1  0.1162192E+005  0.1043930E+01  0.7957747E-01            NaN
         13   -1    0    0    0    0  0.00000000000E+00  0.00000000000E+00  0.74505805969E-08  0.10566000000E+00  0.10566000000E+00 0. -1.
     999900   -1    0    0    0    0 -0.00000000000E+00 -0.00000000000E+00 -0.74505805969E-08  0.93827000000E+00  0.93827000000E+00 0.  1.
     999902    2    1    2    0    0 -0.25992225574E-01 -0.92929777023E-02 -0.10961457740E-01  0.10142296838E+01  0.10137947242E+01 0.  0.
     999903    2    3    3    0    0  0.81010963131E-01 -0.74931025536E-01  0.50942936435E-01  0.12316841224E+00  0.19945933534E-01 0.  0.
         14    1    1    2    0    0  0.25992225574E-01  0.92929777023E-02  0.10961457740E-01  0.29700316171E-01  0.00000000000E+00 0. -1.
     999901    1    3    3    0    0 -0.10700318871E+00  0.65638047834E-01 -0.61904394176E-01  0.89106127159E+00  0.88000000000E+00 0. -1.
        -11    1    4    4    0    0  0.29779357058E-01 -0.22013801854E-01  0.26583612105E-01  0.45589111994E-01  0.51100000000E-03 0.  1.
         11    1    4    4    0    0  0.51231606073E-01 -0.52917223682E-01  0.24359324330E-01  0.77579300241E-01  0.51100000000E-03 0. -1.
</event>
<event>
 8    1  0.1162192E+005  0.1043930E+01  0.7957747E-01            NaN
         13   -1    0    0    0    0  0.00000000000E+00  0.00000000000E+00  0.74505805969E-08  0.10566000000E+00  0.10566000000E+00 0.  1.
     999900   -1    0    0    0    0 -0.00000000000E+00 -0.00000000000E+00 -0.74505805969E-08  0.93827000000E+00  0.93827000000E+00 0.  1.
     999902    2    1    2    0    0 -0.35151419199E-02  0.11937553878E-01 -0.20045735941E-01  0.10203356586E+01  0.10200628232E+01 0.  0.
     999903    2    3    3    0    0 -0.68285990061E-01 -0.10761479389E+00  0.87309328681E-02  0.12942818684E+00  0.20772723869E-01 0.  0.
         14    1    1    2    0    0  0.35151419199E-02 -0.11937553878E-01  0.20045735941E-01  0.23594341370E-01  0.00000000000E+00 0.  1.
     999901    1    3    3    0    0  0.64770848141E-01  0.11955234777E+00 -0.28776668809E-01  0.89090747179E+00  0.88000000000E+00 0.  1.
        -11    1    4    4    0    0 -0.31215777638E-01 -0.41264621238E-01  0.12834796729E-01  0.53312164349E-01  0.51100000000E-03 0. -1.
         11    1    4    4    0    0 -0.37070212422E-01 -0.66350172653E-01 -0.41038638614E-02  0.76116022490E-01  0.51100000000E-03 0.  1.
</event>
<event>
 8    1  0.1352344E+005  0.1043930E+01  0.7957747E-01            NaN
         13   -1    0    0    0    0  0.00000000000E+00  0.00000000000E+00  0.74505805969E-08  0.10566000000E+00  0.10566000000E+00 0. -1.
     999900   -1    0    0    0    0 -0.00000000000E+00 -0.00000000000E+00 -0.74505805969E-08  0.93827000000E+00  0.93827000000E+00 0. -1.
     999902    2    1    2    0    0  0.99270227439E-02  0.21892301188E-02  0.20944891061E-01  0.10206485273E+01  0.10203829621E+01 0.  0.
     999903    2    3    3    0    0  0.98952837662E-01  0.84846088847E-01  0.98574248049E-02  0.13223382464E+00  0.19952260035E-01 0.  0.
         14    1    1    2    0    0 -0.99270227439E-02 -0.21892301188E-02 -0.20944891061E-01  0.23281472690E-01  0.00000000000E+00 0.  1.
     999901    1    3    3    0    0 -0.89025814919E-01 -0.82656858728E-01  0.11087466256E-01  0.88841470267E+00  0.88000000000E+00 0. -1.
        -11    1    4    4    0    0  0.50754604428E-01  0.52864974654E-01  0.12417008619E-01  0.74331545388E-01  0.51100000000E-03 0. -1.
         11    1    4    4    0    0  0.48198233235E-01  0.31981114193E-01 -0.25595838143E-02  0.57902279249E-01  0.51100000000E-03 0.  1.
</event>
<event>
 8    1  0.1162192E+005  0.1043930E+01  0.7957747E-01            NaN
         13   -1    0    0    0    0  0.00000000000E+00  0.00000000000E+00  0.74505805969E-08  0.10566000000E+00  0.10566000000E+00 0. -1.
     999900   -1    0    0    0    0 -0.00000000000E+00 -0.00000000000E+00 -0.74505805969E-08  0.93827000000E+00  0.93827000000E+00 0. -1.
     999902    2    1    2    0    0  0.11053122146E-01  0.12985716358E-01 -0.16175723944E-01  0.10204256518E+01  0.10201549179E+01 0.  0.
     999903    2    3    3    0    0  0.51312850157E-01 -0.10219208902E+00 -0.60705515899E-01  0.13089224889E+00  0.19271468744E-01 0.  0.
         14    1    1    2    0    0 -0.11053122146E-01 -0.12985716358E-01  0.16175723944E-01  0.23504348185E-01  0.00000000000E+00 0. -1.
     999901    1    3    3    0    0 -0.40259728011E-01  0.11517780538E+00  0.44529791955E-01  0.88953340293E+00  0.88000000000E+00 0.  1.
        -11    1    4    4    0    0  0.20389534066E-01 -0.22927117991E-01 -0.19468282638E-01  0.36340899668E-01  0.51100000000E-03 0.  1.
         11    1    4    4    0    0  0.30923316091E-01 -0.79264971034E-01 -0.41237233261E-01  0.94551349219E-01  0.51100000000E-03 0. -1.
</event>
<event>
 8    1  0.1162192E+005  0.1043930E+01  0.7957747E-01            NaN
         13   -1    0    0    0    0  0.00000000000E+00  0.00000000000E+00  0.74505805969E-08  0.10566000000E+00  0.10566000000E+00 0. -1.
     999900   -1    0    0    0    0 -0.00000000000E+00 -0.00000000000E+00 -0.74505805969E-08  0.93827000000E+00  0.93827000000E+00 0.  1.
     999902    2    1    2    0    0 -0.12309546057E-01 -0.12076624524E-01 -0.15150008616E-01  0.10209758600E+01  0.10207177936E+01 0.  0.
     999903    2    3    3    0    0 -0.62064526462E-01  0.67159229123E-01  0.89940636623E-01  0.12979803130E+00  0.19895811403E-01 0.  0.
         14    1    1    2    0    0  0.12309546057E-01  0.12076624524E-01  0.15150008616E-01  0.22954140042E-01  0.00000000000E+00 0. -1.
     999901    1    3    3    0    0  0.49754980405E-01 -0.79235853647E-01 -0.10509064524E+00  0.89117782866E+00  0.88000000000E+00 0. -1.
        -11    1    4    4    0    0 -0.22789295378E-01  0.38220882595E-01  0.48065004548E-01  0.65503386426E-01  0.51100000000E-03 0.  1.
         11    1    4    4    0    0 -0.39275231084E-01  0.28938346528E-01  0.41875632075E-01  0.64294644871E-01  0.51100000000E-03 0. -1.
</event>
<event>
 8    1  0.1162192E+005  0.1043930E+01  0.7957747E-01            NaN
         13   -1    0    0    0    0  0.00000000000E+00  0.00000000000E+00  0.74505805969E-08  0.10566000000E+00  0.10566000000E+00 0.  1.
     999900   -1    0    0    0    0 -0.00000000000E+00 -0.00000000000E+00 -0.74505805969E-08  0.93827000000E+00  0.93827000000E+00 0. -1.
     999902    2    1    2    0    0 -0.18332871916E-01 -0.12699077480E-01 -0.94507731296E-02  0.10197085658E+01  0.10194208558E+01 0.  0.
     999903    2    3    3    0    0 -0.44016987069E-01  0.66889355933E-01  0.99203917855E-01  0.12909089566E+00  0.20282034843E-01 0.  0.
         14    1    1    2    0    0  0.18332871916E-01  0.12699077480E-01  0.94507731296E-02  0.24221434191E-01  0.00000000000E+00 0.  1.
     999901    1    3    3    0    0  0.25684115152E-01 -0.79588433413E-01 -0.10865469098E+00  0.89061767015E+00  0.88000000000E+00 0. -1.
        -11    1    4    4    0    0 -0.67477381597E-02  0.18679326333E-01  0.37090403146E-01  0.42076220470E-01  0.51100000000E-03 0. -1.
         11    1    4    4    0    0 -0.37269248909E-01  0.48210029601E-01  0.62113514709E-01  0.87014675192E-01  0.51100000000E-03 0.  1.
</event>
<event>
 8    1  0.1162192E+005  0.1043930E+01  0.7957747E-01            NaN
         13   -1    0    0    0    0  0.00000000000E+00  0.00000000000E+00  0.74505805969E-08  0.10566000000E+00  0.10566000000E+00 0.  1.
     999900   -1    0    0    0    0 -0.00000000000E+00 -0.00000000000E+00 -0.74505805969E-08  0.93827000000E+00  0.93827000000E+00 0.  1.
     999902    2    1    2    0    0 -0.22148867907E-01  0.36115150273E-02 -0.74674370091E-02  0.10202788265E+01  0.10200046597E+01 0.  0.
     999903    2    3    3    0    0  0.16508942688E-01 -0.41238710810E-01 -0.12146588077E+00  0.13095233180E+00  0.20527458538E-01 0.  0.
         14    1    1    2    0    0  0.22148867907E-01 -0.36115150273E-02  0.74674370091E-02  0.23651173456E-01  0.00000000000E+00 0.  1.
     999901    1    3    3    0    0 -0.38657810595E-01  0.44850225837E-01  0.11399844376E+00  0.88932649475E+00  0.88000000000E+00 0. -1.
        -11    1    4    4    0    0  0.87868142282E-03 -0.26512284714E-01 -0.54304776227E-01  0.60439582758E-01  0.51100000000E-03 0.  1.
         11    1    4    4    0    0  0.15630261266E-01 -0.14726426096E-01 -0.67161104543E-01  0.70512749040E-01  0.51100000000E-03 0. -1.
</event>
<event>
 8    1  0.1162192E+005  0.1043930E+01  0.7957747E-01            NaN
         13   -1    0    0    0    0  0.00000000000E+00  0.00000000000E+00  0.74505805969E-08  0.10566000000E+00  0.10566000000E+00 0.  1.
     999900   -1    0    0    0    0 -0.00000000000E+00 -0.00000000000E+00 -0.74505805969E-08  0.93827000000E+00  0.93827000000E+00 0.  1.
     999902    2    1    2    0    0  0.74396373630E-02 -0.22154985880E-01 -0.16439000714E-02  0.10205015128E+01  0.10202325439E+01 0.  0.
     999903    2    3    3    0    0 -0.89701245866E-01  0.70659444991E-01  0.55394586382E-01  0.12847894658E+00  0.19980211137E-01 0.  0.
         14    1    1    2    0    0 -0.74396373630E-02  0.22154985880E-01  0.16439000714E-02  0.23428487166E-01  0.00000000000E+00 0.  1.
     999901    1    3    3    0    0  0.97140883229E-01 -0.92814430871E-01 -0.57038486454E-01  0.89202256626E+00  0.88000000000E+00 0.  1.
        -11    1    4    4    0    0 -0.50808931658E-01  0.30641504296E-01  0.21089199259E-01  0.62971936354E-01  0.51100000000E-03 0.  1.
         11    1    4    4    0    0 -0.38892314209E-01  0.40017940695E-01  0.34305387123E-01  0.65507010225E-01  0.51100000000E-03 0. -1.
</event>
<event>
 8    1  0.1162192E+005  0.1043930E+01  0.7957747E-01            NaN
         13   -1    0    0    0    0  0.00000000000E+00  0.00000000000E+00  0.74505805969E-08  0.10566000000E+00  0.10566000000E+00 0.  1.
     999900   -1    0    0    0    0 -0.00000000000E+00 -0.00000000000E+00 -0.74505805969E-08  0.93827000000E+00  0.93827000000E+00 0. -1.
     999902    2    1    2    0    0  0.10965875951E-01  0.35263190937E-02  0.20088676811E-01  0.10207731371E+01  0.10205104395E+01 0.  0.
     999903    2    3    3    0    0  0.27069067914E-01 -0.73071478196E-01  0.10611041330E+00  0.13312102370E+00  0.19738585981E-01 0.  0.
         14    1    1    2    0    0 -0.10965875951E-01 -0.35263190937E-02 -0.20088676811E-01  0.23156862865E-01  0.00000000000E+00 0. -1.
     999901    1    3    3    0    0 -0.16103191963E-01  0.76597797290E-01 -0.86021736487E-01  0.88765211344E+00  0.88000000000E+00 0. -1.
        -11    1    4    4    0    0  0.11711698572E-01 -0.98856899981E-02  0.19008729441E-01  0.24423015091E-01  0.51100000000E-03 0.  1.
         11    1    4    4    0    0  0.15357369342E-01 -0.63185788198E-01  0.87101683858E-01  0.10869800861E+00  0.51100000000E-03 0. -1.
</event>
<event>
 8    1  0.1162192E+005  0.1043930E+01  0.7957747E-01            NaN
         13   -1    0    0    0    0  0.00000000000E+00  0.00000000000E+00  0.74505805969E-08  0.10566000000E+00  0.10566000000E+00 0. -1.
     999900   -1    0    0    0    0 -0.00000000000E+00 -0.00000000000E+00 -0.74505805969E-08  0.93827000000E+00  0.93827000000E+00 0. -1.
     999902    2    1    2    0    0  0.17713551930E-01  0.11108123542E-01 -0.10315894414E-01  0.10206152406E+01  0.10203489066E+01 0.  0.
     999903    2    3    3    0    0 -0.51343567097E-01 -0.11078051430E+00 -0.36901851903E-01  0.12913751292E+00  0.20156049672E-01 0.  0.
         14    1    1    2    0    0 -0.17713551930E-01 -0.11108123542E-01  0.10315894414E-01  0.23314759449E-01  0.00000000000E+00 0.  1.
     999901    1    3    3    0    0  0.69057119027E-01  0.12188863784E+00  0.26585957489E-01  0.89147772763E+00  0.88000000000E+00 0. -1.
        -11    1    4    4    0    0 -0.61945003422E-02 -0.23295216585E-01 -0.32441852079E-03  0.24112347845E-01  0.51100000000E-03 0.  1.
         11    1    4    4    0    0 -0.45149066755E-01 -0.87485297718E-01 -0.36577433382E-01  0.10502516508E+00  0.51100000000E-03 0. -1.
</event>
<event>
 8    1  0.1162192E+005  0.1043930E+01  0.7957747E-01            NaN
         13   -1    0    0    0    0  0.00000000000E+00  0.00000000000E+00  0.74505805969E-08  0.10566000000E+00  0.10566000000E+00 0.  1.
     999900   -1    0    0    0    0 -0.00000000000E+00 -0.00000000000E+00 -0.74505805969E-08  0.93827000000E+00  0.93827000000E+00 0. -1.
     999902    2    1    2    0    0  0.54968642188E-02  0.63971608683E-02 -0.22481981739E-01  0.10199179471E+01  0.10196352485E+01 0.  0.
     999903    2    3    3    0    0  0.74978882505E-01 -0.19259171630E-01  0.10037704595E+00  0.12830124749E+00  0.19821963616E-01 0.  0.
         14    1    1    2    0    0 -0.54968642188E-02 -0.63971608683E-02  0.22481981739E-01  0.24012052938E-01  0.00000000000E+00 0.  1.
     999901    1    3    3    0    0 -0.69482018286E-01  0.25656332499E-01 -0.12285902769E+00  0.89161669957E+00  0.88000000000E+00 0. -1.
        -11    1    4    4    0    0  0.46137238075E-01 -0.20612769594E-02  0.61844026569E-01  0.77187034813E-01  0.51100000000E-03 0.  1.
         11    1    4    4    0    0  0.28841644429E-01 -0.17197894671E-01  0.38533019380E-01  0.51114212682E-01  0.51100000000E-03 0. -1.
</event>
<event>
 8    1  0.1162192E+005  0.1043930E+01  0.7957747E-01            NaN
         13   -1    0    0    0    0  0.00000000000E+00  0.00000000000E+00  0.74505805969E-08  0.10566000000E+00  0.10566000000E+00 0.  1.
     999900   -1    0    0    0    0 -0.00000000000E+00 -0.00000000000E+00 -0.74505805969E-08  0.93827000000E+00  0.93827000000E+00 0. -1.
     999902    2    1    2    0    0 -0.53311755835E-02 -0.17757045482E-01  0.15559606455E-01  0.10197259621E+01  0.10194386702E+01 0.  0.
     999903    2    3    3    0    0 -0.91483193089E-01  0.87950635310E-01  0.15102154237E-01  0.12922245669E+00  0.19127973767E-01 0.  0.
         14    1    1    2    0    0  0.53311755835E-02  0.17757045482E-01 -0.15559606455E-01  0.24204037895E-01  0.00000000000E+00 0. -1.
     999901    1    3    3    0    0  0.86152017506E-01 -0.10570768079E+00  0.45745221822E-03  0.89050350542E+00  0.88000000000E+00 0.  1.
        -11    1    4    4    0    0 -0.71439406680E-01  0.56742452173E-01  0.11445462245E-01  0.91948651064E-01  0.51100000000E-03 0.  1.
         11    1    4    4    0    0 -0.20043786409E-01  0.31208183137E-01  0.36566919920E-02  0.37273805624E-01  0.51100000000E-03 0. -1.
</event>
<event>
 8    1  0.1162192E+005  0.1043930E+01  0.7957747E-01            NaN
         13   -1    0    0    0    0  0.00000000000E+00  0.00000000000E+00  0.74505805969E-08  0.10566000000E+00  0.10566000000E+00 0. -1.
     999900   -1    0    0    0    0 -0.00000000000E+00 -0.00000000000E+00 -0.74505805969E-08  0.93827000000E+00  0.93827000000E+00 0.  1.
     999902    2    1    2    0    0  0.18481486999E-01  0.58555646053E-02  0.12801708670E-01  0.10206977650E+01  0.10204333348E+01 0.  0.
     999903    2    3    3    0    0  0.60931488796E-02  0.23755161327E-01  0.12893006768E+00  0.13280156484E+00  0.20294312455E-01 0.  0.
         14    1    1    2    0    0 -0.18481486999E-01 -0.58555646053E-02 -0.12801708670E-01  0.23232235007E-01  0.00000000000E+00 0. -1.
     999901    1    3    3    0    0  0.12388338119E-01 -0.17899596722E-01 -0.11612835901E+00  0.88789620016E+00  0.88000000000E+00 0.  1.
        -11    1    4    4    0    0  0.11343113788E-01  0.18277483734E-01  0.11435699094E+00  0.11636371918E+00  0.51100000000E-03 0.  1.
         11    1    4    4    0    0 -0.52499649079E-02  0.54776775930E-02  0.14573076737E-01  0.16437845660E-01  0.51100000000E-03 0. -1.
</event>
<event>
 8    1  0.1162192E+005  0.1043930E+01  0.7957747E-01            NaN
         13   -1    0    0    0    0  0.00000000000E+00  0.00000000000E+00  0.74505805969E-08  0.10566000000E+00  0.10566000000E+00 0.  1.
     999900   -1    0    0    0    0 -0.00000000000E+00 -0.00000000000E+00 -0.74505805969E-08  0.93827000000E+00  0.93827000000E+00 0. -1.
     999902    2    1    2    0    0  0.84091797379E-02  0.19461710099E-01  0.97459157076E-02  0.10205964333E+01  0.10203296645E+01 0.  0.
     999903    2    3    3    0    0 -0.46479199406E-01  0.95229976196E-01  0.78009666150E-01  0.13300784391E+00  0.19403973457E-01 0.  0.
         14    1    1    2    0    0 -0.84091797379E-02 -0.19461710099E-01 -0.97459157076E-02  0.23333566740E-01  0.00000000000E+00 0.  1.
     999901    1    3    3    0    0  0.54888379144E-01 -0.75768266098E-01 -0.68263750443E-01  0.88758858935E+00  0.88000000000E+00 0. -1.
        -11    1    4    4    0    0 -0.43582386334E-02  0.27598007911E-01  0.17694635889E-01  0.33075754639E-01  0.51100000000E-03 0. -1.
         11    1    4    4    0    0 -0.42120960773E-01  0.67631968285E-01  0.60315030261E-01  0.99932089275E-01  0.51100000000E-03 0.  1.
</event>
<event>
 8    1  0.1162192E+005  0.1043930E+01  0.7957747E-01            NaN
         13   -1    0    0    0    0  0.00000000000E+00  0.00000000000E+00  0.74505805969E-08  0.10566000000E+00  0.10566000000E+00 0. -1.
     999900   -1    0    0    0    0 -0.00000000000E+00 -0.00000000000E+00 -0.74505805969E-08  0.93827000000E+00  0.93827000000E+00 0.  1.
     999902    2    1    2    0    0  0.22069316560E-01  0.83803371011E-02 -0.62651855164E-02  0.10195058862E+01  0.10192132823E+01 0.  0.
     999903    2    3    3    0    0 -0.95602793343E-01 -0.68004389367E-01 -0.45691444711E-01  0.12752170376E+00  0.20238224758E-01 0.  0.
         14    1    1    2    0    0 -0.22069316560E-01 -0.83803371011E-02  0.62651855164E-02  0.24424113759E-01  0.00000000000E+00 0. -1.
     999901    1    3    3    0    0  0.11767210990E+00  0.76384726468E-01  0.39426259194E-01  0.89198418248E+00  0.88000000000E+00 0.  1.
        -11    1    4    4    0    0 -0.30109458301E-01 -0.10515561881E-01 -0.11479495298E-01  0.33899800208E-01  0.51100000000E-03 0. -1.
         11    1    4    4    0    0 -0.65493335042E-01 -0.57488827486E-01 -0.34211949413E-01  0.93621903550E-01  0.51100000000E-03 0.  1.
</event>
<event>
 8    1  0.1162192E+005  0.1043930E+01  0.7957747E-01            NaN
         13   -1    0    0    0    0  0.00000000000E+00  0.00000000000E+00  0.74505805969E-08  0.10566000000E+00  0.10566000000E+00 0.  1.
     999900   -1    0    0    0    0 -0.00000000000E+00 -0.00000000000E+00 -0.74505805969E-08  0.93827000000E+00  0.93827000000E+00 0. -1.
     999902    2    1    2    0    0 -0.48907541133E-02  0.22682447095E-01 -0.61621879525E-02  0.10199219713E+01  0.10196393686E+01 0.  0.
     999903    2    3    3    0    0 -0.17390544954E-01  0.12942948031E+00 -0.17717198191E-01  0.13330779809E+00  0.20066103080E-01 0.  0.
         14    1    1    2    0    0  0.48907541133E-02 -0.22682447095E-01  0.61621879525E-02  0.24008028706E-01  0.00000000000E+00 0.  1.
     999901    1    3    3    0    0  0.12499790841E-01 -0.10674703321E+00  0.11555010238E-01  0.88661417321E+00  0.88000000000E+00 0.  1.
        -11    1    4    4    0    0 -0.43565160305E-02  0.97197573264E-01 -0.14779732606E-01  0.98412647039E-01  0.51100000000E-03 0.  1.
         11    1    4    4    0    0 -0.13034028924E-01  0.32231907042E-01 -0.29374655847E-02  0.34895151047E-01  0.51100000000E-03 0. -1.
</event>
<event>
 8    1  0.1162192E+005  0.1043930E+01  0.7957747E-01            NaN
         13   -1    0    0    0    0  0.00000000000E+00  0.00000000000E+00  0.74505805969E-08  0.10566000000E+00  0.10566000000E+00 0. -1.
     999900   -1    0    0    0    0 -0.00000000000E+00 -0.00000000000E+00 -0.74505805969E-08  0.93827000000E+00  0.93827000000E+00 0.  1.
     999902    2    1    2    0    0 -0.52211325937E-02 -0.20173492877E-01  0.99384532828E-02  0.10208431446E+01  0.10205820510E+01 0.  0.
     999903    2    3    3    0    0  0.74635934293E-01  0.24367250937E-01  0.10315380366E+00  0.13120831468E+00  0.20263983484E-01 0.  0.
         14    1    1    2    0    0  0.52211325937E-02  0.20173492877E-01 -0.99384532828E-02  0.23086855439E-01  0.00000000000E+00 0. -1.
     999901    1    3    3    0    0 -0.79857066887E-01 -0.44540743814E-01 -0.93215350373E-01  0.88963482988E+00  0.88000000000E+00 0. -1.
        -11    1    4    4    0    0  0.62636295236E-01  0.20079691384E-01  0.71881607861E-01  0.97435753995E-01  0.51100000000E-03 0.  1.
         11    1    4    4    0    0  0.11999639058E-01  0.42875595530E-02  0.31272195795E-01  0.33772560685E-01  0.51100000000E-03 0. -1.
</event>
<event>
 8    1  0.1162192E+005  0.1043930E+01  0.7957747E-01            NaN
         13   -1    0    0    0    0  0.00000000000E+00  0.00000000000E+00  0.74505805969E-08  0.10566000000E+00  0.10566000000E+00 0. -1.
     999900   -1    0    0    0    0 -0.00000000000E+00 -0.00000000000E+00 -0.74505805969E-08  0.93827000000E+00  0.93827000000E+00 0.  1.
     999902    2    1    2    0    0 -0.42182075130E-02 -0.99409574787E-02  0.20235710487E-01  0.10209931325E+01  0.10207354588E+01 0.  0.
     999903    2    3    3    0    0 -0.73821962035E-01  0.10550339473E+00  0.91320251471E-02  0.13065871619E+00  0.20190538741E-01 0.  0.
         14    1    1    2    0    0  0.42182075130E-02  0.99409574787E-02 -0.20235710487E-01  0.22936867466E-01  0.00000000000E+00 0.  1.
     999901    1    3    3    0    0  0.69603754522E-01 -0.11544435221E+00  0.11103685340E-01  0.89033441635E+00  0.88000000000E+00 0.  1.
        -11    1    4    4    0    0 -0.54739350279E-02  0.58174066519E-02  0.55459226634E-02  0.97377905108E-02  0.51100000000E-03 0. -1.
         11    1    4    4    0    0 -0.68348027007E-01  0.99685988078E-01  0.35861024837E-02  0.12092092568E+00  0.51100000000E-03 0.  1.
</event>
<event>
 8    1  0.1162192E+005  0.1043930E+01  0.7957747E-01            NaN
         13   -1    0    0    0    0  0.00000000000E+00  0.00000000000E+00  0.74505805969E-08  0.10566000000E+00  0.10566000000E+00 0.  1.
     999900   -1    0    0    0    0 -0.00000000000E+00 -0.00000000000E+00 -0.74505805969E-08  0.93827000000E+00  0.93827000000E+00 0. -1.
     999902    2    1    2    0    0  0.15774567093E-01 -0.11789670745E-01 -0.14809861626E-01  0.10192892755E+01  0.10189913944E+01 0.  0.
     999903    2    3    3    0    0 -0.58323031074E-02 -0.78999791660E-01 -0.10374698982E+00  0.13199345674E+00  0.19592138294E-01 0.  0.
         14    1    1    2    0    0 -0.15774567093E-01  0.11789670745E-01  0.14809861626E-01  0.24640724515E-01  0.00000000000E+00 0.  1.
     999901    1    3    3    0    0  0.21606870200E-01  0.67210120915E-01  0.88937128195E-01  0.88729581875E+00  0.88000000000E+00 0.  1.
        -11    1    4    4    0    0 -0.21692981872E-02 -0.65959908888E-01 -0.95635835380E-01  0.11619763149E+00  0.51100000000E-03 0.  1.
         11    1    4    4    0    0 -0.36630049201E-02 -0.13039882773E-01 -0.81111544409E-02  0.15795825244E-01  0.51100000000E-03 0. -1.
</event>
<event>
 8    1  0.1162192E+005  0.1043930E+01  0.7957747E-01            NaN
         13   -1    0    0    0    0  0.00000000000E+00  0.00000000000E+00  0.74505805969E-08  0.10566000000E+00  0.10566000000E+00 0.  1.
     999900   -1    0    0    0    0 -0.00000000000E+00 -0.00000000000E+00 -0.74505805969E-08  0.93827000000E+00  0.93827000000E+00 0. -1.
     999902    2    1    2    0    0 -0.10070425687E-01  0.21667310127E-01 -0.95402017763E-03  0.10200177446E+01  0.10197374189E+01 0.  0.
     999903    2    3    3    0    0 -0.10279213316E-01 -0.11770596232E+00 -0.45299682900E-01  0.12794628424E+00  0.18916516309E-01 0.  0.
         14    1    1    2    0    0  0.10070425687E-01 -0.21667310127E-01  0.95402017763E-03  0.23912255355E-01  0.00000000000E+00 0.  1.
     999901    1    3    3    0    0  0.20878762949E-03  0.13937327244E+00  0.44345662722E-01  0.89207146040E+00  0.88000000000E+00 0.  1.
        -11    1    4    4    0    0 -0.15798978262E-01 -0.93430252553E-01 -0.35918519643E-01  0.10133716485E+00  0.51100000000E-03 0.  1.
         11    1    4    4    0    0  0.55197649455E-02 -0.24275709763E-01 -0.93811632564E-02  0.26609119388E-01  0.51100000000E-03 0. -1.
</event>
<event>
 8    1  0.1162192E+005  0.1043930E+01  0.7957747E-01            NaN
         13   -1    0    0    0    0  0.00000000000E+00  0.00000000000E+00  0.74505805969E-08  0.10566000000E+00  0.10566000000E+00 0. -1.
     999900   -1    0    0    0    0 -0.00000000000E+00 -0.00000000000E+00 -0.74505805969E-08  0.93827000000E+00  0.93827000000E+00 0.  1.
     999902    2    1    2    0    0  0.17102180550E-01  0.12561290794E-01  0.14775294824E-01  0.10180730871E+01  0.10177446786E+01 0.  0.
     999903    2    3    3    0    0 -0.33506097227E-01 -0.99766444223E-01 -0.65874527948E-01  0.12583818995E+00  0.20488891461E-01 0.  0.
         14    1    1    2    0    0 -0.17102180550E-01 -0.12561290794E-01 -0.14775294824E-01  0.25856912869E-01  0.00000000000E+00 0.  1.
     999901    1    3    3    0    0  0.50608277777E-01  0.11232773502E+00  0.80649822772E-01  0.89223489718E+00  0.88000000000E+00 0. -1.
        -11    1    4    4    0    0 -0.17473207154E-01 -0.35216066139E-01 -0.14926282855E-01  0.42054004844E-01  0.51100000000E-03 0.  1.
         11    1    4    4    0    0 -0.16032890073E-01 -0.64550378085E-01 -0.50948245092E-01  0.83784185106E-01  0.51100000000E-03 0. -1.
</event>
<event>
 8    1  0.1162192E+005  0.1043930E+01  0.7957747E-01            NaN
         13   -1    0    0    0    0  0.00000000000E+00  0.00000000000E+00  0.74505805969E-08  0.10566000000E+00  0.10566000000E+00 0.  1.
     999900   -1    0    0    0    0 -0.00000000000E+00 -0.00000000000E+00 -0.74505805969E-08  0.93827000000E+00  0.93827000000E+00 0.  1.
     999902    2    1    2    0    0  0.18472113296E-01  0.13918074031E-01 -0.41914527282E-02  0.10204246808E+01  0.10201539243E+01 0.  0.
     999903    2    3    3    0    0  0.82841164775E-01 -0.93856098252E-01 -0.33057681220E-01  0.13104742331E+00  0.20223528605E-01 0.  0.
         14    1    1    2    0    0 -0.18472113296E-01 -0.13918074031E-01  0.41914527282E-02  0.23505319193E-01  0.00000000000E+00 0.  1.
     999901    1    3    3    0    0 -0.64369051479E-01  0.10777417228E+00  0.28866228492E-01  0.88937725749E+00  0.88000000000E+00 0.  1.
        -11    1    4    4    0    0  0.62088262516E-01 -0.57650603831E-01 -0.26673735439E-01  0.88827325456E-01  0.51100000000E-03 0. -1.
         11    1    4    4    0    0  0.20752902259E-01 -0.36205494420E-01 -0.63839457808E-02  0.42220097858E-01  0.51100000000E-03 0.  1.
</event>
<event>
 8    1  0.1162192E+005  0.1043930E+01  0.7957747E-01            NaN
         13   -1    0    0    0    0  0.00000000000E+00  0.00000000000E+00  0.74505805969E-08  0.10566000000E+00  0.10566000000E+00 0. -1.
     999900   -1    0    0    0    0 -0.00000000000E+00 -0.00000000000E+00 -0.74505805969E-08  0.93827000000E+00  0.93827000000E+00 0.  1.
     999902    2    1    2    0    0  0.15885166050E-01  0.20826449248E-01 -0.10737483273E-01  0.10156214671E+01  0.10152268669E+01 0.  0.
     999903    2    3    3    0    0 -0.91867197678E-01 -0.16375674762E-01  0.78942798619E-01  0.12374864943E+00  0.19339546221E-01 0.  0.
         14    1    1    2    0    0 -0.15885166050E-01 -0.20826449248E-01  0.10737483273E-01  0.28308532914E-01  0.00000000000E+00 0.  1.
     999901    1    3    3    0    0  0.10775236373E+00  0.37202124011E-01 -0.89680281892E-01  0.89187281766E+00  0.88000000000E+00 0.  1.
        -11    1    4    4    0    0 -0.86111696701E-01 -0.14983484930E-01  0.66064760398E-01  0.10956524457E+00  0.51100000000E-03 0.  1.
         11    1    4    4    0    0 -0.57555009767E-02 -0.13921898321E-02  0.12878038220E-01  0.14183404860E-01  0.51100000000E-03 0. -1.
</event>
<event>
 8    1  0.1162192E+005  0.1043930E+01  0.7957747E-01            NaN
         13   -1    0    0    0    0  0.00000000000E+00  0.00000000000E+00  0.74505805969E-08  0.10566000000E+00  0.10566000000E+00 0.  1.
     999900   -1    0    0    0    0 -0.00000000000E+00 -0.00000000000E+00 -0.74505805969E-08  0.93827000000E+00  0.93827000000E+00 0. -1.
     999902    2    1    2    0    0 -0.12283743785E-01 -0.10392250069E-01 -0.10856629683E-01  0.10245198060E+01  0.10243359201E+01 0.  0.
     999903    2    3    3    0    0 -0.87135681013E-01  0.76156672642E-01 -0.67195922163E-01  0.13532486427E+00  0.20126133279E-01 0.  0.
         14    1    1    2    0    0  0.12283743785E-01  0.10392250069E-01  0.10856629683E-01  0.19410193996E-01  0.00000000000E+00 0.  1.
     999901    1    3    3    0    0  0.74851937229E-01 -0.86548922711E-01  0.56339292479E-01  0.88919494173E+00  0.88000000000E+00 0.  1.
        -11    1    4    4    0    0 -0.60811801418E-01  0.63695826676E-01 -0.54375099736E-01  0.10349949816E+00  0.51100000000E-03 0.  1.
         11    1    4    4    0    0 -0.26323879596E-01  0.12460845966E-01 -0.12820822427E-01  0.31825366107E-01  0.51100000000E-03 0. -1.
</event>
<event>
 8    1  0.1162192E+005  0.1043930E+01  0.7957747E-01            NaN
         13   -1    0    0    0    0  0.00000000000E+00  0.00000000000E+00  0.74505805969E-08  0.10566000000E+00  0.10566000000E+00 0. -1.
     999900   -1    0    0    0    0 -0.00000000000E+00 -0.00000000000E+00 -0.74505805969E-08  0.93827000000E+00  0.93827000000E+00 0.  1.
     999902    2    1    2    0    0 -0.16446834160E-01 -0.14534871862E-01 -0.57617927717E-02  0.10212372895E+01  0.10209851333E+01 0.  0.
     999903    2    3    3    0    0  0.11538370407E+00  0.53284403624E-01  0.76954666028E-02  0.12873527675E+00  0.18998011399E-01 0.  0.
         14    1    1    2    0    0  0.16446834160E-01  0.14534871862E-01  0.57617927717E-02  0.22692710501E-01  0.00000000000E+00 0. -1.
     999901    1    3    3    0    0 -0.13183053823E+00 -0.67819275486E-01 -0.13457259375E-01  0.89250201275E+00  0.88000000000E+00 0. -1.
        -11    1    4    4    0    0  0.64016501079E-01  0.22193532605E-01 -0.26338659326E-02  0.67807548773E-01  0.51100000000E-03 0.  1.
         11    1    4    4    0    0  0.51367202995E-01  0.31090871019E-01  0.10329332535E-01  0.60927727973E-01  0.51100000000E-03 0. -1.
</event>
<event>
 8    1  0.1162192E+005  0.1043930E+01  0.7957747E-01            NaN
         13   -1    0    0    0    0  0.00000000000E+00  0.00000000000E+00  0.74505805969E-08  0.10566000000E+00  0.10566000000E+00 0. -1.
     999900   -1    0    0    0    0 -0.00000000000E+00 -0.00000000000E+00 -0.74505805969E-08  0.93827000000E+00  0.93827000000E+00 0.  1.
     999902    2    1    2    0    0  0.23321990433E-01  0.47528419966E-02  0.19565671742E-02  0.10200483564E+01  0.10197687564E+01 0.  0.
     999903    2    3    3    0    0 -0.57891092235E-01 -0.57545214976E-02  0.11358473547E+00  0.12922468283E+00  0.20323224178E-01 0.  0.
         14    1    1    2    0    0 -0.23321990433E-01 -0.47528419966E-02 -0.19565671742E-02  0.23881643576E-01  0.00000000000E+00 0.  1.
     999901    1    3    3    0    0  0.81213082668E-01  0.10507363494E-01 -0.11162816830E+00  0.89082367360E+00  0.88000000000E+00 0.  1.
        -11    1    4    4    0    0 -0.13207035433E-01 -0.84620828055E-02  0.19493840508E-01  0.25026057801E-01  0.51100000000E-03 0.  1.
         11    1    4    4    0    0 -0.44684056802E-01  0.27075613079E-02  0.94090894966E-01  0.10419862502E+00  0.51100000000E-03 0. -1.
</event>
<event>
 8    1  0.1162192E+005  0.1043930E+01  0.7957747E-01            NaN
         13   -1    0    0    0    0  0.00000000000E+00  0.00000000000E+00  0.74505805969E-08  0.10566000000E+00  0.10566000000E+00 0. -1.
     999900   -1    0    0    0    0 -0.00000000000E+00 -0.00000000000E+00 -0.74505805969E-08  0.93827000000E+00  0.93827000000E+00 0. -1.
     999902    2    1    2    0    0 -0.18781508227E-01  0.62121875884E-02 -0.13188277896E-01  0.10201546556E+01  0.10198775683E+01 0.  0.
     999903    2    3    3    0    0  0.44151815467E-01  0.11936122619E+00  0.17535750394E-01  0.13015056908E+00  0.20861039356E-01 0.  0.
         14    1    1    2    0    0  0.18781508227E-01 -0.62121875884E-02  0.13188277896E-01  0.23775344367E-01  0.00000000000E+00 0.  1.
     999901    1    3    3    0    0 -0.62933323694E-01 -0.11314903860E+00 -0.30724028290E-01  0.89000408655E+00  0.88000000000E+00 0.  1.
        -11    1    4    4    0    0  0.99192417881E-02  0.55781222239E-01  0.52530478548E-02  0.56901597033E-01  0.51100000000E-03 0.  1.
         11    1    4    4    0    0  0.34232573679E-01  0.63580003951E-01  0.12282702540E-01  0.73248972046E-01  0.51100000000E-03 0. -1.
</event>
<event>
 8    1  0.1162192E+005  0.1043930E+01  0.7957747E-01            NaN
         13   -1    0    0    0    0  0.00000000000E+00  0.00000000000E+00  0.74505805969E-08  0.10566000000E+00  0.10566000000E+00 0.  1.
     999900   -1    0    0    0    0 -0.00000000000E+00 -0.00000000000E+00 -0.74505805969E-08  0.93827000000E+00  0.93827000000E+00 0.  1.
     999902    2    1    2    0    0  0.13345294768E-01 -0.16707648902E-01  0.10312888798E-01  0.10201897789E+01  0.10199135193E+01 0.  0.
     999903    2    3    3    0    0 -0.37220619274E-01  0.10034898503E+00  0.69063612490E-01  0.12906082369E+00  0.20775474601E-01 0.  0.
         14    1    1    2    0    0 -0.13345294768E-01  0.16707648902E-01 -0.10312888798E-01  0.23740221137E-01  0.00000000000E+00 0. -1.
     999901    1    3    3    0    0  0.50565914042E-01 -0.11705663394E+00 -0.58750723692E-01  0.89112895517E+00  0.88000000000E+00 0. -1.
        -11    1    4    4    0    0 -0.31124564435E-01  0.80868489001E-01  0.45468317207E-01  0.97857447418E-01  0.51100000000E-03 0.  1.
         11    1    4    4    0    0 -0.60960548390E-02  0.19480496034E-01  0.23595295283E-01  0.31203376272E-01  0.51100000000E-03 0. -1.
</event>
<event>
 8    1  0.1162192E+005  0.1043930E+01  0.7957747E-01            NaN
         13   -1    0    0    0    0  0.00000000000E+00  0.00000000000E+00  0.74505805969E-08  0.10566000000E+00  0.10566000000E+00 0. -1.
     999900   -1    0    0    0    0 -0.00000000000E+00 -0.00000000000E+00 -0.74505805969E-08  0.93827000000E+00  0.93827000000E+00 0.  1.
     999902    2    1    2    0    0  0.14665388916E-01  0.53036223212E-02  0.15025037740E-01  0.10222746588E+01  0.10220452653E+01 0.  0.
     999903    2    3    3    0    0  0.34710843666E-01 -0.33123060858E-01 -0.12014868130E+00  0.13089911253E+00  0.19922153853E-01 0.  0.
         14    1    1    2    0    0 -0.14665388916E-01 -0.53036223212E-02 -0.15025037740E-01  0.21655341162E-01  0.00000000000E+00 0.  1.
     999901    1    3    3    0    0 -0.20045454750E-01  0.38426683180E-01  0.13517371904E+00  0.89137554631E+00  0.88000000000E+00 0. -1.
        -11    1    4    4    0    0  0.27063517624E-01 -0.26034786277E-01 -0.11040805985E+00  0.11662094530E+00  0.51100000000E-03 0.  1.
         11    1    4    4    0    0  0.76473260414E-02 -0.70882745811E-02 -0.97406214558E-02  0.14278167231E-01  0.51100000000E-03 0. -1.
</event>
<event>
 8    1  0.1162192E+005  0.1043930E+01  0.7957747E-01            NaN
         13   -1    0    0    0    0  0.00000000000E+00  0.00000000000E+00  0.74505805969E-08  0.10566000000E+00  0.10566000000E+00 0. -1.
     999900   -1    0    0    0    0 -0.00000000000E+00 -0.00000000000E+00 -0.74505805969E-08  0.93827000000E+00  0.93827000000E+00 0.  1.
     999902    2    1    2    0    0  0.14845267994E-01  0.18816278109E-01  0.11738231335E-02  0.10199339136E+01  0.10196515953E+01 0.  0.
     999903    2    3    3    0    0  0.76243717304E-01 -0.88525189295E-01  0.53079524192E-01  0.12977316291E+00  0.19334537855E-01 0.  0.
         14    1    1    2    0    0 -0.14845267994E-01 -0.18816278109E-01 -0.11738231335E-02  0.23996086440E-01  0.00000000000E+00 0.  1.
     999901    1    3    3    0    0 -0.61398449310E-01  0.10734146740E+00 -0.51905701058E-01  0.89016075065E+00  0.88000000000E+00 0. -1.
        -11    1    4    4    0    0  0.60560078653E-01 -0.59012804385E-01  0.42981805274E-01  0.94856369915E-01  0.51100000000E-03 0.  1.
         11    1    4    4    0    0  0.15683638651E-01 -0.29512384910E-01  0.10097718918E-01  0.34916792991E-01  0.51100000000E-03 0. -1.
</event>
<event>
 8    1  0.1162192E+005  0.1043930E+01  0.7957747E-01            NaN
         13   -1    0    0    0    0  0.00000000000E+00  0.00000000000E+00  0.74505805969E-08  0.10566000000E+00  0.10566000000E+00 0.  1.
     999900   -1    0    0    0    0 -0.00000000000E+00 -0.00000000000E+00 -0.74505805969E-08  0.93827000000E+00  0.93827000000E+00 0.  1.
     999902    2    1    2    0    0 -0.57327165770E-02  0.11126731220E-01  0.17948336386E-01  0.10220482504E+01  0.10218139827E+01 0.  0.
     999903    2    3    3    0    0  0.93101936748E-01 -0.76202659696E-01 -0.44838765147E-01  0.13000737053E+00  0.20410427775E-01 0.  0.
         14    1    1    2    0    0  0.57327165770E-02 -0.11126731220E-01 -0.17948336386E-01  0.21881749611E-01  0.00000000000E+00 0. -1.
     999901    1    3    3    0    0 -0.98834653325E-01  0.87329390917E-01  0.62787101533E-01  0.89204087986E+00  0.88000000000E+00 0.  1.
        -11    1    4    4    0    0  0.30942960416E-01 -0.35664759661E-01 -0.23759728313E-01  0.52860454893E-01  0.51100000000E-03 0. -1.
         11    1    4    4    0    0  0.62158976332E-01 -0.40537900035E-01 -0.21079036834E-01  0.77146915640E-01  0.51100000000E-03 0.  1.
</event>
<event>
 8    1  0.1162192E+005  0.1043930E+01  0.7957747E-01            NaN
         13   -1    0    0    0    0  0.00000000000E+00  0.00000000000E+00  0.74505805969E-08  0.10566000000E+00  0.10566000000E+00 0.  1.
     999900   -1    0    0    0    0 -0.00000000000E+00 -0.00000000000E+00 -0.74505805969E-08  0.93827000000E+00  0.93827000000E+00 0.  1.
     999902    2    1    2    0    0  0.22575416076E-01  0.55717464406E-02  0.42342228861E-02  0.10202948056E+01  0.10200210135E+01 0.  0.
     999903    2    3    3    0    0 -0.33382051867E-01  0.17647127877E-01  0.12354809384E+00  0.13039995069E+00  0.17726622296E-01 0.  0.
         14    1    1    2    0    0 -0.22575416076E-01 -0.55717464406E-02 -0.42342228861E-02  0.23635194369E-01  0.00000000000E+00 0. -1.
     999901    1    3    3    0    0  0.55957467943E-01 -0.12075381437E-01 -0.11931387095E+00  0.88989485495E+00  0.88000000000E+00 0.  1.
        -11    1    4    4    0    0 -0.25239992796E-01  0.36433913345E-02  0.75612661232E-01  0.79798917263E-01  0.51100000000E-03 0.  1.
         11    1    4    4    0    0 -0.81420590710E-02  0.14003736543E-01  0.47935432609E-01  0.50601033423E-01  0.51100000000E-03 0. -1.
</event>
<event>
 8    1  0.1162192E+005  0.1043930E+01  0.7957747E-01            NaN
         13   -1    0    0    0    0  0.00000000000E+00  0.00000000000E+00  0.74505805969E-08  0.10566000000E+00  0.10566000000E+00 0.  1.
     999900   -1    0    0    0    0 -0.00000000000E+00 -0.00000000000E+00 -0.74505805969E-08  0.93827000000E+00  0.93827000000E+00 0. -1.
     999902    2    1    2    0    0 -0.22554960057E-01 -0.46855346883E-02  0.67415117725E-02  0.10199273243E+01  0.10196448492E+01 0.  0.
     999903    2    3    3    0    0  0.75960608570E-01 -0.59485799415E-01  0.83858054175E-01  0.12939077404E+00  0.20030595881E-01 0.  0.
         14    1    1    2    0    0  0.22554960057E-01  0.46855346883E-02 -0.67415117725E-02  0.24002675673E-01  0.00000000000E+00 0.  1.
     999901    1    3    3    0    0 -0.98515568628E-01  0.54800264727E-01 -0.77116542403E-01  0.89053655028E+00  0.88000000000E+00 0. -1.
        -11    1    4    4    0    0  0.48062481212E-01 -0.46070601684E-01  0.65499569957E-01  0.93396773099E-01  0.51100000000E-03 0.  1.
         11    1    4    4    0    0  0.27898127358E-01 -0.13415197732E-01  0.18358484218E-01  0.35994000945E-01  0.51100000000E-03 0. -1.
</event>
<event>
 8    1  0.1162192E+005  0.1043930E+01  0.7957747E-01            NaN
         13   -1    0    0    0    0  0.00000000000E+00  0.00000000000E+00  0.74505805969E-08  0.10566000000E+00  0.10566000000E+00 0.  1.
     999900   -1    0    0    0    0 -0.00000000000E+00 -0.00000000000E+00 -0.74505805969E-08  0.93827000000E+00  0.93827000000E+00 0. -1.
     999902    2    1    2    0    0 -0.96372761166E-02  0.56710311069E-02 -0.19979840986E-01  0.10210338927E+01  0.10207771443E+01 0.  0.
     999903    2    3    3    0    0 -0.18320298625E-01 -0.87478339037E-01 -0.96099984601E-01  0.13280730205E+00  0.20358764553E-01 0.  0.
         14    1    1    2    0    0  0.96372761166E-02 -0.56710311069E-02  0.19979840986E-01  0.22896107324E-01  0.00000000000E+00 0.  1.
     999901    1    3    3    0    0  0.86830225087E-02  0.93149370144E-01  0.76120143615E-01  0.88822659063E+00  0.88000000000E+00 0. -1.
        -11    1    4    4    0    0 -0.14397007756E-01 -0.63400853709E-01 -0.81921864384E-01  0.10458678247E+00  0.51100000000E-03 0. -1.
         11    1    4    4    0    0 -0.39232908692E-02 -0.24077485329E-01 -0.14178120217E-01  0.28220519571E-01  0.51100000000E-03 0.  1.
</event>
<event>
 8    1  0.1162192E+005  0.1043930E+01  0.7957747E-01            NaN
         13   -1    0    0    0    0  0.00000000000E+00  0.00000000000E+00  0.74505805969E-08  0.10566000000E+00  0.10566000000E+00 0.  1.
     999900   -1    0    0    0    0 -0.00000000000E+00 -0.00000000000E+00 -0.74505805969E-08  0.93827000000E+00  0.93827000000E+00 0.  1.
     999902    2    1    2    0    0  0.24184661092E-01 -0.90049613851E-03 -0.28976851910E-02  0.10195557245E+01  0.10192643279E+01 0.  0.
     999903    2    3    3    0    0 -0.21130270110E-01  0.83011159442E-02 -0.12610558969E+00  0.12977018835E+00  0.20549578906E-01 0.  0.
         14    1    1    2    0    0 -0.24184661092E-01  0.90049613851E-03  0.28976851910E-02  0.24374275474E-01  0.00000000000E+00 0.  1.
     999901    1    3    3    0    0  0.45314931202E-01 -0.92016120827E-02  0.12320790450E+00  0.88978553617E+00  0.88000000000E+00 0. -1.
        -11    1    4    4    0    0 -0.17476452111E-01 -0.35110024787E-02 -0.63679653836E-01  0.66129516484E-01  0.51100000000E-03 0.  1.
         11    1    4    4    0    0 -0.36538179995E-02  0.11812118423E-01 -0.62425935853E-01  0.63640671867E-01  0.51100000000E-03 0. -1.
</event>
<event>
 8    1  0.1162192E+005  0.1043930E+01  0.7957747E-01            NaN
         13   -1    0    0    0    0  0.00000000000E+00  0.00000000000E+00  0.74505805969E-08  0.10566000000E+00  0.10566000000E+00 0.  1.
     999900   -1    0    0    0    0 -0.00000000000E+00 -0.00000000000E+00 -0.74505805969E-08  0.93827000000E+00  0.93827000000E+00 0.  1.
     999902    2    1    2    0    0  0.15872150296E-01 -0.38178899995E-02  0.15611489879E-01  0.10213419488E+01  0.10210921390E+01 0.  0.
     999903    2    3    3    0    0 -0.19848048934E-01  0.53435977783E-01  0.11820486090E+00  0.13281545076E+00  0.20450086847E-01 0.  0.
         14    1    1    2    0    0 -0.15872150296E-01  0.38178899995E-02 -0.15611489879E-01  0.22588051162E-01  0.00000000000E+00 0. -1.
     999901    1    3    3    0    0  0.35720199230E-01 -0.57253867782E-01 -0.10259337102E+00  0.88852649808E+00  0.88000000000E+00 0.  1.
        -11    1    4    4    0    0  0.19679507142E-02  0.16089392767E-02  0.15574271514E-01  0.15788621530E-01  0.51100000000E-03 0. -1.
         11    1    4    4    0    0 -0.21815999649E-01  0.51827038506E-01  0.10263058939E+00  0.11702682923E+00  0.51100000000E-03 0.  1.
</event>
<event>
 8    1  0.1162192E+005  0.1043930E+01  0.7957747E-01            NaN
         13   -1    0    0    0    0  0.00000000000E+00  0.00000000000E+00  0.74505805969E-08  0.10566000000E+00  0.10566000000E+00 0. -1.
     999900   -1    0    0    0    0 -0.00000000000E+00 -0.00000000000E+00 -0.74505805969E-08  0.93827000000E+00  0.93827000000E+00 0. -1.
     999902    2    1    2    0    0  0.12180408763E-01  0.13377825589E-01  0.18696313503E-01  0.10179130687E+01  0.10175805299E+01 0.  0.
     999903    2    3    3    0    0 -0.80452942581E-02 -0.58779627928E-01  0.11346313169E+00  0.12965830402E+00  0.20435805080E-01 0.  0.
         14    1    1    2    0    0 -0.12180408763E-01 -0.13377825589E-01 -0.18696313503E-01  0.26016931289E-01  0.00000000000E+00 0.  1.
     999901    1    3    3    0    0  0.20225703021E-01  0.72157453516E-01 -0.94766818191E-01  0.88825476469E+00  0.88000000000E+00 0. -1.
        -11    1    4    4    0    0  0.16537802849E-02  0.75101534698E-03  0.74670830772E-02  0.77017831678E-02  0.51100000000E-03 0.  1.
         11    1    4    4    0    0 -0.96990745430E-02 -0.59530643275E-01  0.10599604862E+00  0.12195652086E+00  0.51100000000E-03 0. -1.
</event>
<event>
 8    1  0.1162192E+005  0.1043930E+01  0.7957747E-01            NaN
         13   -1    0    0    0    0  0.00000000000E+00  0.00000000000E+00  0.74505805969E-08  0.10566000000E+00  0.10566000000E+00 0.  1.
     999900   -1    0    0    0    0 -0.00000000000E+00 -0.00000000000E+00 -0.74505805969E-08  0.93827000000E+00  0.93827000000E+00 0. -1.
     999902    2    1    2    0    0  0.19810228181E-01 -0.13330058491E-01  0.50073706745E-02  0.10195330871E+01  0.10192411423E+01 0.  0.
     999903    2    3    3    0    0 -0.88800567762E-01 -0.62953157548E-02  0.90780731421E-01  0.12868918265E+00  0.19864357520E-01 0.  0.
         14    1    1    2    0    0 -0.19810228181E-01  0.13330058491E-01 -0.50073706745E-02  0.24396912941E-01  0.00000000000E+00 0.  1.
     999901    1    3    3    0    0  0.10861079594E+00 -0.70347427362E-02 -0.85773360746E-01  0.89084390440E+00  0.88000000000E+00 0. -1.
        -11    1    4    4    0    0 -0.50757862527E-01 -0.90652868733E-02  0.63460698703E-01  0.81768340055E-01  0.51100000000E-03 0.  1.
         11    1    4    4    0    0 -0.38042705235E-01  0.27699711185E-02  0.27320032718E-01  0.46920842600E-01  0.51100000000E-03 0. -1.
</event>
<event>
 8    1  0.1162192E+005  0.1043930E+01  0.7957747E-01            NaN
         13   -1    0    0    0    0  0.00000000000E+00  0.00000000000E+00  0.74505805969E-08  0.10566000000E+00  0.10566000000E+00 0.  1.
     999900   -1    0    0    0    0 -0.00000000000E+00 -0.00000000000E+00 -0.74505805969E-08  0.93827000000E+00  0.93827000000E+00 0. -1.
     999902    2    1    2    0    0  0.10213342626E-01 -0.55856061081E-02  0.17099963834E-01  0.10232437696E+01  0.10230346485E+01 0.  0.
     999903    2    3    3    0    0  0.11491105381E+00 -0.17600232713E-01 -0.62440504309E-01  0.13339398004E+00  0.19514580561E-01 0.  0.
         14    1    1    2    0    0 -0.10213342626E-01  0.55856061081E-02 -0.17099963834E-01  0.20686230355E-01  0.00000000000E+00 0. -1.
     999901    1    3    3    0    0 -0.10469771118E+00  0.12014626605E-01  0.79540468143E-01  0.88984978960E+00  0.88000000000E+00 0.  1.
        -11    1    4    4    0    0  0.80470933268E-01 -0.19920476537E-01 -0.38650481279E-01  0.91468668464E-01  0.51100000000E-03 0.  1.
         11    1    4    4    0    0  0.34440120541E-01  0.23202438236E-02 -0.23790023030E-01  0.41925311580E-01  0.51100000000E-03 0. -1.
</event>
<event>
 8    1  0.1162192E+005  0.1043930E+01  0.7957747E-01            NaN
         13   -1    0    0    0    0  0.00000000000E+00  0.00000000000E+00  0.74505805969E-08  0.10566000000E+00  0.10566000000E+00 0.  1.
     999900   -1    0    0    0    0 -0.00000000000E+00 -0.00000000000E+00 -0.74505805969E-08  0.93827000000E+00  0.93827000000E+00 0. -1.
     999902    2    1    2    0    0 -0.17922337020E-01 -0.46362998763E-02  0.19331235168E-01  0.10171643113E+01  0.10168120938E+01 0.  0.
     999903    2    3    3    0    0  0.12300460777E+00  0.75239104976E-02  0.14282507627E-01  0.12585417212E+00  0.21178759511E-01 0.  0.
         14    1    1    2    0    0  0.17922337020E-01  0.46362998763E-02 -0.19331235168E-01  0.26765688743E-01  0.00000000000E+00 0. -1.
     999901    1    3    3    0    0 -0.14092694479E+00 -0.12160210374E-01  0.50487275412E-02  0.89131013914E+00  0.88000000000E+00 0.  1.
        -11    1    4    4    0    0  0.81367180061E-01  0.12591988854E-01  0.28954062585E-02  0.82388231398E-01  0.51100000000E-03 0.  1.
         11    1    4    4    0    0  0.41637427704E-01 -0.50680783566E-02  0.11387101368E-01  0.43465940720E-01  0.51100000000E-03 0. -1.
</event>
<event>
 8    1  0.1162192E+005  0.1043930E+01  0.7957747E-01            NaN
         13   -1    0    0    0    0  0.00000000000E+00  0.00000000000E+00  0.74505805969E-08  0.10566000000E+00  0.10566000000E+00 0. -1.
     999900   -1    0    0    0    0 -0.00000000000E+00 -0.00000000000E+00 -0.74505805969E-08  0.93827000000E+00  0.93827000000E+00 0. -1.
     999902    2    1    2    0    0 -0.17281722948E-01 -0.70565543870E-03  0.73415176404E-02  0.10251402746E+01  0.10249680624E+01 0.  0.
     999903    2    3    3    0    0  0.10704578927E+00 -0.75136851552E-01 -0.13810545039E-01  0.13303896705E+00  0.20106917695E-01 0.  0.
         14    1    1    2    0    0  0.17281722948E-01  0.70565543870E-03 -0.73415176404E-02  0.18789725355E-01  0.00000000000E+00 0.  1.
     999901    1    3    3    0    0 -0.12432751222E+00  0.74431196114E-01  0.21152062679E-01  0.89210130759E+00  0.88000000000E+00 0. -1.
        -11    1    4    4    0    0  0.77909629004E-01 -0.45527580806E-01 -0.38630895425E-02  0.90320847468E-01  0.51100000000E-03 0. -1.
         11    1    4    4    0    0  0.29136160266E-01 -0.29609270747E-01 -0.99474554962E-02  0.42718119587E-01  0.51100000000E-03 0.  1.
</event>
<event>
 8    1  0.1162192E+005  0.1043930E+01  0.7957747E-01            NaN
         13   -1    0    0    0    0  0.00000000000E+00  0.00000000000E+00  0.74505805969E-08  0.10566000000E+00  0.10566000000E+00 0.  1.
     999900   -1    0    0    0    0 -0.00000000000E+00 -0.00000000000E+00 -0.74505805969E-08  0.93827000000E+00  0.93827000000E+00 0. -1.
     999902    2    1    2    0    0  0.76245590077E-03 -0.22970601590E-02  0.23491999018E-01  0.10203136531E+01  0.10200403025E+01 0.  0.
     999903    2    3    3    0    0 -0.12633928413E+00 -0.19356730436E-01  0.20619786440E-01  0.13101385308E+00  0.20078754392E-01 0.  0.
         14    1    1    2    0    0 -0.76245590077E-03  0.22970601590E-02 -0.23491999018E-01  0.23616346929E-01  0.00000000000E+00 0. -1.
     999901    1    3    3    0    0  0.12710174003E+00  0.17059670277E-01  0.28722125782E-02  0.88929980000E+00  0.88000000000E+00 0.  1.
        -11    1    4    4    0    0 -0.55755682645E-02 -0.75747309997E-04  0.53948729820E-02  0.77755047823E-02  0.51100000000E-03 0. -1.
         11    1    4    4    0    0 -0.12076371586E+00 -0.19280983126E-01  0.15224913458E-01  0.12323834829E+00  0.51100000000E-03 0.  1.
</event>
<event>
 8    1  0.1162192E+005  0.1043930E+01  0.7957747E-01            NaN
         13   -1    0    0    0    0  0.00000000000E+00  0.00000000000E+00  0.74505805969E-08  0.10566000000E+00  0.10566000000E+00 0. -1.
     999900   -1    0    0    0    0 -0.00000000000E+00 -0.00000000000E+00 -0.74505805969E-08  0.93827000000E+00  0.93827000000E+00 0.  1.
     999902    2    1    2    0    0 -0.25843469814E-01 -0.96738306235E-04  0.10646337211E-01  0.10159793509E+01  0.10155948024E+01 0.  0.
     999903    2    3    3    0    0  0.16421759207E-01 -0.89514515140E-02 -0.12211244697E+00  0.12497449662E+00  0.18904296867E-01 0.  0.
         14    1    1    2    0    0  0.25843469814E-01  0.96738306235E-04 -0.10646337211E-01  0.27950649122E-01  0.00000000000E+00 0.  1.
     999901    1    3    3    0    0 -0.42265229022E-01  0.88547132077E-02  0.13275878419E+00  0.89100485426E+00  0.88000000000E+00 0. -1.
        -11    1    4    4    0    0 -0.40393879462E-02 -0.71549202387E-03 -0.12568082427E-01  0.13230510221E-01  0.51100000000E-03 0.  1.
         11    1    4    4    0    0  0.20461147154E-01 -0.82359594901E-02 -0.10954436455E+00  0.11174398640E+00  0.51100000000E-03 0. -1.
</event>
<event>
 8    1  0.1162192E+005  0.1043930E+01  0.7957747E-01            NaN
         13   -1    0    0    0    0  0.00000000000E+00  0.00000000000E+00  0.74505805969E-08  0.10566000000E+00  0.10566000000E+00 0. -1.
     999900   -1    0    0    0    0 -0.00000000000E+00 -0.00000000000E+00 -0.74505805969E-08  0.93827000000E+00  0.93827000000E+00 0.  1.
     999902    2    1    2    0    0  0.19368937884E-01  0.14338457828E-02 -0.97077173219E-02  0.10222170674E+01  0.10219864389E+01 0.  0.
     999903    2    3    3    0    0  0.92367519913E-01 -0.13808264306E-01 -0.95337131595E-01  0.13492145061E+00  0.19804097474E-01 0.  0.
         14    1    1    2    0    0 -0.19368937884E-01 -0.14338457828E-02  0.97077173219E-02  0.21712932646E-01  0.00000000000E+00 0. -1.
     999901    1    3    3    0    0 -0.72998582030E-01  0.15242110089E-01  0.85629414273E-01  0.88729561674E+00  0.88000000000E+00 0. -1.
        -11    1    4    4    0    0  0.40993588154E-01 -0.91407443837E-02 -0.29725923537E-01  0.51457935527E-01  0.51100000000E-03 0. -1.
         11    1    4    4    0    0  0.51373931760E-01 -0.46675199222E-02 -0.65611208058E-01  0.83463515086E-01  0.51100000000E-03 0.  1.
</event>
<event>
 8    1  0.1162192E+005  0.1043930E+01  0.7957747E-01            NaN
         13   -1    0    0    0    0  0.00000000000E+00  0.00000000000E+00  0.74505805969E-08  0.10566000000E+00  0.10566000000E+00 0. -1.
     999900   -1    0    0    0    0 -0.00000000000E+00 -0.00000000000E+00 -0.74505805969E-08  0.93827000000E+00  0.93827000000E+00 0. -1.
     999902    2    1    2    0    0  0.83639561664E-02 -0.19881912102E-01  0.10824007897E-01  0.10197969244E+01  0.10195113347E+01 0.  0.
     999903    2    3    3    0    0  0.73708691266E-01  0.89133461227E-01  0.55159361685E-01  0.12956105136E+00  0.19125003786E-01 0.  0.
         14    1    1    2    0    0 -0.83639561664E-02  0.19881912102E-01 -0.10824007897E-01  0.24133075613E-01  0.00000000000E+00 0.  1.
     999901    1    3    3    0    0 -0.65344735100E-01 -0.10901537333E+00 -0.44335353787E-01  0.89023587303E+00  0.88000000000E+00 0.  1.
        -11    1    4    4    0    0  0.39650811282E-01  0.58330768393E-01  0.40604636673E-01  0.81385889545E-01  0.51100000000E-03 0. -1.
         11    1    4    4    0    0  0.34057879984E-01  0.30802692834E-01  0.14554725011E-01  0.48175161816E-01  0.51100000000E-03 0.  1.
</event>
<event>
 8    1  0.1162192E+005  0.1043930E+01  0.7957747E-01            NaN
         13   -1    0    0    0    0  0.00000000000E+00  0.00000000000E+00  0.74505805969E-08  0.10566000000E+00  0.10566000000E+00 0. -1.
     999900   -1    0    0    0    0 -0.00000000000E+00 -0.00000000000E+00 -0.74505805969E-08  0.93827000000E+00  0.93827000000E+00 0.  1.
     999902    2    1    2    0    0 -0.98389635595E-02  0.57192784249E-02  0.20409503374E-01  0.10205620053E+01  0.10202944396E+01 0.  0.
     999903    2    3    3    0    0  0.11412273880E-01  0.68065405429E-01 -0.10706720406E+00  0.12894046808E+00  0.19977955666E-01 0.  0.
         14    1    1    2    0    0  0.98389635595E-02 -0.57192784249E-02 -0.20409503374E-01  0.23367994728E-01  0.00000000000E+00 0.  1.
     999901    1    3    3    0    0 -0.21251237440E-01 -0.62346127004E-01  0.12747670743E+00  0.89162153719E+00  0.88000000000E+00 0. -1.
        -11    1    4    4    0    0 -0.90717480393E-03  0.38101265315E-01 -0.45396727800E-01  0.59276077811E-01  0.51100000000E-03 0. -1.
         11    1    4    4    0    0  0.12319448684E-01  0.29964140114E-01 -0.61670476259E-01  0.69664390270E-01  0.51100000000E-03 0.  1.
</event>
<event>
 8    1  0.1162192E+005  0.1043930E+01  0.7957747E-01            NaN
         13   -1    0    0    0    0  0.00000000000E+00  0.00000000000E+00  0.74505805969E-08  0.10566000000E+00  0.10566000000E+00 0.  1.
     999900   -1    0    0    0    0 -0.00000000000E+00 -0.00000000000E+00 -0.74505805969E-08  0.93827000000E+00  0.93827000000E+00 0. -1.
     999902    2    1    2    0    0  0.87510383491E-02  0.11299576675E-01  0.21192764106E-01  0.10183684203E+01  0.10180475653E+01 0.  0.
     999903    2    3    3    0    0  0.64413425496E-01 -0.10337314518E+00  0.37520446226E-01  0.12903455293E+00  0.20175119245E-01 0.  0.
         14    1    1    2    0    0 -0.87510383491E-02 -0.11299576675E-01 -0.21192764106E-01  0.25561579679E-01  0.00000000000E+00 0. -1.
     999901    1    3    3    0    0 -0.55662387147E-01  0.11467272186E+00 -0.16327682120E-01  0.88933386739E+00  0.88000000000E+00 0. -1.
        -11    1    4    4    0    0  0.26072612532E-01 -0.48711783640E-01  0.72589887025E-02  0.55727668421E-01  0.51100000000E-03 0.  1.
         11    1    4    4    0    0  0.38340812964E-01 -0.54661361542E-01  0.30261457524E-01  0.73306884512E-01  0.51100000000E-03 0. -1.
</event>
<event>
 8    1  0.1162192E+005  0.1043930E+01  0.7957747E-01            NaN
         13   -1    0    0    0    0  0.00000000000E+00  0.00000000000E+00  0.74505805969E-08  0.10566000000E+00  0.10566000000E+00 0. -1.
     999900   -1    0    0    0    0 -0.00000000000E+00 -0.00000000000E+00 -0.74505805969E-08  0.93827000000E+00  0.93827000000E+00 0.  1.
     999902    2    1    2    0    0 -0.43247654121E-02 -0.21375014237E-01  0.93882751819E-02  0.10201869054E+01  0.10199105782E+01 0.  0.
     999903    2    3    3    0    0  0.49430111651E-01 -0.89359226594E-01  0.82351204142E-01  0.13292424479E+00  0.21417906393E-01 0.  0.
         14    1    1    2    0    0  0.43247654121E-02  0.21375014237E-01 -0.93882751819E-02  0.23743094584E-01  0.00000000000E+00 0.  1.
     999901    1    3    3    0    0 -0.53754877063E-01  0.67984212356E-01 -0.72962928960E-01  0.88726266063E+00  0.88000000000E+00 0.  1.
        -11    1    4    4    0    0  0.24822700552E-01 -0.56803129974E-01  0.38283177183E-01  0.72860310277E-01  0.51100000000E-03 0. -1.
         11    1    4    4    0    0  0.24607411099E-01 -0.32556096620E-01  0.44068026960E-01  0.60063934514E-01  0.51100000000E-03 0.  1.
</event>
<event>
 8    1  0.1162192E+005  0.1043930E+01  0.7957747E-01            NaN
         13   -1    0    0    0    0  0.00000000000E+00  0.00000000000E+00  0.74505805969E-08  0.10566000000E+00  0.10566000000E+00 0. -1.
     999900   -1    0    0    0    0 -0.00000000000E+00 -0.00000000000E+00 -0.74505805969E-08  0.93827000000E+00  0.93827000000E+00 0. -1.
     999902    2    1    2    0    0 -0.21420140349E-01 -0.11150811766E-01  0.30016055667E-02  0.10195954022E+01  0.10193049649E+01 0.  0.
     999903    2    3    3    0    0 -0.14963173447E-01  0.12352435990E+00 -0.24320208162E-01  0.12890714257E+00  0.23311259777E-01 0.  0.
         14    1    1    2    0    0  0.21420140349E-01  0.11150811766E-01 -0.30016055667E-02  0.24334597831E-01  0.00000000000E+00 0.  1.
     999901    1    3    3    0    0 -0.64569669016E-02 -0.13467517166E+00  0.27321813729E-01  0.89068825960E+00  0.88000000000E+00 0.  1.
        -11    1    4    4    0    0 -0.83226166156E-02  0.44139153356E-01  0.21202855716E-02  0.44969851436E-01  0.51100000000E-03 0.  1.
         11    1    4    4    0    0 -0.66405568317E-02  0.79385206543E-01 -0.26440493733E-01  0.83937291133E-01  0.51100000000E-03 0. -1.
</event>
<event>
 8    1  0.1162192E+005  0.1043930E+01  0.7957747E-01            NaN
         13   -1    0    0    0    0  0.00000000000E+00  0.00000000000E+00  0.74505805969E-08  0.10566000000E+00  0.10566000000E+00 0. -1.
     999900   -1    0    0    0    0 -0.00000000000E+00 -0.00000000000E+00 -0.74505805969E-08  0.93827000000E+00  0.93827000000E+00 0. -1.
     999902    2    1    2    0    0 -0.56480935229E-02 -0.18263216834E-01  0.20438335607E-02  0.10247044101E+01  0.10245240382E+01 0.  0.
     999903    2    3    3    0    0 -0.89729753855E-02  0.28847916587E-01 -0.12875057400E+00  0.13378483421E+00  0.20222635369E-01 0.  0.
         14    1    1    2    0    0  0.56480935229E-02  0.18263216834E-01 -0.20438335607E-02  0.19225589853E-01  0.00000000000E+00 0.  1.
     999901    1    3    3    0    0  0.33248818626E-02 -0.47111133420E-01  0.13079440756E+00  0.89091957593E+00  0.88000000000E+00 0.  1.
        -11    1    4    4    0    0 -0.57022281470E-02  0.31643812710E-02 -0.82271168101E-02  0.10510722462E-01  0.51100000000E-03 0.  1.
         11    1    4    4    0    0 -0.32707472385E-02  0.25683535316E-01 -0.12052345719E+00  0.12327411175E+00  0.51100000000E-03 0. -1.
</event>
<event>
 8    1  0.1162192E+005  0.1043930E+01  0.7957747E-01            NaN
         13   -1    0    0    0    0  0.00000000000E+00  0.00000000000E+00  0.74505805969E-08  0.10566000000E+00  0.10566000000E+00 0.  1.
     999900   -1    0    0    0    0 -0.00000000000E+00 -0.00000000000E+00 -0.74505805969E-08  0.93827000000E+00  0.93827000000E+00 0.  1.
     999902    2    1    2    0    0 -0.95001678455E-02  0.49281961832E-02  0.22743231072E-01  0.10187944700E+01  0.10184843530E+01 0.  0.
     999903    2    3    3    0    0 -0.22069449109E-02 -0.72104557083E-01  0.10811027596E+00  0.13128403713E+00  0.18539926589E-01 0.  0.
         14    1    1    2    0    0  0.95001678455E-02 -0.49281961832E-02 -0.22743231072E-01  0.25135529959E-01  0.00000000000E+00 0. -1.
     999901    1    3    3    0    0 -0.72932229346E-02  0.77032753266E-01 -0.85367044891E-01  0.88751043291E+00  0.88000000000E+00 0.  1.
        -11    1    4    4    0    0  0.77902279397E-02 -0.30350782789E-01  0.50491249835E-01  0.59426299718E-01  0.51100000000E-03 0. -1.
         11    1    4    4    0    0 -0.99971728506E-02 -0.41753774294E-01  0.57619026128E-01  0.71857737410E-01  0.51100000000E-03 0.  1.
</event>
<event>
 8    1  0.1162192E+005  0.1043930E+01  0.7957747E-01            NaN
         13   -1    0    0    0    0  0.00000000000E+00  0.00000000000E+00  0.74505805969E-08  0.10566000000E+00  0.10566000000E+00 0.  1.
     999900   -1    0    0    0    0 -0.00000000000E+00 -0.00000000000E+00 -0.74505805969E-08  0.93827000000E+00  0.93827000000E+00 0. -1.
     999902    2    1    2    0    0 -0.17805919454E-01  0.53486869274E-02 -0.13980506529E-01  0.10206681475E+01  0.10204030348E+01 0.  0.
     999903    2    3    3    0    0  0.21126932408E-01  0.74580930768E-01  0.10177850235E+00  0.12954020007E+00  0.20325781269E-01 0.  0.
         14    1    1    2    0    0  0.17805919454E-01 -0.53486869274E-02  0.13980506529E-01  0.23261852511E-01  0.00000000000E+00 0.  1.
     999901    1    3    3    0    0 -0.38932851862E-01 -0.69232243841E-01 -0.11575900888E+00  0.89112794742E+00  0.88000000000E+00 0. -1.
        -11    1    4    4    0    0  0.20114826243E-01  0.41133157481E-01  0.49180258531E-01  0.67197483802E-01  0.51100000000E-03 0.  1.
         11    1    4    4    0    0  0.10121061649E-02  0.33447773287E-01  0.52598243824E-01  0.62342716263E-01  0.51100000000E-03 0. -1.
</event>
<event>
 8    1  0.1162192E+005  0.1043930E+01  0.7957747E-01            NaN
         13   -1    0    0    0    0  0.00000000000E+00  0.00000000000E+00  0.74505805969E-08  0.10566000000E+00  0.10566000000E+00 0. -1.
     999900   -1    0    0    0    0 -0.00000000000E+00 -0.00000000000E+00 -0.74505805969E-08  0.93827000000E+00  0.93827000000E+00 0. -1.
     999902    2    1    2    0    0 -0.11121640300E-01  0.29211384735E-02 -0.22044557496E-01  0.10190666445E+01  0.10187632892E+01 0.  0.
     999903    2    3    3    0    0  0.86499235483E-01  0.65377201627E-01  0.63727302155E-01  0.12733383296E+00  0.19910794690E-01 0.  0.
         14    1    1    2    0    0  0.11121640300E-01 -0.29211384735E-02  0.22044557496E-01  0.24863355529E-01  0.00000000000E+00 0. -1.
     999901    1    3    3    0    0 -0.97620875783E-01 -0.62456063154E-01 -0.85771859651E-01  0.89173281151E+00  0.88000000000E+00 0. -1.
        -11    1    4    4    0    0  0.59774164011E-01  0.54295486388E-01  0.41163267218E-01  0.90640091650E-01  0.51100000000E-03 0.  1.
         11    1    4    4    0    0  0.26725071473E-01  0.11081715239E-01  0.22564034937E-01  0.36693741312E-01  0.51100000000E-03 0. -1.
</event>
<event>
 8    1  0.1162192E+005  0.1043930E+01  0.7957747E-01            NaN
         13   -1    0    0    0    0  0.00000000000E+00  0.00000000000E+00  0.74505805969E-08  0.10566000000E+00  0.10566000000E+00 0. -1.
     999900   -1    0    0    0    0 -0.00000000000E+00 -0.00000000000E+00 -0.74505805969E-08  0.93827000000E+00  0.93827000000E+00 0. -1.
     999902    2    1    2    0    0 -0.12526785497E-01  0.21766125622E-01  0.40244229304E-02  0.10184961533E+01  0.10181785372E+01 0.  0.
     999903    2    3    3    0    0  0.11011508917E+00 -0.57531429332E-01  0.11472868857E-01  0.12642854878E+00  0.20429219315E-01 0.  0.
         14    1    1    2    0    0  0.12526785497E-01 -0.21766125622E-01 -0.40244229304E-02  0.25433846729E-01  0.00000000000E+00 0. -1.
     999901    1    3    3    0    0 -0.12264187467E+00  0.79297554954E-01 -0.74484459264E-02  0.89206760450E+00  0.88000000000E+00 0.  1.
        -11    1    4    4    0    0  0.75921285319E-01 -0.46553283849E-01  0.15097273081E-01  0.90329610744E-01  0.51100000000E-03 0. -1.
         11    1    4    4    0    0  0.34193803852E-01 -0.10978145482E-01 -0.36244042242E-02  0.36098938032E-01  0.51100000000E-03 0.  1.
</event>
<event>
 8    1  0.1162192E+005  0.1043930E+01  0.7957747E-01            NaN
         13   -1    0    0    0    0  0.00000000000E+00  0.00000000000E+00  0.74505805969E-08  0.10566000000E+00  0.10566000000E+00 0.  1.
     999900   -1    0    0    0    0 -0.00000000000E+00 -0.00000000000E+00 -0.74505805969E-08  0.93827000000E+00  0.93827000000E+00 0.  1.
     999902    2    1    2    0    0 -0.37889323664E-02 -0.20633627069E-01 -0.82997930065E-02  0.10213692124E+01  0.10211200120E+01 0.  0.
     999903    2    3    3    0    0  0.10261710624E+00 -0.77050153611E-01 -0.28375970463E-01  0.13293906744E+00  0.20015076507E-01 0.  0.
         14    1    1    2    0    0  0.37889323664E-02  0.20633627069E-01  0.82997930065E-02  0.22560787629E-01  0.00000000000E+00 0.  1.
     999901    1    3    3    0    0 -0.10640603861E+00  0.56416526542E-01  0.20076177456E-01  0.88843014493E+00  0.88000000000E+00 0. -1.
        -11    1    4    4    0    0  0.22219087055E-01 -0.19200133972E-01  0.17151001777E-02  0.29419987486E-01  0.51100000000E-03 0. -1.
         11    1    4    4    0    0  0.80398019187E-01 -0.57850019639E-01 -0.30091070641E-01  0.10351907995E+00  0.51100000000E-03 0.  1.
</event>
<event>
 8    1  0.1162192E+005  0.1043930E+01  0.7957747E-01            NaN
         13   -1    0    0    0    0  0.00000000000E+00  0.00000000000E+00  0.74505805969E-08  0.10566000000E+00  0.10566000000E+00 0. -1.
     999900   -1    0    0    0    0 -0.00000000000E+00 -0.00000000000E+00 -0.74505805969E-08  0.93827000000E+00  0.93827000000E+00 0.  1.
     999902    2    1    2    0    0 -0.90009780307E-02  0.20858821779E-01 -0.66426135360E-02  0.10202607717E+01  0.10199861813E+01 0.  0.
     999903    2    3    3    0    0 -0.88945067456E-01  0.91511306278E-01 -0.33574769878E-01  0.13340781209E+00  0.19617210652E-01 0.  0.
         14    1    1    2    0    0  0.90009780307E-02 -0.20858821779E-01  0.66426135360E-02  0.23669228253E-01  0.00000000000E+00 0. -1.
     999901    1    3    3    0    0  0.79944089425E-01 -0.70652484499E-01  0.26932156342E-01  0.88685295965E+00  0.88000000000E+00 0.  1.
        -11    1    4    4    0    0 -0.78187597840E-01  0.72110421013E-01 -0.32387606227E-01  0.11118647145E+00  0.51100000000E-03 0.  1.
         11    1    4    4    0    0 -0.10757469616E-01  0.19400885265E-01 -0.11871636505E-02  0.22221340647E-01  0.51100000000E-03 0. -1.
</event>
<event>
 8    1  0.1162192E+005  0.1043930E+01  0.7957747E-01            NaN
         13   -1    0    0    0    0  0.00000000000E+00  0.00000000000E+00  0.74505805969E-08  0.10566000000E+00  0.10566000000E+00 0.  1.
     999900   -1    0    0    0    0 -0.00000000000E+00 -0.00000000000E+00 -0.74505805969E-08  0.93827000000E+00  0.93827000000E+00 0.  1.
     999902    2    1    2    0    0 -0.16262426033E-01 -0.37426141588E-02 -0.16221231292E-01  0.10206576558E+01  0.10203923012E+01 0.  0.
     999903    2    3    3    0    0 -0.40414434049E-01 -0.10014381990E+00 -0.75796103878E-01  0.13306220885E+00  0.17273995375E-01 0.  0.
         14    1    1    2    0    0  0.16262426033E-01  0.37426141588E-02  0.16221231292E-01  0.23272344228E-01  0.00000000000E+00 0.  1.
     999901    1    3    3    0    0  0.24152008015E-01  0.96401205742E-01  0.59574872587E-01  0.88759544693E+00  0.88000000000E+00 0.  1.
        -11    1    4    4    0    0 -0.13190250834E-01 -0.19941938306E-01 -0.23450470886E-01  0.33494019261E-01  0.51100000000E-03 0. -1.
         11    1    4    4    0    0 -0.27224183214E-01 -0.80201881594E-01 -0.52345632993E-01  0.99568189586E-01  0.51100000000E-03 0.  1.
</event>
<event>
 8    1  0.1162192E+005  0.1043930E+01  0.7957747E-01            NaN
         13   -1    0    0    0    0  0.00000000000E+00  0.00000000000E+00  0.74505805969E-08  0.10566000000E+00  0.10566000000E+00 0. -1.
     999900   -1    0    0    0    0 -0.00000000000E+00 -0.00000000000E+00 -0.74505805969E-08  0.93827000000E+00  0.93827000000E+00 0.  1.
     999902    2    1    2    0    0 -0.29251858251E-02 -0.21466459754E-01  0.52618964334E-03  0.10222587637E+01  0.10220290297E+01 0.  0.
     999903    2    3    3    0    0  0.55623367442E-01  0.26911931523E-01 -0.11435809716E+00  0.13154736198E+00  0.20216898730E-01 0.  0.
         14    1    1    2    0    0  0.29251858251E-02  0.21466459754E-01 -0.52618964334E-03  0.21671236283E-01  0.00000000000E+00 0.  1.
     999901    1    3    3    0    0 -0.58548553267E-01 -0.48378391278E-01  0.11488428680E+00  0.89071140174E+00  0.88000000000E+00 0. -1.
        -11    1    4    4    0    0  0.53731111207E-02  0.30637693302E-03 -0.25402005637E-01  0.25970891423E-01  0.51100000000E-03 0. -1.
         11    1    4    4    0    0  0.50250256321E-01  0.26605554590E-01 -0.88956091521E-01  0.10557647056E+00  0.51100000000E-03 0.  1.
</event>
<event>
 8    1  0.1162192E+005  0.1043930E+01  0.7957747E-01            NaN
         13   -1    0    0    0    0  0.00000000000E+00  0.00000000000E+00  0.74505805969E-08  0.10566000000E+00  0.10566000000E+00 0.  1.
     999900   -1    0    0    0    0 -0.00000000000E+00 -0.00000000000E+00 -0.74505805969E-08  0.93827000000E+00  0.93827000000E+00 0. -1.
     999902    2    1    2    0    0 -0.22022149512E-01  0.92058842762E-02  0.60639245418E-02  0.10193028898E+01  0.10190053418E+01 0.  0.
     999903    2    3    3    0    0  0.12352715754E+00 -0.20485087806E-01  0.14832224024E-02  0.12684160919E+00  0.20198920815E-01 0.  0.
         14    1    1    2    0    0  0.22022149512E-01 -0.92058842762E-02 -0.60639245418E-02  0.24627110169E-01  0.00000000000E+00 0. -1.
     999901    1    3    3    0    0 -0.14554930705E+00  0.29690972082E-01  0.45807021395E-02  0.89246128064E+00  0.88000000000E+00 0. -1.
        -11    1    4    4    0    0  0.73759587958E-01 -0.18434213832E-01  0.86335398842E-02  0.76518600270E-01  0.51100000000E-03 0.  1.
         11    1    4    4    0    0  0.49767569580E-01 -0.20508739739E-02 -0.71503174819E-02  0.50323008922E-01  0.51100000000E-03 0. -1.
</event>
<event>
 8    1  0.1162192E+005  0.1043930E+01  0.7957747E-01            NaN
         13   -1    0    0    0    0  0.00000000000E+00  0.00000000000E+00  0.74505805969E-08  0.10566000000E+00  0.10566000000E+00 0. -1.
     999900   -1    0    0    0    0 -0.00000000000E+00 -0.00000000000E+00 -0.74505805969E-08  0.93827000000E+00  0.93827000000E+00 0.  1.
     999902    2    1    2    0    0  0.51204630218E-02 -0.27583384144E-02 -0.23078412959E-01  0.10201299849E+01  0.10198523155E+01 0.  0.
     999903    2    3    3    0    0 -0.70904421146E-01 -0.10400398704E+00  0.22309336022E-01  0.12991062313E+00  0.23125684217E-01 0.  0.
         14    1    1    2    0    0 -0.51204630218E-02  0.27583384144E-02  0.23078412959E-01  0.23800015065E-01  0.00000000000E+00 0. -1.
     999901    1    3    3    0    0  0.76024884168E-01  0.10124564862E+00 -0.45387748981E-01  0.89021936181E+00  0.88000000000E+00 0. -1.
        -11    1    4    4    0    0 -0.66554608970E-01 -0.95011041627E-01  0.13882725989E-01  0.11683152489E+00  0.51100000000E-03 0. -1.
         11    1    4    4    0    0 -0.43498121764E-02 -0.89929454091E-02  0.84266100332E-02  0.13079098239E-01  0.51100000000E-03 0.  1.
</event>
<event>
 8    1  0.1162192E+005  0.1043930E+01  0.7957747E-01            NaN
         13   -1    0    0    0    0  0.00000000000E+00  0.00000000000E+00  0.74505805969E-08  0.10566000000E+00  0.10566000000E+00 0.  1.
     999900   -1    0    0    0    0 -0.00000000000E+00 -0.00000000000E+00 -0.74505805969E-08  0.93827000000E+00  0.93827000000E+00 0. -1.
     999902    2    1    2    0    0  0.72593395454E-02 -0.20547358399E-01 -0.74807344505E-02  0.10208897453E+01  0.10206297168E+01 0.  0.
     999903    2    3    3    0    0 -0.20148689184E-02  0.12672962260E+00  0.18404179440E-02  0.12855381981E+00  0.21406552922E-01 0.  0.
         14    1    1    2    0    0 -0.72593395454E-02  0.20547358399E-01  0.74807344505E-02  0.23040254680E-01  0.00000000000E+00 0.  1.
     999901    1    3    3    0    0  0.92742084638E-02 -0.14727698100E+00 -0.93211523945E-02  0.89233592551E+00  0.88000000000E+00 0.  1.
        -11    1    4    4    0    0 -0.11619885396E-01  0.76321254186E-01  0.22260882491E-02  0.77234527040E-01  0.51100000000E-03 0. -1.
         11    1    4    4    0    0  0.96050164774E-02  0.50408368415E-01 -0.38567030516E-03  0.51319292770E-01  0.51100000000E-03 0.  1.
</event>
<event>
 8    1  0.1162192E+005  0.1043930E+01  0.7957747E-01            NaN
         13   -1    0    0    0    0  0.00000000000E+00  0.00000000000E+00  0.74505805969E-08  0.10566000000E+00  0.10566000000E+00 0. -1.
     999900   -1    0    0    0    0 -0.00000000000E+00 -0.00000000000E+00 -0.74505805969E-08  0.93827000000E+00  0.93827000000E+00 0.  1.
     999902    2    1    2    0    0  0.53904462466E-02  0.10743731816E-01 -0.20355618933E-01  0.10202902896E+01  0.10200163916E+01 0.  0.
     999903    2    3    3    0    0 -0.38386558260E-01  0.12399729062E+00  0.54240931273E-02  0.13157920708E+00  0.20852122493E-01 0.  0.
         14    1    1    2    0    0 -0.53904462466E-02 -0.10743731816E-01  0.20355618933E-01  0.23639710366E-01  0.00000000000E+00 0. -1.
     999901    1    3    3    0    0  0.43777004506E-01 -0.11325355880E+00 -0.25779712060E-01  0.88871108256E+00  0.88000000000E+00 0.  1.
        -11    1    4    4    0    0 -0.22297389400E-01  0.53093427379E-01 -0.63019767823E-02  0.57931525418E-01  0.51100000000E-03 0. -1.
         11    1    4    4    0    0 -0.16089168859E-01  0.70903863241E-01  0.11726069910E-01  0.73647681658E-01  0.51100000000E-03 0.  1.
</event>
<event>
 8    1  0.1162192E+005  0.1043930E+01  0.7957747E-01            NaN
         13   -1    0    0    0    0  0.00000000000E+00  0.00000000000E+00  0.74505805969E-08  0.10566000000E+00  0.10566000000E+00 0. -1.
     999900   -1    0    0    0    0 -0.00000000000E+00 -0.00000000000E+00 -0.74505805969E-08  0.93827000000E+00  0.93827000000E+00 0.  1.
     999902    2    1    2    0    0  0.10300796436E-01  0.16528335795E-01  0.96992874336E-02  0.10221729674E+01  0.10219413911E+01 0.  0.
     999903    2    3    3    0    0  0.70713813154E-02  0.10214449969E+00 -0.82628926263E-01  0.13320443269E+00  0.20793705331E-01 0.  0.
         14    1    1    2    0    0 -0.10300796436E-01 -0.16528335795E-01 -0.96992874336E-02  0.21757032612E-01  0.00000000000E+00 0. -1.
     999901    1    3    3    0    0  0.32294151204E-02 -0.85616163897E-01  0.92328213697E-01  0.88896853470E+00  0.88000000000E+00 0. -1.
        -11    1    4    4    0    0  0.67578706779E-02  0.52773363046E-01 -0.55429660713E-01  0.76833619407E-01  0.51100000000E-03 0. -1.
         11    1    4    4    0    0  0.31351063755E-03  0.49371136645E-01 -0.27199265550E-01  0.56370813281E-01  0.51100000000E-03 0.  1.
</event>
<event>
 8    1  0.1162192E+005  0.1043930E+01  0.7957747E-01            NaN
         13   -1    0    0    0    0  0.00000000000E+00  0.00000000000E+00  0.74505805969E-08  0.10566000000E+00  0.10566000000E+00 0. -1.
     999900   -1    0    0    0    0 -0.00000000000E+00 -0.00000000000E+00 -0.74505805969E-08  0.93827000000E+00  0.93827000000E+00 0.  1.
     999902    2    1    2    0    0  0.42610882603E-02 -0.58289977971E-02 -0.22251010022E-01  0.10205368058E+01  0.10202686560E+01 0.  0.
     999903    2    3    3    0    0  0.37298689892E-01  0.12285645973E+00  0.59999532093E-02  0.13011581152E+00  0.20229261094E-01 0.  0.
         14    1    1    2    0    0 -0.42610882603E-02  0.58289977971E-02  0.22251010022E-01  0.23393194213E-01  0.00000000000E+00 0. -1.
     999901    1    3    3    0    0 -0.33037601632E-01 -0.12868545753E+00 -0.28250963232E-01  0.89042099426E+00  0.88000000000E+00 0.  1.
        -11    1    4    4    0    0  0.19628443890E-01  0.57392856638E-01  0.12710750486E-01  0.61976125254E-01  0.51100000000E-03 0. -1.
         11    1    4    4    0    0  0.17670246003E-01  0.65463603094E-01 -0.67107972764E-02  0.68139686270E-01  0.51100000000E-03 0.  1.
</event>
<event>
 8    1  0.1162192E+005  0.1043930E+01  0.7957747E-01            NaN
         13   -1    0    0    0    0  0.00000000000E+00  0.00000000000E+00  0.74505805969E-08  0.10566000000E+00  0.10566000000E+00 0. -1.
     999900   -1    0    0    0    0 -0.00000000000E+00 -0.00000000000E+00 -0.74505805969E-08  0.93827000000E+00  0.93827000000E+00 0. -1.
     999902    2    1    2    0    0  0.22891442231E-01  0.70170348692E-02  0.10747972951E-02  0.10199631042E+01  0.10196814806E+01 0.  0.
     999903    2    3    3    0    0 -0.10434734787E+00  0.71235388482E-01 -0.70635054074E-02  0.12845879202E+00  0.22111502845E-01 0.  0.
         14    1    1    2    0    0 -0.22891442231E-01 -0.70170348692E-02 -0.10747972951E-02  0.23966895815E-01  0.00000000000E+00 0.  1.
     999901    1    3    3    0    0  0.12723879010E+00 -0.64218353613E-01  0.81383027024E-02  0.89150431217E+00  0.88000000000E+00 0.  1.
        -11    1    4    4    0    0 -0.64292858456E-01  0.53557790407E-01  0.21835592807E-02  0.83708049875E-01  0.51100000000E-03 0. -1.
         11    1    4    4    0    0 -0.40054489412E-01  0.17677598075E-01 -0.92470646881E-02  0.44750742140E-01  0.51100000000E-03 0.  1.
</event>
<event>
 8    1  0.1162192E+005  0.1043930E+01  0.7957747E-01            NaN
         13   -1    0    0    0    0  0.00000000000E+00  0.00000000000E+00  0.74505805969E-08  0.10566000000E+00  0.10566000000E+00 0.  1.
     999900   -1    0    0    0    0 -0.00000000000E+00 -0.00000000000E+00 -0.74505805969E-08  0.93827000000E+00  0.93827000000E+00 0.  1.
     999902    2    1    2    0    0  0.61270681044E-02  0.19603101235E-01  0.13939945638E-01  0.10191077393E+01  0.10188053983E+01 0.  0.
     999903    2    3    3    0    0 -0.44169863182E-01 -0.11731928769E+00  0.75270271587E-02  0.12707710788E+00  0.19420173317E-01 0.  0.
         14    1    1    2    0    0 -0.61270681044E-02 -0.19603101235E-01 -0.13939945638E-01  0.24822260694E-01  0.00000000000E+00 0.  1.
     999901    1    3    3    0    0  0.50296931286E-01  0.13692238892E+00  0.64129184797E-02  0.89203063143E+00  0.88000000000E+00 0.  1.
        -11    1    4    4    0    0 -0.47967785252E-02 -0.10267848579E-01 -0.48622136620E-02  0.12342610800E-01  0.51100000000E-03 0.  1.
         11    1    4    4    0    0 -0.39373084657E-01 -0.10705143911E+00  0.12389240821E-01  0.11473449708E+00  0.51100000000E-03 0. -1.
</event>
<event>
 8    1  0.1162192E+005  0.1043930E+01  0.7957747E-01            NaN
         13   -1    0    0    0    0  0.00000000000E+00  0.00000000000E+00  0.74505805969E-08  0.10566000000E+00  0.10566000000E+00 0.  1.
     999900   -1    0    0    0    0 -0.00000000000E+00 -0.00000000000E+00 -0.74505805969E-08  0.93827000000E+00  0.93827000000E+00 0. -1.
     999902    2    1    2    0    0 -0.32110557876E-02  0.23220308105E-01  0.10534177799E-03  0.10204884837E+01  0.10202192121E+01 0.  0.
     999903    2    3    3    0    0  0.98384867555E-01 -0.43486474127E-01  0.68938306298E-01  0.12947248869E+00  0.20975692008E-01 0.  0.
         14    1    1    2    0    0  0.32110557876E-02 -0.23220308105E-01 -0.10534177799E-03  0.23441516262E-01  0.00000000000E+00 0. -1.
     999901    1    3    3    0    0 -0.10159592334E+00  0.66706782232E-01 -0.68832964520E-01  0.89101599505E+00  0.88000000000E+00 0. -1.
        -11    1    4    4    0    0  0.24408810497E-01 -0.10729895228E-01  0.28473903961E-01  0.39012113622E-01  0.51100000000E-03 0.  1.
         11    1    4    4    0    0  0.73976057058E-01 -0.32756578899E-01  0.40464402337E-01  0.90460375063E-01  0.51100000000E-03 0. -1.
</event>
<event>
 8    1  0.1162192E+005  0.1043930E+01  0.7957747E-01            NaN
         13   -1    0    0    0    0  0.00000000000E+00  0.00000000000E+00  0.74505805969E-08  0.10566000000E+00  0.10566000000E+00 0. -1.
     999900   -1    0    0    0    0 -0.00000000000E+00 -0.00000000000E+00 -0.74505805969E-08  0.93827000000E+00  0.93827000000E+00 0.  1.
     999902    2    1    2    0    0 -0.13523396437E-02  0.11947106078E-01  0.18907152107E-01  0.10215236936E+01  0.10212779318E+01 0.  0.
     999903    2    3    3    0    0 -0.96886860047E-01  0.86805970335E-01 -0.16514929509E-01  0.13248746372E+00  0.18916791799E-01 0.  0.
         14    1    1    2    0    0  0.13523396437E-02 -0.11947106078E-01 -0.18907152107E-01  0.22406306411E-01  0.00000000000E+00 0.  1.
     999901    1    3    3    0    0  0.95534520403E-01 -0.74858864257E-01  0.35422081616E-01  0.88903622986E+00  0.88000000000E+00 0. -1.
        -11    1    4    4    0    0 -0.27788263542E-01  0.22753320882E-01 -0.13006013312E-01  0.38201030158E-01  0.51100000000E-03 0. -1.
         11    1    4    4    0    0 -0.69098596504E-01  0.64052649453E-01 -0.35089161968E-02  0.94286433567E-01  0.51100000000E-03 0.  1.
</event>
<event>
 8    1  0.1162192E+005  0.1043930E+01  0.7957747E-01            NaN
         13   -1    0    0    0    0  0.00000000000E+00  0.00000000000E+00  0.74505805969E-08  0.10566000000E+00  0.10566000000E+00 0. -1.
     999900   -1    0    0    0    0 -0.00000000000E+00 -0.00000000000E+00 -0.74505805969E-08  0.93827000000E+00  0.93827000000E+00 0.  1.
     999902    2    1    2    0    0  0.21906937148E-01  0.57096453305E-02 -0.67383958684E-02  0.10203096714E+01  0.10200362276E+01 0.  0.
     999903    2    3    3    0    0  0.10853946736E+00 -0.37308682243E-01  0.62660520878E-01  0.13229391621E+00  0.20064536924E-01 0.  0.
         14    1    1    2    0    0 -0.21906937148E-01 -0.57096453305E-02  0.67383958684E-02  0.23620328616E-01  0.00000000000E+00 0. -1.
     999901    1    3    3    0    0 -0.86632530216E-01  0.43018327574E-01 -0.69398916747E-01  0.88801575518E+00  0.88000000000E+00 0.  1.
        -11    1    4    4    0    0  0.19460487171E-01 -0.23816105960E-02  0.18314388673E-01  0.26833944612E-01  0.51100000000E-03 0. -1.
         11    1    4    4    0    0  0.89078980193E-01 -0.34927071647E-01  0.44346132205E-01  0.10545997159E+00  0.51100000000E-03 0.  1.
</event>
<event>
 8    1  0.1162192E+005  0.1043930E+01  0.7957747E-01            NaN
         13   -1    0    0    0    0  0.00000000000E+00  0.00000000000E+00  0.74505805969E-08  0.10566000000E+00  0.10566000000E+00 0. -1.
     999900   -1    0    0    0    0 -0.00000000000E+00 -0.00000000000E+00 -0.74505805969E-08  0.93827000000E+00  0.93827000000E+00 0.  1.
     999902    2    1    2    0    0  0.10097133880E-01  0.22250449795E-01 -0.26436104093E-02  0.10193531144E+01  0.10190567936E+01 0.  0.
     999903    2    3    3    0    0  0.70504776777E-01  0.71130037253E-01 -0.84192957545E-01  0.13217297859E+00  0.18730627918E-01 0.  0.
         14    1    1    2    0    0 -0.10097133880E-01 -0.22250449795E-01  0.26436104093E-02  0.24576885578E-01  0.00000000000E+00 0.  1.
     999901    1    3    3    0    0 -0.60407642897E-01 -0.48879587457E-01  0.81549347136E-01  0.88718013583E+00  0.88000000000E+00 0. -1.
        -11    1    4    4    0    0  0.57438047574E-02  0.10804577985E-01 -0.17462651215E-01  0.21329217214E-01  0.51100000000E-03 0. -1.
         11    1    4    4    0    0  0.64760972020E-01  0.60325459268E-01 -0.66730306330E-01  0.11084376138E+00  0.51100000000E-03 0.  1.
</event>
<event>
 8    1  0.1162192E+005  0.1043930E+01  0.7957747E-01            NaN
         13   -1    0    0    0    0  0.00000000000E+00  0.00000000000E+00  0.74505805969E-08  0.10566000000E+00  0.10566000000E+00 0.  1.
     999900   -1    0    0    0    0 -0.00000000000E+00 -0.00000000000E+00 -0.74505805969E-08  0.93827000000E+00  0.93827000000E+00 0. -1.
     999902    2    1    2    0    0  0.20900876935E-01  0.52025411284E-02 -0.10336196876E-01  0.10200396242E+01  0.10197598172E+01 0.  0.
     999903    2    3    3    0    0  0.91956434173E-01  0.93415208025E-01  0.72071044755E-02  0.13260617077E+00  0.18710085375E-01 0.  0.
         14    1    1    2    0    0 -0.20900876935E-01 -0.52025411284E-02  0.10336196876E-01  0.23890375817E-01  0.00000000000E+00 0. -1.
     999901    1    3    3    0    0 -0.71055557239E-01 -0.88212666897E-01 -0.17543301352E-01  0.88743345341E+00  0.88000000000E+00 0.  1.
        -11    1    4    4    0    0  0.51127896175E-01  0.55206202797E-01  0.13089662048E-01  0.76376612703E-01  0.51100000000E-03 0. -1.
         11    1    4    4    0    0  0.40828537999E-01  0.38209005229E-01 -0.58825575724E-02  0.56229558066E-01  0.51100000000E-03 0.  1.
</event>
<event>
 8    1  0.1162192E+005  0.1043930E+01  0.7957747E-01            NaN
         13   -1    0    0    0    0  0.00000000000E+00  0.00000000000E+00  0.74505805969E-08  0.10566000000E+00  0.10566000000E+00 0. -1.
     999900   -1    0    0    0    0 -0.00000000000E+00 -0.00000000000E+00 -0.74505805969E-08  0.93827000000E+00  0.93827000000E+00 0. -1.
     999902    2    1    2    0    0 -0.27053697055E-02  0.43819889954E-02  0.22998283748E-01  0.10203621849E+01  0.10200899698E+01 0.  0.
     999903    2    3    3    0    0 -0.71631896611E-02  0.78533267139E-01  0.10561322948E+00  0.13337655173E+00  0.20405023299E-01 0.  0.
         14    1    1    2    0    0  0.27053697055E-02 -0.43819889954E-02 -0.22998283748E-01  0.23567815091E-01  0.00000000000E+00 0.  1.
     999901    1    3    3    0    0  0.44578199555E-02 -0.74151278143E-01 -0.82614945735E-01  0.88698563318E+00  0.88000000000E+00 0. -1.
        -11    1    4    4    0    0 -0.92202062912E-02  0.49995533568E-01  0.80986967620E-01  0.95622777758E-01  0.51100000000E-03 0. -1.
         11    1    4    4    0    0  0.20570166302E-02  0.28537733571E-01  0.24626261863E-01  0.37753773971E-01  0.51100000000E-03 0.  1.
</event>
<event>
 8    1  0.1162192E+005  0.1043930E+01  0.7957747E-01            NaN
         13   -1    0    0    0    0  0.00000000000E+00  0.00000000000E+00  0.74505805969E-08  0.10566000000E+00  0.10566000000E+00 0. -1.
     999900   -1    0    0    0    0 -0.00000000000E+00 -0.00000000000E+00 -0.74505805969E-08  0.93827000000E+00  0.93827000000E+00 0.  1.
     999902    2    1    2    0    0  0.14898675550E-01 -0.37737044895E-02 -0.18463191838E-01  0.10199070770E+01  0.10196241194E+01 0.  0.
     999903    2    3    3    0    0 -0.55037305845E-01 -0.29859293737E-01 -0.11385079990E+00  0.13161078898E+00  0.20945469218E-01 0.  0.
         14    1    1    2    0    0 -0.14898675550E-01  0.37737044895E-02  0.18463191838E-01  0.24022923043E-01  0.00000000000E+00 0. -1.
     999901    1    3    3    0    0  0.69935981395E-01  0.26085589248E-01  0.95387608064E-01  0.88829628798E+00  0.88000000000E+00 0. -1.
        -11    1    4    4    0    0 -0.39185946890E-01 -0.11498963037E-01 -0.60409282137E-01  0.72919867484E-01  0.51100000000E-03 0. -1.
         11    1    4    4    0    0 -0.15851358955E-01 -0.18360330700E-01 -0.53441517764E-01  0.58690921497E-01  0.51100000000E-03 0.  1.
</event>
<event>
 8    1  0.1162192E+005  0.1043930E+01  0.7957747E-01            NaN
         13   -1    0    0    0    0  0.00000000000E+00  0.00000000000E+00  0.74505805969E-08  0.10566000000E+00  0.10566000000E+00 0. -1.
     999900   -1    0    0    0    0 -0.00000000000E+00 -0.00000000000E+00 -0.74505805969E-08  0.93827000000E+00  0.93827000000E+00 0.  1.
     999902    2    1    2    0    0  0.12558559707E-01 -0.58243665399E-02 -0.19570952674E-01  0.10199578734E+01  0.10196761253E+01 0.  0.
     999903    2    3    3    0    0  0.32210551263E-01  0.12003425573E+00 -0.35141856192E-01  0.13064968908E+00  0.19714183697E-01 0.  0.
         14    1    1    2    0    0 -0.12558559707E-01  0.58243665399E-02  0.19570952674E-01  0.23972126649E-01  0.00000000000E+00 0. -1.
     999901    1    3    3    0    0 -0.19651991556E-01 -0.12585862227E+00  0.15570903518E-01  0.88930818427E+00  0.88000000000E+00 0. -1.
        -11    1    4    4    0    0 -0.50652144490E-04  0.28028556076E-01 -0.41209807578E-02  0.28334539431E-01  0.51100000000E-03 0. -1.
         11    1    4    4    0    0  0.32261203408E-01  0.92005699655E-01 -0.31020875434E-01  0.10231514965E+00  0.51100000000E-03 0.  1.
</event>
<event>
 8    1  0.1162192E+005  0.1043930E+01  0.7957747E-01            NaN
         13   -1    0    0    0    0  0.00000000000E+00  0.00000000000E+00  0.74505805969E-08  0.10566000000E+00  0.10566000000E+00 0.  1.
     999900   -1    0    0    0    0 -0.00000000000E+00 -0.00000000000E+00 -0.74505805969E-08  0.93827000000E+00  0.93827000000E+00 0.  1.
     999902    2    1    2    0    0 -0.14020819621E-01 -0.17850893728E-01 -0.63533708812E-02  0.10203587652E+01  0.10200864701E+01 0.  0.
     999903    2    3    3    0    0  0.49475467128E-01 -0.10336628938E+00 -0.63008460797E-01  0.13212768007E+00  0.18847972885E-01 0.  0.
         14    1    1    2    0    0  0.14020819621E-01  0.17850893728E-01  0.63533708812E-02  0.23571234828E-01  0.00000000000E+00 0.  1.
     999901    1    3    3    0    0 -0.63496286749E-01  0.85515395650E-01  0.56655089916E-01  0.88823108510E+00  0.88000000000E+00 0.  1.
        -11    1    4    4    0    0  0.40165436143E-01 -0.65537485546E-01 -0.37219258113E-01  0.85404675327E-01  0.51100000000E-03 0. -1.
         11    1    4    4    0    0  0.93100309850E-02 -0.37828803832E-01 -0.25789202684E-01  0.46723004745E-01  0.51100000000E-03 0.  1.
</event>
<event>
 8    1  0.1162192E+005  0.1043930E+01  0.7957747E-01            NaN
         13   -1    0    0    0    0  0.00000000000E+00  0.00000000000E+00  0.74505805969E-08  0.10566000000E+00  0.10566000000E+00 0.  1.
     999900   -1    0    0    0    0 -0.00000000000E+00 -0.00000000000E+00 -0.74505805969E-08  0.93827000000E+00  0.93827000000E+00 0. -1.
     999902    2    1    2    0    0  0.16021130034E-01 -0.14964181015E-01 -0.66782773234E-02  0.10210126985E+01  0.10207554691E+01 0.  0.
     999903    2    3    3    0    0 -0.11305149298E+00  0.27403520625E-01 -0.51959098781E-01  0.12943818284E+00  0.22867055395E-01 0.  0.
         14    1    1    2    0    0 -0.16021130034E-01  0.14964181015E-01  0.66782773234E-02  0.22917301521E-01  0.00000000000E+00 0.  1.
     999901    1    3    3    0    0  0.12907262301E+00 -0.42367701641E-01  0.45280821458E-01  0.89157451564E+00  0.88000000000E+00 0.  1.
        -11    1    4    4    0    0 -0.53982901696E-01  0.14845518659E-01 -0.12711028234E-01  0.57414061514E-01  0.51100000000E-03 0. -1.
         11    1    4    4    0    0 -0.59068591281E-01  0.12558001966E-01 -0.39248070548E-01  0.72024121321E-01  0.51100000000E-03 0.  1.
</event>
<event>
 8    1  0.1162192E+005  0.1043930E+01  0.7957747E-01            NaN
         13   -1    0    0    0    0  0.00000000000E+00  0.00000000000E+00  0.74505805969E-08  0.10566000000E+00  0.10566000000E+00 0.  1.
     999900   -1    0    0    0    0 -0.00000000000E+00 -0.00000000000E+00 -0.74505805969E-08  0.93827000000E+00  0.93827000000E+00 0.  1.
     999902    2    1    2    0    0 -0.78303658528E-02 -0.91191567220E-02  0.20676964907E-01  0.10200132584E+01  0.10197328262E+01 0.  0.
     999903    2    3    3    0    0 -0.10818149999E+00  0.11419102100E-01 -0.67471513379E-01  0.12969740190E+00  0.20865716083E-01 0.  0.
         14    1    1    2    0    0  0.78303658528E-02  0.91191567220E-02 -0.20676964907E-01  0.23916741552E-01  0.00000000000E+00 0. -1.
     999901    1    3    3    0    0  0.10035113414E+00 -0.20538258822E-01  0.88148478286E-01  0.89031585655E+00  0.88000000000E+00 0.  1.
        -11    1    4    4    0    0 -0.35090923374E-01  0.13593173594E-01 -0.22305360733E-01  0.43748571520E-01  0.51100000000E-03 0.  1.
         11    1    4    4    0    0 -0.73090576621E-01 -0.21740714936E-02 -0.45166152645E-01  0.85948830378E-01  0.51100000000E-03 0. -1.
</event>
<event>
 8    1  0.1162192E+005  0.1043930E+01  0.7957747E-01            NaN
         13   -1    0    0    0    0  0.00000000000E+00  0.00000000000E+00  0.74505805969E-08  0.10566000000E+00  0.10566000000E+00 0.  1.
     999900   -1    0    0    0    0 -0.00000000000E+00 -0.00000000000E+00 -0.74505805969E-08  0.93827000000E+00  0.93827000000E+00 0. -1.
     999902    2    1    2    0    0 -0.49648209547E-03  0.23979375097E-01 -0.20548779441E-02  0.10198576206E+01  0.10195734829E+01 0.  0.
     999903    2    3    3    0    0  0.10795588209E-01  0.13085867651E+00 -0.11186381866E-01  0.13327199010E+00  0.19893472903E-01 0.  0.
         14    1    1    2    0    0  0.49648209547E-03 -0.23979375097E-01  0.20548779441E-02  0.24072379357E-01  0.00000000000E+00 0.  1.
     999901    1    3    3    0    0 -0.11292070304E-01 -0.10687930141E+00  0.91315039219E-02  0.88658563054E+00  0.88000000000E+00 0. -1.
        -11    1    4    4    0    0  0.48438759234E-02  0.90915940146E-01  0.11150192880E-02  0.91053147642E-01  0.51100000000E-03 0.  1.
         11    1    4    4    0    0  0.59517122853E-02  0.39942736361E-01 -0.12301401154E-01  0.42218842458E-01  0.51100000000E-03 0. -1.
</event>
<event>
 8    1  0.1162192E+005  0.1043930E+01  0.7957747E-01            NaN
         13   -1    0    0    0    0  0.00000000000E+00  0.00000000000E+00  0.74505805969E-08  0.10566000000E+00  0.10566000000E+00 0.  1.
     999900   -1    0    0    0    0 -0.00000000000E+00 -0.00000000000E+00 -0.74505805969E-08  0.93827000000E+00  0.93827000000E+00 0. -1.
     999902    2    1    2    0    0  0.58930031666E-02 -0.79714464884E-02 -0.21583986670E-01  0.10201783700E+01  0.10199018417E+01 0.  0.
     999903    2    3    3    0    0 -0.87598374754E-01 -0.17512844515E-02  0.91213401359E-01  0.12804464749E+00  0.19975107150E-01 0.  0.
         14    1    1    2    0    0 -0.58930031666E-02  0.79714464884E-02  0.21583986670E-01  0.23751629966E-01  0.00000000000E+00 0.  1.
     999901    1    3    3    0    0  0.93491377921E-01 -0.62201620369E-02 -0.11279738803E+00  0.89213372255E+00  0.88000000000E+00 0. -1.
        -11    1    4    4    0    0 -0.38425500974E-01 -0.95315806729E-02  0.47050735233E-01  0.61493113128E-01  0.51100000000E-03 0.  1.
         11    1    4    4    0    0 -0.49172873780E-01  0.77802962215E-02  0.44162666126E-01  0.66551534358E-01  0.51100000000E-03 0. -1.
</event>
<event>
 8    1  0.1162192E+005  0.1043930E+01  0.7957747E-01            NaN
         13   -1    0    0    0    0  0.00000000000E+00  0.00000000000E+00  0.74505805969E-08  0.10566000000E+00  0.10566000000E+00 0. -1.
     999900   -1    0    0    0    0 -0.00000000000E+00 -0.00000000000E+00 -0.74505805969E-08  0.93827000000E+00  0.93827000000E+00 0.  1.
     999902    2    1    2    0    0 -0.38187335535E-03 -0.21778207561E-01  0.82383693063E-02  0.10206425167E+01  0.10203768127E+01 0.  0.
     999903    2    3    3    0    0  0.56919650808E-01 -0.19433225328E-01  0.11538139126E+00  0.13229090228E+00  0.23885570582E-01 0.  0.
         14    1    1    2    0    0  0.38187335535E-03  0.21778207561E-01 -0.82383693063E-02  0.23287483348E-01  0.00000000000E+00 0.  1.
     999901    1    3    3    0    0 -0.57301524163E-01 -0.23449822336E-02 -0.10714302195E+00  0.88835161438E+00  0.88000000000E+00 0.  1.
        -11    1    4    4    0    0  0.24861113908E-01  0.31985288099E-02  0.52281136145E-01  0.57981754793E-01  0.51100000000E-03 0. -1.
         11    1    4    4    0    0  0.32058536900E-01 -0.22631754138E-01  0.63100255111E-01  0.74309147483E-01  0.51100000000E-03 0.  1.
</event>
<event>
 8    1  0.1162192E+005  0.1043930E+01  0.7957747E-01            NaN
         13   -1    0    0    0    0  0.00000000000E+00  0.00000000000E+00  0.74505805969E-08  0.10566000000E+00  0.10566000000E+00 0. -1.
     999900   -1    0    0    0    0 -0.00000000000E+00 -0.00000000000E+00 -0.74505805969E-08  0.93827000000E+00  0.93827000000E+00 0.  1.
     999902    2    1    2    0    0  0.14746755697E-01  0.14023689959E-01 -0.13715445539E-01  0.10193893372E+01  0.10190938998E+01 0.  0.
     999903    2    3    3    0    0 -0.87922299112E-01  0.70872988997E-01  0.58800322278E-01  0.12864172189E+00  0.18382150613E-01 0.  0.
         14    1    1    2    0    0 -0.14746755697E-01 -0.14023689959E-01  0.13715445539E-01  0.24540662786E-01  0.00000000000E+00 0.  1.
     999901    1    3    3    0    0  0.10266905481E+00 -0.56849299039E-01 -0.72515767817E-01  0.89074761532E+00  0.88000000000E+00 0. -1.
        -11    1    4    4    0    0 -0.56002752821E-01  0.43458055417E-01  0.46583572648E-01  0.84824532217E-01  0.51100000000E-03 0.  1.
         11    1    4    4    0    0 -0.31919546291E-01  0.27414933580E-01  0.12216749630E-01  0.43817189676E-01  0.51100000000E-03 0. -1.
</event>
<event>
 8    1  0.1162192E+005  0.1043930E+01  0.7957747E-01            NaN
         13   -1    0    0    0    0  0.00000000000E+00  0.00000000000E+00  0.74505805969E-08  0.10566000000E+00  0.10566000000E+00 0. -1.
     999900   -1    0    0    0    0 -0.00000000000E+00 -0.00000000000E+00 -0.74505805969E-08  0.93827000000E+00  0.93827000000E+00 0. -1.
     999902    2    1    2    0    0 -0.40000521602E-02  0.15667115363E-01 -0.18597858862E-01  0.10192857456E+01  0.10189877781E+01 0.  0.
     999903    2    3    3    0    0  0.12477391882E+00  0.29441113591E-01 -0.25592846050E-02  0.12966240142E+00  0.19247815922E-01 0.  0.
         14    1    1    2    0    0  0.40000521602E-02 -0.15667115363E-01  0.18597858862E-01  0.24644254408E-01  0.00000000000E+00 0.  1.
     999901    1    3    3    0    0 -0.12877397098E+00 -0.13773998228E-01 -0.16038574257E-01  0.88962334417E+00  0.88000000000E+00 0. -1.
        -11    1    4    4    0    0  0.86423282875E-01  0.12867135129E-01  0.34778377663E-02  0.87446574924E-01  0.51100000000E-03 0. -1.
         11    1    4    4    0    0  0.38350635944E-01  0.16573978462E-01 -0.60371223713E-02  0.42215826498E-01  0.51100000000E-03 0.  1.
</event>
<event>
 8    1  0.1162192E+005  0.1043930E+01  0.7957747E-01            NaN
         13   -1    0    0    0    0  0.00000000000E+00  0.00000000000E+00  0.74505805969E-08  0.10566000000E+00  0.10566000000E+00 0.  1.
     999900   -1    0    0    0    0 -0.00000000000E+00 -0.00000000000E+00 -0.74505805969E-08  0.93827000000E+00  0.93827000000E+00 0. -1.
     999902    2    1    2    0    0  0.18754541577E-01  0.90205269037E-02 -0.96313360369E-02  0.10209982454E+01  0.10207406878E+01 0.  0.
     999903    2    3    3    0    0  0.12711738458E+00  0.16161745258E-01 -0.33571484313E-01  0.13399957942E+00  0.20219081440E-01 0.  0.
         14    1    1    2    0    0 -0.18754541577E-01 -0.90205269037E-02  0.96313360369E-02  0.22931754604E-01  0.00000000000E+00 0.  1.
     999901    1    3    3    0    0 -0.10836284300E+00 -0.71412183545E-02  0.23940148276E-01  0.88699866598E+00  0.88000000000E+00 0. -1.
        -11    1    4    4    0    0  0.37582440286E-01 -0.44314960954E-02 -0.10365209697E-01  0.39239988131E-01  0.51100000000E-03 0.  1.
         11    1    4    4    0    0  0.89534944291E-01  0.20593241354E-01 -0.23206274616E-01  0.94759591289E-01  0.51100000000E-03 0. -1.
</event>
<event>
 8    1  0.1162192E+005  0.1043930E+01  0.7957747E-01            NaN
         13   -1    0    0    0    0  0.00000000000E+00  0.00000000000E+00  0.74505805969E-08  0.10566000000E+00  0.10566000000E+00 0.  1.
     999900   -1    0    0    0    0 -0.00000000000E+00 -0.00000000000E+00 -0.74505805969E-08  0.93827000000E+00  0.93827000000E+00 0.  1.
     999902    2    1    2    0    0 -0.77756804951E-02 -0.17578910936E-01  0.11916705731E-01  0.10213139174E+01  0.10210634802E+01 0.  0.
     999903    2    3    3    0    0 -0.12216262029E+00 -0.47689807415E-01  0.13191533784E-01  0.13339913361E+00  0.20573982547E-01 0.  0.
         14    1    1    2    0    0  0.77756804951E-02  0.17578910936E-01 -0.11916705731E-01  0.22616082604E-01  0.00000000000E+00 0. -1.
     999901    1    3    3    0    0  0.11438693979E+00  0.30110896479E-01 -0.12748280534E-02  0.88791478379E+00  0.88000000000E+00 0.  1.
        -11    1    4    4    0    0 -0.45966697246E-02 -0.65080513489E-02  0.25176495137E-02  0.83716058788E-02  0.51100000000E-03 0. -1.
         11    1    4    4    0    0 -0.11756595056E+00 -0.41181756066E-01  0.10673884270E-01  0.12502752773E+00  0.51100000000E-03 0.  1.
</event>
<event>
 8    1  0.1162192E+005  0.1043930E+01  0.7957747E-01            NaN
         13   -1    0    0    0    0  0.00000000000E+00  0.00000000000E+00  0.74505805969E-08  0.10566000000E+00  0.10566000000E+00 0. -1.
     999900   -1    0    0    0    0 -0.00000000000E+00 -0.00000000000E+00 -0.74505805969E-08  0.93827000000E+00  0.93827000000E+00 0.  1.
     999902    2    1    2    0    0  0.10889327829E-01  0.10498550421E-02 -0.21205981235E-01  0.10200684557E+01  0.10197893317E+01 0.  0.
     999903    2    3    3    0    0  0.36312561020E-01 -0.48375769387E-01  0.11141642974E+00  0.12839702685E+00  0.20331220752E-01 0.  0.
         14    1    1    2    0    0 -0.10889327829E-01 -0.10498550421E-02  0.21205981235E-01  0.23861544299E-01  0.00000000000E+00 0. -1.
     999901    1    3    3    0    0 -0.25423233191E-01  0.49425624429E-01 -0.13262241097E+00  0.89167142885E+00  0.88000000000E+00 0.  1.
        -11    1    4    4    0    0  0.37622803218E-01 -0.40148752637E-01  0.10132381783E+00  0.11530036792E+00  0.51100000000E-03 0.  1.
         11    1    4    4    0    0 -0.13102421973E-02 -0.82270167505E-02  0.10092611903E-01  0.13096658935E-01  0.51100000000E-03 0. -1.
</event>
<event>
 8    1  0.1162192E+005  0.1043930E+01  0.7957747E-01            NaN
         13   -1    0    0    0    0  0.00000000000E+00  0.00000000000E+00  0.74505805969E-08  0.10566000000E+00  0.10566000000E+00 0. -1.
     999900   -1    0    0    0    0 -0.00000000000E+00 -0.00000000000E+00 -0.74505805969E-08  0.93827000000E+00  0.93827000000E+00 0.  1.
     999902    2    1    2    0    0  0.18623897883E-01  0.14882271906E-02  0.10978607470E-01  0.10222598774E+01  0.10220301672E+01 0.  0.
     999903    2    3    3    0    0 -0.12285940656E+00 -0.36956156594E-01 -0.41802116805E-02  0.13000134652E+00  0.20559295629E-01 0.  0.
         14    1    1    2    0    0 -0.18623897883E-01 -0.14882271906E-02 -0.10978607470E-01  0.21670122623E-01  0.00000000000E+00 0.  1.
     999901    1    3    3    0    0  0.14148330445E+00  0.38444383784E-01  0.15158819150E-01  0.89225853085E+00  0.88000000000E+00 0.  1.
        -11    1    4    4    0    0 -0.90783903984E-02 -0.64288369552E-02  0.41902283303E-02  0.11898161677E-01  0.51100000000E-03 0.  1.
         11    1    4    4    0    0 -0.11378101617E+00 -0.30527319639E-01 -0.83704400108E-02  0.11810318485E+00  0.51100000000E-03 0. -1.
</event>
<event>
 8    1  0.1162192E+005  0.1043930E+01  0.7957747E-01            NaN
         13   -1    0    0    0    0  0.00000000000E+00  0.00000000000E+00  0.74505805969E-08  0.10566000000E+00  0.10566000000E+00 0. -1.
     999900   -1    0    0    0    0 -0.00000000000E+00 -0.00000000000E+00 -0.74505805969E-08  0.93827000000E+00  0.93827000000E+00 0. -1.
     999902    2    1    2    0    0  0.22234547999E-01 -0.18210517022E-02 -0.47967415243E-02  0.10211111463E+01  0.10208561471E+01 0.  0.
     999903    2    3    3    0    0  0.82442297877E-01 -0.99189710684E-01 -0.31651124708E-01  0.13328977533E+00  0.11359547811E-01 0.  0.
         14    1    1    2    0    0 -0.22234547999E-01  0.18210517022E-02  0.47967415243E-02  0.22818853680E-01  0.00000000000E+00 0. -1.
     999901    1    3    3    0    0 -0.60207749878E-01  0.97368658982E-01  0.26854383183E-01  0.88782137099E+00  0.88000000000E+00 0. -1.
        -11    1    4    4    0    0  0.18636313521E-01 -0.29912757024E-01 -0.10199873169E-01  0.36693102186E-01  0.51100000000E-03 0. -1.
         11    1    4    4    0    0  0.63805984356E-01 -0.69276953661E-01 -0.21451251538E-01  0.96596673140E-01  0.51100000000E-03 0.  1.
</event>
<event>
 8    1  0.1162192E+005  0.1043930E+01  0.7957747E-01            NaN
         13   -1    0    0    0    0  0.00000000000E+00  0.00000000000E+00  0.74505805969E-08  0.10566000000E+00  0.10566000000E+00 0. -1.
     999900   -1    0    0    0    0 -0.00000000000E+00 -0.00000000000E+00 -0.74505805969E-08  0.93827000000E+00  0.93827000000E+00 0. -1.
     999902    2    1    2    0    0  0.14542817223E-01  0.18825127343E-01  0.64616034941E-02  0.10192798221E+01  0.10189817096E+01 0.  0.
     999903    2    3    3    0    0 -0.11161495516E+00 -0.16009613816E-01  0.57729625270E-01  0.12812458712E+00  0.19209222777E-01 0.  0.
         14    1    1    2    0    0 -0.14542817223E-01 -0.18825127343E-01 -0.64616034941E-02  0.24650177930E-01  0.00000000000E+00 0.  1.
     999901    1    3    3    0    0  0.12615777239E+00  0.34834741159E-01 -0.51268021776E-01  0.89115523495E+00  0.88000000000E+00 0.  1.
        -11    1    4    4    0    0 -0.36339728100E-01 -0.35685231127E-02  0.90598734876E-02  0.37625159457E-01  0.51100000000E-03 0. -1.
         11    1    4    4    0    0 -0.75275227064E-01 -0.12441090703E-01  0.48669751783E-01  0.90499427661E-01  0.51100000000E-03 0.  1.
</event>
<event>
 8    1  0.1164195E+005  0.1043930E+01  0.7957747E-01            NaN
         13   -1    0    0    0    0  0.00000000000E+00  0.00000000000E+00  0.74505805969E-08  0.10566000000E+00  0.10566000000E+00 0.  1.
     999900   -1    0    0    0    0 -0.00000000000E+00 -0.00000000000E+00 -0.74505805969E-08  0.93827000000E+00  0.93827000000E+00 0. -1.
     999902    2    1    2    0    0  0.12708856511E-01  0.13858916780E-01  0.15916045812E-01  0.10192945556E+01  0.10189968037E+01 0.  0.
     999903    2    3    3    0    0 -0.26068593650E-01  0.49938298855E-01 -0.11351149149E+00  0.12825196407E+00  0.19756070429E-01 0.  0.
         14    1    1    2    0    0 -0.12708856511E-01 -0.13858916780E-01 -0.15916045812E-01  0.24635444433E-01  0.00000000000E+00 0. -1.
     999901    1    3    3    0    0  0.38777450162E-01 -0.36079382075E-01  0.12942753731E+00  0.89104259150E+00  0.88000000000E+00 0.  1.
        -11    1    4    4    0    0 -0.22336534549E-01  0.22528909696E-01 -0.67011675968E-01  0.74143768347E-01  0.51100000000E-03 0.  1.
         11    1    4    4    0    0 -0.37320591013E-02  0.27409389159E-01 -0.46499815526E-01  0.54108195721E-01  0.51100000000E-03 0. -1.
</event>
<event>
 8    1  0.1162192E+005  0.1043930E+01  0.7957747E-01            NaN
         13   -1    0    0    0    0  0.00000000000E+00  0.00000000000E+00  0.74505805969E-08  0.10566000000E+00  0.10566000000E+00 0. -1.
     999900   -1    0    0    0    0 -0.00000000000E+00 -0.00000000000E+00 -0.74505805969E-08  0.93827000000E+00  0.93827000000E+00 0. -1.
     999902    2    1    2    0    0  0.23163050251E-01  0.54366468738E-02  0.21115043885E-02  0.10200439690E+01  0.10197642650E+01 0.  0.
     999903    2    3    3    0    0 -0.11103497485E+00 -0.51737380537E-01 -0.30149175136E-01  0.12745294799E+00  0.18159267707E-01 0.  0.
         14    1    1    2    0    0 -0.23163050251E-01 -0.54366468738E-02 -0.21115043885E-02  0.23886031001E-01  0.00000000000E+00 0. -1.
     999901    1    3    3    0    0  0.13419802510E+00  0.57174027411E-01  0.32260679524E-01  0.89259102101E+00  0.88000000000E+00 0.  1.
        -11    1    4    4    0    0 -0.46700812667E-01 -0.16033862141E-01 -0.47234230023E-02  0.49604661926E-01  0.51100000000E-03 0.  1.
         11    1    4    4    0    0 -0.64334162184E-01 -0.35703518395E-01 -0.25425752134E-01  0.77848286059E-01  0.51100000000E-03 0. -1.
</event>
<event>
 8    1  0.1162192E+005  0.1043930E+01  0.7957747E-01            NaN
         13   -1    0    0    0    0  0.00000000000E+00  0.00000000000E+00  0.74505805969E-08  0.10566000000E+00  0.10566000000E+00 0.  1.
     999900   -1    0    0    0    0 -0.00000000000E+00 -0.00000000000E+00 -0.74505805969E-08  0.93827000000E+00  0.93827000000E+00 0.  1.
     999902    2    1    2    0    0 -0.10560353444E-01 -0.26168096821E-02 -0.21758357831E-01  0.10196031652E+01  0.10193129154E+01 0.  0.
     999903    2    3    3    0    0 -0.92036727556E-01 -0.88114316671E-01 -0.26792712517E-01  0.13169913433E+00  0.19796982531E-01 0.  0.
         14    1    1    2    0    0  0.10560353444E-01  0.26168096821E-02  0.21758357831E-01  0.24326834839E-01  0.00000000000E+00 0.  1.
     999901    1    3    3    0    0  0.81476374112E-01  0.85497506989E-01  0.50343546855E-02  0.88790403083E+00  0.88000000000E+00 0.  1.
        -11    1    4    4    0    0 -0.65914977030E-01 -0.70207138517E-01 -0.27030737791E-01  0.10002373919E+00  0.51100000000E-03 0. -1.
         11    1    4    4    0    0 -0.26121750526E-01 -0.17907178154E-01  0.23802527420E-03  0.31675395136E-01  0.51100000000E-03 0.  1.
</event>
<event>
 8    1  0.1162192E+005  0.1043930E+01  0.7957747E-01            NaN
         13   -1    0    0    0    0  0.00000000000E+00  0.00000000000E+00  0.74505805969E-08  0.10566000000E+00  0.10566000000E+00 0.  1.
     999900   -1    0    0    0    0 -0.00000000000E+00 -0.00000000000E+00 -0.74505805969E-08  0.93827000000E+00  0.93827000000E+00 0. -1.
     999902    2    1    2    0    0  0.18479626688E-02 -0.18310157691E-01  0.16923650522E-01  0.10189282643E+01  0.10186214807E+01 0.  0.
     999903    2    3    3    0    0 -0.60232794486E-01  0.10195244770E+00  0.44532367922E-01  0.12815368230E+00  0.20443663372E-01 0.  0.
         14    1    1    2    0    0 -0.18479626688E-02  0.18310157691E-01 -0.16923650522E-01  0.25001735693E-01  0.00000000000E+00 0. -1.
     999901    1    3    3    0    0  0.62080757155E-01 -0.12026260539E+00 -0.27608717400E-01  0.89077458200E+00  0.88000000000E+00 0.  1.
        -11    1    4    4    0    0 -0.26160490673E-01  0.59402193960E-01  0.17085232168E-01  0.67120475257E-01  0.51100000000E-03 0.  1.
         11    1    4    4    0    0 -0.34072303813E-01  0.42550253739E-01  0.27447135754E-01  0.61033207047E-01  0.51100000000E-03 0. -1.
</event>
<event>
 8    1  0.1162192E+005  0.1043930E+01  0.7957747E-01            NaN
         13   -1    0    0    0    0  0.00000000000E+00  0.00000000000E+00  0.74505805969E-08  0.10566000000E+00  0.10566000000E+00 0.  1.
     999900   -1    0    0    0    0 -0.00000000000E+00 -0.00000000000E+00 -0.74505805969E-08  0.93827000000E+00  0.93827000000E+00 0.  1.
     999902    2    1    2    0    0 -0.18564517759E-01 -0.11194897913E-01  0.10443400167E-01  0.10198669232E+01  0.10195830076E+01 0.  0.
     999903    2    3    3    0    0  0.41124073575E-01  0.10104937774E+00  0.66016579678E-01  0.12899662755E+00  0.19487815648E-01 0.  0.
         14    1    1    2    0    0  0.18564517759E-01  0.11194897913E-01 -0.10443400167E-01  0.24063076818E-01  0.00000000000E+00 0. -1.
     999901    1    3    3    0    0 -0.59688591334E-01 -0.11224427565E+00 -0.55573179512E-01  0.89087029563E+00  0.88000000000E+00 0.  1.
        -11    1    4    4    0    0  0.18006875661E-01  0.34696688416E-01  0.33871400898E-01  0.51726595460E-01  0.51100000000E-03 0. -1.
         11    1    4    4    0    0  0.23117197914E-01  0.66352689324E-01  0.32145178781E-01  0.77270032094E-01  0.51100000000E-03 0.  1.
</event>
<event>
 8    1  0.1162192E+005  0.1043930E+01  0.7957747E-01            NaN
         13   -1    0    0    0    0  0.00000000000E+00  0.00000000000E+00  0.74505805969E-08  0.10566000000E+00  0.10566000000E+00 0. -1.
     999900   -1    0    0    0    0 -0.00000000000E+00 -0.00000000000E+00 -0.74505805969E-08  0.93827000000E+00  0.93827000000E+00 0. -1.
     999902    2    1    2    0    0  0.21621795249E-01 -0.12043243930E-01  0.30154577570E-02  0.10189973961E+01  0.10186923277E+01 0.  0.
     999903    2    3    3    0    0 -0.65355437569E-01 -0.95735951305E-01  0.54234562706E-01  0.12928232649E+00  0.18325571157E-01 0.  0.
         14    1    1    2    0    0 -0.21621795249E-01  0.12043243930E-01 -0.30154577570E-02  0.24932603948E-01  0.00000000000E+00 0.  1.
     999901    1    3    3    0    0  0.86977232819E-01  0.83692707375E-01 -0.51219104949E-01  0.88971506956E+00  0.88000000000E+00 0. -1.
        -11    1    4    4    0    0 -0.32243674233E-01 -0.59441180521E-01  0.37810655618E-01  0.77477837277E-01  0.51100000000E-03 0.  1.
         11    1    4    4    0    0 -0.33111763336E-01 -0.36294770783E-01  0.16423907088E-01  0.51804489211E-01  0.51100000000E-03 0. -1.
</event>
<event>
 8    1  0.1162192E+005  0.1043930E+01  0.7957747E-01            NaN
         13   -1    0    0    0    0  0.00000000000E+00  0.00000000000E+00  0.74505805969E-08  0.10566000000E+00  0.10566000000E+00 0. -1.
     999900   -1    0    0    0    0 -0.00000000000E+00 -0.00000000000E+00 -0.74505805969E-08  0.93827000000E+00  0.93827000000E+00 0. -1.
     999902    2    1    2    0    0 -0.67587522464E-02 -0.20130165304E-01  0.10197715419E-01  0.10203737336E+01  0.10201017883E+01 0.  0.
     999903    2    3    3    0    0 -0.12326938833E+00 -0.67337991803E-02  0.42202394632E-01  0.13201654730E+00  0.20165329154E-01 0.  0.
         14    1    1    2    0    0  0.67587522464E-02  0.20130165304E-01 -0.10197715419E-01  0.23556266403E-01  0.00000000000E+00 0.  1.
     999901    1    3    3    0    0  0.11651063608E+00 -0.13396366124E-01 -0.32004679214E-01  0.88835718629E+00  0.88000000000E+00 0.  1.
        -11    1    4    4    0    0 -0.97305449169E-01  0.13573891504E-02  0.27649809497E-01  0.10116800892E+00  0.51100000000E-03 0. -1.
         11    1    4    4    0    0 -0.25963939157E-01 -0.80911883307E-02  0.14552585136E-01  0.30848538382E-01  0.51100000000E-03 0.  1.
</event>
<event>
 8    1  0.1162192E+005  0.1043930E+01  0.7957747E-01            NaN
         13   -1    0    0    0    0  0.00000000000E+00  0.00000000000E+00  0.74505805969E-08  0.10566000000E+00  0.10566000000E+00 0. -1.
     999900   -1    0    0    0    0 -0.00000000000E+00 -0.00000000000E+00 -0.74505805969E-08  0.93827000000E+00  0.93827000000E+00 0.  1.
     999902    2    1    2    0    0 -0.17690861027E-01  0.11097687036E-01 -0.12394574830E-01  0.10196452166E+01  0.10193559815E+01 0.  0.
     999903    2    3    3    0    0  0.39415196836E-01 -0.21253861348E-01  0.11776361470E+00  0.12765369259E+00  0.20540494674E-01 0.  0.
         14    1    1    2    0    0  0.17690861027E-01 -0.11097687036E-01  0.12394574830E-01  0.24284783438E-01  0.00000000000E+00 0. -1.
     999901    1    3    3    0    0 -0.57106057863E-01  0.32351548384E-01 -0.13015818953E+00  0.89199152397E+00  0.88000000000E+00 0.  1.
        -11    1    4    4    0    0  0.37610895685E-01 -0.13017061485E-01  0.85637801351E-01  0.94435785088E-01  0.51100000000E-03 0.  1.
         11    1    4    4    0    0  0.18043011508E-02 -0.82367998632E-02  0.32125813351E-01  0.33217907507E-01  0.51100000000E-03 0. -1.
</event>
<event>
 8    1  0.1162192E+005  0.1043930E+01  0.7957747E-01            NaN
         13   -1    0    0    0    0  0.00000000000E+00  0.00000000000E+00  0.74505805969E-08  0.10566000000E+00  0.10566000000E+00 0.  1.
     999900   -1    0    0    0    0 -0.00000000000E+00 -0.00000000000E+00 -0.74505805969E-08  0.93827000000E+00  0.93827000000E+00 0.  1.
     999902    2    1    2    0    0  0.21062995999E-01  0.64016097048E-02 -0.10641749604E-01  0.10194784716E+01  0.10191852024E+01 0.  0.
     999903    2    3    3    0    0  0.70927708461E-01  0.95549640353E-01 -0.55040821655E-01  0.13245810061E+00  0.18846293284E-01 0.  0.
         14    1    1    2    0    0 -0.21062995999E-01 -0.64016097048E-02  0.10641749604E-01  0.24451528416E-01  0.00000000000E+00 0. -1.
     999901    1    3    3    0    0 -0.49864712462E-01 -0.89148030648E-01  0.44399072051E-01  0.88702037097E+00  0.88000000000E+00 0. -1.
        -11    1    4    4    0    0  0.42943866828E-01  0.61610456996E-01 -0.44228718006E-01  0.87157700330E-01  0.51100000000E-03 0.  1.
         11    1    4    4    0    0  0.27983841634E-01  0.33939183357E-01 -0.10812103648E-01  0.45300400283E-01  0.51100000000E-03 0. -1.
</event>
<event>
 8    1  0.1162192E+005  0.1043930E+01  0.7957747E-01            NaN
         13   -1    0    0    0    0  0.00000000000E+00  0.00000000000E+00  0.74505805969E-08  0.10566000000E+00  0.10566000000E+00 0. -1.
     999900   -1    0    0    0    0 -0.00000000000E+00 -0.00000000000E+00 -0.74505805969E-08  0.93827000000E+00  0.93827000000E+00 0. -1.
     999902    2    1    2    0    0  0.36207926007E-02  0.12281154048E-01 -0.20925536811E-01  0.10193980825E+01  0.10191028583E+01 0.  0.
     999903    2    3    3    0    0  0.48224520367E-01 -0.11509718857E+00  0.50086534709E-02  0.12873130033E+00  0.31204068513E-01 0.  0.
         14    1    1    2    0    0 -0.36207926007E-02 -0.12281154048E-01  0.20925536811E-01  0.24531917468E-01  0.00000000000E+00 0. -1.
     999901    1    3    3    0    0 -0.44603727766E-01  0.12737834262E+00 -0.25934190282E-01  0.89066678221E+00  0.88000000000E+00 0. -1.
        -11    1    4    4    0    0  0.33659973898E-01 -0.56877911045E-01 -0.10055361103E-01  0.66854035148E-01  0.51100000000E-03 0.  1.
         11    1    4    4    0    0  0.14564546469E-01 -0.58219277529E-01  0.15064014573E-01  0.61877265178E-01  0.51100000000E-03 0. -1.
</event>
<event>
 8    1  0.1162192E+005  0.1043930E+01  0.7957747E-01            NaN
         13   -1    0    0    0    0  0.00000000000E+00  0.00000000000E+00  0.74505805969E-08  0.10566000000E+00  0.10566000000E+00 0. -1.
     999900   -1    0    0    0    0 -0.00000000000E+00 -0.00000000000E+00 -0.74505805969E-08  0.93827000000E+00  0.93827000000E+00 0. -1.
     999902    2    1    2    0    0  0.70089777691E-02  0.36018360846E-03  0.23340193007E-01  0.10195574722E+01  0.10192661179E+01 0.  0.
     999903    2    3    3    0    0 -0.66225571345E-01 -0.10812046937E+00 -0.13564832024E-01  0.12911189154E+00  0.20248794309E-01 0.  0.
         14    1    1    2    0    0 -0.70089777691E-02 -0.36018360846E-03 -0.23340193007E-01  0.24372527797E-01  0.00000000000E+00 0.  1.
     999901    1    3    3    0    0  0.73234549114E-01  0.10848065298E+00  0.36905025032E-01  0.89044558067E+00  0.88000000000E+00 0.  1.
        -11    1    4    4    0    0 -0.42263754553E-01 -0.83598246611E-01 -0.52173672173E-02  0.93820966884E-01  0.51100000000E-03 0.  1.
         11    1    4    4    0    0 -0.23961816792E-01 -0.24522222763E-01 -0.83474648071E-02  0.35290924653E-01  0.51100000000E-03 0. -1.
</event>
<event>
 8    1  0.1162192E+005  0.1043930E+01  0.7957747E-01            NaN
         13   -1    0    0    0    0  0.00000000000E+00  0.00000000000E+00  0.74505805969E-08  0.10566000000E+00  0.10566000000E+00 0. -1.
     999900   -1    0    0    0    0 -0.00000000000E+00 -0.00000000000E+00 -0.74505805969E-08  0.93827000000E+00  0.93827000000E+00 0.  1.
     999902    2    1    2    0    0 -0.16386617657E-01  0.24777078318E-02 -0.18195219078E-01  0.10193184931E+01  0.10190213266E+01 0.  0.
     999903    2    3    3    0    0 -0.14799463039E-01 -0.24504130633E-01 -0.12741155093E+00  0.13215517905E+00  0.20293139615E-01 0.  0.
         14    1    1    2    0    0  0.16386617657E-01 -0.24777078318E-02  0.18195219078E-01  0.24611506895E-01  0.00000000000E+00 0. -1.
     999901    1    3    3    0    0 -0.15871546178E-02  0.26981838464E-01  0.10921633185E+00  0.88716331406E+00  0.88000000000E+00 0. -1.
        -11    1    4    4    0    0 -0.43729213205E-02 -0.23126982312E-01 -0.71971991811E-01  0.75724556638E-01  0.51100000000E-03 0. -1.
         11    1    4    4    0    0 -0.10426541718E-01 -0.13771483206E-02 -0.55439559115E-01  0.56430622410E-01  0.51100000000E-03 0.  1.
</event>
<event>
 8    1  0.1162192E+005  0.1043930E+01  0.7957747E-01            NaN
         13   -1    0    0    0    0  0.00000000000E+00  0.00000000000E+00  0.74505805969E-08  0.10566000000E+00  0.10566000000E+00 0. -1.
     999900   -1    0    0    0    0 -0.00000000000E+00 -0.00000000000E+00 -0.74505805969E-08  0.93827000000E+00  0.93827000000E+00 0.  1.
     999902    2    1    2    0    0  0.23059488095E-01  0.57930113336E-02 -0.13789565400E-02  0.10201140286E+01  0.10198359824E+01 0.  0.
     999903    2    3    3    0    0 -0.20977217485E-01  0.12742307793E+00  0.25043486106E-02  0.13064891711E+00  0.19651547945E-01 0.  0.
         14    1    1    2    0    0 -0.23059488095E-01 -0.57930113336E-02  0.13789565400E-02  0.23815971378E-01  0.00000000000E+00 0. -1.
     999901    1    3    3    0    0  0.44036705581E-01 -0.12163006660E+00 -0.38833051507E-02  0.88946511151E+00  0.88000000000E+00 0. -1.
        -11    1    4    4    0    0  0.24696002407E-02  0.33136748486E-01  0.40418797471E-02  0.33477469117E-01  0.51100000000E-03 0.  1.
         11    1    4    4    0    0 -0.23446817726E-01  0.94286329446E-01 -0.15375311365E-02  0.97171447992E-01  0.51100000000E-03 0. -1.
</event>
<event>
 8    1  0.1162192E+005  0.1043930E+01  0.7957747E-01            NaN
         13   -1    0    0    0    0  0.00000000000E+00  0.00000000000E+00  0.74505805969E-08  0.10566000000E+00  0.10566000000E+00 0.  1.
     999900   -1    0    0    0    0 -0.00000000000E+00 -0.00000000000E+00 -0.74505805969E-08  0.93827000000E+00  0.93827000000E+00 0. -1.
     999902    2    1    2    0    0  0.15546252998E-01 -0.16818455373E-01 -0.45865245341E-02  0.10205722897E+01  0.10203049622E+01 0.  0.
     999903    2    3    3    0    0 -0.10012039626E+00 -0.78767991564E-01 -0.20408622002E-01  0.13070327824E+00  0.20936686663E-01 0.  0.
         14    1    1    2    0    0 -0.15546252998E-01  0.16818455373E-01  0.45865245341E-02  0.23357710305E-01  0.00000000000E+00 0. -1.
     999901    1    3    3    0    0  0.11566664925E+00  0.61949536190E-01  0.15822097468E-01  0.88986901146E+00  0.88000000000E+00 0.  1.
        -11    1    4    4    0    0 -0.52686622338E-01 -0.40358104483E-01 -0.21161145373E-01  0.69661409441E-01  0.51100000000E-03 0.  1.
         11    1    4    4    0    0 -0.47433773918E-01 -0.38409887081E-01  0.75252337077E-03  0.61041868796E-01  0.51100000000E-03 0. -1.
</event>
<event>
 8    1  0.1162192E+005  0.1043930E+01  0.7957747E-01            NaN
         13   -1    0    0    0    0  0.00000000000E+00  0.00000000000E+00  0.74505805969E-08  0.10566000000E+00  0.10566000000E+00 0.  1.
     999900   -1    0    0    0    0 -0.00000000000E+00 -0.00000000000E+00 -0.74505805969E-08  0.93827000000E+00  0.93827000000E+00 0. -1.
     999902    2    1    2    0    0  0.17432050222E-01  0.14091811060E-01 -0.74491015798E-02  0.10203091484E+01  0.10200356924E+01 0.  0.
     999903    2    3    3    0    0 -0.66945329785E-01  0.85727901443E-01 -0.70394341031E-01  0.13114472334E+00  0.20313171707E-01 0.  0.
         14    1    1    2    0    0 -0.17432050222E-01 -0.14091811060E-01  0.74491015798E-02  0.23620851556E-01  0.00000000000E+00 0.  1.
     999901    1    3    3    0    0  0.84377380007E-01 -0.71636090383E-01  0.62945239451E-01  0.88916442510E+00  0.88000000000E+00 0.  1.
        -11    1    4    4    0    0 -0.35679753794E-01  0.30734930723E-01 -0.34794847775E-01  0.58554447739E-01  0.51100000000E-03 0. -1.
         11    1    4    4    0    0 -0.31265575991E-01  0.54992970720E-01 -0.35599493256E-01  0.72590275601E-01  0.51100000000E-03 0.  1.
</event>
<event>
 8    1  0.1162192E+005  0.1043930E+01  0.7957747E-01            NaN
         13   -1    0    0    0    0  0.00000000000E+00  0.00000000000E+00  0.74505805969E-08  0.10566000000E+00  0.10566000000E+00 0.  1.
     999900   -1    0    0    0    0 -0.00000000000E+00 -0.00000000000E+00 -0.74505805969E-08  0.93827000000E+00  0.93827000000E+00 0.  1.
     999902    2    1    2    0    0 -0.53747151762E-02  0.21196159843E-01 -0.55103806382E-02  0.10213794113E+01  0.10211304387E+01 0.  0.
     999903    2    3    3    0    0 -0.76378968465E-01  0.10474431462E+00 -0.28760823441E-01  0.13427035306E+00  0.19905388113E-01 0.  0.
         14    1    1    2    0    0  0.53747151762E-02 -0.21196159843E-01  0.55103806382E-02  0.22550588686E-01  0.00000000000E+00 0.  1.
     999901    1    3    3    0    0  0.71004253289E-01 -0.83548154777E-01  0.23250442803E-01  0.88710905826E+00  0.88000000000E+00 0. -1.
        -11    1    4    4    0    0 -0.37274766207E-01  0.51247025129E-01 -0.24239511451E-01  0.67848955900E-01  0.51100000000E-03 0. -1.
         11    1    4    4    0    0 -0.39104202258E-01  0.53497289491E-01 -0.45213119906E-02  0.66421397156E-01  0.51100000000E-03 0.  1.
</event>
<event>
 8    1  0.1162192E+005  0.1043930E+01  0.7957747E-01            NaN
         13   -1    0    0    0    0  0.00000000000E+00  0.00000000000E+00  0.74505805969E-08  0.10566000000E+00  0.10566000000E+00 0. -1.
     999900   -1    0    0    0    0 -0.00000000000E+00 -0.00000000000E+00 -0.74505805969E-08  0.93827000000E+00  0.93827000000E+00 0. -1.
     999902    2    1    2    0    0  0.47265266581E-02 -0.22865853303E-01 -0.65902466929E-03  0.10205714552E+01  0.10203041084E+01 0.  0.
     999903    2    3    3    0    0 -0.68572663261E-01  0.99456436149E-01  0.37848308119E-01  0.12826078710E+00  0.20604422845E-01 0.  0.
         14    1    1    2    0    0 -0.47265266581E-02  0.22865853303E-01  0.65902466929E-03  0.23358544797E-01  0.00000000000E+00 0.  1.
     999901    1    3    3    0    0  0.73299189919E-01 -0.12232228945E+00 -0.38507332788E-01  0.89231066811E+00  0.88000000000E+00 0. -1.
        -11    1    4    4    0    0 -0.15455277984E-01  0.37798739213E-01  0.82717093406E-02  0.41668844477E-01  0.51100000000E-03 0.  1.
         11    1    4    4    0    0 -0.53117385277E-01  0.61657696936E-01  0.29576598778E-01  0.86591942618E-01  0.51100000000E-03 0. -1.
</event>
<event>
 8    1  0.1162192E+005  0.1043930E+01  0.7957747E-01            NaN
         13   -1    0    0    0    0  0.00000000000E+00  0.00000000000E+00  0.74505805969E-08  0.10566000000E+00  0.10566000000E+00 0. -1.
     999900   -1    0    0    0    0 -0.00000000000E+00 -0.00000000000E+00 -0.74505805969E-08  0.93827000000E+00  0.93827000000E+00 0. -1.
     999902    2    1    2    0    0 -0.19391990073E-01  0.12030840739E-01 -0.27521721446E-03  0.10211075078E+01  0.10208524263E+01 0.  0.
     999903    2    3    3    0    0  0.77937915456E-02 -0.12784795497E+00  0.26658325285E-02  0.12964029356E+00  0.19840773034E-01 0.  0.
         14    1    1    2    0    0  0.19391990073E-01 -0.12030840739E-01  0.27521721446E-03  0.22822492247E-01  0.00000000000E+00 0. -1.
     999901    1    3    3    0    0 -0.27185781618E-01  0.13987879571E+00 -0.29410497430E-02  0.89146721419E+00  0.88000000000E+00 0. -1.
        -11    1    4    4    0    0  0.94863749839E-02 -0.79289631030E-01 -0.67660162372E-02  0.80142853680E-01  0.51100000000E-03 0. -1.
         11    1    4    4    0    0 -0.16925834384E-02 -0.48558323938E-01  0.94318487657E-02  0.49497439878E-01  0.51100000000E-03 0.  1.
</event>
<event>
 8    1  0.1162192E+005  0.1043930E+01  0.7957747E-01            NaN
         13   -1    0    0    0    0  0.00000000000E+00  0.00000000000E+00  0.74505805969E-08  0.10566000000E+00  0.10566000000E+00 0.  1.
     999900   -1    0    0    0    0 -0.00000000000E+00 -0.00000000000E+00 -0.74505805969E-08  0.93827000000E+00  0.93827000000E+00 0. -1.
     999902    2    1    2    0    0 -0.12071624122E-01 -0.21391273837E-01 -0.85468581816E-02  0.10179230876E+01  0.10175908082E+01 0.  0.
     999903    2    3    3    0    0  0.11715016210E-01 -0.94711471926E-01  0.84759198601E-01  0.12963953160E+00  0.22688805339E-01 0.  0.
         14    1    1    2    0    0  0.12071624122E-01  0.21391273837E-01  0.85468581816E-02  0.26006912352E-01  0.00000000000E+00 0.  1.
     999901    1    3    3    0    0 -0.23786640332E-01  0.73320198089E-01 -0.93306056783E-01  0.88828355604E+00  0.88000000000E+00 0. -1.
        -11    1    4    4    0    0 -0.62553880325E-02 -0.40034005871E-01  0.36066340776E-01  0.54248442959E-01  0.51100000000E-03 0. -1.
         11    1    4    4    0    0  0.17970404243E-01 -0.54677466055E-01  0.48692857826E-01  0.75391088645E-01  0.51100000000E-03 0.  1.
</event>
<event>
 8    1  0.1162192E+005  0.1043930E+01  0.7957747E-01            NaN
         13   -1    0    0    0    0  0.00000000000E+00  0.00000000000E+00  0.74505805969E-08  0.10566000000E+00  0.10566000000E+00 0.  1.
     999900   -1    0    0    0    0 -0.00000000000E+00 -0.00000000000E+00 -0.74505805969E-08  0.93827000000E+00  0.93827000000E+00 0. -1.
     999902    2    1    2    0    0  0.27077315176E-02 -0.23384934960E-01 -0.24704956187E-02  0.10202595471E+01  0.10199849279E+01 0.  0.
     999903    2    3    3    0    0 -0.93034965169E-01  0.66298978217E-01 -0.55947744842E-01  0.12892925788E+00  0.21012951442E-01 0.  0.
         14    1    1    2    0    0 -0.27077315176E-02  0.23384934960E-01  0.24704956187E-02  0.23670452924E-01  0.00000000000E+00 0. -1.
     999901    1    3    3    0    0  0.95742696686E-01 -0.89683913176E-01  0.53477249223E-01  0.89133028919E+00  0.88000000000E+00 0.  1.
        -11    1    4    4    0    0 -0.59840403867E-01  0.53946064662E-01 -0.35649269784E-01  0.88103254109E-01  0.51100000000E-03 0.  1.
         11    1    4    4    0    0 -0.33194561302E-01  0.12352913555E-01 -0.20298475058E-01  0.40826003772E-01  0.51100000000E-03 0. -1.
</event>
<event>
 8    1  0.1162192E+005  0.1043930E+01  0.7957747E-01            NaN
         13   -1    0    0    0    0  0.00000000000E+00  0.00000000000E+00  0.74505805969E-08  0.10566000000E+00  0.10566000000E+00 0.  1.
     999900   -1    0    0    0    0 -0.00000000000E+00 -0.00000000000E+00 -0.74505805969E-08  0.93827000000E+00  0.93827000000E+00 0. -1.
     999902    2    1    2    0    0 -0.93644888702E-02  0.11879849577E-01  0.17316875889E-01  0.10209365516E+01  0.10206775905E+01 0.  0.
     999903    2    3    3    0    0 -0.11245011320E+00  0.20951711083E-01 -0.61815174641E-01  0.13134629424E+00  0.18620715253E-01 0.  0.
         14    1    1    2    0    0  0.93644888702E-02 -0.11879849577E-01 -0.17316875889E-01  0.22993448379E-01  0.00000000000E+00 0.  1.
     999901    1    3    3    0    0  0.10308562433E+00 -0.90718615057E-02  0.79132050530E-01  0.88959025739E+00  0.88000000000E+00 0.  1.
        -11    1    4    4    0    0 -0.92730930978E-01  0.14006379609E-01 -0.57453494429E-01  0.10998349591E+00  0.51100000000E-03 0. -1.
         11    1    4    4    0    0 -0.19719182226E-01  0.69453314735E-02 -0.43616802113E-02  0.21362798324E-01  0.51100000000E-03 0.  1.
</event>
<event>
 8    1  0.1162192E+005  0.1043930E+01  0.7957747E-01            NaN
         13   -1    0    0    0    0  0.00000000000E+00  0.00000000000E+00  0.74505805969E-08  0.10566000000E+00  0.10566000000E+00 0.  1.
     999900   -1    0    0    0    0 -0.00000000000E+00 -0.00000000000E+00 -0.74505805969E-08  0.93827000000E+00  0.93827000000E+00 0. -1.
     999902    2    1    2    0    0  0.11122275402E-01  0.20636880894E-01 -0.32930480837E-02  0.10202565966E+01  0.10199819081E+01 0.  0.
     999903    2    3    3    0    0 -0.12642064763E+00 -0.95397494227E-02 -0.13723384856E-01  0.12900047369E+00  0.19483427683E-01 0.  0.
         14    1    1    2    0    0 -0.11122275402E-01 -0.20636880894E-01  0.32930480837E-02  0.23673403406E-01  0.00000000000E+00 0.  1.
     999901    1    3    3    0    0  0.13754292303E+00  0.30176630316E-01  0.10430336772E-01  0.89125612291E+00  0.88000000000E+00 0. -1.
        -11    1    4    4    0    0 -0.49413743634E-01 -0.11075277598E-01  0.65246206095E-03  0.50646487159E-01  0.51100000000E-03 0.  1.
         11    1    4    4    0    0 -0.77006903993E-01  0.15355281756E-02 -0.14375846917E-01  0.78353986529E-01  0.51100000000E-03 0. -1.
</event>
<event>
 8    1  0.1162192E+005  0.1043930E+01  0.7957747E-01            NaN
         13   -1    0    0    0    0  0.00000000000E+00  0.00000000000E+00  0.74505805969E-08  0.10566000000E+00  0.10566000000E+00 0. -1.
     999900   -1    0    0    0    0 -0.00000000000E+00 -0.00000000000E+00 -0.74505805969E-08  0.93827000000E+00  0.93827000000E+00 0.  1.
     999902    2    1    2    0    0  0.18880542284E-01 -0.13209863787E-01 -0.30677070350E-02  0.10206837916E+01  0.10204190395E+01 0.  0.
     999903    2    3    3    0    0 -0.32555345088E-01  0.11319144826E+00  0.48412818037E-01  0.12867864215E+00  0.18499663275E-01 0.  0.
         14    1    1    2    0    0 -0.18880542284E-01  0.13209863787E-01  0.30677070350E-02  0.23246208393E-01  0.00000000000E+00 0.  1.
     999901    1    3    3    0    0  0.51435887372E-01 -0.12640131205E+00 -0.51480525072E-01  0.89200514946E+00  0.88000000000E+00 0.  1.
        -11    1    4    4    0    0 -0.20373956493E-01  0.73017711421E-01  0.40526584248E-01  0.85961325235E-01  0.51100000000E-03 0. -1.
         11    1    4    4    0    0 -0.12181388595E-01  0.40173736842E-01  0.78862337896E-02  0.42717316914E-01  0.51100000000E-03 0.  1.
</event>
<event>
 8    1  0.1162192E+005  0.1043930E+01  0.7957747E-01            NaN
         13   -1    0    0    0    0  0.00000000000E+00  0.00000000000E+00  0.74505805969E-08  0.10566000000E+00  0.10566000000E+00 0.  1.
     999900   -1    0    0    0    0 -0.00000000000E+00 -0.00000000000E+00 -0.74505805969E-08  0.93827000000E+00  0.93827000000E+00 0.  1.
     999902    2    1    2    0    0  0.13675106027E-01 -0.10956713404E-01  0.15133618574E-01  0.10207765012E+01  0.10205138808E+01 0.  0.
     999903    2    3    3    0    0  0.34227123958E-01  0.55693476667E-01 -0.10977524897E+00  0.12922344143E+00  0.19360608731E-01 0.  0.
         14    1    1    2    0    0 -0.13675106027E-01  0.10956713404E-01 -0.15133618574E-01  0.23153498755E-01  0.00000000000E+00 0.  1.
     999901    1    3    3    0    0 -0.20552017931E-01 -0.66650190071E-01  0.12490886754E+00  0.89155305982E+00  0.88000000000E+00 0. -1.
        -11    1    4    4    0    0  0.65715184006E-02  0.26015047564E-01 -0.53442216551E-01  0.59802167057E-01  0.51100000000E-03 0.  1.
         11    1    4    4    0    0  0.27655605558E-01  0.29678429103E-01 -0.56333032418E-01  0.69421274370E-01  0.51100000000E-03 0. -1.
</event>
<event>
 8    1  0.1162192E+005  0.1043930E+01  0.7957747E-01            NaN
         13   -1    0    0    0    0  0.00000000000E+00  0.00000000000E+00  0.74505805969E-08  0.10566000000E+00  0.10566000000E+00 0.  1.
     999900   -1    0    0    0    0 -0.00000000000E+00 -0.00000000000E+00 -0.74505805969E-08  0.93827000000E+00  0.93827000000E+00 0. -1.
     999902    2    1    2    0    0  0.10779037004E-01  0.21031698513E-01  0.72043291110E-02  0.10192232734E+01  0.10189237747E+01 0.  0.
     999903    2    3    3    0    0  0.64986587704E-02  0.37217252960E-01 -0.12230132207E+00  0.12958738862E+00  0.20197064791E-01 0.  0.
         14    1    1    2    0    0 -0.10779037004E-01 -0.21031698513E-01 -0.72043291110E-02  0.24706726594E-01  0.00000000000E+00 0. -1.
     999901    1    3    3    0    0  0.42803782339E-02 -0.16185554447E-01  0.12950565118E+00  0.88963588479E+00  0.88000000000E+00 0.  1.
        -11    1    4    4    0    0 -0.64719693208E-02  0.14878063662E-01 -0.59611066053E-01  0.61781740686E-01  0.51100000000E-03 0. -1.
         11    1    4    4    0    0  0.12970628091E-01  0.22339189298E-01 -0.62690256015E-01  0.67805647934E-01  0.51100000000E-03 0.  1.
</event>
<event>
 8    1  0.1403610E+005  0.1043930E+01  0.7957747E-01            NaN
         13   -1    0    0    0    0  0.00000000000E+00  0.00000000000E+00  0.74505805969E-08  0.10566000000E+00  0.10566000000E+00 0. -1.
     999900   -1    0    0    0    0 -0.00000000000E+00 -0.00000000000E+00 -0.74505805969E-08  0.93827000000E+00  0.93827000000E+00 0.  1.
     999902    2    1    2    0    0  0.42169933877E-02  0.21166661063E-01 -0.85247653379E-02  0.10207247808E+01  0.10204609723E+01 0.  0.
     999903    2    3    3    0    0  0.34204953412E-01  0.31257127017E-01  0.12058425028E+00  0.13074150391E+00  0.20144294497E-01 0.  0.
         14    1    1    2    0    0 -0.42169933877E-02 -0.21166661063E-01  0.85247653379E-02  0.23205219194E-01  0.00000000000E+00 0. -1.
     999901    1    3    3    0    0 -0.29987960024E-01 -0.10090465954E-01 -0.12910901562E+00  0.88998327690E+00  0.88000000000E+00 0.  1.
        -11    1    4    4    0    0  0.40381237063E-02  0.35231913663E-02  0.39744539074E-01  0.40107465984E-01  0.51100000000E-03 0.  1.
         11    1    4    4    0    0  0.30166829705E-01  0.27733935651E-01  0.80839711205E-01  0.90634037921E-01  0.51100000000E-03 0. -1.
</event>
<event>
 8    1  0.1162192E+005  0.1043930E+01  0.7957747E-01            NaN
         13   -1    0    0    0    0  0.00000000000E+00  0.00000000000E+00  0.74505805969E-08  0.10566000000E+00  0.10566000000E+00 0. -1.
     999900   -1    0    0    0    0 -0.00000000000E+00 -0.00000000000E+00 -0.74505805969E-08  0.93827000000E+00  0.93827000000E+00 0. -1.
     999902    2    1    2    0    0 -0.94289157161E-02 -0.21559481967E-01 -0.93054217217E-02  0.10186257200E+01  0.10183113722E+01 0.  0.
     999903    2    3    3    0    0  0.85223058753E-01 -0.26967434338E-01  0.89596791852E-01  0.12802486096E+00  0.19302011717E-01 0.  0.
         14    1    1    2    0    0  0.94289157161E-02  0.21559481967E-01  0.93054217217E-02  0.25304280027E-01  0.00000000000E+00 0. -1.
     999901    1    3    3    0    0 -0.94651974469E-01  0.54079523710E-02 -0.98902213573E-01  0.89060085901E+00  0.88000000000E+00 0. -1.
        -11    1    4    4    0    0  0.51786561337E-01 -0.20436044314E-01  0.67124339547E-01  0.87209047254E-01  0.51100000000E-03 0.  1.
         11    1    4    4    0    0  0.33436497417E-01 -0.65313900239E-02  0.22472452305E-01  0.40815813709E-01  0.51100000000E-03 0. -1.
</event>
<event>
 8    1  0.1162192E+005  0.1043930E+01  0.7957747E-01            NaN
         13   -1    0    0    0    0  0.00000000000E+00  0.00000000000E+00  0.74505805969E-08  0.10566000000E+00  0.10566000000E+00 0. -1.
     999900   -1    0    0    0    0 -0.00000000000E+00 -0.00000000000E+00 -0.74505805969E-08  0.93827000000E+00  0.93827000000E+00 0. -1.
     999902    2    1    2    0    0  0.48261009083E-02 -0.21426619540E-01  0.95660723839E-02  0.10199737687E+01  0.10196923987E+01 0.  0.
     999903    2    3    3    0    0  0.11896206159E+00 -0.28154729992E-01 -0.42787029286E-01  0.13103443885E+00  0.19865381202E-01 0.  0.
         14    1    1    2    0    0 -0.48261009083E-02  0.21426619540E-01 -0.95660723839E-02  0.23956231251E-01  0.00000000000E+00 0. -1.
     999901    1    3    3    0    0 -0.11413596068E+00  0.67281104518E-02  0.52353101670E-01  0.88893932990E+00  0.88000000000E+00 0.  1.
        -11    1    4    4    0    0  0.86868772330E-01 -0.28248067707E-01 -0.26935556438E-01  0.95236139448E-01  0.51100000000E-03 0.  1.
         11    1    4    4    0    0  0.32093289260E-01  0.93337714949E-04 -0.15851472849E-01  0.35798299400E-01  0.51100000000E-03 0. -1.
</event>
<event>
 8    1  0.1162192E+005  0.1043930E+01  0.7957747E-01            NaN
         13   -1    0    0    0    0  0.00000000000E+00  0.00000000000E+00  0.74505805969E-08  0.10566000000E+00  0.10566000000E+00 0. -1.
     999900   -1    0    0    0    0 -0.00000000000E+00 -0.00000000000E+00 -0.74505805969E-08  0.93827000000E+00  0.93827000000E+00 0. -1.
     999902    2    1    2    0    0  0.25852359821E-04  0.24754469280E-01  0.16622592380E-02  0.10191197698E+01  0.10188177254E+01 0.  0.
     999903    2    3    3    0    0  0.11726991126E+00  0.41432318814E-01  0.27242671661E-01  0.13081876364E+00  0.30041914570E-01 0.  0.
         14    1    1    2    0    0 -0.25852359821E-04 -0.24754469280E-01 -0.16622592380E-02  0.24810230218E-01  0.00000000000E+00 0.  1.
     999901    1    3    3    0    0 -0.11724405890E+00 -0.16677849534E-01 -0.25580412423E-01  0.88830100614E+00  0.88000000000E+00 0. -1.
        -11    1    4    4    0    0  0.73112364452E-01  0.15025578486E-01  0.51402311975E-02  0.74818907653E-01  0.51100000000E-03 0.  1.
         11    1    4    4    0    0  0.44157546811E-01  0.26406740328E-01  0.22102440463E-01  0.55999855987E-01  0.51100000000E-03 0. -1.
</event>
<event>
 8    1  0.1162192E+005  0.1043930E+01  0.7957747E-01            NaN
         13   -1    0    0    0    0  0.00000000000E+00  0.00000000000E+00  0.74505805969E-08  0.10566000000E+00  0.10566000000E+00 0.  1.
     999900   -1    0    0    0    0 -0.00000000000E+00 -0.00000000000E+00 -0.74505805969E-08  0.93827000000E+00  0.93827000000E+00 0. -1.
     999902    2    1    2    0    0  0.10521538108E-01 -0.65696362022E-02  0.19141643464E-01  0.10211206730E+01  0.10208658890E+01 0.  0.
     999903    2    3    3    0    0  0.12582978690E+00  0.25447854768E-01  0.28062170675E-01  0.13297615335E+00  0.20357881850E-01 0.  0.
         14    1    1    2    0    0 -0.10521538108E-01  0.65696362022E-02 -0.19141643464E-01  0.22809327006E-01  0.00000000000E+00 0. -1.
     999901    1    3    3    0    0 -0.11530824879E+00 -0.32017490970E-01 -0.89205272113E-02  0.88814451964E+00  0.88000000000E+00 0.  1.
        -11    1    4    4    0    0  0.82864715714E-01  0.14789903992E-01  0.27985197120E-01  0.88705889034E-01  0.51100000000E-03 0.  1.
         11    1    4    4    0    0  0.42965071185E-01  0.10657950775E-01  0.76973554620E-04  0.44270264316E-01  0.51100000000E-03 0. -1.
</event>
<event>
 8    1  0.1162192E+005  0.1043930E+01  0.7957747E-01            NaN
         13   -1    0    0    0    0  0.00000000000E+00  0.00000000000E+00  0.74505805969E-08  0.10566000000E+00  0.10566000000E+00 0. -1.
     999900   -1    0    0    0    0 -0.00000000000E+00 -0.00000000000E+00 -0.74505805969E-08  0.93827000000E+00  0.93827000000E+00 0. -1.
     999902    2    1    2    0    0  0.51667381121E-02  0.84007929705E-02  0.22292736307E-01  0.10195530724E+01  0.10192616116E+01 0.  0.
     999903    2    3    3    0    0  0.34328561479E-01  0.72022440872E-01  0.10446666584E+00  0.13295807994E+00  0.19972096252E-01 0.  0.
         14    1    1    2    0    0 -0.51667381121E-02 -0.84007929705E-02 -0.22292736307E-01  0.24376927561E-01  0.00000000000E+00 0.  1.
     999901    1    3    3    0    0 -0.29161823367E-01 -0.63621647901E-01 -0.82173929532E-01  0.88659499250E+00  0.88000000000E+00 0. -1.
        -11    1    4    4    0    0  0.20492517050E-01  0.61336373778E-01  0.84657761891E-01  0.10653305484E+00  0.51100000000E-03 0. -1.
         11    1    4    4    0    0  0.13836044429E-01  0.10686067094E-01  0.19808903948E-01  0.26425025108E-01  0.51100000000E-03 0.  1.
</event>
<event>
 8    1  0.1162192E+005  0.1043930E+01  0.7957747E-01            NaN
         13   -1    0    0    0    0  0.00000000000E+00  0.00000000000E+00  0.74505805969E-08  0.10566000000E+00  0.10566000000E+00 0. -1.
     999900   -1    0    0    0    0 -0.00000000000E+00 -0.00000000000E+00 -0.74505805969E-08  0.93827000000E+00  0.93827000000E+00 0.  1.
     999902    2    1    2    0    0  0.22455149371E-01 -0.27635443958E-01 -0.21943564610E-03  0.10083210173E+01  0.10076920533E+01 0.  0.
     999903    2    3    3    0    0 -0.37493431904E-01 -0.10913448482E+00 -0.33944326819E-01  0.12188247215E+00  0.19672988669E-01 0.  0.
         14    1    1    2    0    0 -0.22455149371E-01  0.27635443958E-01  0.21943564610E-03  0.35608982687E-01  0.00000000000E+00 0. -1.
     999901    1    3    3    0    0  0.59948581275E-01  0.81499040859E-01  0.33724891173E-01  0.88643854516E+00  0.88000000000E+00 0. -1.
        -11    1    4    4    0    0 -0.46990138887E-02 -0.41443068289E-01 -0.93703484900E-02  0.42751294630E-01  0.51100000000E-03 0.  1.
         11    1    4    4    0    0 -0.32794418015E-01 -0.67691416527E-01 -0.24573978329E-01  0.79131177524E-01  0.51100000000E-03 0. -1.
</event>
<event>
 8    1  0.1278979E+005  0.1043930E+01  0.7957747E-01            NaN
         13   -1    0    0    0    0  0.00000000000E+00  0.00000000000E+00  0.74505805969E-08  0.10566000000E+00  0.10566000000E+00 0.  1.
     999900   -1    0    0    0    0 -0.00000000000E+00 -0.00000000000E+00 -0.74505805969E-08  0.93827000000E+00  0.93827000000E+00 0. -1.
     999902    2    1    2    0    0 -0.77915691417E-02 -0.33854993853E-02  0.21459791476E-01  0.10208498612E+01  0.10205889213E+01 0.  0.
     999903    2    3    3    0    0  0.93175685848E-01 -0.82389820447E-01  0.33129813632E-01  0.13148364939E+00  0.26843519890E-01 0.  0.
         14    1    1    2    0    0  0.77915691417E-02  0.33854993853E-02 -0.21459791476E-01  0.23080138777E-01  0.00000000000E+00 0. -1.
     999901    1    3    3    0    0 -0.10096725499E+00  0.79004321062E-01 -0.11670022156E-01  0.88936621183E+00  0.88000000000E+00 0.  1.
        -11    1    4    4    0    0  0.49241957068E-01 -0.35115881147E-01  0.28266361474E-01  0.66761843568E-01  0.51100000000E-03 0. -1.
         11    1    4    4    0    0  0.43933728780E-01 -0.47273939300E-01  0.48634521581E-02  0.64721805826E-01  0.51100000000E-03 0.  1.
</event>
<event>
 8    1  0.1162192E+005  0.1043930E+01  0.7957747E-01            NaN
         13   -1    0    0    0    0  0.00000000000E+00  0.00000000000E+00  0.74505805969E-08  0.10566000000E+00  0.10566000000E+00 0.  1.
     999900   -1    0    0    0    0 -0.00000000000E+00 -0.00000000000E+00 -0.74505805969E-08  0.93827000000E+00  0.93827000000E+00 0. -1.
     999902    2    1    2    0    0  0.30106200993E-03  0.16288082526E-01 -0.19945430057E-01  0.10181770885E+01  0.10178513502E+01 0.  0.
     999903    2    3    3    0    0  0.12495581520E-01 -0.12452165034E+00 -0.37359013225E-02  0.12675191721E+00  0.19756279948E-01 0.  0.
         14    1    1    2    0    0 -0.30106200993E-03 -0.16288082526E-01  0.19945430057E-01  0.25752911503E-01  0.00000000000E+00 0. -1.
     999901    1    3    3    0    0 -0.12194519510E-01  0.14080973287E+00 -0.16209528735E-01  0.89142517128E+00  0.88000000000E+00 0.  1.
        -11    1    4    4    0    0 -0.44015955510E-02 -0.44260341573E-01 -0.46548397553E-02  0.44724495902E-01  0.51100000000E-03 0. -1.
         11    1    4    4    0    0  0.16897177071E-01 -0.80261308768E-01  0.91893843279E-03  0.82027421311E-01  0.51100000000E-03 0.  1.
</event>
<event>
 8    1  0.1162192E+005  0.1043930E+01  0.7957747E-01            NaN
         13   -1    0    0    0    0  0.00000000000E+00  0.00000000000E+00  0.74505805969E-08  0.10566000000E+00  0.10566000000E+00 0.  1.
     999900   -1    0    0    0    0 -0.00000000000E+00 -0.00000000000E+00 -0.74505805969E-08  0.93827000000E+00  0.93827000000E+00 0.  1.
     999902    2    1    2    0    0 -0.29861762851E-02  0.14789868531E-01  0.18776744459E-01  0.10198421692E+01  0.10195576622E+01 0.  0.
     999903    2    3    3    0    0  0.54541998587E-01  0.11262812386E+00 -0.33283883411E-01  0.13102715803E+00  0.20009381610E-01 0.  0.
         14    1    1    2    0    0  0.29861762851E-02 -0.14789868531E-01 -0.18776744459E-01  0.24087830796E-01  0.00000000000E+00 0. -1.
     999901    1    3    3    0    0 -0.57528174872E-01 -0.97838255331E-01  0.52060627871E-01  0.88881501117E+00  0.88000000000E+00 0. -1.
        -11    1    4    4    0    0  0.93872863497E-02  0.37846566206E-01 -0.56603814281E-02  0.39405389955E-01  0.51100000000E-03 0.  1.
         11    1    4    4    0    0  0.45154712237E-01  0.74781557656E-01 -0.27623501983E-01  0.91621768076E-01  0.51100000000E-03 0. -1.
</event>
<event>
 8    1  0.1162192E+005  0.1043930E+01  0.7957747E-01            NaN
         13   -1    0    0    0    0  0.00000000000E+00  0.00000000000E+00  0.74505805969E-08  0.10566000000E+00  0.10566000000E+00 0. -1.
     999900   -1    0    0    0    0 -0.00000000000E+00 -0.00000000000E+00 -0.74505805969E-08  0.93827000000E+00  0.93827000000E+00 0.  1.
     999902    2    1    2    0    0 -0.46545027964E-02 -0.22432320046E-01  0.74081117103E-02  0.10198519291E+01  0.10195676553E+01 0.  0.
     999903    2    3    3    0    0  0.82053093255E-03  0.10150752894E+00 -0.74723447966E-01  0.12736290662E+00  0.18255536256E-01 0.  0.
         14    1    1    2    0    0  0.46545027964E-02  0.22432320046E-01 -0.74081117103E-02  0.24078070895E-01  0.00000000000E+00 0.  1.
     999901    1    3    3    0    0 -0.54750337289E-02 -0.12393984899E+00  0.82131559676E-01  0.89248902248E+00  0.88000000000E+00 0. -1.
        -11    1    4    4    0    0  0.20334730122E-02  0.85369793773E-01 -0.53891567216E-01  0.10097870488E+00  0.51100000000E-03 0. -1.
         11    1    4    4    0    0 -0.12129420797E-02  0.16137735168E-01 -0.20831880750E-01  0.26384201739E-01  0.51100000000E-03 0.  1.
</event>
<event>
 8    1  0.1162192E+005  0.1043930E+01  0.7957747E-01            NaN
         13   -1    0    0    0    0  0.00000000000E+00  0.00000000000E+00  0.74505805969E-08  0.10566000000E+00  0.10566000000E+00 0.  1.
     999900   -1    0    0    0    0 -0.00000000000E+00 -0.00000000000E+00 -0.74505805969E-08  0.93827000000E+00  0.93827000000E+00 0. -1.
     999902    2    1    2    0    0  0.34939669864E-02  0.22795777722E-02 -0.22751277755E-01  0.10207993943E+01  0.10205372989E+01 0.  0.
     999903    2    3    3    0    0 -0.11105600273E+00 -0.46927613352E-01  0.42596293164E-01  0.12961291088E+00  0.21199666027E-01 0.  0.
         14    1    1    2    0    0 -0.34939669864E-02 -0.22795777722E-02  0.22751277755E-01  0.23130605690E-01  0.00000000000E+00 0.  1.
     999901    1    3    3    0    0  0.11454996971E+00  0.49207191124E-01 -0.65347570919E-01  0.89118648343E+00  0.88000000000E+00 0. -1.
        -11    1    4    4    0    0 -0.50192658721E-01 -0.25280074954E-01  0.94009956910E-02  0.56982672981E-01  0.51100000000E-03 0.  1.
         11    1    4    4    0    0 -0.60863344005E-01 -0.21647538399E-01  0.33195297473E-01  0.72630237900E-01  0.51100000000E-03 0. -1.
</event>
<event>
 8    1  0.1162192E+005  0.1043930E+01  0.7957747E-01            NaN
         13   -1    0    0    0    0  0.00000000000E+00  0.00000000000E+00  0.74505805969E-08  0.10566000000E+00  0.10566000000E+00 0. -1.
     999900   -1    0    0    0    0 -0.00000000000E+00 -0.00000000000E+00 -0.74505805969E-08  0.93827000000E+00  0.93827000000E+00 0.  1.
     999902    2    1    2    0    0 -0.51398255018E-02 -0.81077667382E-02  0.21330814208E-01  0.10205386058E+01  0.10202704978E+01 0.  0.
     999903    2    3    3    0    0 -0.10147856235E+00 -0.80501090307E-01  0.24638998873E-01  0.13231966343E+00  0.11094543992E-01 0.  0.
         14    1    1    2    0    0  0.51398255018E-02  0.81077667382E-02 -0.21330814208E-01  0.23391394196E-01  0.00000000000E+00 0.  1.
     999901    1    3    3    0    0  0.96338736847E-01  0.72393323569E-01 -0.33081846650E-02  0.88821894238E+00  0.88000000000E+00 0. -1.
        -11    1    4    4    0    0 -0.29080499962E-01 -0.17132521877E-01  0.50637446619E-02  0.34133581923E-01  0.51100000000E-03 0. -1.
         11    1    4    4    0    0 -0.72398062388E-01 -0.63368568430E-01  0.19575254211E-01  0.98186081502E-01  0.51100000000E-03 0.  1.
</event>
<event>
 8    1  0.1162192E+005  0.1043930E+01  0.7957747E-01            NaN
         13   -1    0    0    0    0  0.00000000000E+00  0.00000000000E+00  0.74505805969E-08  0.10566000000E+00  0.10566000000E+00 0. -1.
     999900   -1    0    0    0    0 -0.00000000000E+00 -0.00000000000E+00 -0.74505805969E-08  0.93827000000E+00  0.93827000000E+00 0.  1.
     999902    2    1    2    0    0 -0.14942133509E-01 -0.56211191916E-02  0.56470667460E-02  0.10269961966E+01  0.10268565791E+01 0.  0.
     999903    2    3    3    0    0  0.61779441956E-01  0.43347939690E-01  0.11140422778E+00  0.13600307318E+00  0.19753243375E-01 0.  0.
         14    1    1    2    0    0  0.14942133509E-01  0.56211191916E-02 -0.56470667460E-02  0.16933803400E-01  0.00000000000E+00 0.  1.
     999901    1    3    3    0    0 -0.76721575465E-01 -0.48969058882E-01 -0.10575716103E+00  0.89099312342E+00  0.88000000000E+00 0.  1.
        -11    1    4    4    0    0  0.36790635515E-01  0.18773875491E-01  0.46189754919E-01  0.61965828027E-01  0.51100000000E-03 0.  1.
         11    1    4    4    0    0  0.24988806441E-01  0.24574064199E-01  0.65214472860E-01  0.74037245154E-01  0.51100000000E-03 0. -1.
</event>
<event>
 8    1  0.1162192E+005  0.1043930E+01  0.7957747E-01            NaN
         13   -1    0    0    0    0  0.00000000000E+00  0.00000000000E+00  0.74505805969E-08  0.10566000000E+00  0.10566000000E+00 0. -1.
     999900   -1    0    0    0    0 -0.00000000000E+00 -0.00000000000E+00 -0.74505805969E-08  0.93827000000E+00  0.93827000000E+00 0.  1.
     999902    2    1    2    0    0 -0.16379526215E-02  0.11813647325E-01  0.17038736547E-01  0.10231318343E+01  0.10229204205E+01 0.  0.
     999903    2    3    3    0    0  0.10197165221E+00 -0.68096429983E-01  0.47176272409E-01  0.13294711096E+00  0.20346793391E-01 0.  0.
         14    1    1    2    0    0  0.16379526215E-02 -0.11813647325E-01 -0.17038736547E-01  0.20798165665E-01  0.00000000000E+00 0.  1.
     999901    1    3    3    0    0 -0.10360960484E+00  0.79910077308E-01 -0.30137535861E-01  0.89018472338E+00  0.88000000000E+00 0.  1.
        -11    1    4    4    0    0  0.44118154944E-01 -0.21215808880E-01  0.26478971204E-01  0.55658954169E-01  0.51100000000E-03 0.  1.
         11    1    4    4    0    0  0.57853497270E-01 -0.46880621103E-01  0.20697301205E-01  0.77288156787E-01  0.51100000000E-03 0. -1.
</event>
<event>
 8    1  0.1162192E+005  0.1043930E+01  0.7957747E-01            NaN
         13   -1    0    0    0    0  0.00000000000E+00  0.00000000000E+00  0.74505805969E-08  0.10566000000E+00  0.10566000000E+00 0. -1.
     999900   -1    0    0    0    0 -0.00000000000E+00 -0.00000000000E+00 -0.74505805969E-08  0.93827000000E+00  0.93827000000E+00 0. -1.
     999902    2    1    2    0    0 -0.42155389684E-03 -0.21112401479E-01 -0.11339100591E-01  0.10199615539E+01  0.10196798935E+01 0.  0.
     999903    2    3    3    0    0 -0.10908555045E+00 -0.32511707008E-01 -0.62192711105E-01  0.13174767317E+00  0.23083493253E-01 0.  0.
         14    1    1    2    0    0  0.42155389684E-03  0.21112401479E-01  0.11339100591E-01  0.23968446051E-01  0.00000000000E+00 0. -1.
     999901    1    3    3    0    0  0.10866399655E+00  0.11399305529E-01  0.50853610513E-01  0.88821388078E+00  0.88000000000E+00 0.  1.
        -11    1    4    4    0    0 -0.94766777280E-01 -0.20213698572E-01 -0.48067335549E-01  0.10816684129E+00  0.51100000000E-03 0. -1.
         11    1    4    4    0    0 -0.14318773168E-01 -0.12298008436E-01 -0.14125375556E-01  0.23580831880E-01  0.51100000000E-03 0.  1.
</event>
<event>
 8    1  0.1162192E+005  0.1043930E+01  0.7957747E-01            NaN
         13   -1    0    0    0    0  0.00000000000E+00  0.00000000000E+00  0.74505805969E-08  0.10566000000E+00  0.10566000000E+00 0.  1.
     999900   -1    0    0    0    0 -0.00000000000E+00 -0.00000000000E+00 -0.74505805969E-08  0.93827000000E+00  0.93827000000E+00 0.  1.
     999902    2    1    2    0    0  0.13603319107E-04 -0.18722071671E-01 -0.14674737911E-01  0.10201421021E+01  0.10198647187E+01 0.  0.
     999903    2    3    3    0    0  0.52968475373E-01  0.60254467153E-01  0.97611788860E-01  0.12792588603E+00  0.20017762049E-01 0.  0.
         14    1    1    2    0    0 -0.13603319107E-04  0.18722071671E-01  0.14674737911E-01  0.23787897878E-01  0.00000000000E+00 0.  1.
     999901    1    3    3    0    0 -0.52954872054E-01 -0.78976538824E-01 -0.11228652677E+00  0.89221621609E+00  0.88000000000E+00 0.  1.
        -11    1    4    4    0    0  0.20901545506E-01  0.37609319781E-01  0.57264559406E-01  0.71629787267E-01  0.51100000000E-03 0.  1.
         11    1    4    4    0    0  0.32066929867E-01  0.22645147372E-01  0.40347229454E-01  0.56296098766E-01  0.51100000000E-03 0. -1.
</event>
<event>
 8    1  0.1264085E+005  0.1043930E+01  0.7957747E-01            NaN
         13   -1    0    0    0    0  0.00000000000E+00  0.00000000000E+00  0.74505805969E-08  0.10566000000E+00  0.10566000000E+00 0.  1.
     999900   -1    0    0    0    0 -0.00000000000E+00 -0.00000000000E+00 -0.74505805969E-08  0.93827000000E+00  0.93827000000E+00 0. -1.
     999902    2    1    2    0    0  0.15299081551E-01  0.42807230253E-02 -0.17640737453E-01  0.10201901158E+01  0.10199138641E+01 0.  0.
     999903    2    3    3    0    0  0.60055782433E-01  0.49500078250E-01 -0.10651194541E+00  0.13342856722E+00  0.20035800062E-01 0.  0.
         14    1    1    2    0    0 -0.15299081551E-01 -0.42807230253E-02  0.17640737453E-01  0.23739884241E-01  0.00000000000E+00 0. -1.
     999901    1    3    3    0    0 -0.44756700882E-01 -0.45219355224E-01  0.88871207962E-01  0.88676154854E+00  0.88000000000E+00 0.  1.
        -11    1    4    4    0    0  0.51608892214E-01  0.32014584477E-01 -0.76485629077E-01  0.97666391103E-01  0.51100000000E-03 0.  1.
         11    1    4    4    0    0  0.84468902190E-02  0.17485493773E-01 -0.30026316338E-01  0.35762176118E-01  0.51100000000E-03 0. -1.
</event>
<event>
 8    1  0.1162192E+005  0.1043930E+01  0.7957747E-01            NaN
         13   -1    0    0    0    0  0.00000000000E+00  0.00000000000E+00  0.74505805969E-08  0.10566000000E+00  0.10566000000E+00 0. -1.
     999900   -1    0    0    0    0 -0.00000000000E+00 -0.00000000000E+00 -0.74505805969E-08  0.93827000000E+00  0.93827000000E+00 0.  1.
     999902    2    1    2    0    0 -0.10816054725E-01 -0.42591325472E-02  0.20962973876E-01  0.10199597367E+01  0.10196780330E+01 0.  0.
     999903    2    3    3    0    0  0.19087595671E-01 -0.67482039472E-01 -0.10537314609E+00  0.12819060766E+00  0.20277327596E-01 0.  0.
         14    1    1    2    0    0  0.10816054725E-01  0.42591325472E-02 -0.20962973876E-01  0.23970263320E-01  0.00000000000E+00 0.  1.
     999901    1    3    3    0    0 -0.29903650397E-01  0.63222906925E-01  0.12633611997E+00  0.89176912902E+00  0.88000000000E+00 0.  1.
        -11    1    4    4    0    0  0.16670011015E-01 -0.39248850046E-01 -0.48056647762E-01  0.64250011768E-01  0.51100000000E-03 0. -1.
         11    1    4    4    0    0  0.24175846559E-02 -0.28233189426E-01 -0.57316498332E-01  0.63940595890E-01  0.51100000000E-03 0.  1.
</event>
<event>
 8    1  0.1162192E+005  0.1043930E+01  0.7957747E-01            NaN
         13   -1    0    0    0    0  0.00000000000E+00  0.00000000000E+00  0.74505805969E-08  0.10566000000E+00  0.10566000000E+00 0.  1.
     999900   -1    0    0    0    0 -0.00000000000E+00 -0.00000000000E+00 -0.74505805969E-08  0.93827000000E+00  0.93827000000E+00 0. -1.
     999902    2    1    2    0    0  0.12382601437E-01 -0.12315048863E-01  0.16522235046E-01  0.10198889206E+01  0.10196055300E+01 0.  0.
     999903    2    3    3    0    0  0.40031700511E-01 -0.97189815666E-01 -0.74962056434E-01  0.13065465772E+00  0.20073175266E-01 0.  0.
         14    1    1    2    0    0 -0.12382601437E-01  0.12315048863E-01 -0.16522235046E-01  0.24041079380E-01  0.00000000000E+00 0. -1.
     999901    1    3    3    0    0 -0.27649099074E-01  0.84874766803E-01  0.91484291480E-01  0.88923426290E+00  0.88000000000E+00 0.  1.
        -11    1    4    4    0    0  0.32292823055E-01 -0.52425616472E-01 -0.43718492493E-01  0.75517146332E-01  0.51100000000E-03 0. -1.
         11    1    4    4    0    0  0.77388774561E-02 -0.44764199194E-01 -0.31243563941E-01  0.55137511392E-01  0.51100000000E-03 0.  1.
</event>
<event>
 8    1  0.1162192E+005  0.1043930E+01  0.7957747E-01            NaN
         13   -1    0    0    0    0  0.00000000000E+00  0.00000000000E+00  0.74505805969E-08  0.10566000000E+00  0.10566000000E+00 0.  1.
     999900   -1    0    0    0    0 -0.00000000000E+00 -0.00000000000E+00 -0.74505805969E-08  0.93827000000E+00  0.93827000000E+00 0. -1.
     999902    2    1    2    0    0 -0.11080091162E-01  0.78883653486E-02 -0.19104886680E-01  0.10204781041E+01  0.10202085911E+01 0.  0.
     999903    2    3    3    0    0 -0.82295805639E-01 -0.28791448525E-01  0.93878118483E-01  0.12964577068E+00  0.19833748829E-01 0.  0.
         14    1    1    2    0    0  0.11080091162E-01 -0.78883653486E-02  0.19104886680E-01  0.23451895938E-01  0.00000000000E+00 0.  1.
     999901    1    3    3    0    0  0.71215714477E-01  0.36679813873E-01 -0.11298300516E+00  0.89083233338E+00  0.88000000000E+00 0. -1.
        -11    1    4    4    0    0 -0.75409489583E-01 -0.22107123006E-01  0.89442292413E-01  0.11906091214E+00  0.51100000000E-03 0.  1.
         11    1    4    4    0    0 -0.68863160564E-02 -0.66843255190E-02  0.44358260697E-02  0.10584858544E-01  0.51100000000E-03 0. -1.
</event>
<event>
 8    1  0.1162192E+005  0.1043930E+01  0.7957747E-01            NaN
         13   -1    0    0    0    0  0.00000000000E+00  0.00000000000E+00  0.74505805969E-08  0.10566000000E+00  0.10566000000E+00 0.  1.
     999900   -1    0    0    0    0 -0.00000000000E+00 -0.00000000000E+00 -0.74505805969E-08  0.93827000000E+00  0.93827000000E+00 0. -1.
     999902    2    1    2    0    0 -0.88204068447E-02 -0.18658838133E-01  0.11339311116E-01  0.10203815012E+01  0.10201097374E+01 0.  0.
     999903    2    3    3    0    0 -0.64421267939E-01  0.10825053989E+00  0.22314351236E-01  0.12947303372E+00  0.19926290226E-01 0.  0.
         14    1    1    2    0    0  0.88204068447E-02  0.18658838133E-01 -0.11339311116E-01  0.23548498762E-01  0.00000000000E+00 0. -1.
     999901    1    3    3    0    0  0.55600861094E-01 -0.12690937802E+00 -0.10975040120E-01  0.89090846751E+00  0.88000000000E+00 0. -1.
        -11    1    4    4    0    0 -0.53476569869E-01  0.10038828648E+00  0.17139421742E-01  0.11502857248E+00  0.51100000000E-03 0.  1.
         11    1    4    4    0    0 -0.10944698070E-01  0.78622534057E-02  0.51749294941E-02  0.14444461247E-01  0.51100000000E-03 0. -1.
</event>
<event>
 8    1  0.1162192E+005  0.1043930E+01  0.7957747E-01            NaN
         13   -1    0    0    0    0  0.00000000000E+00  0.00000000000E+00  0.74505805969E-08  0.10566000000E+00  0.10566000000E+00 0. -1.
     999900   -1    0    0    0    0 -0.00000000000E+00 -0.00000000000E+00 -0.74505805969E-08  0.93827000000E+00  0.93827000000E+00 0.  1.
     999902    2    1    2    0    0  0.14676777010E-01 -0.15297606183E-01 -0.10083930307E-01  0.10204542638E+01  0.10201841963E+01 0.  0.
     999903    2    3    3    0    0  0.10352282122E+00 -0.73308195784E-01 -0.37203124310E-01  0.13366550727E+00  0.19782044731E-01 0.  0.
         14    1    1    2    0    0 -0.14676777010E-01  0.15297606183E-01  0.10083930307E-01  0.23475736171E-01  0.00000000000E+00 0.  1.
     999901    1    3    3    0    0 -0.88846044205E-01  0.58010589601E-01  0.27119194004E-01  0.88678875656E+00  0.88000000000E+00 0.  1.
        -11    1    4    4    0    0  0.40940789371E-01 -0.37985457405E-01 -0.95336774402E-02  0.56658585714E-01  0.51100000000E-03 0.  1.
         11    1    4    4    0    0  0.62582031845E-01 -0.35322738378E-01 -0.27669446870E-01  0.77006921556E-01  0.51100000000E-03 0. -1.
</event>
<event>
 8    1  0.1162192E+005  0.1043930E+01  0.7957747E-01            NaN
         13   -1    0    0    0    0  0.00000000000E+00  0.00000000000E+00  0.74505805969E-08  0.10566000000E+00  0.10566000000E+00 0.  1.
     999900   -1    0    0    0    0 -0.00000000000E+00 -0.00000000000E+00 -0.74505805969E-08  0.93827000000E+00  0.93827000000E+00 0.  1.
     999902    2    1    2    0    0 -0.12137889426E-01 -0.25193303712E-01  0.23500432463E-02  0.10158666143E+01  0.10154789139E+01 0.  0.
     999903    2    3    3    0    0  0.62762826645E-01  0.89645232962E-01  0.53994484725E-01  0.12375386636E+00  0.20595505723E-01 0.  0.
         14    1    1    2    0    0  0.12137889426E-01  0.25193303712E-01 -0.23500432463E-02  0.28063385664E-01  0.00000000000E+00 0. -1.
     999901    1    3    3    0    0 -0.74900716071E-01 -0.11483853667E+00 -0.51644441479E-01  0.89211274798E+00  0.88000000000E+00 0.  1.
        -11    1    4    4    0    0  0.22518428284E-01  0.47976356523E-01  0.31172770522E-01  0.61488317107E-01  0.51100000000E-03 0. -1.
         11    1    4    4    0    0  0.40244398360E-01  0.41668876440E-01  0.22821714203E-01  0.62265549249E-01  0.51100000000E-03 0.  1.
</event>
<event>
 8    1  0.1162192E+005  0.1043930E+01  0.7957747E-01            NaN
         13   -1    0    0    0    0  0.00000000000E+00  0.00000000000E+00  0.74505805969E-08  0.10566000000E+00  0.10566000000E+00 0. -1.
     999900   -1    0    0    0    0 -0.00000000000E+00 -0.00000000000E+00 -0.74505805969E-08  0.93827000000E+00  0.93827000000E+00 0. -1.
     999902    2    1    2    0    0  0.24546271075E-01  0.92090551920E-02  0.15795511925E-02  0.10176655544E+01  0.10173265747E+01 0.  0.
     999903    2    3    3    0    0 -0.16809453259E-01  0.10015108806E+00 -0.77070344556E-01  0.12852745748E+00  0.16330069103E-01 0.  0.
         14    1    1    2    0    0 -0.24546271075E-01 -0.92090551920E-02 -0.15795511925E-02  0.26264445610E-01  0.00000000000E+00 0. -1.
     999901    1    3    3    0    0  0.41355724334E-01 -0.90942032871E-01  0.78649895748E-01  0.88913809691E+00  0.88000000000E+00 0.  1.
        -11    1    4    4    0    0 -0.17839558279E-01  0.58454881119E-01 -0.47219653649E-01  0.77234576311E-01  0.51100000000E-03 0.  1.
         11    1    4    4    0    0  0.10301050194E-02  0.41696206945E-01 -0.29850690907E-01  0.51292881168E-01  0.51100000000E-03 0. -1.
</event>
<event>
 8    1  0.1162192E+005  0.1043930E+01  0.7957747E-01            NaN
         13   -1    0    0    0    0  0.00000000000E+00  0.00000000000E+00  0.74505805969E-08  0.10566000000E+00  0.10566000000E+00 0. -1.
     999900   -1    0    0    0    0 -0.00000000000E+00 -0.00000000000E+00 -0.74505805969E-08  0.93827000000E+00  0.93827000000E+00 0. -1.
     999902    2    1    2    0    0 -0.20406472542E-02 -0.23322444760E-01 -0.18860583542E-02  0.10204426015E+01  0.10201722625E+01 0.  0.
     999903    2    3    3    0    0 -0.15340485886E-01  0.52522199330E-01 -0.11597047370E+00  0.12974369080E+00  0.19757596097E-01 0.  0.
         14    1    1    2    0    0  0.20406472542E-02  0.23322444760E-01  0.18860583542E-02  0.23487398471E-01  0.00000000000E+00 0.  1.
     999901    1    3    3    0    0  0.13299838632E-01 -0.75844644090E-01  0.11408441534E+00  0.89069891073E+00  0.88000000000E+00 0.  1.
        -11    1    4    4    0    0 -0.82285461159E-02  0.57157281346E-02 -0.29506682242E-01  0.31165428559E-01  0.51100000000E-03 0. -1.
         11    1    4    4    0    0 -0.71119397704E-02  0.46806471195E-01 -0.86463791457E-01  0.98578262244E-01  0.51100000000E-03 0.  1.
</event>
<event>
 8    1  0.1162192E+005  0.1043930E+01  0.7957747E-01            NaN
         13   -1    0    0    0    0  0.00000000000E+00  0.00000000000E+00  0.74505805969E-08  0.10566000000E+00  0.10566000000E+00 0. -1.
     999900   -1    0    0    0    0 -0.00000000000E+00 -0.00000000000E+00 -0.74505805969E-08  0.93827000000E+00  0.93827000000E+00 0.  1.
     999902    2    1    2    0    0 -0.35810179632E-02 -0.23134191441E-01  0.75899443681E-02  0.10193206164E+01  0.10190235019E+01 0.  0.
     999903    2    3    3    0    0  0.27895642983E-01 -0.12796447761E+00 -0.40327084929E-03  0.13250380302E+00  0.20100267697E-01 0.  0.
         14    1    1    2    0    0  0.35810179632E-02  0.23134191441E-01 -0.75899443681E-02  0.24609383552E-01  0.00000000000E+00 0.  1.
     999901    1    3    3    0    0 -0.31476660946E-01  0.10483028617E+00  0.79932152174E-02  0.88681681342E+00  0.88000000000E+00 0.  1.
        -11    1    4    4    0    0  0.17323187597E-01 -0.57757915670E-01 -0.90570811641E-02  0.60978369044E-01  0.51100000000E-03 0. -1.
         11    1    4    4    0    0  0.10572455386E-01 -0.70206561938E-01  0.86538103148E-02  0.71525433980E-01  0.51100000000E-03 0.  1.
</event>
<event>
 8    1  0.1162192E+005  0.1043930E+01  0.7957747E-01            NaN
         13   -1    0    0    0    0  0.00000000000E+00  0.00000000000E+00  0.74505805969E-08  0.10566000000E+00  0.10566000000E+00 0. -1.
     999900   -1    0    0    0    0 -0.00000000000E+00 -0.00000000000E+00 -0.74505805969E-08  0.93827000000E+00  0.93827000000E+00 0. -1.
     999902    2    1    2    0    0  0.14240626125E-01  0.20220800257E-01  0.66427756042E-03  0.10191889923E+01  0.10188886517E+01 0.  0.
     999903    2    3    3    0    0 -0.10941131430E+00 -0.45318647325E-01 -0.41627706345E-01  0.12712742862E+00  0.20097305297E-01 0.  0.
         14    1    1    2    0    0 -0.14240626125E-01 -0.20220800257E-01 -0.66427756042E-03  0.24741007662E-01  0.00000000000E+00 0.  1.
     999901    1    3    3    0    0  0.12365194042E+00  0.65539447582E-01  0.42291983906E-01  0.89206156372E+00  0.88000000000E+00 0. -1.
        -11    1    4    4    0    0 -0.23375601484E-01 -0.14093897582E-01 -0.19527370476E-02  0.27370257521E-01  0.51100000000E-03 0.  1.
         11    1    4    4    0    0 -0.86035712814E-01 -0.31224749743E-01 -0.39674969298E-01  0.99757171099E-01  0.51100000000E-03 0. -1.
</event>
<event>
 8    1  0.1162192E+005  0.1043930E+01  0.7957747E-01            NaN
         13   -1    0    0    0    0  0.00000000000E+00  0.00000000000E+00  0.74505805969E-08  0.10566000000E+00  0.10566000000E+00 0.  1.
     999900   -1    0    0    0    0 -0.00000000000E+00 -0.00000000000E+00 -0.74505805969E-08  0.93827000000E+00  0.93827000000E+00 0. -1.
     999902    2    1    2    0    0 -0.14427883285E-01 -0.95346534474E-02 -0.16734248691E-01  0.10198653265E+01  0.10195813727E+01 0.  0.
     999903    2    3    3    0    0 -0.98579272064E-01 -0.54083281089E-01  0.64386387235E-01  0.13101967394E+00  0.19433834540E-01 0.  0.
         14    1    1    2    0    0  0.14427883285E-01  0.95346534474E-02  0.16734248691E-01  0.24064673522E-01  0.00000000000E+00 0.  1.
     999901    1    3    3    0    0  0.84151388779E-01  0.44548627641E-01 -0.81120635926E-01  0.88884565254E+00  0.88000000000E+00 0. -1.
        -11    1    4    4    0    0 -0.55828202395E-01 -0.38734198479E-01  0.31253031268E-01  0.74793979696E-01  0.51100000000E-03 0. -1.
         11    1    4    4    0    0 -0.42751069669E-01 -0.15349082610E-01  0.33133355967E-01  0.56225694246E-01  0.51100000000E-03 0.  1.
</event>
<event>
 8    1  0.1162192E+005  0.1043930E+01  0.7957747E-01            NaN
         13   -1    0    0    0    0  0.00000000000E+00  0.00000000000E+00  0.74505805969E-08  0.10566000000E+00  0.10566000000E+00 0.  1.
     999900   -1    0    0    0    0 -0.00000000000E+00 -0.00000000000E+00 -0.74505805969E-08  0.93827000000E+00  0.93827000000E+00 0.  1.
     999902    2    1    2    0    0 -0.69138866134E-02  0.21976875227E-01 -0.61199836647E-02  0.10200922343E+01  0.10198136729E+01 0.  0.
     999903    2    3    3    0    0 -0.12595200532E+00  0.32514585897E-01 -0.20958545503E-02  0.13200591494E+00  0.22362089185E-01 0.  0.
         14    1    1    2    0    0  0.69138866134E-02 -0.21976875227E-01  0.61199836647E-02  0.23837765686E-01  0.00000000000E+00 0.  1.
     999901    1    3    3    0    0  0.11903811870E+00 -0.10537710670E-01 -0.40241291144E-02  0.88808631938E+00  0.88000000000E+00 0.  1.
        -11    1    4    4    0    0 -0.97265269572E-01  0.28610443797E-01  0.70721298953E-02  0.10163349006E+00  0.51100000000E-03 0.  1.
         11    1    4    4    0    0 -0.28686735744E-01  0.39041421002E-02 -0.91679844456E-02  0.30372424878E-01  0.51100000000E-03 0. -1.
</event>
<event>
 8    1  0.1162192E+005  0.1043930E+01  0.7957747E-01            NaN
         13   -1    0    0    0    0  0.00000000000E+00  0.00000000000E+00  0.74505805969E-08  0.10566000000E+00  0.10566000000E+00 0.  1.
     999900   -1    0    0    0    0 -0.00000000000E+00 -0.00000000000E+00 -0.74505805969E-08  0.93827000000E+00  0.93827000000E+00 0. -1.
     999902    2    1    2    0    0 -0.21004330993E-02  0.23436446336E-01  0.46743453513E-03  0.10203949765E+01  0.10201235272E+01 0.  0.
     999903    2    3    3    0    0 -0.10829848985E+00  0.69277256870E-01  0.24582054436E-01  0.13249806691E+00  0.20580551755E-01 0.  0.
         14    1    1    2    0    0  0.21004330993E-02 -0.23436446336E-01 -0.46743453513E-03  0.23535023499E-01  0.00000000000E+00 0. -1.
     999901    1    3    3    0    0  0.10619805675E+00 -0.45840810535E-01 -0.24114619901E-01  0.88789690959E+00  0.88000000000E+00 0. -1.
        -11    1    4    4    0    0 -0.82925460344E-01  0.50762204667E-01  0.27233485972E-01  0.10097206185E+00  0.51100000000E-03 0. -1.
         11    1    4    4    0    0 -0.25373029510E-01  0.18515052204E-01 -0.26514315355E-02  0.31526005056E-01  0.51100000000E-03 0.  1.
</event>
<event>
 8    1  0.1162192E+005  0.1043930E+01  0.7957747E-01            NaN
         13   -1    0    0    0    0  0.00000000000E+00  0.00000000000E+00  0.74505805969E-08  0.10566000000E+00  0.10566000000E+00 0.  1.
     999900   -1    0    0    0    0 -0.00000000000E+00 -0.00000000000E+00 -0.74505805969E-08  0.93827000000E+00  0.93827000000E+00 0.  1.
     999902    2    1    2    0    0 -0.18955705833E-02  0.18152106945E-01  0.15313540992E-01  0.10201057117E+01  0.10198274689E+01 0.  0.
     999903    2    3    3    0    0  0.73939299276E-01 -0.10277698933E+00  0.37868024325E-02  0.12852978141E+00  0.21804479394E-01 0.  0.
         14    1    1    2    0    0  0.18955705833E-02 -0.18152106945E-01 -0.15313540992E-01  0.23824288281E-01  0.00000000000E+00 0.  1.
     999901    1    3    3    0    0 -0.75834869860E-01  0.12092909628E+00  0.11526738559E-01  0.89157593031E+00  0.88000000000E+00 0.  1.
        -11    1    4    4    0    0  0.21291078905E-01 -0.15203476486E-01 -0.15071788713E-02  0.26210464463E-01  0.51100000000E-03 0.  1.
         11    1    4    4    0    0  0.52648220371E-01 -0.87573512846E-01  0.52939813038E-02  0.10231931694E+00  0.51100000000E-03 0. -1.
</event>
<event>
 8    1  0.1162192E+005  0.1043930E+01  0.7957747E-01            NaN
         13   -1    0    0    0    0  0.00000000000E+00  0.00000000000E+00  0.74505805969E-08  0.10566000000E+00  0.10566000000E+00 0. -1.
     999900   -1    0    0    0    0 -0.00000000000E+00 -0.00000000000E+00 -0.74505805969E-08  0.93827000000E+00  0.93827000000E+00 0.  1.
     999902    2    1    2    0    0 -0.96078725844E-02 -0.16823861865E-01  0.16120923913E-01  0.10187260771E+01  0.10184142489E+01 0.  0.
     999903    2    3    3    0    0 -0.66601686124E-01 -0.12310860539E-04  0.11139212571E+00  0.13159163126E+00  0.21734005666E-01 0.  0.
         14    1    1    2    0    0  0.96078725844E-02  0.16823861865E-01 -0.16120923913E-01  0.25203922938E-01  0.00000000000E+00 0.  1.
     999901    1    3    3    0    0  0.56993813540E-01 -0.16811551004E-01 -0.95271201797E-01  0.88713444580E+00  0.88000000000E+00 0.  1.
        -11    1    4    4    0    0 -0.41461151744E-01 -0.16244559348E-02  0.87624094678E-01  0.96953128109E-01  0.51100000000E-03 0. -1.
         11    1    4    4    0    0 -0.25140534380E-01  0.16121450743E-02  0.23768031033E-01  0.34638503155E-01  0.51100000000E-03 0.  1.
</event>
<event>
 8    1  0.1162192E+005  0.1043930E+01  0.7957747E-01            NaN
         13   -1    0    0    0    0  0.00000000000E+00  0.00000000000E+00  0.74505805969E-08  0.10566000000E+00  0.10566000000E+00 0.  1.
     999900   -1    0    0    0    0 -0.00000000000E+00 -0.00000000000E+00 -0.74505805969E-08  0.93827000000E+00  0.93827000000E+00 0. -1.
     999902    2    1    2    0    0  0.23491797525E-01  0.11803912464E-02 -0.48179801898E-02  0.10199201935E+01  0.10196375485E+01 0.  0.
     999903    2    3    3    0    0  0.60818770318E-01 -0.11337167671E+00 -0.19372018037E-01  0.13159182000E+00  0.19724910764E-01 0.  0.
         14    1    1    2    0    0 -0.23491797525E-01 -0.11803912464E-02  0.48179801898E-02  0.24009806487E-01  0.00000000000E+00 0. -1.
     999901    1    3    3    0    0 -0.37326972793E-01  0.11455206796E+00  0.14554037847E-01  0.88832837351E+00  0.88000000000E+00 0. -1.
        -11    1    4    4    0    0  0.46942036211E-01 -0.91662618923E-01 -0.76137623201E-02  0.10326577831E+00  0.51100000000E-03 0.  1.
         11    1    4    4    0    0  0.13876734106E-01 -0.21709057788E-01 -0.11758255716E-01  0.28326041693E-01  0.51100000000E-03 0. -1.
</event>
<event>
 8    1  0.1162192E+005  0.1043930E+01  0.7957747E-01            NaN
         13   -1    0    0    0    0  0.00000000000E+00  0.00000000000E+00  0.74505805969E-08  0.10566000000E+00  0.10566000000E+00 0.  1.
     999900   -1    0    0    0    0 -0.00000000000E+00 -0.00000000000E+00 -0.74505805969E-08  0.93827000000E+00  0.93827000000E+00 0. -1.
     999902    2    1    2    0    0  0.25679307933E-01  0.20615101648E-01 -0.57835613350E-02  0.10104956037E+01  0.10099423282E+01 0.  0.
     999903    2    3    3    0    0 -0.18630992358E-02 -0.21624133514E-01 -0.11847025465E+00  0.12187812246E+00  0.18654790491E-01 0.  0.
         14    1    1    2    0    0 -0.25679307933E-01 -0.20615101648E-01  0.57835613350E-02  0.33434396265E-01  0.00000000000E+00 0. -1.
     999901    1    3    3    0    0  0.27542407168E-01  0.42239235163E-01  0.11268669332E+00  0.88861748128E+00  0.88000000000E+00 0.  1.
        -11    1    4    4    0    0 -0.42725909349E-02  0.71241129850E-03 -0.40498200414E-01  0.40732394000E-01  0.51100000000E-03 0.  1.
         11    1    4    4    0    0  0.24094916991E-02 -0.22336544813E-01 -0.77972054236E-01  0.81145728459E-01  0.51100000000E-03 0. -1.
</event>
<event>
 8    1  0.1162192E+005  0.1043930E+01  0.7957747E-01            NaN
         13   -1    0    0    0    0  0.00000000000E+00  0.00000000000E+00  0.74505805969E-08  0.10566000000E+00  0.10566000000E+00 0.  1.
     999900   -1    0    0    0    0 -0.00000000000E+00 -0.00000000000E+00 -0.74505805969E-08  0.93827000000E+00  0.93827000000E+00 0. -1.
     999902    2    1    2    0    0 -0.98683731961E-02 -0.17897311190E-01 -0.10517050463E-01  0.10209450726E+01  0.10206863056E+01 0.  0.
     999903    2    3    3    0    0 -0.99081395239E-01 -0.75789795736E-01  0.40924750775E-01  0.13305050566E+00  0.21595967483E-01 0.  0.
         14    1    1    2    0    0  0.98683731961E-02  0.17897311190E-01  0.10517050463E-01  0.22984927405E-01  0.00000000000E+00 0.  1.
     999901    1    3    3    0    0  0.89213022043E-01  0.57892484546E-01 -0.51441801238E-01  0.88789456693E+00  0.88000000000E+00 0. -1.
        -11    1    4    4    0    0 -0.58146520331E-01 -0.56976709859E-01  0.29285266669E-01  0.86517346571E-01  0.51100000000E-03 0. -1.
         11    1    4    4    0    0 -0.40934874908E-01 -0.18813085877E-01  0.11639484106E-01  0.46533159093E-01  0.51100000000E-03 0.  1.
</event>
<event>
 8    1  0.1162192E+005  0.1043930E+01  0.7957747E-01            NaN
         13   -1    0    0    0    0  0.00000000000E+00  0.00000000000E+00  0.74505805969E-08  0.10566000000E+00  0.10566000000E+00 0. -1.
     999900   -1    0    0    0    0 -0.00000000000E+00 -0.00000000000E+00 -0.74505805969E-08  0.93827000000E+00  0.93827000000E+00 0. -1.
     999902    2    1    2    0    0  0.13431759078E-01  0.12349059420E-01 -0.17280795054E-01  0.10187995941E+01  0.10184896051E+01 0.  0.
     999903    2    3    3    0    0 -0.96398315904E-01 -0.55306901528E-01 -0.61023889405E-01  0.12832026664E+00  0.19765805983E-01 0.  0.
         14    1    1    2    0    0 -0.13431759078E-01 -0.12349059420E-01  0.17280795054E-01  0.25130405850E-01  0.00000000000E+00 0. -1.
     999901    1    3    3    0    0  0.10983007498E+00  0.67655960948E-01  0.43743094351E-01  0.89047932751E+00  0.88000000000E+00 0. -1.
        -11    1    4    4    0    0 -0.36712971474E-01 -0.10435565593E-01 -0.22216483006E-01  0.44165331900E-01  0.51100000000E-03 0. -1.
         11    1    4    4    0    0 -0.59685344430E-01 -0.44871335934E-01 -0.38807406400E-01  0.84154934738E-01  0.51100000000E-03 0.  1.
</event>
<event>
 8    1  0.1162192E+005  0.1043930E+01  0.7957747E-01            NaN
         13   -1    0    0    0    0  0.00000000000E+00  0.00000000000E+00  0.74505805969E-08  0.10566000000E+00  0.10566000000E+00 0.  1.
     999900   -1    0    0    0    0 -0.00000000000E+00 -0.00000000000E+00 -0.74505805969E-08  0.93827000000E+00  0.93827000000E+00 0.  1.
     999902    2    1    2    0    0  0.13032237589E-01  0.15141868578E-01  0.14746787927E-01  0.10190989075E+01  0.10187963487E+01 0.  0.
     999903    2    3    3    0    0 -0.79690115977E-01  0.29219073591E-01 -0.93102372825E-01  0.12756817666E+00  0.20032948496E-01 0.  0.
         14    1    1    2    0    0 -0.13032237589E-01 -0.15141868578E-01 -0.14746787927E-01  0.24831092500E-01  0.00000000000E+00 0.  1.
     999901    1    3    3    0    0  0.92722353566E-01 -0.14077205014E-01  0.10784916075E+00  0.89153073084E+00  0.88000000000E+00 0. -1.
        -11    1    4    4    0    0 -0.49833355820E-01  0.28323365337E-01 -0.62254690233E-01  0.84625551421E-01  0.51100000000E-03 0.  1.
         11    1    4    4    0    0 -0.29856760157E-01  0.89570825402E-03 -0.30847682592E-01  0.42942625242E-01  0.51100000000E-03 0. -1.
</event>
<event>
 8    1  0.1162192E+005  0.1043930E+01  0.7957747E-01            NaN
         13   -1    0    0    0    0  0.00000000000E+00  0.00000000000E+00  0.74505805969E-08  0.10566000000E+00  0.10566000000E+00 0. -1.
     999900   -1    0    0    0    0 -0.00000000000E+00 -0.00000000000E+00 -0.74505805969E-08  0.93827000000E+00  0.93827000000E+00 0. -1.
     999902    2    1    2    0    0 -0.23722031079E-01 -0.64517969311E-02 -0.26197395153E-02  0.10192070658E+01  0.10189071692E+01 0.  0.
     999903    2    3    3    0    0 -0.52467307556E-02  0.11617177206E+00  0.50038997403E-01  0.12895383271E+00  0.24531222990E-01 0.  0.
         14    1    1    2    0    0  0.23722031079E-01  0.64517969311E-02  0.26197395153E-02  0.24722934237E-01  0.00000000000E+00 0. -1.
     999901    1    3    3    0    0 -0.18475300324E-01 -0.12262356899E+00 -0.52658736918E-01  0.89025323306E+00  0.88000000000E+00 0.  1.
        -11    1    4    4    0    0  0.18477135128E-02  0.66300001150E-01  0.16231827435E-01  0.68284973022E-01  0.51100000000E-03 0.  1.
         11    1    4    4    0    0 -0.70944442684E-02  0.49871770910E-01  0.33807169968E-01  0.60668859685E-01  0.51100000000E-03 0. -1.
</event>
<event>
 8    1  0.1162192E+005  0.1043930E+01  0.7957747E-01            NaN
         13   -1    0    0    0    0  0.00000000000E+00  0.00000000000E+00  0.74505805969E-08  0.10566000000E+00  0.10566000000E+00 0. -1.
     999900   -1    0    0    0    0 -0.00000000000E+00 -0.00000000000E+00 -0.74505805969E-08  0.93827000000E+00  0.93827000000E+00 0. -1.
     999902    2    1    2    0    0  0.45468214031E-02 -0.21938867892E-01  0.24657156838E-02  0.10213896526E+01  0.10211409085E+01 0.  0.
     999903    2    3    3    0    0 -0.57868782523E-01  0.91446007006E-01  0.68175157847E-01  0.12949864561E+00  0.20270147507E-01 0.  0.
         14    1    1    2    0    0 -0.45468214031E-02  0.21938867892E-01 -0.24657156838E-02  0.22540347448E-01  0.00000000000E+00 0. -1.
     999901    1    3    3    0    0  0.62415603927E-01 -0.11338487490E+00 -0.65709442163E-01  0.89189100694E+00  0.88000000000E+00 0. -1.
        -11    1    4    4    0    0 -0.35930271013E-01  0.71272471948E-01  0.44161436246E-01  0.91220848521E-01  0.51100000000E-03 0.  1.
         11    1    4    4    0    0 -0.21938511511E-01  0.20173535058E-01  0.24013721601E-01  0.38277797092E-01  0.51100000000E-03 0. -1.
</event>
<event>
 8    1  0.1162192E+005  0.1043930E+01  0.7957747E-01            NaN
         13   -1    0    0    0    0  0.00000000000E+00  0.00000000000E+00  0.74505805969E-08  0.10566000000E+00  0.10566000000E+00 0.  1.
     999900   -1    0    0    0    0 -0.00000000000E+00 -0.00000000000E+00 -0.74505805969E-08  0.93827000000E+00  0.93827000000E+00 0.  1.
     999902    2    1    2    0    0 -0.10363766951E-01  0.18873881929E-01  0.10243714970E-01  0.10200854035E+01  0.10198066806E+01 0.  0.
     999903    2    3    3    0    0  0.53416082845E-01 -0.10851273757E+00  0.37090059334E-01  0.12822445794E+00  0.20917623904E-01 0.  0.
         14    1    1    2    0    0  0.10363766951E-01 -0.18873881929E-01 -0.10243714970E-01  0.23844596471E-01  0.00000000000E+00 0. -1.
     999901    1    3    3    0    0 -0.63779849796E-01  0.12738661950E+00 -0.26846344364E-01  0.89186094559E+00  0.88000000000E+00 0.  1.
        -11    1    4    4    0    0  0.11125257381E-01 -0.37724351555E-01  0.19526410335E-01  0.43914005438E-01  0.51100000000E-03 0.  1.
         11    1    4    4    0    0  0.42290825464E-01 -0.70788386017E-01  0.17563649000E-01  0.84310452498E-01  0.51100000000E-03 0. -1.
</event>
<event>
 8    1  0.1162192E+005  0.1043930E+01  0.7957747E-01            NaN
         13   -1    0    0    0    0  0.00000000000E+00  0.00000000000E+00  0.74505805969E-08  0.10566000000E+00  0.10566000000E+00 0.  1.
     999900   -1    0    0    0    0 -0.00000000000E+00 -0.00000000000E+00 -0.74505805969E-08  0.93827000000E+00  0.93827000000E+00 0.  1.
     999902    2    1    2    0    0  0.45704316898E-02  0.10051504207E-01 -0.20709320431E-01  0.10204609238E+01  0.10201910113E+01 0.  0.
     999903    2    3    3    0    0  0.97127522600E-02 -0.10994155145E+00 -0.67733903515E-01  0.13105882790E+00  0.20175539461E-01 0.  0.
         14    1    1    2    0    0 -0.45704316898E-02 -0.10051504207E-01  0.20709320431E-01  0.23469076150E-01  0.00000000000E+00 0.  1.
     999901    1    3    3    0    0 -0.51423205702E-02  0.11999305566E+00  0.47024583085E-01  0.88940209595E+00  0.88000000000E+00 0. -1.
        -11    1    4    4    0    0  0.77577549037E-02 -0.42016357738E-01 -0.15901945828E-01  0.45592653803E-01  0.51100000000E-03 0. -1.
         11    1    4    4    0    0  0.19549973563E-02 -0.67925193715E-01 -0.51831957688E-01  0.85466174096E-01  0.51100000000E-03 0.  1.
</event>
<event>
 8    1  0.1162192E+005  0.1043930E+01  0.7957747E-01            NaN
         13   -1    0    0    0    0  0.00000000000E+00  0.00000000000E+00  0.74505805969E-08  0.10566000000E+00  0.10566000000E+00 0. -1.
     999900   -1    0    0    0    0 -0.00000000000E+00 -0.00000000000E+00 -0.74505805969E-08  0.93827000000E+00  0.93827000000E+00 0.  1.
     999902    2    1    2    0    0  0.11295887570E-02 -0.19969537968E-01 -0.14592234010E-01  0.10191713306E+01  0.10188705558E+01 0.  0.
     999903    2    3    3    0    0  0.74134901881E-01 -0.45130832264E-01 -0.96734373467E-01  0.13197901911E+00  0.22981444210E-01 0.  0.
         14    1    1    2    0    0 -0.11295887570E-02  0.19969537968E-01  0.14592234010E-01  0.24758669408E-01  0.00000000000E+00 0. -1.
     999901    1    3    3    0    0 -0.73005313124E-01  0.25161294296E-01  0.82142139457E-01  0.88719231148E+00  0.88000000000E+00 0. -1.
        -11    1    4    4    0    0  0.28032431878E-01 -0.84890299591E-02 -0.21010429682E-01  0.36049689916E-01  0.51100000000E-03 0.  1.
         11    1    4    4    0    0  0.46102470002E-01 -0.36641802305E-01 -0.75723943786E-01  0.95929329196E-01  0.51100000000E-03 0. -1.
</event>
<event>
 8    1  0.1162192E+005  0.1043930E+01  0.7957747E-01            NaN
         13   -1    0    0    0    0  0.00000000000E+00  0.00000000000E+00  0.74505805969E-08  0.10566000000E+00  0.10566000000E+00 0. -1.
     999900   -1    0    0    0    0 -0.00000000000E+00 -0.00000000000E+00 -0.74505805969E-08  0.93827000000E+00  0.93827000000E+00 0. -1.
     999902    2    1    2    0    0 -0.31902503724E-02 -0.37898244902E-02  0.29805661871E-01  0.10137154680E+01  0.10132650848E+01 0.  0.
     999903    2    3    3    0    0 -0.61566089186E-01 -0.64847622807E-01 -0.81614189144E-01  0.12267664922E+00  0.19826418557E-01 0.  0.
         14    1    1    2    0    0  0.31902503724E-02  0.37898244902E-02 -0.29805661871E-01  0.30214532045E-01  0.00000000000E+00 0.  1.
     999901    1    3    3    0    0  0.58375838813E-01  0.61057798317E-01  0.11141985102E+00  0.89103881874E+00  0.88000000000E+00 0.  1.
        -11    1    4    4    0    0 -0.33481366044E-01 -0.23995540276E-01 -0.45247312727E-01  0.61191243290E-01  0.51100000000E-03 0. -1.
         11    1    4    4    0    0 -0.28084723142E-01 -0.40852082531E-01 -0.36366876417E-01  0.61485405930E-01  0.51100000000E-03 0.  1.
</event>
<event>
 8    1  0.1162192E+005  0.1043930E+01  0.7957747E-01            NaN
         13   -1    0    0    0    0  0.00000000000E+00  0.00000000000E+00  0.74505805969E-08  0.10566000000E+00  0.10566000000E+00 0.  1.
     999900   -1    0    0    0    0 -0.00000000000E+00 -0.00000000000E+00 -0.74505805969E-08  0.93827000000E+00  0.93827000000E+00 0.  1.
     999902    2    1    2    0    0  0.10975237256E-01 -0.21481379178E-02  0.19888570861E-01  0.10211127789E+01  0.10208578165E+01 0.  0.
     999903    2    3    3    0    0 -0.10744352354E+00 -0.10874643459E-01  0.70950897995E-01  0.13167109103E+00  0.25315561720E-01 0.  0.
         14    1    1    2    0    0 -0.10975237256E-01  0.21481379178E-02 -0.19888570861E-01  0.22817221133E-01  0.00000000000E+00 0. -1.
     999901    1    3    3    0    0  0.11841876080E+00  0.87265055416E-02 -0.51062327133E-01  0.88944168784E+00  0.88000000000E+00 0.  1.
        -11    1    4    4    0    0 -0.31518269149E-01  0.79630831116E-02  0.17476797342E-01  0.36912214091E-01  0.51100000000E-03 0.  1.
         11    1    4    4    0    0 -0.75925254395E-01 -0.18837726571E-01  0.53474100652E-01  0.94758876940E-01  0.51100000000E-03 0. -1.
</event>
<event>
 8    1  0.1162192E+005  0.1043930E+01  0.7957747E-01            NaN
         13   -1    0    0    0    0  0.00000000000E+00  0.00000000000E+00  0.74505805969E-08  0.10566000000E+00  0.10566000000E+00 0.  1.
     999900   -1    0    0    0    0 -0.00000000000E+00 -0.00000000000E+00 -0.74505805969E-08  0.93827000000E+00  0.93827000000E+00 0.  1.
     999902    2    1    2    0    0 -0.10098154990E-01  0.14580174525E-01  0.15972991820E-01  0.10200618059E+01  0.10197825244E+01 0.  0.
     999903    2    3    3    0    0  0.67789480067E-01 -0.24684576971E-01  0.10769937626E+00  0.13100503940E+00  0.18932056234E-01 0.  0.
         14    1    1    2    0    0  0.10098154990E-01 -0.14580174525E-01 -0.15972991820E-01  0.23868194131E-01  0.00000000000E+00 0.  1.
     999901    1    3    3    0    0 -0.77887635057E-01  0.39264751496E-01 -0.91726384439E-01  0.88905676647E+00  0.88000000000E+00 0.  1.
        -11    1    4    4    0    0 -0.67211914938E-03  0.54329796156E-03  0.45429550901E-02  0.46525776486E-02  0.51100000000E-03 0. -1.
         11    1    4    4    0    0  0.68461599216E-01 -0.25227874932E-01  0.10315642117E+00  0.12635246175E+00  0.51100000000E-03 0.  1.
</event>
<event>
 8    1  0.1162192E+005  0.1043930E+01  0.7957747E-01            NaN
         13   -1    0    0    0    0  0.00000000000E+00  0.00000000000E+00  0.74505805969E-08  0.10566000000E+00  0.10566000000E+00 0. -1.
     999900   -1    0    0    0    0 -0.00000000000E+00 -0.00000000000E+00 -0.74505805969E-08  0.93827000000E+00  0.93827000000E+00 0.  1.
     999902    2    1    2    0    0 -0.46226470662E-02 -0.22040242781E-01  0.19892267955E-01  0.10138826458E+01  0.10134373074E+01 0.  0.
     999903    2    3    3    0    0 -0.99072153063E-01  0.13231121461E-01 -0.69124810789E-01  0.12366423521E+00  0.22896495695E-01 0.  0.
         14    1    1    2    0    0  0.46226470662E-02  0.22040242781E-01 -0.19892267955E-01  0.30047354162E-01  0.00000000000E+00 0. -1.
     999901    1    3    3    0    0  0.94449505997E-01 -0.35271364242E-01  0.89017078744E-01  0.89021841063E+00  0.88000000000E+00 0.  1.
        -11    1    4    4    0    0 -0.58030898599E-01  0.14587202438E-01 -0.29975081659E-01  0.66926364824E-01  0.51100000000E-03 0. -1.
         11    1    4    4    0    0 -0.41041254464E-01 -0.13560809769E-02 -0.39149729130E-01  0.56737870383E-01  0.51100000000E-03 0.  1.
</event>
<event>
 8    1  0.1162192E+005  0.1043930E+01  0.7957747E-01            NaN
         13   -1    0    0    0    0  0.00000000000E+00  0.00000000000E+00  0.74505805969E-08  0.10566000000E+00  0.10566000000E+00 0. -1.
     999900   -1    0    0    0    0 -0.00000000000E+00 -0.00000000000E+00 -0.74505805969E-08  0.93827000000E+00  0.93827000000E+00 0. -1.
     999902    2    1    2    0    0  0.22422425392E-01  0.52370207229E-02  0.12267293198E-02  0.10208714569E+01  0.10206110106E+01 0.  0.
     999903    2    3    3    0    0  0.35417261359E-01 -0.23665739578E-01 -0.12231023053E+00  0.13167765585E+00  0.23764741264E-01 0.  0.
         14    1    1    2    0    0 -0.22422425392E-01 -0.52370207229E-02 -0.12267293198E-02  0.23058543131E-01  0.00000000000E+00 0. -1.
     999901    1    3    3    0    0 -0.12994835967E-01  0.28902760301E-01  0.12353695985E+00  0.88919380101E+00  0.88000000000E+00 0.  1.
        -11    1    4    4    0    0  0.26672613486E-01 -0.26195570654E-01 -0.78768883240E-01  0.87191939535E-01  0.51100000000E-03 0. -1.
         11    1    4    4    0    0  0.87446478730E-02  0.25298310760E-02 -0.43541347289E-01  0.44485716319E-01  0.51100000000E-03 0.  1.
</event>
<event>
 8    1  0.1162192E+005  0.1043930E+01  0.7957747E-01            NaN
         13   -1    0    0    0    0  0.00000000000E+00  0.00000000000E+00  0.74505805969E-08  0.10566000000E+00  0.10566000000E+00 0.  1.
     999900   -1    0    0    0    0 -0.00000000000E+00 -0.00000000000E+00 -0.74505805969E-08  0.93827000000E+00  0.93827000000E+00 0. -1.
     999902    2    1    2    0    0  0.23023836693E-01 -0.66329352702E-02  0.12611035318E-02  0.10199365995E+01  0.10196543452E+01 0.  0.
     999903    2    3    3    0    0 -0.41760164324E-01 -0.91617298068E-01  0.79784913870E-01  0.13000104142E+00  0.19924800124E-01 0.  0.
         14    1    1    2    0    0 -0.23023836693E-01  0.66329352702E-02 -0.12611035318E-02  0.23993400519E-01  0.00000000000E+00 0. -1.
     999901    1    3    3    0    0  0.64784001016E-01  0.84984362798E-01 -0.78523810338E-01  0.88993555806E+00  0.88000000000E+00 0. -1.
        -11    1    4    4    0    0 -0.27591461913E-01 -0.77752923260E-01  0.68134596131E-01  0.10700182315E+00  0.51100000000E-03 0.  1.
         11    1    4    4    0    0 -0.14168702411E-01 -0.13864374808E-01  0.11650317739E-01  0.22999218275E-01  0.51100000000E-03 0. -1.
</event>
<event>
 8    1  0.1162192E+005  0.1043930E+01  0.7957747E-01            NaN
         13   -1    0    0    0    0  0.00000000000E+00  0.00000000000E+00  0.74505805969E-08  0.10566000000E+00  0.10566000000E+00 0. -1.
     999900   -1    0    0    0    0 -0.00000000000E+00 -0.00000000000E+00 -0.74505805969E-08  0.93827000000E+00  0.93827000000E+00 0. -1.
     999902    2    1    2    0    0 -0.10613484334E-01 -0.13124377606E-01 -0.16427811353E-01  0.10203764796E+01  0.10201045985E+01 0.  0.
     999903    2    3    3    0    0  0.65766974524E-01 -0.53133829243E-01  0.95513540716E-01  0.12910458112E+00  0.19916266189E-01 0.  0.
         14    1    1    2    0    0  0.10613484334E-01  0.13124377606E-01  0.16427811353E-01  0.23553520397E-01  0.00000000000E+00 0. -1.
     999901    1    3    3    0    0 -0.76380458858E-01  0.40009451637E-01 -0.11194135207E+00  0.89127189848E+00  0.88000000000E+00 0. -1.
        -11    1    4    4    0    0  0.32035963697E-02 -0.95744034839E-02  0.70522132698E-02  0.12325869737E-01  0.51100000000E-03 0.  1.
         11    1    4    4    0    0  0.62563378154E-01 -0.43559425759E-01  0.88461327446E-01  0.11677871139E+00  0.51100000000E-03 0. -1.
</event>
<event>
 8    1  0.1162192E+005  0.1043930E+01  0.7957747E-01            NaN
         13   -1    0    0    0    0  0.00000000000E+00  0.00000000000E+00  0.74505805969E-08  0.10566000000E+00  0.10566000000E+00 0.  1.
     999900   -1    0    0    0    0 -0.00000000000E+00 -0.00000000000E+00 -0.74505805969E-08  0.93827000000E+00  0.93827000000E+00 0.  1.
     999902    2    1    2    0    0 -0.17615564133E-01  0.35717000831E-02  0.14474030780E-01  0.10208526798E+01  0.10205918044E+01 0.  0.
     999903    2    3    3    0    0 -0.12826760051E+00 -0.27895713088E-01  0.13798283787E-01  0.13336491769E+00  0.19106556061E-01 0.  0.
         14    1    1    2    0    0  0.17615564133E-01 -0.35717000831E-02 -0.14474030780E-01  0.23077320213E-01  0.00000000000E+00 0. -1.
     999901    1    3    3    0    0  0.11065203638E+00  0.31467413171E-01  0.67574699273E-03  0.88748776210E+00  0.88000000000E+00 0.  1.
        -11    1    4    4    0    0 -0.10162306004E+00 -0.25620047282E-01  0.40005071401E-02  0.10488040014E+00  0.51100000000E-03 0. -1.
         11    1    4    4    0    0 -0.26644540467E-01 -0.22756658066E-02  0.97977766469E-02  0.28484517545E-01  0.51100000000E-03 0.  1.
</event>
<event>
 8    1  0.1162192E+005  0.1043930E+01  0.7957747E-01            NaN
         13   -1    0    0    0    0  0.00000000000E+00  0.00000000000E+00  0.74505805969E-08  0.10566000000E+00  0.10566000000E+00 0. -1.
     999900   -1    0    0    0    0 -0.00000000000E+00 -0.00000000000E+00 -0.74505805969E-08  0.93827000000E+00  0.93827000000E+00 0. -1.
     999902    2    1    2    0    0  0.11662274068E-01 -0.18025478200E-01 -0.10289509082E-01  0.10201224277E+01  0.10198445798E+01 0.  0.
     999903    2    3    3    0    0 -0.66774759980E-01  0.10609760530E+00  0.13477358656E-01  0.12764062277E+00  0.19872568102E-01 0.  0.
         14    1    1    2    0    0 -0.11662274068E-01  0.18025478200E-01  0.10289509082E-01  0.23807572281E-01  0.00000000000E+00 0.  1.
     999901    1    3    3    0    0  0.78437034047E-01 -0.12412308350E+00 -0.23766867738E-01  0.89248180495E+00  0.88000000000E+00 0. -1.
        -11    1    4    4    0    0 -0.42830933815E-01  0.58991812556E-01 -0.78007703451E-03  0.72906738244E-01  0.51100000000E-03 0. -1.
         11    1    4    4    0    0 -0.23943826164E-01  0.47105792745E-01  0.14257435690E-01  0.54733884523E-01  0.51100000000E-03 0.  1.
</event>
<event>
 8    1  0.1162192E+005  0.1043930E+01  0.7957747E-01            NaN
         13   -1    0    0    0    0  0.00000000000E+00  0.00000000000E+00  0.74505805969E-08  0.10566000000E+00  0.10566000000E+00 0. -1.
     999900   -1    0    0    0    0 -0.00000000000E+00 -0.00000000000E+00 -0.74505805969E-08  0.93827000000E+00  0.93827000000E+00 0. -1.
     999902    2    1    2    0    0  0.61893713082E-03  0.23258041078E-01  0.38809351297E-02  0.10203422656E+01  0.10200695847E+01 0.  0.
     999903    2    3    3    0    0  0.10602207376E+00  0.21484039116E-01  0.72204258138E-01  0.13142098404E+00  0.18862027762E-01 0.  0.
         14    1    1    2    0    0 -0.61893713082E-03 -0.23258041078E-01 -0.38809351297E-02  0.23587734427E-01  0.00000000000E+00 0.  1.
     999901    1    3    3    0    0 -0.10540313663E+00  0.17740019616E-02 -0.68323323008E-01  0.88892128153E+00  0.88000000000E+00 0. -1.
        -11    1    4    4    0    0  0.35832764735E-01 -0.16607657751E-02  0.24930029210E-01  0.43686527087E-01  0.51100000000E-03 0. -1.
         11    1    4    4    0    0  0.70189309027E-01  0.23144804891E-01  0.47274228928E-01  0.87734456953E-01  0.51100000000E-03 0.  1.
</event>
<event>
 8    1  0.1162192E+005  0.1043930E+01  0.7957747E-01            NaN
         13   -1    0    0    0    0  0.00000000000E+00  0.00000000000E+00  0.74505805969E-08  0.10566000000E+00  0.10566000000E+00 0. -1.
     999900   -1    0    0    0    0 -0.00000000000E+00 -0.00000000000E+00 -0.74505805969E-08  0.93827000000E+00  0.93827000000E+00 0. -1.
     999902    2    1    2    0    0 -0.17728497941E-01 -0.66716769012E-02 -0.13198589351E-01  0.10208429111E+01  0.10205818123E+01 0.  0.
     999903    2    3    3    0    0  0.11668765052E+00 -0.40944189054E-01  0.26705324766E-01  0.12908362274E+00  0.25631482371E-01 0.  0.
         14    1    1    2    0    0  0.17728497941E-01  0.66716769012E-02  0.13198589351E-01  0.23087088876E-01  0.00000000000E+00 0. -1.
     999901    1    3    3    0    0 -0.13441614846E+00  0.34272512153E-01 -0.39903914117E-01  0.89175928838E+00  0.88000000000E+00 0.  1.
        -11    1    4    4    0    0  0.81043079063E-01 -0.32557357859E-01  0.29917228649E-01  0.92321524607E-01  0.51100000000E-03 0.  1.
         11    1    4    4    0    0  0.35644571454E-01 -0.83868311947E-02 -0.32119038828E-02  0.36762098133E-01  0.51100000000E-03 0. -1.
</event>
<event>
 8    1  0.1162192E+005  0.1043930E+01  0.7957747E-01            NaN
         13   -1    0    0    0    0  0.00000000000E+00  0.00000000000E+00  0.74505805969E-08  0.10566000000E+00  0.10566000000E+00 0. -1.
     999900   -1    0    0    0    0 -0.00000000000E+00 -0.00000000000E+00 -0.74505805969E-08  0.93827000000E+00  0.93827000000E+00 0. -1.
     999902    2    1    2    0    0  0.15067058305E-01  0.12061095022E-01 -0.13234038657E-01  0.10205285890E+01  0.10202602486E+01 0.  0.
     999903    2    3    3    0    0 -0.12346086700E+00  0.26367325799E-01  0.18149191161E-01  0.12902448834E+00  0.19496253495E-01 0.  0.
         14    1    1    2    0    0 -0.15067058305E-01 -0.12061095022E-01  0.13234038657E-01  0.23401411031E-01  0.00000000000E+00 0.  1.
     999901    1    3    3    0    0  0.13852792531E+00 -0.14306230777E-01 -0.31383229818E-01  0.89150410063E+00  0.88000000000E+00 0. -1.
        -11    1    4    4    0    0 -0.69183359237E-01  0.54862575625E-02  0.64486101692E-02  0.69701376683E-01  0.51100000000E-03 0.  1.
         11    1    4    4    0    0 -0.54277507765E-01  0.20881068237E-01  0.11700580992E-01  0.59323111655E-01  0.51100000000E-03 0. -1.
</event>
<event>
 8    1  0.1162192E+005  0.1043930E+01  0.7957747E-01            NaN
         13   -1    0    0    0    0  0.00000000000E+00  0.00000000000E+00  0.74505805969E-08  0.10566000000E+00  0.10566000000E+00 0. -1.
     999900   -1    0    0    0    0 -0.00000000000E+00 -0.00000000000E+00 -0.74505805969E-08  0.93827000000E+00  0.93827000000E+00 0.  1.
     999902    2    1    2    0    0  0.16785146139E-01 -0.12922615292E-01  0.99997609808E-02  0.10205050062E+01  0.10202361184E+01 0.  0.
     999903    2    3    3    0    0 -0.82136453452E-01 -0.98869770798E-01  0.11969213388E-01  0.13079928225E+00  0.21060902288E-01 0.  0.
         14    1    1    2    0    0 -0.16785146139E-01  0.12922615292E-01 -0.99997609808E-02  0.23424993844E-01  0.00000000000E+00 0.  1.
     999901    1    3    3    0    0  0.98921599591E-01  0.85947155506E-01 -0.19694524073E-02  0.88970572390E+00  0.88000000000E+00 0. -1.
        -11    1    4    4    0    0 -0.14152384590E-02 -0.47740357866E-02  0.42776844945E-02  0.65843772084E-02  0.51100000000E-03 0. -1.
         11    1    4    4    0    0 -0.80721214993E-01 -0.94095735011E-01  0.76915288937E-02  0.12421490504E+00  0.51100000000E-03 0.  1.
</event>
<event>
 8    1  0.1162192E+005  0.1043930E+01  0.7957747E-01            NaN
         13   -1    0    0    0    0  0.00000000000E+00  0.00000000000E+00  0.74505805969E-08  0.10566000000E+00  0.10566000000E+00 0.  1.
     999900   -1    0    0    0    0 -0.00000000000E+00 -0.00000000000E+00 -0.74505805969E-08  0.93827000000E+00  0.93827000000E+00 0. -1.
     999902    2    1    2    0    0 -0.19470547635E-01 -0.12056862787E-01 -0.57701068436E-02  0.10203129659E+01  0.10200395993E+01 0.  0.
     999903    2    3    3    0    0  0.84123353776E-01 -0.19135115046E-01  0.93322110673E-01  0.12868464334E+00  0.20194796676E-01 0.  0.
         14    1    1    2    0    0  0.19470547635E-01  0.12056862787E-01  0.57701068436E-02  0.23617034074E-01  0.00000000000E+00 0.  1.
     999901    1    3    3    0    0 -0.10359390141E+00  0.70782522590E-02 -0.99092217517E-01  0.89162832259E+00  0.88000000000E+00 0.  1.
        -11    1    4    4    0    0  0.71946357942E-01 -0.23173061420E-01  0.82511307513E-01  0.11190016168E+00  0.51100000000E-03 0.  1.
         11    1    4    4    0    0  0.12176995835E-01  0.40379463738E-02  0.10810803161E-01  0.16784481656E-01  0.51100000000E-03 0. -1.
</event>
<event>
 8    1  0.1162192E+005  0.1043930E+01  0.7957747E-01            NaN
         13   -1    0    0    0    0  0.00000000000E+00  0.00000000000E+00  0.74505805969E-08  0.10566000000E+00  0.10566000000E+00 0.  1.
     999900   -1    0    0    0    0 -0.00000000000E+00 -0.00000000000E+00 -0.74505805969E-08  0.93827000000E+00  0.93827000000E+00 0. -1.
     999902    2    1    2    0    0 -0.13791033011E-01 -0.24023097229E-02  0.18658148857E-01  0.10206042588E+01  0.10203376710E+01 0.  0.
     999903    2    3    3    0    0 -0.11366334729E+00 -0.54289590744E-01  0.37901730273E-01  0.13322774091E+00  0.21127555698E-01 0.  0.
         14    1    1    2    0    0  0.13791033011E-01  0.24023097229E-02 -0.18658148857E-01  0.23325741195E-01  0.00000000000E+00 0. -1.
     999901    1    3    3    0    0  0.99872314277E-01  0.51887281021E-01 -0.19243581416E-01  0.88737651790E+00  0.88000000000E+00 0. -1.
        -11    1    4    4    0    0 -0.81306074076E-01 -0.40351393074E-01  0.17275546207E-01  0.92399232802E-01  0.51100000000E-03 0.  1.
         11    1    4    4    0    0 -0.32357273212E-01 -0.13938197670E-01  0.20626184065E-01  0.40828508105E-01  0.51100000000E-03 0. -1.
</event>
<event>
 8    1  0.1503665E+005  0.1043930E+01  0.7957747E-01            NaN
         13   -1    0    0    0    0  0.00000000000E+00  0.00000000000E+00  0.74505805969E-08  0.10566000000E+00  0.10566000000E+00 0. -1.
     999900   -1    0    0    0    0 -0.00000000000E+00 -0.00000000000E+00 -0.74505805969E-08  0.93827000000E+00  0.93827000000E+00 0. -1.
     999902    2    1    2    0    0 -0.11335731048E-01 -0.63634906831E-02  0.19272372510E-01  0.10206831259E+01  0.10204183585E+01 0.  0.
     999903    2    3    3    0    0  0.75891702484E-01  0.75452930743E-01  0.72667231128E-01  0.13099016602E+00  0.20620423149E-01 0.  0.
         14    1    1    2    0    0  0.11335731048E-01  0.63634906831E-02 -0.19272372510E-01  0.23246874075E-01  0.00000000000E+00 0.  1.
     999901    1    3    3    0    0 -0.87227433532E-01 -0.81816421426E-01 -0.53394858618E-01  0.88969295990E+00  0.88000000000E+00 0.  1.
        -11    1    4    4    0    0  0.49038293855E-01  0.40131507196E-01  0.52311572623E-01  0.82170882223E-01  0.51100000000E-03 0.  1.
         11    1    4    4    0    0  0.26853408629E-01  0.35321423547E-01  0.20355658505E-01  0.48819283798E-01  0.51100000000E-03 0. -1.
</event>
<event>
 8    1  0.1162192E+005  0.1043930E+01  0.7957747E-01            NaN
         13   -1    0    0    0    0  0.00000000000E+00  0.00000000000E+00  0.74505805969E-08  0.10566000000E+00  0.10566000000E+00 0.  1.
     999900   -1    0    0    0    0 -0.00000000000E+00 -0.00000000000E+00 -0.74505805969E-08  0.93827000000E+00  0.93827000000E+00 0. -1.
     999902    2    1    2    0    0  0.24453558941E-02 -0.16464754823E-01 -0.17867004009E-01  0.10195107914E+01  0.10192183064E+01 0.  0.
     999903    2    3    3    0    0  0.10299243357E+00  0.50617929043E-01 -0.59626012644E-01  0.13026750853E+00  0.15644369026E-01 0.  0.
         14    1    1    2    0    0 -0.24453558941E-02  0.16464754823E-01  0.17867004009E-01  0.24419208609E-01  0.00000000000E+00 0.  1.
     999901    1    3    3    0    0 -0.10054707768E+00 -0.67082683866E-01  0.41759008635E-01  0.88924328286E+00  0.88000000000E+00 0. -1.
        -11    1    4    4    0    0  0.75623784348E-01  0.30339393033E-01 -0.46042589496E-01  0.93592823962E-01  0.51100000000E-03 0.  1.
         11    1    4    4    0    0  0.27368649223E-01  0.20278536009E-01 -0.13583423148E-01  0.36674684572E-01  0.51100000000E-03 0. -1.
</event>
<event>
 8    1  0.1162192E+005  0.1043930E+01  0.7957747E-01            NaN
         13   -1    0    0    0    0  0.00000000000E+00  0.00000000000E+00  0.74505805969E-08  0.10566000000E+00  0.10566000000E+00 0.  1.
     999900   -1    0    0    0    0 -0.00000000000E+00 -0.00000000000E+00 -0.74505805969E-08  0.93827000000E+00  0.93827000000E+00 0. -1.
     999902    2    1    2    0    0 -0.44497514318E-02  0.23521459816E-01  0.98326444198E-03  0.10199711568E+01  0.10196897246E+01 0.  0.
     999903    2    3    3    0    0  0.96201587274E-01 -0.76166204970E-01  0.31042408932E-01  0.12813491920E+00  0.19972235515E-01 0.  0.
         14    1    1    2    0    0  0.44497514318E-02 -0.23521459816E-01 -0.98326444198E-03  0.23958843224E-01  0.00000000000E+00 0. -1.
     999901    1    3    3    0    0 -0.10065133871E+00  0.99687664786E-01 -0.30059144490E-01  0.89183623758E+00  0.88000000000E+00 0.  1.
        -11    1    4    4    0    0  0.20293677531E-01 -0.26067514394E-01  0.12418792876E-01  0.35296404802E-01  0.51100000000E-03 0.  1.
         11    1    4    4    0    0  0.75907909743E-01 -0.50098690576E-01  0.18623616056E-01  0.92838514394E-01  0.51100000000E-03 0. -1.
</event>
<event>
 8    1  0.1162192E+005  0.1043930E+01  0.7957747E-01            NaN
         13   -1    0    0    0    0  0.00000000000E+00  0.00000000000E+00  0.74505805969E-08  0.10566000000E+00  0.10566000000E+00 0. -1.
     999900   -1    0    0    0    0 -0.00000000000E+00 -0.00000000000E+00 -0.74505805969E-08  0.93827000000E+00  0.93827000000E+00 0.  1.
     999902    2    1    2    0    0  0.21319844733E-01  0.54275615997E-02 -0.57978206770E-02  0.10211789796E+01  0.10209255112E+01 0.  0.
     999903    2    3    3    0    0  0.12763778818E+00 -0.15537951274E-01  0.31064632582E-01  0.13376594258E+00  0.19886756762E-01 0.  0.
         14    1    1    2    0    0 -0.21319844733E-01 -0.54275615997E-02  0.57978206770E-02  0.22751020393E-01  0.00000000000E+00 0.  1.
     999901    1    3    3    0    0 -0.10631794345E+00  0.20965512874E-01 -0.36862453259E-01  0.88741303703E+00  0.88000000000E+00 0.  1.
        -11    1    4    4    0    0  0.10727972510E+00 -0.16695551399E-01  0.32460464859E-01  0.11332088843E+00  0.51100000000E-03 0. -1.
         11    1    4    4    0    0  0.20358063077E-01  0.11576001246E-02 -0.13958322768E-02  0.20445054146E-01  0.51100000000E-03 0.  1.
</event>
<event>
 8    1  0.1162192E+005  0.1043930E+01  0.7957747E-01            NaN
         13   -1    0    0    0    0  0.00000000000E+00  0.00000000000E+00  0.74505805969E-08  0.10566000000E+00  0.10566000000E+00 0.  1.
     999900   -1    0    0    0    0 -0.00000000000E+00 -0.00000000000E+00 -0.74505805969E-08  0.93827000000E+00  0.93827000000E+00 0. -1.
     999902    2    1    2    0    0 -0.68862815453E-02  0.85939095180E-02 -0.20342700278E-01  0.10207977366E+01  0.10205356032E+01 0.  0.
     999903    2    3    3    0    0 -0.67062784504E-01  0.21584828184E-01  0.10685158671E+00  0.12952428694E+00  0.19898679598E-01 0.  0.
         14    1    1    2    0    0  0.68862815453E-02 -0.85939095180E-02  0.20342700278E-01  0.23132263376E-01  0.00000000000E+00 0.  1.
     999901    1    3    3    0    0  0.60176502959E-01 -0.12990918666E-01 -0.12719428699E+00  0.89127344969E+00  0.88000000000E+00 0. -1.
        -11    1    4    4    0    0 -0.10976478690E-01  0.67555198408E-02  0.88680311725E-02  0.15653217900E-01  0.51100000000E-03 0.  1.
         11    1    4    4    0    0 -0.56086305815E-01  0.14829308343E-01  0.97983555541E-01  0.11387106904E+00  0.51100000000E-03 0. -1.
</event>
<event>
 8    1  0.1162192E+005  0.1043930E+01  0.7957747E-01            NaN
         13   -1    0    0    0    0  0.00000000000E+00  0.00000000000E+00  0.74505805969E-08  0.10566000000E+00  0.10566000000E+00 0.  1.
     999900   -1    0    0    0    0 -0.00000000000E+00 -0.00000000000E+00 -0.74505805969E-08  0.93827000000E+00  0.93827000000E+00 0.  1.
     999902    2    1    2    0    0  0.47111159147E-02  0.19068343751E-01 -0.13352098465E-01  0.10201797394E+01  0.10199032433E+01 0.  0.
     999903    2    3    3    0    0  0.12750854265E+00 -0.95999245945E-02  0.16754096632E-01  0.13068130733E+00  0.21126223780E-01 0.  0.
         14    1    1    2    0    0 -0.47111159147E-02 -0.19068343751E-01  0.13352098465E-01  0.23750260630E-01  0.00000000000E+00 0. -1.
     999901    1    3    3    0    0 -0.12279742673E+00  0.28668268346E-01 -0.30106195097E-01  0.88949843204E+00  0.88000000000E+00 0. -1.
        -11    1    4    4    0    0  0.67643764535E-01 -0.55315739202E-02 -0.17309730195E-02  0.67893553295E-01  0.51100000000E-03 0.  1.
         11    1    4    4    0    0  0.59864778111E-01 -0.40683506743E-02  0.18485069651E-01  0.62787754033E-01  0.51100000000E-03 0. -1.
</event>
<event>
 8    1  0.1162192E+005  0.1043930E+01  0.7957747E-01            NaN
         13   -1    0    0    0    0  0.00000000000E+00  0.00000000000E+00  0.74505805969E-08  0.10566000000E+00  0.10566000000E+00 0. -1.
     999900   -1    0    0    0    0 -0.00000000000E+00 -0.00000000000E+00 -0.74505805969E-08  0.93827000000E+00  0.93827000000E+00 0. -1.
     999902    2    1    2    0    0 -0.60078430076E-02 -0.21175489488E-01  0.98513593628E-02  0.10198147597E+01  0.10195295971E+01 0.  0.
     999903    2    3    3    0    0  0.91345096740E-01 -0.66146655844E-01  0.64705339215E-01  0.13160928811E+00  0.20369511941E-01 0.  0.
         14    1    1    2    0    0  0.60078430076E-02  0.21175489488E-01 -0.98513593628E-02  0.24115240284E-01  0.00000000000E+00 0. -1.
     999901    1    3    3    0    0 -0.97352939748E-01  0.44971166355E-01 -0.54853979852E-01  0.88820547160E+00  0.88000000000E+00 0. -1.
        -11    1    4    4    0    0  0.13719954806E-01 -0.52249156030E-02  0.15457708423E-01  0.21324604888E-01  0.51100000000E-03 0.  1.
         11    1    4    4    0    0  0.77625141934E-01 -0.60921740241E-01  0.49247630792E-01  0.11028468322E+00  0.51100000000E-03 0. -1.
</event>
<event>
 8    1  0.1162192E+005  0.1043930E+01  0.7957747E-01            NaN
         13   -1    0    0    0    0  0.00000000000E+00  0.00000000000E+00  0.74505805969E-08  0.10566000000E+00  0.10566000000E+00 0.  1.
     999900   -1    0    0    0    0 -0.00000000000E+00 -0.00000000000E+00 -0.74505805969E-08  0.93827000000E+00  0.93827000000E+00 0.  1.
     999902    2    1    2    0    0 -0.13708603569E-01  0.55736213013E-02  0.16042518551E-01  0.10221044767E+01  0.10218714243E+01 0.  0.
     999903    2    3    3    0    0  0.45868498370E-01 -0.65388133854E-01  0.10398123260E+00  0.13288109688E+00  0.21581519519E-01 0.  0.
         14    1    1    2    0    0  0.13708603569E-01 -0.55736213013E-02 -0.16042518551E-01  0.21825523309E-01  0.00000000000E+00 0.  1.
     999901    1    3    3    0    0 -0.59577101940E-01  0.70961755155E-01 -0.87938714045E-01  0.88922337981E+00  0.88000000000E+00 0.  1.
        -11    1    4    4    0    0  0.32840195281E-01 -0.30258531390E-01  0.64478607189E-01  0.78433468966E-01  0.51100000000E-03 0. -1.
         11    1    4    4    0    0  0.13028303089E-01 -0.35129602464E-01  0.39502625408E-01  0.54447627917E-01  0.51100000000E-03 0.  1.
</event>
<event>
 8    1  0.1162192E+005  0.1043930E+01  0.7957747E-01            NaN
         13   -1    0    0    0    0  0.00000000000E+00  0.00000000000E+00  0.74505805969E-08  0.10566000000E+00  0.10566000000E+00 0.  1.
     999900   -1    0    0    0    0 -0.00000000000E+00 -0.00000000000E+00 -0.74505805969E-08  0.93827000000E+00  0.93827000000E+00 0. -1.
     999902    2    1    2    0    0 -0.18966558174E-01 -0.12190716238E-01 -0.26964809094E-02  0.10212228447E+01  0.10209703638E+01 0.  0.
     999903    2    3    3    0    0  0.67820884239E-01  0.75903989591E-01 -0.77290622850E-01  0.12945099982E+00  0.20558039755E-01 0.  0.
         14    1    1    2    0    0  0.18966558174E-01  0.12190716238E-01  0.26964809094E-02  0.22707155275E-01  0.00000000000E+00 0.  1.
     999901    1    3    3    0    0 -0.86787442413E-01 -0.88094705830E-01  0.74594141941E-01  0.89177184491E+00  0.88000000000E+00 0.  1.
        -11    1    4    4    0    0  0.26976314946E-01  0.22674395303E-01 -0.37412441051E-01  0.51398459479E-01  0.51100000000E-03 0.  1.
         11    1    4    4    0    0  0.40844569293E-01  0.53229594289E-01 -0.39878181800E-01  0.78052540340E-01  0.51100000000E-03 0. -1.
</event>
<event>
 8    1  0.1162192E+005  0.1043930E+01  0.7957747E-01            NaN
         13   -1    0    0    0    0  0.00000000000E+00  0.00000000000E+00  0.74505805969E-08  0.10566000000E+00  0.10566000000E+00 0.  1.
     999900   -1    0    0    0    0 -0.00000000000E+00 -0.00000000000E+00 -0.74505805969E-08  0.93827000000E+00  0.93827000000E+00 0.  1.
     999902    2    1    2    0    0  0.12311821137E-01 -0.16790048202E-01 -0.95649764455E-02  0.10210176576E+01  0.10207605409E+01 0.  0.
     999903    2    3    3    0    0 -0.11338379714E+00 -0.61984278132E-01  0.48780075511E-02  0.13082076556E+00  0.19807613546E-01 0.  0.
         14    1    1    2    0    0 -0.12311821137E-01  0.16790048202E-01  0.95649764455E-02  0.22912342367E-01  0.00000000000E+00 0. -1.
     999901    1    3    3    0    0  0.12569561828E+00  0.45194229931E-01 -0.14442983997E-01  0.89019689207E+00  0.88000000000E+00 0. -1.
        -11    1    4    4    0    0 -0.31037617498E-01 -0.14149001221E-01 -0.70751949592E-02  0.34840313435E-01  0.51100000000E-03 0.  1.
         11    1    4    4    0    0 -0.82346179641E-01 -0.47835276912E-01  0.11953202510E-01  0.95980452124E-01  0.51100000000E-03 0. -1.
</event>
<event>
 8    1  0.1162192E+005  0.1043930E+01  0.7957747E-01            NaN
         13   -1    0    0    0    0  0.00000000000E+00  0.00000000000E+00  0.74505805969E-08  0.10566000000E+00  0.10566000000E+00 0.  1.
     999900   -1    0    0    0    0 -0.00000000000E+00 -0.00000000000E+00 -0.74505805969E-08  0.93827000000E+00  0.93827000000E+00 0.  1.
     999902    2    1    2    0    0 -0.19434287378E-01 -0.60077837404E-02 -0.24180291902E-03  0.10235868572E+01  0.10233846836E+01 0.  0.
     999903    2    3    3    0    0 -0.93851598901E-01  0.52399072084E-01  0.79172083033E-01  0.13496102909E+00  0.19810988588E-01 0.  0.
         14    1    1    2    0    0  0.19434287378E-01  0.60077837404E-02  0.24180291902E-03  0.20343142826E-01  0.00000000000E+00 0.  1.
     999901    1    3    3    0    0  0.74417311523E-01 -0.58406855825E-01 -0.79413885952E-01  0.88862582809E+00  0.88000000000E+00 0.  1.
        -11    1    4    4    0    0 -0.47690983164E-01  0.22700343721E-01  0.27391257614E-01  0.59500231889E-01  0.51100000000E-03 0. -1.
         11    1    4    4    0    0 -0.46160615738E-01  0.29698728363E-01  0.51780825420E-01  0.75460797198E-01  0.51100000000E-03 0.  1.
</event>
<event>
 8    1  0.1162192E+005  0.1043930E+01  0.7957747E-01            NaN
         13   -1    0    0    0    0  0.00000000000E+00  0.00000000000E+00  0.74505805969E-08  0.10566000000E+00  0.10566000000E+00 0.  1.
     999900   -1    0    0    0    0 -0.00000000000E+00 -0.00000000000E+00 -0.74505805969E-08  0.93827000000E+00  0.93827000000E+00 0. -1.
     999902    2    1    2    0    0  0.12588797218E-02 -0.54613079905E-02  0.21636155281E-01  0.10215797454E+01  0.10213352253E+01 0.  0.
     999903    2    3    3    0    0 -0.12605730124E+00  0.14387035620E-02 -0.29673991866E-01  0.13091159665E+00  0.19099405231E-01 0.  0.
         14    1    1    2    0    0 -0.12588797218E-02  0.54613079905E-02 -0.21636155281E-01  0.22350254550E-01  0.00000000000E+00 0. -1.
     999901    1    3    3    0    0  0.12731618096E+00 -0.69000115526E-02  0.51310147147E-01  0.89066814880E+00  0.88000000000E+00 0. -1.
        -11    1    4    4    0    0 -0.42746060193E-01  0.87362684548E-02 -0.14000095397E-01  0.45823703917E-01  0.51100000000E-03 0.  1.
         11    1    4    4    0    0 -0.83311241044E-01 -0.72975648928E-02 -0.15673896470E-01  0.85087892729E-01  0.51100000000E-03 0. -1.
</event>
<event>
 8    1  0.1162192E+005  0.1043930E+01  0.7957747E-01            NaN
         13   -1    0    0    0    0  0.00000000000E+00  0.00000000000E+00  0.74505805969E-08  0.10566000000E+00  0.10566000000E+00 0. -1.
     999900   -1    0    0    0    0 -0.00000000000E+00 -0.00000000000E+00 -0.74505805969E-08  0.93827000000E+00  0.93827000000E+00 0.  1.
     999902    2    1    2    0    0  0.23424577026E-01 -0.21799218134E-02  0.36951468768E-02  0.10201157820E+01  0.10198377772E+01 0.  0.
     999903    2    3    3    0    0 -0.98688859413E-01 -0.60796046877E-01  0.51505814517E-01  0.12846932662E+00  0.20392858170E-01 0.  0.
         14    1    1    2    0    0 -0.23424577026E-01  0.21799218134E-02 -0.36951468768E-02  0.23814217989E-01  0.00000000000E+00 0.  1.
     999901    1    3    3    0    0  0.12211343644E+00  0.58616125063E-01 -0.47810667640E-01  0.89164645539E+00  0.88000000000E+00 0.  1.
        -11    1    4    4    0    0 -0.80950974181E-01 -0.42845772467E-01  0.46565860260E-01  0.10274950560E+00  0.51100000000E-03 0.  1.
         11    1    4    4    0    0 -0.17737885232E-01 -0.17950274409E-01  0.49399542569E-02  0.25719821013E-01  0.51100000000E-03 0. -1.
</event>
<event>
 8    1  0.1162192E+005  0.1043930E+01  0.7957747E-01            NaN
         13   -1    0    0    0    0  0.00000000000E+00  0.00000000000E+00  0.74505805969E-08  0.10566000000E+00  0.10566000000E+00 0. -1.
     999900   -1    0    0    0    0 -0.00000000000E+00 -0.00000000000E+00 -0.74505805969E-08  0.93827000000E+00  0.93827000000E+00 0. -1.
     999902    2    1    2    0    0  0.13591107275E-01  0.14318954475E-02 -0.19198659278E-01  0.10203639855E+01  0.10200918125E+01 0.  0.
     999903    2    3    3    0    0 -0.96297244621E-01 -0.32210383458E-01  0.76025839104E-01  0.12779748495E+00  0.15543513853E-01 0.  0.
         14    1    1    2    0    0 -0.13591107275E-01 -0.14318954475E-02  0.19198659278E-01  0.23566014504E-01  0.00000000000E+00 0. -1.
     999901    1    3    3    0    0  0.10988835190E+00  0.33642278906E-01 -0.95224498382E-01  0.89256650055E+00  0.88000000000E+00 0. -1.
        -11    1    4    4    0    0 -0.65385689295E-01 -0.28413442264E-01  0.57182575464E-01  0.91393217055E-01  0.51100000000E-03 0.  1.
         11    1    4    4    0    0 -0.30911555326E-01 -0.37969411945E-02  0.18843263640E-01  0.36404267891E-01  0.51100000000E-03 0. -1.
</event>
<event>
 8    1  0.1162192E+005  0.1043930E+01  0.7957747E-01            NaN
         13   -1    0    0    0    0  0.00000000000E+00  0.00000000000E+00  0.74505805969E-08  0.10566000000E+00  0.10566000000E+00 0.  1.
     999900   -1    0    0    0    0 -0.00000000000E+00 -0.00000000000E+00 -0.74505805969E-08  0.93827000000E+00  0.93827000000E+00 0.  1.
     999902    2    1    2    0    0  0.13337110375E-01 -0.12376017864E-01  0.14018561054E-01  0.10209612302E+01  0.10207028310E+01 0.  0.
     999903    2    3    3    0    0  0.12775917588E+00 -0.24206057835E-01 -0.18850114065E-01  0.13286624165E+00  0.19742621695E-01 0.  0.
         14    1    1    2    0    0 -0.13337110375E-01  0.12376017864E-01 -0.14018561054E-01  0.22968769783E-01  0.00000000000E+00 0.  1.
     999901    1    3    3    0    0 -0.11442206551E+00  0.11830039971E-01  0.32868675119E-01  0.88809498857E+00  0.88000000000E+00 0. -1.
        -11    1    4    4    0    0  0.36798581481E-01 -0.10862940651E-01 -0.13850072618E-01  0.40794910358E-01  0.51100000000E-03 0.  1.
         11    1    4    4    0    0  0.90960594399E-01 -0.13343117184E-01 -0.50000414466E-02  0.92071331288E-01  0.51100000000E-03 0. -1.
</event>
<event>
 8    1  0.1162192E+005  0.1043930E+01  0.7957747E-01            NaN
         13   -1    0    0    0    0  0.00000000000E+00  0.00000000000E+00  0.74505805969E-08  0.10566000000E+00  0.10566000000E+00 0.  1.
     999900   -1    0    0    0    0 -0.00000000000E+00 -0.00000000000E+00 -0.74505805969E-08  0.93827000000E+00  0.93827000000E+00 0.  1.
     999902    2    1    2    0    0 -0.18111030533E-01  0.11771272401E-01 -0.10993404313E-01  0.10196931021E+01  0.10194050202E+01 0.  0.
     999903    2    3    3    0    0 -0.65018305397E-01  0.74506317023E-01  0.83498212570E-01  0.13117487274E+00  0.21361751413E-01 0.  0.
         14    1    1    2    0    0  0.18111030533E-01 -0.11771272401E-01  0.10993404313E-01  0.24236897890E-01  0.00000000000E+00 0.  1.
     999901    1    3    3    0    0  0.46907274863E-01 -0.62735044623E-01 -0.94491616883E-01  0.88851822937E+00  0.88000000000E+00 0.  1.
        -11    1    4    4    0    0 -0.60294219699E-02  0.64128437732E-02  0.75194156534E-03  0.88490130336E-02  0.51100000000E-03 0.  1.
         11    1    4    4    0    0 -0.58988883427E-01  0.68093473250E-01  0.82746271005E-01  0.12232585971E+00  0.51100000000E-03 0. -1.
</event>
<event>
 8    1  0.1162192E+005  0.1043930E+01  0.7957747E-01            NaN
         13   -1    0    0    0    0  0.00000000000E+00  0.00000000000E+00  0.74505805969E-08  0.10566000000E+00  0.10566000000E+00 0. -1.
     999900   -1    0    0    0    0 -0.00000000000E+00 -0.00000000000E+00 -0.74505805969E-08  0.93827000000E+00  0.93827000000E+00 0.  1.
     999902    2    1    2    0    0  0.24856653272E-02 -0.17559240219E-01 -0.15431652857E-01  0.10204216747E+01  0.10201508481E+01 0.  0.
     999903    2    3    3    0    0 -0.35717523074E-01  0.66774760336E-01 -0.10504316479E+00  0.13103878171E+00  0.20062048001E-01 0.  0.
         14    1    1    2    0    0 -0.24856653272E-02  0.17559240219E-01  0.15431652857E-01  0.23508325314E-01  0.00000000000E+00 0. -1.
     999901    1    3    3    0    0  0.38203188401E-01 -0.84334000555E-01  0.89611511931E-01  0.88938289298E+00  0.88000000000E+00 0. -1.
        -11    1    4    4    0    0 -0.17169360088E-01  0.51504421705E-01 -0.74013041984E-01  0.91791524041E-01  0.51100000000E-03 0. -1.
         11    1    4    4    0    0 -0.18548162986E-01  0.15270338631E-01 -0.31030122804E-01  0.39247257666E-01  0.51100000000E-03 0.  1.
</event>
<event>
 8    1  0.1162192E+005  0.1043930E+01  0.7957747E-01            NaN
         13   -1    0    0    0    0  0.00000000000E+00  0.00000000000E+00  0.74505805969E-08  0.10566000000E+00  0.10566000000E+00 0.  1.
     999900   -1    0    0    0    0 -0.00000000000E+00 -0.00000000000E+00 -0.74505805969E-08  0.93827000000E+00  0.93827000000E+00 0. -1.
     999902    2    1    2    0    0 -0.22692476921E-01 -0.84777943647E-02  0.55597566945E-02  0.10190757770E+01  0.10187726473E+01 0.  0.
     999903    2    3    3    0    0  0.14706876733E-01  0.12002517386E+00  0.37911293096E-01  0.12836912137E+00  0.20470236781E-01 0.  0.
         14    1    1    2    0    0  0.22692476921E-01  0.84777943647E-02 -0.55597566945E-02  0.24854222993E-01  0.00000000000E+00 0. -1.
     999901    1    3    3    0    0 -0.37399353654E-01 -0.12850296822E+00 -0.32351536402E-01  0.89070665564E+00  0.88000000000E+00 0.  1.
        -11    1    4    4    0    0  0.14868704650E-02  0.85650123264E-01  0.23625564361E-01  0.88862718906E-01  0.51100000000E-03 0.  1.
         11    1    4    4    0    0  0.13220006268E-01  0.34375050591E-01  0.14285728735E-01  0.39506402460E-01  0.51100000000E-03 0. -1.
</event>
<event>
 8    1  0.1162192E+005  0.1043930E+01  0.7957747E-01            NaN
         13   -1    0    0    0    0  0.00000000000E+00  0.00000000000E+00  0.74505805969E-08  0.10566000000E+00  0.10566000000E+00 0.  1.
     999900   -1    0    0    0    0 -0.00000000000E+00 -0.00000000000E+00 -0.74505805969E-08  0.93827000000E+00  0.93827000000E+00 0. -1.
     999902    2    1    2    0    0  0.18473404465E-01 -0.10171986690E-02 -0.14371992837E-01  0.10205023338E+01  0.10202333840E+01 0.  0.
     999903    2    3    3    0    0  0.66947237421E-01  0.99961357354E-01 -0.52351021676E-01  0.13258973230E+00  0.19110261099E-01 0.  0.
         14    1    1    2    0    0 -0.18473404465E-01  0.10171986690E-02  0.14371992837E-01  0.23427666204E-01  0.00000000000E+00 0.  1.
     999901    1    3    3    0    0 -0.48473832956E-01 -0.10097855602E+00  0.37979028839E-01  0.88791260149E+00  0.88000000000E+00 0. -1.
        -11    1    4    4    0    0  0.21062719800E-01  0.46971509341E-01 -0.26292929060E-01  0.57806055865E-01  0.51100000000E-03 0. -1.
         11    1    4    4    0    0  0.45884517621E-01  0.52989848014E-01 -0.26058092616E-01  0.74783676438E-01  0.51100000000E-03 0.  1.
</event>
<event>
 8    1  0.1162192E+005  0.1043930E+01  0.7957747E-01            NaN
         13   -1    0    0    0    0  0.00000000000E+00  0.00000000000E+00  0.74505805969E-08  0.10566000000E+00  0.10566000000E+00 0. -1.
     999900   -1    0    0    0    0 -0.00000000000E+00 -0.00000000000E+00 -0.74505805969E-08  0.93827000000E+00  0.93827000000E+00 0. -1.
     999902    2    1    2    0    0  0.17404925438E-01 -0.61859360083E-02 -0.16467395501E-01  0.10191838417E+01  0.10188833745E+01 0.  0.
     999903    2    3    3    0    0  0.12186832921E+00  0.42035204966E-01 -0.17473505569E-01  0.13169362015E+00  0.20470419392E-01 0.  0.
         14    1    1    2    0    0 -0.17404925438E-01  0.61859360083E-02  0.16467395501E-01  0.24746158255E-01  0.00000000000E+00 0. -1.
     999901    1    3    3    0    0 -0.10446340378E+00 -0.48221140974E-01  0.10061100681E-02  0.88749022159E+00  0.88000000000E+00 0.  1.
        -11    1    4    4    0    0  0.36938111832E-01  0.62557103674E-02  0.19117790099E-02  0.37516316955E-01  0.51100000000E-03 0. -1.
         11    1    4    4    0    0  0.84930217382E-01  0.35779494598E-01 -0.19385284579E-01  0.94177303197E-01  0.51100000000E-03 0.  1.
</event>
<event>
 8    1  0.1162192E+005  0.1043930E+01  0.7957747E-01            NaN
         13   -1    0    0    0    0  0.00000000000E+00  0.00000000000E+00  0.74505805969E-08  0.10566000000E+00  0.10566000000E+00 0. -1.
     999900   -1    0    0    0    0 -0.00000000000E+00 -0.00000000000E+00 -0.74505805969E-08  0.93827000000E+00  0.93827000000E+00 0. -1.
     999902    2    1    2    0    0 -0.24180796295E-01  0.30497862614E-02  0.27526780792E-02  0.10194026817E+01  0.10191075695E+01 0.  0.
     999903    2    3    3    0    0 -0.40674071805E-01  0.57471688367E-01  0.10866369500E+00  0.13122988599E+00  0.21356715197E-01 0.  0.
         14    1    1    2    0    0  0.24180796295E-01 -0.30497862614E-02 -0.27526780792E-02  0.24527318286E-01  0.00000000000E+00 0.  1.
     999901    1    3    3    0    0  0.16493275510E-01 -0.54421902105E-01 -0.10591101692E+00  0.88817279573E+00  0.88000000000E+00 0. -1.
        -11    1    4    4    0    0 -0.15756455184E-01  0.37676832181E-01  0.50713348978E-01  0.65114625460E-01  0.51100000000E-03 0.  1.
         11    1    4    4    0    0 -0.24917616621E-01  0.19794856186E-01  0.57950346021E-01  0.66115260526E-01  0.51100000000E-03 0. -1.
</event>
<event>
 8    1  0.1162192E+005  0.1043930E+01  0.7957747E-01            NaN
         13   -1    0    0    0    0  0.00000000000E+00  0.00000000000E+00  0.74505805969E-08  0.10566000000E+00  0.10566000000E+00 0.  1.
     999900   -1    0    0    0    0 -0.00000000000E+00 -0.00000000000E+00 -0.74505805969E-08  0.93827000000E+00  0.93827000000E+00 0. -1.
     999902    2    1    2    0    0  0.89214451019E-02  0.16663566934E-01 -0.11747810930E-01  0.10216751644E+01  0.10214327505E+01 0.  0.
     999903    2    3    3    0    0 -0.52221522112E-01  0.68277157445E-01  0.97244091318E-01  0.13134844914E+00  0.20177814399E-01 0.  0.
         14    1    1    2    0    0 -0.89214451019E-02 -0.16663566934E-01  0.11747810930E-01  0.22254835594E-01  0.00000000000E+00 0. -1.
     999901    1    3    3    0    0  0.61142967214E-01 -0.51613590511E-01 -0.10899190225E+00  0.89032671527E+00  0.88000000000E+00 0. -1.
        -11    1    4    4    0    0 -0.52987596655E-01  0.60632388714E-01  0.87212533956E-01  0.11870239745E+00  0.51100000000E-03 0.  1.
         11    1    4    4    0    0  0.76607454241E-03  0.76447687313E-02  0.10031557362E-01  0.12646051687E-01  0.51100000000E-03 0. -1.
</event>
<event>
 8    1  0.1431517E+005  0.1043930E+01  0.7957747E-01            NaN
         13   -1    0    0    0    0  0.00000000000E+00  0.00000000000E+00  0.74505805969E-08  0.10566000000E+00  0.10566000000E+00 0. -1.
     999900   -1    0    0    0    0 -0.00000000000E+00 -0.00000000000E+00 -0.74505805969E-08  0.93827000000E+00  0.93827000000E+00 0. -1.
     999902    2    1    2    0    0 -0.34214529321E-02  0.50195108566E-02  0.20156301509E-01  0.10228781991E+01  0.10226615432E+01 0.  0.
     999903    2    3    3    0    0 -0.21126105534E-01  0.13046530568E-01  0.13201993377E+00  0.13558379478E+00  0.18362412695E-01 0.  0.
         14    1    1    2    0    0  0.34214529321E-02 -0.50195108566E-02 -0.20156301509E-01  0.21051800871E-01  0.00000000000E+00 0.  1.
     999901    1    3    3    0    0  0.17704652602E-01 -0.80270197119E-02 -0.11186363226E+00  0.88729440435E+00  0.88000000000E+00 0. -1.
        -11    1    4    4    0    0 -0.18496669683E-01  0.52327736245E-02  0.58004087151E-01  0.61108460595E-01  0.51100000000E-03 0. -1.
         11    1    4    4    0    0 -0.26294358517E-02  0.78137569439E-02  0.74015846616E-01  0.74475334183E-01  0.51100000000E-03 0.  1.
</event>
<event>
 8    1  0.1162192E+005  0.1043930E+01  0.7957747E-01            NaN
         13   -1    0    0    0    0  0.00000000000E+00  0.00000000000E+00  0.74505805969E-08  0.10566000000E+00  0.10566000000E+00 0. -1.
     999900   -1    0    0    0    0 -0.00000000000E+00 -0.00000000000E+00 -0.74505805969E-08  0.93827000000E+00  0.93827000000E+00 0.  1.
     999902    2    1    2    0    0 -0.11435530195E-01 -0.20102790249E-01  0.18137355349E-03  0.10208015235E+01  0.10205394770E+01 0.  0.
     999903    2    3    3    0    0 -0.12498179701E+00 -0.40426390494E-01  0.10384320825E-01  0.13321496238E+00  0.19586971445E-01 0.  0.
         14    1    1    2    0    0  0.11435530195E-01  0.20102790249E-01 -0.18137355349E-03  0.23128476452E-01  0.00000000000E+00 0. -1.
     999901    1    3    3    0    0  0.11354626681E+00  0.20323600245E-01 -0.10202947271E-01  0.88758656117E+00  0.88000000000E+00 0. -1.
        -11    1    4    4    0    0 -0.10280697560E+00 -0.25142074417E-01  0.70484069734E-02  0.10607233051E+00  0.51100000000E-03 0. -1.
         11    1    4    4    0    0 -0.22174821407E-01 -0.15284316077E-01  0.33359138513E-02  0.27142631866E-01  0.51100000000E-03 0.  1.
</event>
<event>
 8    1  0.1162192E+005  0.1043930E+01  0.7957747E-01            NaN
         13   -1    0    0    0    0  0.00000000000E+00  0.00000000000E+00  0.74505805969E-08  0.10566000000E+00  0.10566000000E+00 0. -1.
     999900   -1    0    0    0    0 -0.00000000000E+00 -0.00000000000E+00 -0.74505805969E-08  0.93827000000E+00  0.93827000000E+00 0. -1.
     999902    2    1    2    0    0 -0.14060625384E-01 -0.83062000156E-02  0.16466583710E-01  0.10207385679E+01  0.10204750763E+01 0.  0.
     999903    2    3    3    0    0 -0.30376629780E-02  0.12454498194E+00  0.33537481300E-01  0.13053501936E+00  0.19848141112E-01 0.  0.
         14    1    1    2    0    0  0.14060625384E-01  0.83062000156E-02 -0.16466583710E-01  0.23191432124E-01  0.00000000000E+00 0. -1.
     999901    1    3    3    0    0 -0.11022962406E-01 -0.13285118195E+00 -0.17070897590E-01  0.89020354852E+00  0.88000000000E+00 0.  1.
        -11    1    4    4    0    0  0.59184682700E-02  0.86035682895E-01  0.27612708507E-01  0.90553242847E-01  0.51100000000E-03 0.  1.
         11    1    4    4    0    0 -0.89561312480E-02  0.38509299040E-01  0.59247727930E-02  0.39981776513E-01  0.51100000000E-03 0. -1.
</event>
<event>
 8    1  0.1162192E+005  0.1043930E+01  0.7957747E-01            NaN
         13   -1    0    0    0    0  0.00000000000E+00  0.00000000000E+00  0.74505805969E-08  0.10566000000E+00  0.10566000000E+00 0. -1.
     999900   -1    0    0    0    0 -0.00000000000E+00 -0.00000000000E+00 -0.74505805969E-08  0.93827000000E+00  0.93827000000E+00 0. -1.
     999902    2    1    2    0    0 -0.14711680948E-01  0.17979877591E-01 -0.61108257767E-02  0.10199080986E+01  0.10196251654E+01 0.  0.
     999903    2    3    3    0    0  0.64038287350E-01  0.10695156325E+00 -0.37012286654E-01  0.13138549415E+00  0.18780297732E-01 0.  0.
         14    1    1    2    0    0  0.14711680948E-01 -0.17979877591E-01  0.61108257767E-02  0.24021901386E-01  0.00000000000E+00 0.  1.
     999901    1    3    3    0    0 -0.78749968297E-01 -0.88971685655E-01  0.30901460877E-01  0.88852260446E+00  0.88000000000E+00 0. -1.
        -11    1    4    4    0    0  0.48716620607E-01  0.88335073583E-01 -0.22908017105E-01  0.10344772939E+00  0.51100000000E-03 0.  1.
         11    1    4    4    0    0  0.15321666742E-01  0.18616489664E-01 -0.14104269549E-01  0.27937764758E-01  0.51100000000E-03 0. -1.
</event>
<event>
 8    1  0.1162192E+005  0.1043930E+01  0.7957747E-01            NaN
         13   -1    0    0    0    0  0.00000000000E+00  0.00000000000E+00  0.74505805969E-08  0.10566000000E+00  0.10566000000E+00 0. -1.
     999900   -1    0    0    0    0 -0.00000000000E+00 -0.00000000000E+00 -0.74505805969E-08  0.93827000000E+00  0.93827000000E+00 0. -1.
     999902    2    1    2    0    0 -0.18019204789E-01  0.14798698805E-01  0.68599451980E-02  0.10196246081E+01  0.10193348760E+01 0.  0.
     999903    2    3    3    0    0 -0.30755916831E-01  0.12319667551E+00  0.32286497196E-01  0.13251759384E+00  0.19878317346E-01 0.  0.
         14    1    1    2    0    0  0.18019204789E-01 -0.14798698805E-01 -0.68599451980E-02  0.24305391905E-01  0.00000000000E+00 0.  1.
     999901    1    3    3    0    0  0.12736712042E-01 -0.10839797670E+00 -0.25426551998E-01  0.88710701425E+00  0.88000000000E+00 0.  1.
        -11    1    4    4    0    0 -0.20245476833E-01  0.99111999730E-01  0.18498198418E-01  0.10283730981E+00  0.51100000000E-03 0.  1.
         11    1    4    4    0    0 -0.10510439998E-01  0.24084675778E-01  0.13788298778E-01  0.29680284036E-01  0.51100000000E-03 0. -1.
</event>
<event>
 8    1  0.1162192E+005  0.1043930E+01  0.7957747E-01            NaN
         13   -1    0    0    0    0  0.00000000000E+00  0.00000000000E+00  0.74505805969E-08  0.10566000000E+00  0.10566000000E+00 0. -1.
     999900   -1    0    0    0    0 -0.00000000000E+00 -0.00000000000E+00 -0.74505805969E-08  0.93827000000E+00  0.93827000000E+00 0.  1.
     999902    2    1    2    0    0 -0.24051781407E-01 -0.82315116126E-02  0.11198949846E-01  0.10161511870E+01  0.10157714174E+01 0.  0.
     999903    2    3    3    0    0 -0.97010159867E-01  0.31154742524E-01  0.77737657012E-01  0.12975308146E+00  0.20276334292E-01 0.  0.
         14    1    1    2    0    0  0.24051781407E-01  0.82315116126E-02 -0.11198949846E-01  0.27778812968E-01  0.00000000000E+00 0.  1.
     999901    1    3    3    0    0  0.72958378460E-01 -0.39386254137E-01 -0.66538707167E-01  0.88639810557E+00  0.88000000000E+00 0.  1.
        -11    1    4    4    0    0 -0.14192143731E-01 -0.25637267182E-02  0.12014485726E-01  0.18777609715E-01  0.51100000000E-03 0.  1.
         11    1    4    4    0    0 -0.82818016137E-01  0.33718469243E-01  0.65723171286E-01  0.11097547175E+00  0.51100000000E-03 0. -1.
</event>
<event>
 8    1  0.1162192E+005  0.1043930E+01  0.7957747E-01            NaN
         13   -1    0    0    0    0  0.00000000000E+00  0.00000000000E+00  0.74505805969E-08  0.10566000000E+00  0.10566000000E+00 0. -1.
     999900   -1    0    0    0    0 -0.00000000000E+00 -0.00000000000E+00 -0.74505805969E-08  0.93827000000E+00  0.93827000000E+00 0.  1.
     999902    2    1    2    0    0 -0.10619984849E-01 -0.17215904710E-01 -0.10436869759E-01  0.10211681964E+01  0.10209144850E+01 0.  0.
     999903    2    3    3    0    0 -0.87366623220E-01 -0.92105575924E-01  0.30585061326E-01  0.13371041814E+00  0.28751799463E-01 0.  0.
         14    1    1    2    0    0  0.10619984849E-01  0.17215904710E-01  0.10436869759E-01  0.22761803609E-01  0.00000000000E+00 0.  1.
     999901    1    3    3    0    0  0.76746638371E-01  0.74889671214E-01 -0.41021931086E-01  0.88745777826E+00  0.88000000000E+00 0.  1.
        -11    1    4    4    0    0 -0.31447066433E-01 -0.41036156084E-01  0.25917200348E-01  0.57834647818E-01  0.51100000000E-03 0. -1.
         11    1    4    4    0    0 -0.55919556787E-01 -0.51069419841E-01  0.46678609782E-02  0.75875770317E-01  0.51100000000E-03 0.  1.
</event>
<event>
 8    1  0.1162192E+005  0.1043930E+01  0.7957747E-01            NaN
         13   -1    0    0    0    0  0.00000000000E+00  0.00000000000E+00  0.74505805969E-08  0.10566000000E+00  0.10566000000E+00 0. -1.
     999900   -1    0    0    0    0 -0.00000000000E+00 -0.00000000000E+00 -0.74505805969E-08  0.93827000000E+00  0.93827000000E+00 0. -1.
     999902    2    1    2    0    0  0.15607295488E-02  0.19993806228E-01  0.11664644549E-01  0.10207297393E+01  0.10204660448E+01 0.  0.
     999903    2    3    3    0    0 -0.74524390794E-01 -0.59579943287E-01  0.86946581466E-01  0.13068013553E+00  0.20345400634E-01 0.  0.
         14    1    1    2    0    0 -0.15607295488E-02 -0.19993806228E-01 -0.11664644549E-01  0.23200260702E-01  0.00000000000E+00 0.  1.
     999901    1    3    3    0    0  0.76085120343E-01  0.79573749515E-01 -0.75281936917E-01  0.89004960377E+00  0.88000000000E+00 0. -1.
        -11    1    4    4    0    0 -0.28363308118E-01 -0.28738200217E-01  0.48694032241E-01  0.63259238819E-01  0.51100000000E-03 0. -1.
         11    1    4    4    0    0 -0.46161082676E-01 -0.30841743069E-01  0.38252549225E-01  0.67420896706E-01  0.51100000000E-03 0.  1.
</event>
<event>
 8    1  0.1162192E+005  0.1043930E+01  0.7957747E-01            NaN
         13   -1    0    0    0    0  0.00000000000E+00  0.00000000000E+00  0.74505805969E-08  0.10566000000E+00  0.10566000000E+00 0. -1.
     999900   -1    0    0    0    0 -0.00000000000E+00 -0.00000000000E+00 -0.74505805969E-08  0.93827000000E+00  0.93827000000E+00 0. -1.
     999902    2    1    2    0    0  0.18950491352E-01  0.12709318000E-01 -0.77318748773E-02  0.10198378898E+01  0.10195532804E+01 0.  0.
     999903    2    3    3    0    0  0.57226712523E-03  0.99771844158E-01 -0.84458143158E-01  0.13202903487E+00  0.18540219147E-01 0.  0.
         14    1    1    2    0    0 -0.18950491352E-01 -0.12709318000E-01  0.77318748773E-02  0.24092110236E-01  0.00000000000E+00 0. -1.
     999901    1    3    3    0    0  0.18378224227E-01 -0.87062526158E-01  0.76726268281E-01  0.88780885490E+00  0.88000000000E+00 0.  1.
        -11    1    4    4    0    0  0.36790442399E-02  0.81152976342E-01 -0.59329486872E-01  0.10059617323E+00  0.51100000000E-03 0. -1.
         11    1    4    4    0    0 -0.31067771147E-02  0.18618867816E-01 -0.25128656286E-01  0.31432861635E-01  0.51100000000E-03 0.  1.
</event>
<event>
 8    1  0.1162192E+005  0.1043930E+01  0.7957747E-01            NaN
         13   -1    0    0    0    0  0.00000000000E+00  0.00000000000E+00  0.74505805969E-08  0.10566000000E+00  0.10566000000E+00 0.  1.
     999900   -1    0    0    0    0 -0.00000000000E+00 -0.00000000000E+00 -0.74505805969E-08  0.93827000000E+00  0.93827000000E+00 0. -1.
     999902    2    1    2    0    0  0.13389295165E-01 -0.13382661559E-01 -0.14138226560E-01  0.10203025095E+01  0.10200288980E+01 0.  0.
     999903    2    3    3    0    0  0.63742214144E-01 -0.11300185943E+00  0.22974065187E-01  0.13247554259E+00  0.13764868888E-01 0.  0.
         14    1    1    2    0    0 -0.13389295165E-01  0.13382661559E-01  0.14138226560E-01  0.23627490465E-01  0.00000000000E+00 0.  1.
     999901    1    3    3    0    0 -0.50352918979E-01  0.99619197869E-01 -0.37112291747E-01  0.88782696694E+00  0.88000000000E+00 0.  1.
        -11    1    4    4    0    0  0.41602863762E-01 -0.85996944654E-01  0.16045220440E-01  0.96870960473E-01  0.51100000000E-03 0. -1.
         11    1    4    4    0    0  0.22139350382E-01 -0.27004914774E-01  0.69288447467E-02  0.35604582118E-01  0.51100000000E-03 0.  1.
</event>
<event>
 8    1  0.1162192E+005  0.1043930E+01  0.7957747E-01            NaN
         13   -1    0    0    0    0  0.00000000000E+00  0.00000000000E+00  0.74505805969E-08  0.10566000000E+00  0.10566000000E+00 0. -1.
     999900   -1    0    0    0    0 -0.00000000000E+00 -0.00000000000E+00 -0.74505805969E-08  0.93827000000E+00  0.93827000000E+00 0.  1.
     999902    2    1    2    0    0  0.20252225957E-01 -0.12362928176E-01 -0.21166107918E-02  0.10201082727E+01  0.10198300904E+01 0.  0.
     999903    2    3    3    0    0  0.12585491952E+00 -0.38121449933E-01  0.99146775079E-02  0.13333875237E+00  0.19703206339E-01 0.  0.
         14    1    1    2    0    0 -0.20252225957E-01  0.12362928176E-01  0.21166107918E-02  0.23821727279E-01  0.00000000000E+00 0. -1.
     999901    1    3    3    0    0 -0.10560269356E+00  0.25758521757E-01 -0.12031288300E-01  0.88676952035E+00  0.88000000000E+00 0.  1.
        -11    1    4    4    0    0  0.58026441983E-01 -0.27501416270E-01  0.73388660877E-02  0.64633705932E-01  0.51100000000E-03 0.  1.
         11    1    4    4    0    0  0.67828477538E-01 -0.10620033663E-01  0.25758114202E-02  0.68705046435E-01  0.51100000000E-03 0. -1.
</event>
<event>
 8    1  0.1162192E+005  0.1043930E+01  0.7957747E-01            NaN
         13   -1    0    0    0    0  0.00000000000E+00  0.00000000000E+00  0.74505805969E-08  0.10566000000E+00  0.10566000000E+00 0. -1.
     999900   -1    0    0    0    0 -0.00000000000E+00 -0.00000000000E+00 -0.74505805969E-08  0.93827000000E+00  0.93827000000E+00 0. -1.
     999902    2    1    2    0    0  0.44530083070E-02 -0.22055773459E-01 -0.79081867158E-02  0.10200799299E+01  0.10198010775E+01 0.  0.
     999903    2    3    3    0    0  0.10264992620E+00  0.48345315848E-02 -0.79278602266E-01  0.13133955196E+00  0.20114698329E-01 0.  0.
         14    1    1    2    0    0 -0.44530083070E-02  0.22055773459E-01  0.79081867158E-02  0.23850070084E-01  0.00000000000E+00 0. -1.
     999901    1    3    3    0    0 -0.98196917889E-01 -0.26890305044E-01  0.71370415550E-01  0.88874037795E+00  0.88000000000E+00 0.  1.
        -11    1    4    4    0    0  0.26674241915E-01  0.58645035005E-02 -0.30985668678E-01  0.41307146688E-01  0.51100000000E-03 0. -1.
         11    1    4    4    0    0  0.75975684281E-01 -0.10299719158E-02 -0.48292933588E-01  0.90032405275E-01  0.51100000000E-03 0.  1.
</event>
<event>
 8    1  0.1162192E+005  0.1043930E+01  0.7957747E-01            NaN
         13   -1    0    0    0    0  0.00000000000E+00  0.00000000000E+00  0.74505805969E-08  0.10566000000E+00  0.10566000000E+00 0.  1.
     999900   -1    0    0    0    0 -0.00000000000E+00 -0.00000000000E+00 -0.74505805969E-08  0.93827000000E+00  0.93827000000E+00 0. -1.
     999902    2    1    2    0    0  0.13174279992E-01 -0.36147550488E-02  0.19066299672E-01  0.10204746831E+01  0.10202050906E+01 0.  0.
     999903    2    3    3    0    0 -0.28430910640E-01  0.12548387428E+00  0.76667631551E-02  0.13000997442E+00  0.17008668601E-01 0.  0.
         14    1    1    2    0    0 -0.13174279992E-01  0.36147550488E-02 -0.19066299672E-01  0.23455316893E-01  0.00000000000E+00 0.  1.
     999901    1    3    3    0    0  0.41605190631E-01 -0.12909862933E+00  0.11399536517E-01  0.89046470869E+00  0.88000000000E+00 0.  1.
        -11    1    4    4    0    0 -0.28686170254E-01  0.96648655690E-01  0.35782235815E-02  0.10088074056E+00  0.51100000000E-03 0.  1.
         11    1    4    4    0    0  0.25525961465E-03  0.28835218591E-01  0.40885395735E-02  0.29129233864E-01  0.51100000000E-03 0. -1.
</event>
<event>
 8    1  0.1162192E+005  0.1043930E+01  0.7957747E-01            NaN
         13   -1    0    0    0    0  0.00000000000E+00  0.00000000000E+00  0.74505805969E-08  0.10566000000E+00  0.10566000000E+00 0. -1.
     999900   -1    0    0    0    0 -0.00000000000E+00 -0.00000000000E+00 -0.74505805969E-08  0.93827000000E+00  0.93827000000E+00 0.  1.
     999902    2    1    2    0    0  0.24068896905E-02  0.19813399050E-01  0.13114646680E-01  0.10200478339E+01  0.10197682215E+01 0.  0.
     999903    2    3    3    0    0 -0.11495906258E+00 -0.40019512251E-01  0.40352806349E-01  0.12982501833E+00  0.20224711945E-01 0.  0.
         14    1    1    2    0    0 -0.24068896905E-02 -0.19813399050E-01 -0.13114646680E-01  0.23882166096E-01  0.00000000000E+00 0.  1.
     999901    1    3    3    0    0  0.11736595227E+00  0.59832911301E-01 -0.27238159668E-01  0.89022281557E+00  0.88000000000E+00 0. -1.
        -11    1    4    4    0    0 -0.27946039682E-01 -0.55181394744E-02  0.17622245667E-01  0.33499785977E-01  0.51100000000E-03 0. -1.
         11    1    4    4    0    0 -0.87013022900E-01 -0.34501372777E-01  0.22730560682E-01  0.96325232352E-01  0.51100000000E-03 0.  1.
</event>
<event>
 8    1  0.1162192E+005  0.1043930E+01  0.7957747E-01            NaN
         13   -1    0    0    0    0  0.00000000000E+00  0.00000000000E+00  0.74505805969E-08  0.10566000000E+00  0.10566000000E+00 0.  1.
     999900   -1    0    0    0    0 -0.00000000000E+00 -0.00000000000E+00 -0.74505805969E-08  0.93827000000E+00  0.93827000000E+00 0. -1.
     999902    2    1    2    0    0 -0.22185297946E-01  0.54386409098E-02  0.44079018976E-03  0.10210835439E+01  0.10208279204E+01 0.  0.
     999903    2    3    3    0    0 -0.55419760362E-01 -0.80193810347E-01 -0.86587760986E-01  0.13203269333E+00  0.20803718376E-01 0.  0.
         14    1    1    2    0    0  0.22185297946E-01 -0.54386409098E-02 -0.44079018976E-03  0.22846456091E-01  0.00000000000E+00 0. -1.
     999901    1    3    3    0    0  0.33234462415E-01  0.85632451256E-01  0.87028551176E-01  0.88905085058E+00  0.88000000000E+00 0.  1.
        -11    1    4    4    0    0 -0.23745814280E-01 -0.52004911977E-01 -0.46788712832E-01  0.73877055539E-01  0.51100000000E-03 0. -1.
         11    1    4    4    0    0 -0.31673946081E-01 -0.28188898369E-01 -0.39799048155E-01  0.58155637789E-01  0.51100000000E-03 0.  1.
</event>
<event>
 8    1  0.1162192E+005  0.1043930E+01  0.7957747E-01            NaN
         13   -1    0    0    0    0  0.00000000000E+00  0.00000000000E+00  0.74505805969E-08  0.10566000000E+00  0.10566000000E+00 0.  1.
     999900   -1    0    0    0    0 -0.00000000000E+00 -0.00000000000E+00 -0.74505805969E-08  0.93827000000E+00  0.93827000000E+00 0. -1.
     999902    2    1    2    0    0 -0.22842841568E-01 -0.38625712144E-03 -0.61078898769E-02  0.10202815133E+01  0.10200074095E+01 0.  0.
     999903    2    3    3    0    0 -0.11340366823E+00 -0.38926975967E-01 -0.54937579351E-01  0.13344951740E+00  0.20369944619E-01 0.  0.
         14    1    1    2    0    0  0.22842841568E-01  0.38625712144E-03  0.61078898769E-02  0.23648486721E-01  0.00000000000E+00 0.  1.
     999901    1    3    3    0    0  0.90560826663E-01  0.38540718846E-01  0.48829689475E-01  0.88683199588E+00  0.88000000000E+00 0.  1.
        -11    1    4    4    0    0 -0.78060606876E-01 -0.19658094956E-01 -0.29020472228E-01  0.85570719130E-01  0.51100000000E-03 0.  1.
         11    1    4    4    0    0 -0.35343061355E-01 -0.19268881011E-01 -0.25917107123E-01  0.47878798272E-01  0.51100000000E-03 0. -1.
</event>
<event>
 8    1  0.1162192E+005  0.1043930E+01  0.7957747E-01            NaN
         13   -1    0    0    0    0  0.00000000000E+00  0.00000000000E+00  0.74505805969E-08  0.10566000000E+00  0.10566000000E+00 0. -1.
     999900   -1    0    0    0    0 -0.00000000000E+00 -0.00000000000E+00 -0.74505805969E-08  0.93827000000E+00  0.93827000000E+00 0. -1.
     999902    2    1    2    0    0 -0.13641580744E-01 -0.14806604885E-01 -0.12324961741E-01  0.10203242178E+01  0.10200511146E+01 0.  0.
     999903    2    3    3    0    0  0.12186211246E+00 -0.30526290351E-01 -0.12478751717E-01  0.12981403644E+00  0.30228065702E-01 0.  0.
         14    1    1    2    0    0  0.13641580744E-01  0.14806604885E-01  0.12324961741E-01  0.23605782244E-01  0.00000000000E+00 0. -1.
     999901    1    3    3    0    0 -0.13550369320E+00  0.15719685466E-01  0.15378997579E-03  0.89051018132E+00  0.88000000000E+00 0. -1.
        -11    1    4    4    0    0  0.67988029182E-01 -0.40967656535E-02 -0.15022321455E-01  0.69750174651E-01  0.51100000000E-03 0. -1.
         11    1    4    4    0    0  0.53874083277E-01 -0.26429524697E-01  0.25435697387E-02  0.60063861786E-01  0.51100000000E-03 0.  1.
</event>
<event>
 8    1  0.1162192E+005  0.1043930E+01  0.7957747E-01            NaN
         13   -1    0    0    0    0  0.00000000000E+00  0.00000000000E+00  0.74505805969E-08  0.10566000000E+00  0.10566000000E+00 0.  1.
     999900   -1    0    0    0    0 -0.00000000000E+00 -0.00000000000E+00 -0.74505805969E-08  0.93827000000E+00  0.93827000000E+00 0. -1.
     999902    2    1    2    0    0 -0.12131387326E-02 -0.18364428988E-01 -0.14579952537E-01  0.10204502433E+01  0.10201800822E+01 0.  0.
     999903    2    3    3    0    0  0.43538495060E-01  0.10746923462E+00 -0.51452474593E-01  0.12960996442E+00  0.26573460326E-01 0.  0.
         14    1    1    2    0    0  0.12131387326E-02  0.18364428988E-01  0.14579952537E-01  0.23479756677E-01  0.00000000000E+00 0. -1.
     999901    1    3    3    0    0 -0.44751633793E-01 -0.12583366361E+00  0.36872522056E-01  0.89084027890E+00  0.88000000000E+00 0. -1.
        -11    1    4    4    0    0 -0.28512584033E-02  0.17409109950E-01 -0.80221183680E-02  0.19386136486E-01  0.51100000000E-03 0.  1.
         11    1    4    4    0    0  0.46389753464E-01  0.90060124674E-01 -0.43430356225E-01  0.11022382794E+00  0.51100000000E-03 0. -1.
</event>
<event>
 8    1  0.1162192E+005  0.1043930E+01  0.7957747E-01            NaN
         13   -1    0    0    0    0  0.00000000000E+00  0.00000000000E+00  0.74505805969E-08  0.10566000000E+00  0.10566000000E+00 0.  1.
     999900   -1    0    0    0    0 -0.00000000000E+00 -0.00000000000E+00 -0.74505805969E-08  0.93827000000E+00  0.93827000000E+00 0.  1.
     999902    2    1    2    0    0  0.13987133982E-01  0.13780846308E-01 -0.95968188770E-02  0.10220747815E+01  0.10218410877E+01 0.  0.
     999903    2    3    3    0    0  0.55061451333E-01 -0.11091003390E+00  0.37361657060E-01  0.13109778204E+00  0.21399439124E-01 0.  0.
         14    1    1    2    0    0 -0.13987133982E-01 -0.13780846308E-01  0.95968188770E-02  0.21855218474E-01  0.00000000000E+00 0.  1.
     999901    1    3    3    0    0 -0.41074317351E-01  0.12469088021E+00 -0.46958475938E-01  0.89097699949E+00  0.88000000000E+00 0. -1.
        -11    1    4    4    0    0  0.95409152012E-02 -0.25554707995E-01  0.17293913969E-01  0.32301900021E-01  0.51100000000E-03 0. -1.
         11    1    4    4    0    0  0.45520536132E-01 -0.85355325904E-01  0.20067743091E-01  0.98795882018E-01  0.51100000000E-03 0.  1.
</event>
<event>
 8    1  0.1162192E+005  0.1043930E+01  0.7957747E-01            NaN
         13   -1    0    0    0    0  0.00000000000E+00  0.00000000000E+00  0.74505805969E-08  0.10566000000E+00  0.10566000000E+00 0. -1.
     999900   -1    0    0    0    0 -0.00000000000E+00 -0.00000000000E+00 -0.74505805969E-08  0.93827000000E+00  0.93827000000E+00 0.  1.
     999902    2    1    2    0    0 -0.23150549416E-01 -0.72749711673E-02 -0.26707664720E-02  0.10195167631E+01  0.10192244228E+01 0.  0.
     999903    2    3    3    0    0 -0.58973762531E-01 -0.11653135022E+00  0.46431566658E-02  0.13200690260E+00  0.18622652351E-01 0.  0.
         14    1    1    2    0    0  0.23150549416E-01  0.72749711673E-02  0.26707664720E-02  0.24413236928E-01  0.00000000000E+00 0. -1.
     999901    1    3    3    0    0  0.35823213115E-01  0.10925637905E+00 -0.73139231378E-02  0.88750986047E+00  0.88000000000E+00 0. -1.
        -11    1    4    4    0    0 -0.25287644394E-01 -0.70346603180E-01  0.21912099528E-02  0.74787512728E-01  0.51100000000E-03 0.  1.
         11    1    4    4    0    0 -0.33686118137E-01 -0.46184747035E-01  0.24519467130E-02  0.57219389874E-01  0.51100000000E-03 0. -1.
</event>
<event>
 8    1  0.1162192E+005  0.1043930E+01  0.7957747E-01            NaN
         13   -1    0    0    0    0  0.00000000000E+00  0.00000000000E+00  0.74505805969E-08  0.10566000000E+00  0.10566000000E+00 0. -1.
     999900   -1    0    0    0    0 -0.00000000000E+00 -0.00000000000E+00 -0.74505805969E-08  0.93827000000E+00  0.93827000000E+00 0.  1.
     999902    2    1    2    0    0  0.64107646895E-02  0.16254880574E-01 -0.15254608092E-01  0.10207346963E+01  0.10204711158E+01 0.  0.
     999903    2    3    3    0    0  0.25938688506E-02 -0.50911370520E-01  0.11666540706E+00  0.12836214831E+00  0.16350171617E-01 0.  0.
         14    1    1    2    0    0 -0.64107646895E-02 -0.16254880574E-01  0.15254608092E-01  0.23195303715E-01  0.00000000000E+00 0. -1.
     999901    1    3    3    0    0  0.38168958389E-02  0.67166251093E-01 -0.13192001515E+00  0.89237254797E+00  0.88000000000E+00 0.  1.
        -11    1    4    4    0    0  0.50673707269E-02 -0.11247512561E-01  0.42006502731E-01  0.43783469227E-01  0.51100000000E-03 0. -1.
         11    1    4    4    0    0 -0.24735018763E-02 -0.39663857958E-01  0.74658904325E-01  0.84578679085E-01  0.51100000000E-03 0.  1.
</event>
<event>
 8    1  0.1162192E+005  0.1043930E+01  0.7957747E-01            NaN
         13   -1    0    0    0    0  0.00000000000E+00  0.00000000000E+00  0.74505805969E-08  0.10566000000E+00  0.10566000000E+00 0.  1.
     999900   -1    0    0    0    0 -0.00000000000E+00 -0.00000000000E+00 -0.74505805969E-08  0.93827000000E+00  0.93827000000E+00 0. -1.
     999902    2    1    2    0    0 -0.11296794716E-01  0.13961220899E-01  0.17252687894E-01  0.10190264159E+01  0.10187220661E+01 0.  0.
     999903    2    3    3    0    0 -0.51179816227E-01  0.68421427896E-01 -0.95154944463E-01  0.12931182947E+00  0.19136885872E-01 0.  0.
         14    1    1    2    0    0  0.11296794716E-01 -0.13961220899E-01 -0.17252687894E-01  0.24903584068E-01  0.00000000000E+00 0. -1.
     999901    1    3    3    0    0  0.39883021511E-01 -0.54460206997E-01  0.11240763236E+00  0.88971458646E+00  0.88000000000E+00 0.  1.
        -11    1    4    4    0    0 -0.28283122268E-01  0.39482013865E-01 -0.67670402032E-01  0.83296511669E-01  0.51100000000E-03 0. -1.
         11    1    4    4    0    0 -0.22896693959E-01  0.28939414031E-01 -0.27484542431E-01  0.46015317801E-01  0.51100000000E-03 0.  1.
</event>
<event>
 8    1  0.1162192E+005  0.1043930E+01  0.7957747E-01            NaN
         13   -1    0    0    0    0  0.00000000000E+00  0.00000000000E+00  0.74505805969E-08  0.10566000000E+00  0.10566000000E+00 0.  1.
     999900   -1    0    0    0    0 -0.00000000000E+00 -0.00000000000E+00 -0.74505805969E-08  0.93827000000E+00  0.93827000000E+00 0.  1.
     999902    2    1    2    0    0  0.19463730135E-01 -0.13278788615E-01  0.38201169479E-03  0.10203650058E+01  0.10200928566E+01 0.  0.
     999903    2    3    3    0    0 -0.36587063500E-01 -0.84466013045E-01  0.91171178698E-01  0.13106641410E+00  0.19826762327E-01 0.  0.
         14    1    1    2    0    0 -0.19463730135E-01  0.13278788615E-01 -0.38201169479E-03  0.23564994181E-01  0.00000000000E+00 0. -1.
     999901    1    3    3    0    0  0.56050793635E-01  0.71187224430E-01 -0.90789167003E-01  0.88929859172E+00  0.88000000000E+00 0.  1.
        -11    1    4    4    0    0 -0.11056466966E-01 -0.32416135118E-01  0.47112627802E-01  0.58248708974E-01  0.51100000000E-03 0.  1.
         11    1    4    4    0    0 -0.25530596534E-01 -0.52049877927E-01  0.44058550896E-01  0.72817705125E-01  0.51100000000E-03 0. -1.
</event>
<event>
 8    1  0.1162192E+005  0.1043930E+01  0.7957747E-01            NaN
         13   -1    0    0    0    0  0.00000000000E+00  0.00000000000E+00  0.74505805969E-08  0.10566000000E+00  0.10566000000E+00 0. -1.
     999900   -1    0    0    0    0 -0.00000000000E+00 -0.00000000000E+00 -0.74505805969E-08  0.93827000000E+00  0.93827000000E+00 0.  1.
     999902    2    1    2    0    0  0.24252628764E-01 -0.10017795018E-02  0.72013586683E-04  0.10196565835E+01  0.10193676223E+01 0.  0.
     999903    2    3    3    0    0  0.67934842273E-01 -0.96042080281E-01  0.55685105698E-01  0.13171874186E+00  0.20242825423E-01 0.  0.
         14    1    1    2    0    0 -0.24252628764E-01  0.10017795018E-02 -0.72013586683E-04  0.24273416531E-01  0.00000000000E+00 0. -1.
     999901    1    3    3    0    0 -0.43682213509E-01  0.95040300779E-01 -0.55613092111E-01  0.88793784161E+00  0.88000000000E+00 0.  1.
        -11    1    4    4    0    0  0.14017899791E-01 -0.29055292274E-01  0.74131256375E-02  0.33104789327E-01  0.51100000000E-03 0.  1.
         11    1    4    4    0    0  0.53916942482E-01 -0.66986788007E-01  0.48271980060E-01  0.98613952532E-01  0.51100000000E-03 0. -1.
</event>
<event>
 8    1  0.1162192E+005  0.1043930E+01  0.7957747E-01            NaN
         13   -1    0    0    0    0  0.00000000000E+00  0.00000000000E+00  0.74505805969E-08  0.10566000000E+00  0.10566000000E+00 0. -1.
     999900   -1    0    0    0    0 -0.00000000000E+00 -0.00000000000E+00 -0.74505805969E-08  0.93827000000E+00  0.93827000000E+00 0.  1.
     999902    2    1    2    0    0 -0.69908920048E-03  0.22574611090E-01 -0.79409004826E-02  0.10199892462E+01  0.10197082439E+01 0.  0.
     999903    2    3    3    0    0  0.24808041145E-01 -0.11688492875E+00  0.39708240516E-01  0.12736949649E+00  0.19202051873E-01 0.  0.
         14    1    1    2    0    0  0.69908920048E-03 -0.22574611090E-01  0.79409004826E-02  0.23940753790E-01  0.00000000000E+00 0.  1.
     999901    1    3    3    0    0 -0.25507130345E-01  0.13945953984E+00 -0.47649140999E-01  0.89261974972E+00  0.88000000000E+00 0.  1.
        -11    1    4    4    0    0  0.26874227550E-01 -0.11117225436E+00  0.34828632130E-01  0.11956081709E+00  0.51100000000E-03 0. -1.
         11    1    4    4    0    0 -0.20661864056E-02 -0.57126743919E-02  0.48796083858E-02  0.78086793999E-02  0.51100000000E-03 0.  1.
</event>
<event>
 8    1  0.1162192E+005  0.1043930E+01  0.7957747E-01            NaN
         13   -1    0    0    0    0  0.00000000000E+00  0.00000000000E+00  0.74505805969E-08  0.10566000000E+00  0.10566000000E+00 0. -1.
     999900   -1    0    0    0    0 -0.00000000000E+00 -0.00000000000E+00 -0.74505805969E-08  0.93827000000E+00  0.93827000000E+00 0.  1.
     999902    2    1    2    0    0  0.82468449811E-02  0.84206784536E-02 -0.20340060067E-01  0.10204217818E+01  0.10201509577E+01 0.  0.
     999903    2    3    3    0    0 -0.87864372152E-01 -0.50965446277E-02  0.90953413988E-01  0.12811784329E+00  0.19888076630E-01 0.  0.
         14    1    1    2    0    0 -0.82468449811E-02 -0.84206784536E-02  0.20340060067E-01  0.23508218165E-01  0.00000000000E+00 0. -1.
     999901    1    3    3    0    0  0.96111217133E-01  0.13517223081E-01 -0.11129347405E+00  0.89230393855E+00  0.88000000000E+00 0.  1.
        -11    1    4    4    0    0 -0.45291977261E-01 -0.60870822374E-02  0.60224191627E-01  0.75601786701E-01  0.51100000000E-03 0. -1.
         11    1    4    4    0    0 -0.42572394892E-01  0.99053760975E-03  0.30729222361E-01  0.52516056587E-01  0.51100000000E-03 0.  1.
</event>
<event>
 8    1  0.1162192E+005  0.1043930E+01  0.7957747E-01            NaN
         13   -1    0    0    0    0  0.00000000000E+00  0.00000000000E+00  0.74505805969E-08  0.10566000000E+00  0.10566000000E+00 0.  1.
     999900   -1    0    0    0    0 -0.00000000000E+00 -0.00000000000E+00 -0.74505805969E-08  0.93827000000E+00  0.93827000000E+00 0. -1.
     999902    2    1    2    0    0 -0.12216613884E-01  0.18699451557E-01  0.11783749742E-01  0.10186758538E+01  0.10183627660E+01 0.  0.
     999903    2    3    3    0    0 -0.73670780645E-01 -0.75041026415E-01 -0.69670865129E-01  0.12783425950E+00  0.20713012498E-01 0.  0.
         14    1    1    2    0    0  0.12216613884E-01 -0.18699451557E-01 -0.11783749742E-01  0.25254146220E-01  0.00000000000E+00 0.  1.
     999901    1    3    3    0    0  0.61454166761E-01  0.93740477972E-01  0.81454614871E-01  0.89084159428E+00  0.88000000000E+00 0. -1.
        -11    1    4    4    0    0 -0.67557546544E-01 -0.66101617192E-01 -0.68899196385E-01  0.11696497884E+00  0.51100000000E-03 0. -1.
         11    1    4    4    0    0 -0.61132341006E-02 -0.89394092227E-02 -0.77166874425E-03  0.10869280660E-01  0.51100000000E-03 0.  1.
</event>
<event>
 8    1  0.1162192E+005  0.1043930E+01  0.7957747E-01            NaN
         13   -1    0    0    0    0  0.00000000000E+00  0.00000000000E+00  0.74505805969E-08  0.10566000000E+00  0.10566000000E+00 0.  1.
     999900   -1    0    0    0    0 -0.00000000000E+00 -0.00000000000E+00 -0.74505805969E-08  0.93827000000E+00  0.93827000000E+00 0. -1.
     999902    2    1    2    0    0  0.20043516093E-01  0.70732601504E-02 -0.10200737627E-01  0.10203539826E+01  0.10200815758E+01 0.  0.
     999903    2    3    3    0    0  0.39402085484E-01  0.10361767216E+00  0.67283135214E-01  0.13147866616E+00  0.21690390643E-01 0.  0.
         14    1    1    2    0    0 -0.20043516093E-01 -0.70732601504E-02  0.10200737627E-01  0.23576017362E-01  0.00000000000E+00 0.  1.
     999901    1    3    3    0    0 -0.19358569392E-01 -0.96544412008E-01 -0.77483872841E-01  0.88887531648E+00  0.88000000000E+00 0.  1.
        -11    1    4    4    0    0  0.27671536012E-01  0.91597301588E-01  0.61315623151E-01  0.11364702516E+00  0.51100000000E-03 0.  1.
         11    1    4    4    0    0  0.11730549472E-01  0.12020370571E-01  0.59675120628E-02  0.17831641001E-01  0.51100000000E-03 0. -1.
</event>
<event>
 8    1  0.1162192E+005  0.1043930E+01  0.7957747E-01            NaN
         13   -1    0    0    0    0  0.00000000000E+00  0.00000000000E+00  0.74505805969E-08  0.10566000000E+00  0.10566000000E+00 0. -1.
     999900   -1    0    0    0    0 -0.00000000000E+00 -0.00000000000E+00 -0.74505805969E-08  0.93827000000E+00  0.93827000000E+00 0. -1.
     999902    2    1    2    0    0  0.24708218943E-01  0.16883711416E-02 -0.67503209102E-02  0.10182606893E+01  0.10179370893E+01 0.  0.
     999903    2    3    3    0    0 -0.12396452478E+00 -0.93476694692E-02 -0.48686437969E-02  0.12571997893E+00  0.18089419051E-01 0.  0.
         14    1    1    2    0    0 -0.24708218943E-01 -0.16883711416E-02  0.67503209102E-02  0.25669310720E-01  0.00000000000E+00 0. -1.
     999901    1    3    3    0    0  0.14867274372E+00  0.11036040611E-01 -0.18816771133E-02  0.89254071035E+00  0.88000000000E+00 0.  1.
        -11    1    4    4    0    0 -0.12369046607E-01 -0.47504453446E-02  0.35051419148E-02  0.13715217307E-01  0.51100000000E-03 0.  1.
         11    1    4    4    0    0 -0.11159547817E+00 -0.45972241245E-02 -0.83737857117E-02  0.11200476163E+00  0.51100000000E-03 0. -1.
</event>
<event>
 8    1  0.1162192E+005  0.1043930E+01  0.7957747E-01            NaN
         13   -1    0    0    0    0  0.00000000000E+00  0.00000000000E+00  0.74505805969E-08  0.10566000000E+00  0.10566000000E+00 0. -1.
     999900   -1    0    0    0    0 -0.00000000000E+00 -0.00000000000E+00 -0.74505805969E-08  0.93827000000E+00  0.93827000000E+00 0.  1.
     999902    2    1    2    0    0 -0.13390363957E-01  0.15562006837E-01 -0.10516632246E-01  0.10208631958E+01  0.10206025608E+01 0.  0.
     999903    2    3    3    0    0  0.12687646426E+00 -0.12135604044E-01 -0.75808187986E-02  0.12931927663E+00  0.20520634155E-01 0.  0.
         14    1    1    2    0    0  0.13390363957E-01 -0.15562006837E-01  0.10516632246E-01  0.23066804232E-01  0.00000000000E+00 0. -1.
     999901    1    3    3    0    0 -0.14026682822E+00  0.27697610881E-01 -0.29358134475E-02  0.89154391914E+00  0.88000000000E+00 0. -1.
        -11    1    4    4    0    0  0.10745347768E+00 -0.58041320695E-02 -0.25822976422E-03  0.10761164258E+00  0.51100000000E-03 0.  1.
         11    1    4    4    0    0  0.19422986580E-01 -0.63314719741E-02 -0.73225890344E-02  0.21707634054E-01  0.51100000000E-03 0. -1.
</event>
<event>
 8    1  0.1162192E+005  0.1043930E+01  0.7957747E-01            NaN
         13   -1    0    0    0    0  0.00000000000E+00  0.00000000000E+00  0.74505805969E-08  0.10566000000E+00  0.10566000000E+00 0. -1.
     999900   -1    0    0    0    0 -0.00000000000E+00 -0.00000000000E+00 -0.74505805969E-08  0.93827000000E+00  0.93827000000E+00 0. -1.
     999902    2    1    2    0    0  0.26324488797E-02 -0.21005407110E-01 -0.10959629360E-01  0.10200915774E+01  0.10198130005E+01 0.  0.
     999903    2    3    3    0    0  0.11133694212E-01  0.79514512329E-01  0.97318122267E-01  0.12773481196E+00  0.19971190450E-01 0.  0.
         14    1    1    2    0    0 -0.26324488797E-02  0.21005407110E-01  0.10959629360E-01  0.23838422571E-01  0.00000000000E+00 0. -1.
     999901    1    3    3    0    0 -0.85012453323E-02 -0.10051991944E+00 -0.10827775163E+00  0.89235676547E+00  0.88000000000E+00 0. -1.
        -11    1    4    4    0    0 -0.19484493495E-02  0.43724216035E-01  0.61098102664E-01  0.75158783870E-01  0.51100000000E-03 0.  1.
         11    1    4    4    0    0  0.13082143562E-01  0.35790296294E-01  0.36220019603E-01  0.52576028093E-01  0.51100000000E-03 0. -1.
</event>
<event>
 8    1  0.1162192E+005  0.1043930E+01  0.7957747E-01            NaN
         13   -1    0    0    0    0  0.00000000000E+00  0.00000000000E+00  0.74505805969E-08  0.10566000000E+00  0.10566000000E+00 0.  1.
     999900   -1    0    0    0    0 -0.00000000000E+00 -0.00000000000E+00 -0.74505805969E-08  0.93827000000E+00  0.93827000000E+00 0. -1.
     999902    2    1    2    0    0  0.55539163757E-02  0.18982083320E-01  0.15442824426E-01  0.10188372461E+01  0.10185281968E+01 0.  0.
     999903    2    3    3    0    0 -0.58479764595E-01 -0.50564449019E-01  0.10192211609E+00  0.12955905542E+00  0.20513037813E-01 0.  0.
         14    1    1    2    0    0 -0.55539163757E-02 -0.18982083320E-01 -0.15442824426E-01  0.25092753944E-01  0.00000000000E+00 0. -1.
     999901    1    3    3    0    0  0.64033680971E-01  0.69546532339E-01 -0.86479291665E-01  0.88927819064E+00  0.88000000000E+00 0. -1.
        -11    1    4    4    0    0 -0.26036025985E-01 -0.35620068386E-01  0.60061142605E-01  0.74526947428E-01  0.51100000000E-03 0. -1.
         11    1    4    4    0    0 -0.32443738610E-01 -0.14944380633E-01  0.41860973486E-01  0.55032107989E-01  0.51100000000E-03 0.  1.
</event>
<event>
 8    1  0.1162192E+005  0.1043930E+01  0.7957747E-01            NaN
         13   -1    0    0    0    0  0.00000000000E+00  0.00000000000E+00  0.74505805969E-08  0.10566000000E+00  0.10566000000E+00 0.  1.
     999900   -1    0    0    0    0 -0.00000000000E+00 -0.00000000000E+00 -0.74505805969E-08  0.93827000000E+00  0.93827000000E+00 0. -1.
     999902    2    1    2    0    0 -0.21792582248E-01  0.48744036985E-02  0.14535629695E-02  0.10215516779E+01  0.10213065365E+01 0.  0.
     999903    2    3    3    0    0  0.56174821258E-02 -0.12911845105E+00  0.12092432788E-01  0.13092348263E+00  0.17076324708E-01 0.  0.
         14    1    1    2    0    0  0.21792582248E-01 -0.48744036985E-02 -0.14535629695E-02  0.22378322050E-01  0.00000000000E+00 0. -1.
     999901    1    3    3    0    0 -0.27410064374E-01  0.13399285475E+00 -0.10638869818E-01  0.89062819532E+00  0.88000000000E+00 0. -1.
        -11    1    4    4    0    0  0.51826586927E-02 -0.10386960816E-01  0.15650844205E-02  0.11724313044E-01  0.51100000000E-03 0. -1.
         11    1    4    4    0    0  0.43482343305E-03 -0.11873149023E+00  0.10527348367E-01  0.11919916958E+00  0.51100000000E-03 0.  1.
</event>
<event>
 8    1  0.1162192E+005  0.1043930E+01  0.7957747E-01            NaN
         13   -1    0    0    0    0  0.00000000000E+00  0.00000000000E+00  0.74505805969E-08  0.10566000000E+00  0.10566000000E+00 0.  1.
     999900   -1    0    0    0    0 -0.00000000000E+00 -0.00000000000E+00 -0.74505805969E-08  0.93827000000E+00  0.93827000000E+00 0. -1.
     999902    2    1    2    0    0 -0.15142002378E-01  0.11687199487E-01  0.14927084362E-01  0.10196670918E+01  0.10193783838E+01 0.  0.
     999903    2    3    3    0    0  0.59122893878E-01 -0.11049127308E+00  0.17521661861E-01  0.12812371885E+00  0.20120653343E-01 0.  0.
         14    1    1    2    0    0  0.15142002378E-01 -0.11687199487E-01 -0.14927084362E-01  0.24262908223E-01  0.00000000000E+00 0. -1.
     999901    1    3    3    0    0 -0.74264896256E-01  0.12217847257E+00 -0.25945774988E-02  0.89154337293E+00  0.88000000000E+00 0. -1.
        -11    1    4    4    0    0  0.23941382384E-01 -0.32491520360E-01  0.13122265281E-01  0.42442239018E-01  0.51100000000E-03 0. -1.
         11    1    4    4    0    0  0.35181511494E-01 -0.77999752720E-01  0.43993965793E-02  0.85681479834E-01  0.51100000000E-03 0.  1.
</event>
<event>
 8    1  0.1162192E+005  0.1043930E+01  0.7957747E-01            NaN
         13   -1    0    0    0    0  0.00000000000E+00  0.00000000000E+00  0.74505805969E-08  0.10566000000E+00  0.10566000000E+00 0.  1.
     999900   -1    0    0    0    0 -0.00000000000E+00 -0.00000000000E+00 -0.74505805969E-08  0.93827000000E+00  0.93827000000E+00 0. -1.
     999902    2    1    2    0    0  0.15180532171E-01  0.73152146241E-03  0.15917767471E-01  0.10219218424E+01  0.10216848305E+01 0.  0.
     999903    2    3    3    0    0  0.87020612908E-01 -0.43202104825E-01 -0.86986898893E-01  0.13193278004E+00  0.20013219095E-01 0.  0.
         14    1    1    2    0    0 -0.15180532171E-01 -0.73152146241E-03 -0.15917767471E-01  0.22008157621E-01  0.00000000000E+00 0. -1.
     999901    1    3    3    0    0 -0.71840080738E-01  0.43933626287E-01  0.10290466636E+00  0.88998906234E+00  0.88000000000E+00 0.  1.
        -11    1    4    4    0    0  0.29331158063E-01 -0.17763087655E-01 -0.43251305478E-01  0.55197650882E-01  0.51100000000E-03 0.  1.
         11    1    4    4    0    0  0.57689454845E-01 -0.25439017170E-01 -0.43735593415E-01  0.76735129160E-01  0.51100000000E-03 0. -1.
</event>
<event>
 8    1  0.1162192E+005  0.1043930E+01  0.7957747E-01            NaN
         13   -1    0    0    0    0  0.00000000000E+00  0.00000000000E+00  0.74505805969E-08  0.10566000000E+00  0.10566000000E+00 0. -1.
     999900   -1    0    0    0    0 -0.00000000000E+00 -0.00000000000E+00 -0.74505805969E-08  0.93827000000E+00  0.93827000000E+00 0. -1.
     999902    2    1    2    0    0 -0.56445514946E-02 -0.24617394039E-02  0.22982143634E-01  0.10201371429E+01  0.10198596424E+01 0.  0.
     999903    2    3    3    0    0  0.11632569083E-01  0.11735199705E+00 -0.48662031387E-01  0.12896560041E+00  0.18903039854E-01 0.  0.
         14    1    1    2    0    0  0.56445514946E-02  0.24617394039E-02 -0.22982143634E-01  0.23792857090E-01  0.00000000000E+00 0.  1.
     999901    1    3    3    0    0 -0.17277120578E-01 -0.11981373646E+00  0.71644175021E-01  0.89117154250E+00  0.88000000000E+00 0.  1.
        -11    1    4    4    0    0  0.65152078278E-02  0.51054475650E-01 -0.11319293155E-01  0.52700995583E-01  0.51100000000E-03 0.  1.
         11    1    4    4    0    0  0.51173612554E-02  0.66297521404E-01 -0.37342738231E-01  0.76264604831E-01  0.51100000000E-03 0. -1.
</event>
<event>
 8    1  0.1162192E+005  0.1043930E+01  0.7957747E-01            NaN
         13   -1    0    0    0    0  0.00000000000E+00  0.00000000000E+00  0.74505805969E-08  0.10566000000E+00  0.10566000000E+00 0. -1.
     999900   -1    0    0    0    0 -0.00000000000E+00 -0.00000000000E+00 -0.74505805969E-08  0.93827000000E+00  0.93827000000E+00 0. -1.
     999902    2    1    2    0    0  0.17421926134E-01 -0.13792265206E-01 -0.90142429140E-02  0.10199507034E+01  0.10196687848E+01 0.  0.
     999903    2    3    3    0    0  0.11012589109E+00  0.62914451284E-01 -0.29204612866E-01  0.13153323594E+00  0.19030046647E-01 0.  0.
         14    1    1    2    0    0 -0.17421926134E-01  0.13792265206E-01  0.90142429140E-02  0.23979296591E-01  0.00000000000E+00 0.  1.
     999901    1    3    3    0    0 -0.92703964952E-01 -0.76706716490E-01  0.20190369952E-01  0.88841746747E+00  0.88000000000E+00 0.  1.
        -11    1    4    4    0    0  0.30667885529E-01  0.16474001981E-01  0.50901319441E-03  0.34819996547E-01  0.51100000000E-03 0. -1.
         11    1    4    4    0    0  0.79458005556E-01  0.46440449303E-01 -0.29713626060E-01  0.96713239389E-01  0.51100000000E-03 0.  1.
</event>
<event>
 8    1  0.1162192E+005  0.1043930E+01  0.7957747E-01            NaN
         13   -1    0    0    0    0  0.00000000000E+00  0.00000000000E+00  0.74505805969E-08  0.10566000000E+00  0.10566000000E+00 0. -1.
     999900   -1    0    0    0    0 -0.00000000000E+00 -0.00000000000E+00 -0.74505805969E-08  0.93827000000E+00  0.93827000000E+00 0.  1.
     999902    2    1    2    0    0  0.85941659570E-02 -0.24841515754E-01 -0.54908036782E-02  0.10170765176E+01  0.10167219547E+01 0.  0.
     999903    2    3    3    0    0 -0.42611352283E-01 -0.11807777527E+00 -0.29288480522E-01  0.13035145612E+00  0.19380368048E-01 0.  0.
         14    1    1    2    0    0 -0.85941659570E-02  0.24841515754E-01  0.54908036782E-02  0.26853482428E-01  0.00000000000E+00 0. -1.
     999901    1    3    3    0    0  0.51205518240E-01  0.93236259512E-01  0.23797676844E-01  0.88672506145E+00  0.88000000000E+00 0. -1.
        -11    1    4    4    0    0 -0.23189580379E-01 -0.42774724454E-01 -0.51934843891E-02  0.48935335815E-01  0.51100000000E-03 0. -1.
         11    1    4    4    0    0 -0.19421771904E-01 -0.75303050813E-01 -0.24094996133E-01  0.81416120304E-01  0.51100000000E-03 0.  1.
</event>
<event>
 8    1  0.1162192E+005  0.1043930E+01  0.7957747E-01            NaN
         13   -1    0    0    0    0  0.00000000000E+00  0.00000000000E+00  0.74505805969E-08  0.10566000000E+00  0.10566000000E+00 0.  1.
     999900   -1    0    0    0    0 -0.00000000000E+00 -0.00000000000E+00 -0.74505805969E-08  0.93827000000E+00  0.93827000000E+00 0.  1.
     999902    2    1    2    0    0  0.15797438263E-01  0.86349814199E-02 -0.18507247947E-01  0.10181106238E+01  0.10177831803E+01 0.  0.
     999903    2    3    3    0    0 -0.89102754861E-01 -0.71352209156E-01  0.48745802508E-01  0.12574019963E+00  0.20099897151E-01 0.  0.
         14    1    1    2    0    0 -0.15797438263E-01 -0.86349814199E-02  0.18507247947E-01  0.25819376181E-01  0.00000000000E+00 0.  1.
     999901    1    3    3    0    0  0.10490019312E+00  0.79987190576E-01 -0.67253050454E-01  0.89237042419E+00  0.88000000000E+00 0.  1.
        -11    1    4    4    0    0 -0.22340869586E-01 -0.81172162492E-02  0.72658393342E-02  0.24860756137E-01  0.51100000000E-03 0.  1.
         11    1    4    4    0    0 -0.66761885275E-01 -0.63234992907E-01  0.41479963173E-01  0.10087944349E+00  0.51100000000E-03 0. -1.
</event>
<event>
 8    1  0.1162192E+005  0.1043930E+01  0.7957747E-01            NaN
         13   -1    0    0    0    0  0.00000000000E+00  0.00000000000E+00  0.74505805969E-08  0.10566000000E+00  0.10566000000E+00 0.  1.
     999900   -1    0    0    0    0 -0.00000000000E+00 -0.00000000000E+00 -0.74505805969E-08  0.93827000000E+00  0.93827000000E+00 0.  1.
     999902    2    1    2    0    0  0.65924583026E-04  0.15665980180E-01  0.18266154613E-01  0.10198659254E+01  0.10195819860E+01 0.  0.
     999903    2    3    3    0    0 -0.10840316022E+00 -0.63147289391E-01 -0.21400948641E-01  0.12882689547E+00  0.19988574009E-01 0.  0.
         14    1    1    2    0    0 -0.65924583026E-04 -0.15665980180E-01 -0.18266154613E-01  0.24064074580E-01  0.00000000000E+00 0. -1.
     999901    1    3    3    0    0  0.10846908480E+00  0.78813269572E-01  0.39667103253E-01  0.89103902995E+00  0.88000000000E+00 0. -1.
        -11    1    4    4    0    0 -0.65930409738E-01 -0.37272762027E-01 -0.22720791293E-01  0.79073214145E-01  0.51100000000E-03 0. -1.
         11    1    4    4    0    0 -0.42472750478E-01 -0.25874527364E-01  0.13198426524E-02  0.49753681322E-01  0.51100000000E-03 0.  1.
</event>
<event>
 8    1  0.1162192E+005  0.1043930E+01  0.7957747E-01            NaN
         13   -1    0    0    0    0  0.00000000000E+00  0.00000000000E+00  0.74505805969E-08  0.10566000000E+00  0.10566000000E+00 0.  1.
     999900   -1    0    0    0    0 -0.00000000000E+00 -0.00000000000E+00 -0.74505805969E-08  0.93827000000E+00  0.93827000000E+00 0.  1.
     999902    2    1    2    0    0 -0.14974946751E-01 -0.19246070074E-01 -0.14241967816E-01  0.10156900657E+01  0.10152974025E+01 0.  0.
     999903    2    3    3    0    0  0.91408874295E-01  0.29753381262E-01 -0.77943716874E-01  0.12564715859E+00  0.21705747299E-01 0.  0.
         14    1    1    2    0    0  0.14974946751E-01  0.19246070074E-01  0.14241967816E-01  0.28239934327E-01  0.00000000000E+00 0. -1.
     999901    1    3    3    0    0 -0.10638382105E+00 -0.48999451336E-01  0.63701749058E-01  0.89004290708E+00  0.88000000000E+00 0. -1.
        -11    1    4    4    0    0  0.65509258200E-01  0.16390971077E-01 -0.65083221497E-01  0.93788131894E-01  0.51100000000E-03 0.  1.
         11    1    4    4    0    0  0.25899616096E-01  0.13362410185E-01 -0.12860495377E-01  0.31859026699E-01  0.51100000000E-03 0. -1.
</event>
<event>
 8    1  0.1162192E+005  0.1043930E+01  0.7957747E-01            NaN
         13   -1    0    0    0    0  0.00000000000E+00  0.00000000000E+00  0.74505805969E-08  0.10566000000E+00  0.10566000000E+00 0. -1.
     999900   -1    0    0    0    0 -0.00000000000E+00 -0.00000000000E+00 -0.74505805969E-08  0.93827000000E+00  0.93827000000E+00 0. -1.
     999902    2    1    2    0    0 -0.17753453840E-01 -0.14393897854E-01  0.17049498357E-02  0.10210110936E+01  0.10207538278E+01 0.  0.
     999903    2    3    3    0    0 -0.63167887781E-01 -0.31991557206E-01  0.11069597596E+00  0.13295073964E+00  0.20215298619E-01 0.  0.
         14    1    1    2    0    0  0.17753453840E-01  0.14393897854E-01 -0.17049498357E-02  0.22918906445E-01  0.00000000000E+00 0.  1.
     999901    1    3    3    0    0  0.45414433941E-01  0.17597659353E-01 -0.10899102612E+00  0.88806035392E+00  0.88000000000E+00 0. -1.
        -11    1    4    4    0    0 -0.14702763443E-01 -0.17654552144E-01  0.38055440905E-01  0.44455957618E-01  0.51100000000E-03 0. -1.
         11    1    4    4    0    0 -0.48465124338E-01 -0.14337005062E-01  0.72640535051E-01  0.88494782020E-01  0.51100000000E-03 0.  1.
</event>
<event>
 8    1  0.1162192E+005  0.1043930E+01  0.7957747E-01            NaN
         13   -1    0    0    0    0  0.00000000000E+00  0.00000000000E+00  0.74505805969E-08  0.10566000000E+00  0.10566000000E+00 0.  1.
     999900   -1    0    0    0    0 -0.00000000000E+00 -0.00000000000E+00 -0.74505805969E-08  0.93827000000E+00  0.93827000000E+00 0. -1.
     999902    2    1    2    0    0 -0.26364074802E-02 -0.43402398025E-03 -0.23974532953E-01  0.10198070389E+01  0.10195216915E+01 0.  0.
     999903    2    3    3    0    0 -0.49788783135E-01 -0.24761346395E-01 -0.11928664709E+00  0.13307169833E+00  0.19665338044E-01 0.  0.
         14    1    1    2    0    0  0.26364074802E-02  0.43402398025E-03  0.23974532953E-01  0.24122961086E-01  0.00000000000E+00 0.  1.
     999901    1    3    3    0    0  0.47152375655E-01  0.24327322415E-01  0.95312114136E-01  0.88673534059E+00  0.88000000000E+00 0.  1.
        -11    1    4    4    0    0 -0.28788226928E-01 -0.14862221814E-01 -0.90253690024E-01  0.95893885785E-01  0.51100000000E-03 0.  1.
         11    1    4    4    0    0 -0.21000556207E-01 -0.98991245803E-02 -0.29032957065E-01  0.37177812542E-01  0.51100000000E-03 0. -1.
</event>
<event>
 8    1  0.1162192E+005  0.1043930E+01  0.7957747E-01            NaN
         13   -1    0    0    0    0  0.00000000000E+00  0.00000000000E+00  0.74505805969E-08  0.10566000000E+00  0.10566000000E+00 0.  1.
     999900   -1    0    0    0    0 -0.00000000000E+00 -0.00000000000E+00 -0.74505805969E-08  0.93827000000E+00  0.93827000000E+00 0. -1.
     999902    2    1    2    0    0  0.18454981622E-01 -0.13125118309E-01  0.55069122322E-02  0.10206237528E+01  0.10203576155E+01 0.  0.
     999903    2    3    3    0    0 -0.11884952449E+00 -0.18789891129E-01  0.42687973961E-01  0.12918275731E+00  0.19688884783E-01 0.  0.
         14    1    1    2    0    0 -0.18454981622E-01  0.13125118309E-01 -0.55069122322E-02  0.23306247224E-01  0.00000000000E+00 0. -1.
     999901    1    3    3    0    0  0.13730450611E+00  0.56647728198E-02 -0.37181061729E-01  0.89144099547E+00  0.88000000000E+00 0. -1.
        -11    1    4    4    0    0 -0.10592932746E+00 -0.12507219101E-01  0.32310322080E-01  0.11145255035E+00  0.51100000000E-03 0. -1.
         11    1    4    4    0    0 -0.12920197033E-01 -0.62826720286E-02  0.10377651881E-01  0.17730206957E-01  0.51100000000E-03 0.  1.
</event>
<event>
 8    1  0.1162192E+005  0.1043930E+01  0.7957747E-01            NaN
         13   -1    0    0    0    0  0.00000000000E+00  0.00000000000E+00  0.74505805969E-08  0.10566000000E+00  0.10566000000E+00 0.  1.
     999900   -1    0    0    0    0 -0.00000000000E+00 -0.00000000000E+00 -0.74505805969E-08  0.93827000000E+00  0.93827000000E+00 0. -1.
     999902    2    1    2    0    0 -0.15488300075E-01  0.11019323252E-02 -0.17921336716E-01  0.10202176403E+01  0.10199420364E+01 0.  0.
     999903    2    3    3    0    0  0.55802115759E-01  0.78717743548E-02 -0.11742521737E+00  0.13171936992E+00  0.19633384436E-01 0.  0.
         14    1    1    2    0    0  0.15488300075E-01 -0.11019323252E-02  0.17921336716E-01  0.23712359725E-01  0.00000000000E+00 0.  1.
     999901    1    3    3    0    0 -0.71290415835E-01 -0.67698420295E-02  0.99503880653E-01  0.88849827035E+00  0.88000000000E+00 0.  1.
        -11    1    4    4    0    0 -0.80733422305E-03 -0.13993025924E-02 -0.79070385891E-02  0.80865454023E-02  0.51100000000E-03 0.  1.
         11    1    4    4    0    0  0.56609449982E-01  0.92710769472E-02 -0.10951817878E+00  0.12363282452E+00  0.51100000000E-03 0. -1.
</event>
<event>
 8    1  0.1162192E+005  0.1043930E+01  0.7957747E-01            NaN
         13   -1    0    0    0    0  0.00000000000E+00  0.00000000000E+00  0.74505805969E-08  0.10566000000E+00  0.10566000000E+00 0.  1.
     999900   -1    0    0    0    0 -0.00000000000E+00 -0.00000000000E+00 -0.74505805969E-08  0.93827000000E+00  0.93827000000E+00 0.  1.
     999902    2    1    2    0    0 -0.30109173198E-03 -0.14281582533E-01  0.10880667936E-01  0.10259732968E+01  0.10258161446E+01 0.  0.
     999903    2    3    3    0    0  0.13139426289E+00 -0.12514369826E-01 -0.23066864456E-01  0.13552440750E+00  0.20340182369E-01 0.  0.
         14    1    1    2    0    0  0.30109173198E-03  0.14281582533E-01 -0.10880667936E-01  0.17956703222E-01  0.00000000000E+00 0. -1.
     999901    1    3    3    0    0 -0.13169535462E+00 -0.17672127068E-02  0.33947532393E-01  0.89044888928E+00  0.88000000000E+00 0. -1.
        -11    1    4    4    0    0  0.42640557445E-01 -0.58406729045E-02 -0.17115646393E-01  0.46319942483E-01  0.51100000000E-03 0.  1.
         11    1    4    4    0    0  0.88753705444E-01 -0.66736969213E-02 -0.59512180631E-02  0.89204465012E-01  0.51100000000E-03 0. -1.
</event>
<event>
 8    1  0.1162192E+005  0.1043930E+01  0.7957747E-01            NaN
         13   -1    0    0    0    0  0.00000000000E+00  0.00000000000E+00  0.74505805969E-08  0.10566000000E+00  0.10566000000E+00 0. -1.
     999900   -1    0    0    0    0 -0.00000000000E+00 -0.00000000000E+00 -0.74505805969E-08  0.93827000000E+00  0.93827000000E+00 0. -1.
     999902    2    1    2    0    0 -0.52109031091E-02 -0.25025785280E-01 -0.18303985859E-01  0.10124899087E+01  0.10120016482E+01 0.  0.
     999903    2    3    3    0    0 -0.97973120120E-01  0.70413890292E-01 -0.44712441043E-02  0.12237480083E+00  0.19968766697E-01 0.  0.
         14    1    1    2    0    0  0.52109031091E-02  0.25025785280E-01  0.18303985859E-01  0.31440091260E-01  0.00000000000E+00 0. -1.
     999901    1    3    3    0    0  0.92762217010E-01 -0.95439675572E-01 -0.13832741755E-01  0.89011510791E+00  0.88000000000E+00 0.  1.
        -11    1    4    4    0    0 -0.20374155060E-01  0.21113123907E-01  0.56442289092E-02  0.29882915462E-01  0.51100000000E-03 0.  1.
         11    1    4    4    0    0 -0.77598965060E-01  0.49300766384E-01 -0.10115473014E-01  0.92491885372E-01  0.51100000000E-03 0. -1.
</event>
<event>
 8    1  0.1162192E+005  0.1043930E+01  0.7957747E-01            NaN
         13   -1    0    0    0    0  0.00000000000E+00  0.00000000000E+00  0.74505805969E-08  0.10566000000E+00  0.10566000000E+00 0.  1.
     999900   -1    0    0    0    0 -0.00000000000E+00 -0.00000000000E+00 -0.74505805969E-08  0.93827000000E+00  0.93827000000E+00 0.  1.
     999902    2    1    2    0    0 -0.20011230301E-01  0.11279568902E-01  0.60555744251E-02  0.10201739904E+01  0.10198973589E+01 0.  0.
     999903    2    3    3    0    0  0.63287097941E-01 -0.44081598811E-01 -0.97743731081E-01  0.12844658458E+00  0.31563333244E-01 0.  0.
         14    1    1    2    0    0  0.20011230301E-01 -0.11279568902E-01 -0.60555744251E-02  0.23756009648E-01  0.00000000000E+00 0. -1.
     999901    1    3    3    0    0 -0.83298328242E-01  0.55361167713E-01  0.10379930551E+00  0.89172740577E+00  0.88000000000E+00 0. -1.
        -11    1    4    4    0    0  0.31178194172E-01 -0.36212309733E-01 -0.72568235854E-01  0.86889706778E-01  0.51100000000E-03 0. -1.
         11    1    4    4    0    0  0.32108903769E-01 -0.78692890783E-02 -0.25175495227E-01  0.41556877804E-01  0.51100000000E-03 0.  1.
</event>
<event>
 8    1  0.1162192E+005  0.1043930E+01  0.7957747E-01            NaN
         13   -1    0    0    0    0  0.00000000000E+00  0.00000000000E+00  0.74505805969E-08  0.10566000000E+00  0.10566000000E+00 0.  1.
     999900   -1    0    0    0    0 -0.00000000000E+00 -0.00000000000E+00 -0.74505805969E-08  0.93827000000E+00  0.93827000000E+00 0.  1.
     999902    2    1    2    0    0 -0.14253923399E-01 -0.11740251344E-01 -0.14836969495E-01  0.10202415324E+01  0.10199664901E+01 0.  0.
     999903    2    3    3    0    0  0.10047622058E+00 -0.15310089424E-01  0.75525962160E-01  0.12819825480E+00  0.20018787014E-01 0.  0.
         14    1    1    2    0    0  0.14253923399E-01  0.11740251344E-01  0.14836969495E-01  0.23688467609E-01  0.00000000000E+00 0.  1.
     999901    1    3    3    0    0 -0.11473014398E+00  0.35698380802E-02 -0.90362931655E-01  0.89204327759E+00  0.88000000000E+00 0. -1.
        -11    1    4    4    0    0  0.67872021709E-01 -0.14258034008E-01  0.40425068210E-01  0.80276709732E-01  0.51100000000E-03 0.  1.
         11    1    4    4    0    0  0.32604198867E-01 -0.10520554164E-02  0.35100893951E-01  0.47921545066E-01  0.51100000000E-03 0. -1.
</event>
<event>
 8    1  0.1162192E+005  0.1043930E+01  0.7957747E-01            NaN
         13   -1    0    0    0    0  0.00000000000E+00  0.00000000000E+00  0.74505805969E-08  0.10566000000E+00  0.10566000000E+00 0. -1.
     999900   -1    0    0    0    0 -0.00000000000E+00 -0.00000000000E+00 -0.74505805969E-08  0.93827000000E+00  0.93827000000E+00 0.  1.
     999902    2    1    2    0    0  0.10133856735E-01 -0.25285913696E-01  0.28191985816E-03  0.10166875338E+01  0.10163224830E+01 0.  0.
     999903    2    3    3    0    0  0.36230400065E-01 -0.11477887923E+00 -0.44784025822E-01  0.13061701751E+00  0.23840370947E-01 0.  0.
         14    1    1    2    0    0 -0.10133856735E-01  0.25285913696E-01 -0.28191985816E-03  0.27242466161E-01  0.00000000000E+00 0. -1.
     999901    1    3    3    0    0 -0.26096543330E-01  0.89492965536E-01  0.45065945680E-01  0.88607051633E+00  0.88000000000E+00 0. -1.
        -11    1    4    4    0    0  0.65265825480E-02 -0.37862092014E-02 -0.48083127004E-02  0.89617326392E-02  0.51100000000E-03 0.  1.
         11    1    4    4    0    0  0.29703817517E-01 -0.11099267003E+00 -0.39975713121E-01  0.12165528487E+00  0.51100000000E-03 0. -1.
</event>
<event>
 8    1  0.1162192E+005  0.1043930E+01  0.7957747E-01            NaN
         13   -1    0    0    0    0  0.00000000000E+00  0.00000000000E+00  0.74505805969E-08  0.10566000000E+00  0.10566000000E+00 0.  1.
     999900   -1    0    0    0    0 -0.00000000000E+00 -0.00000000000E+00 -0.74505805969E-08  0.93827000000E+00  0.93827000000E+00 0.  1.
     999902    2    1    2    0    0 -0.14782340303E-01  0.16833771935E-01  0.89347970829E-02  0.10198110435E+01  0.10195257919E+01 0.  0.
     999903    2    3    3    0    0  0.11384914717E+00  0.58006879327E-01  0.55084263236E-02  0.12950040990E+00  0.20336839518E-01 0.  0.
         14    1    1    2    0    0  0.14782340303E-01 -0.16833771935E-01 -0.89347970829E-02  0.24118956472E-01  0.00000000000E+00 0. -1.
     999901    1    3    3    0    0 -0.12863148747E+00 -0.41173107393E-01  0.34263707592E-02  0.89031063363E+00  0.88000000000E+00 0. -1.
        -11    1    4    4    0    0  0.21243436644E-01  0.14245891963E-01 -0.64362176622E-02  0.26380201990E-01  0.51100000000E-03 0.  1.
         11    1    4    4    0    0  0.92605710529E-01  0.43760987364E-01  0.11944643986E-01  0.10312020791E+00  0.51100000000E-03 0. -1.
</event>
<event>
 8    1  0.1162192E+005  0.1043930E+01  0.7957747E-01            NaN
         13   -1    0    0    0    0  0.00000000000E+00  0.00000000000E+00  0.74505805969E-08  0.10566000000E+00  0.10566000000E+00 0.  1.
     999900   -1    0    0    0    0 -0.00000000000E+00 -0.00000000000E+00 -0.74505805969E-08  0.93827000000E+00  0.93827000000E+00 0.  1.
     999902    2    1    2    0    0  0.41928547280E-04  0.22841476158E-01  0.82853827296E-02  0.10196322150E+01  0.10193426663E+01 0.  0.
     999903    2    3    3    0    0 -0.42786454061E-01  0.10727208555E+00 -0.60552420115E-01  0.13188143841E+00  0.19701198573E-01 0.  0.
         14    1    1    2    0    0 -0.41928547280E-04 -0.22841476158E-01 -0.82853827296E-02  0.24297785044E-01  0.00000000000E+00 0. -1.
     999901    1    3    3    0    0  0.42828382608E-01 -0.84430609394E-01  0.68837802845E-01  0.88775077655E+00  0.88000000000E+00 0. -1.
        -11    1    4    4    0    0 -0.50200275308E-02  0.36412201949E-01 -0.16495350556E-01  0.40291523155E-01  0.51100000000E-03 0.  1.
         11    1    4    4    0    0 -0.37766426530E-01  0.70859883603E-01 -0.44057069559E-01  0.91589915254E-01  0.51100000000E-03 0. -1.
</event>
<event>
 8    1  0.1162192E+005  0.1043930E+01  0.7957747E-01            NaN
         13   -1    0    0    0    0  0.00000000000E+00  0.00000000000E+00  0.74505805969E-08  0.10566000000E+00  0.10566000000E+00 0.  1.
     999900   -1    0    0    0    0 -0.00000000000E+00 -0.00000000000E+00 -0.74505805969E-08  0.93827000000E+00  0.93827000000E+00 0. -1.
     999902    2    1    2    0    0 -0.15910429709E-01  0.11250869736E-01 -0.13495838696E-01  0.10202263820E+01  0.10199509837E+01 0.  0.
     999903    2    3    3    0    0 -0.54767486045E-02 -0.12207797928E+00 -0.38166870661E-01  0.12978036821E+00  0.21288639143E-01 0.  0.
         14    1    1    2    0    0  0.15910429709E-01 -0.11250869736E-01  0.13495838696E-01  0.23703617982E-01  0.00000000000E+00 0.  1.
     999901    1    3    3    0    0 -0.10433681105E-01  0.13332884902E+00  0.24671031965E-01  0.89044601380E+00  0.88000000000E+00 0. -1.
        -11    1    4    4    0    0  0.80645945247E-02 -0.36342438888E-01 -0.10650195745E-01  0.38723356512E-01  0.51100000000E-03 0. -1.
         11    1    4    4    0    0 -0.13541343129E-01 -0.85735540395E-01 -0.27516674916E-01  0.91057011701E-01  0.51100000000E-03 0.  1.
</event>
<event>
 8    1  0.1162192E+005  0.1043930E+01  0.7957747E-01            NaN
         13   -1    0    0    0    0  0.00000000000E+00  0.00000000000E+00  0.74505805969E-08  0.10566000000E+00  0.10566000000E+00 0.  1.
     999900   -1    0    0    0    0 -0.00000000000E+00 -0.00000000000E+00 -0.74505805969E-08  0.93827000000E+00  0.93827000000E+00 0. -1.
     999902    2    1    2    0    0 -0.21584252829E-01  0.16146196334E-03 -0.49426517538E-02  0.10217864717E+01  0.10215465030E+01 0.  0.
     999903    2    3    3    0    0  0.10192273827E+00  0.65816003739E-01 -0.42032109568E-01  0.12996803523E+00  0.20124637204E-01 0.  0.
         14    1    1    2    0    0  0.21584252829E-01 -0.16146196334E-03  0.49426517538E-02  0.22143528321E-01  0.00000000000E+00 0.  1.
     999901    1    3    3    0    0 -0.12350699110E+00 -0.65654541776E-01  0.37089457814E-01  0.89181843645E+00  0.88000000000E+00 0.  1.
        -11    1    4    4    0    0  0.55081330740E-01  0.47324574889E-01 -0.25044952233E-01  0.76818481747E-01  0.51100000000E-03 0.  1.
         11    1    4    4    0    0  0.46841407530E-01  0.18491428850E-01 -0.16987157335E-01  0.53149553485E-01  0.51100000000E-03 0. -1.
</event>
<event>
 8    1  0.1162192E+005  0.1043930E+01  0.7957747E-01            NaN
         13   -1    0    0    0    0  0.00000000000E+00  0.00000000000E+00  0.74505805969E-08  0.10566000000E+00  0.10566000000E+00 0.  1.
     999900   -1    0    0    0    0 -0.00000000000E+00 -0.00000000000E+00 -0.74505805969E-08  0.93827000000E+00  0.93827000000E+00 0. -1.
     999902    2    1    2    0    0  0.47993108296E-02 -0.14045675084E-01 -0.19852166134E-01  0.10191424452E+01  0.10188409595E+01 0.  0.
     999903    2    3    3    0    0  0.97564312601E-01 -0.35543697103E-01  0.73784682622E-01  0.12906639791E+00  0.20779946656E-01 0.  0.
         14    1    1    2    0    0 -0.47993108296E-02  0.14045675084E-01  0.19852166134E-01  0.24787554805E-01  0.00000000000E+00 0. -1.
     999901    1    3    3    0    0 -0.92765001772E-01  0.21498022019E-01 -0.93636848755E-01  0.89007604728E+00  0.88000000000E+00 0. -1.
        -11    1    4    4    0    0  0.28381450398E-01 -0.87898373312E-02  0.33032380665E-01  0.44431602046E-01  0.51100000000E-03 0.  1.
         11    1    4    4    0    0  0.69182862203E-01 -0.26753859772E-01  0.40752301957E-01  0.84634795865E-01  0.51100000000E-03 0. -1.
</event>
<event>
 8    1  0.1162192E+005  0.1043930E+01  0.7957747E-01            NaN
         13   -1    0    0    0    0  0.00000000000E+00  0.00000000000E+00  0.74505805969E-08  0.10566000000E+00  0.10566000000E+00 0.  1.
     999900   -1    0    0    0    0 -0.00000000000E+00 -0.00000000000E+00 -0.74505805969E-08  0.93827000000E+00  0.93827000000E+00 0.  1.
     999902    2    1    2    0    0 -0.98975987894E-02  0.15585407183E-01 -0.10014049628E-01  0.10229264629E+01  0.10227108096E+01 0.  0.
     999903    2    3    3    0    0  0.12884117986E+00 -0.14218535938E-01 -0.10577566706E-01  0.13155839011E+00  0.19837053669E-01 0.  0.
         14    1    1    2    0    0  0.98975987894E-02 -0.15585407183E-01  0.10014049628E-01  0.21003537055E-01  0.00000000000E+00 0.  1.
     999901    1    3    3    0    0 -0.13873877865E+00  0.29803943122E-01  0.56351707803E-03  0.89136807284E+00  0.88000000000E+00 0.  1.
        -11    1    4    4    0    0  0.94591364173E-02 -0.58868400745E-02  0.15984784510E-02  0.11267049400E-01  0.51100000000E-03 0. -1.
         11    1    4    4    0    0  0.11938204344E+00 -0.83316958638E-02 -0.12176045157E-01  0.12029134071E+00  0.51100000000E-03 0.  1.
</event>
<event>
 8    1  0.1162192E+005  0.1043930E+01  0.7957747E-01            NaN
         13   -1    0    0    0    0  0.00000000000E+00  0.00000000000E+00  0.74505805969E-08  0.10566000000E+00  0.10566000000E+00 0. -1.
     999900   -1    0    0    0    0 -0.00000000000E+00 -0.00000000000E+00 -0.74505805969E-08  0.93827000000E+00  0.93827000000E+00 0.  1.
     999902    2    1    2    0    0  0.79463375331E-02 -0.39238436269E-02 -0.21539664570E-01  0.10206384140E+01  0.10203726153E+01 0.  0.
     999903    2    3    3    0    0 -0.47697558817E-02  0.28039231987E-01  0.12371219750E+00  0.12806828192E+00  0.16965492109E-01 0.  0.
         14    1    1    2    0    0 -0.79463375331E-02  0.39238436269E-02  0.21539664570E-01  0.23291586008E-01  0.00000000000E+00 0. -1.
     999901    1    3    3    0    0  0.12716093415E-01 -0.31963075614E-01 -0.14525186207E+00  0.89257013207E+00  0.88000000000E+00 0.  1.
        -11    1    4    4    0    0  0.52589152053E-02  0.16315633009E-01  0.76416332114E-01  0.78317130977E-01  0.51100000000E-03 0. -1.
         11    1    4    4    0    0 -0.10028671087E-01  0.11723598977E-01  0.47295865383E-01  0.49751150942E-01  0.51100000000E-03 0.  1.
</event>
<event>
 8    1  0.1162192E+005  0.1043930E+01  0.7957747E-01            NaN
         13   -1    0    0    0    0  0.00000000000E+00  0.00000000000E+00  0.74505805969E-08  0.10566000000E+00  0.10566000000E+00 0. -1.
     999900   -1    0    0    0    0 -0.00000000000E+00 -0.00000000000E+00 -0.74505805969E-08  0.93827000000E+00  0.93827000000E+00 0. -1.
     999902    2    1    2    0    0 -0.14132380068E-01 -0.88212244947E-02 -0.16894469822E-01  0.10202031949E+01  0.10199272512E+01 0.  0.
     999903    2    3    3    0    0  0.61194219552E-01  0.10922292316E+00  0.20065282450E-01  0.12836546267E+00  0.20017417311E-01 0.  0.
         14    1    1    2    0    0  0.14132380068E-01  0.88212244947E-02  0.16894469822E-01  0.23726805064E-01  0.00000000000E+00 0. -1.
     999901    1    3    3    0    0 -0.75326599620E-01 -0.11804414766E+00 -0.36959752272E-01  0.89183773227E+00  0.88000000000E+00 0. -1.
        -11    1    4    4    0    0  0.19088639299E-01  0.17728456315E-01  0.34165427244E-02  0.26279425389E-01  0.51100000000E-03 0. -1.
         11    1    4    4    0    0  0.42105580253E-01  0.91494466847E-01  0.16648739726E-01  0.10208603728E+00  0.51100000000E-03 0.  1.
</event>
<event>
 8    1  0.1162192E+005  0.1043930E+01  0.7957747E-01            NaN
         13   -1    0    0    0    0  0.00000000000E+00  0.00000000000E+00  0.74505805969E-08  0.10566000000E+00  0.10566000000E+00 0.  1.
     999900   -1    0    0    0    0 -0.00000000000E+00 -0.00000000000E+00 -0.74505805969E-08  0.93827000000E+00  0.93827000000E+00 0. -1.
     999902    2    1    2    0    0  0.21438921975E-01 -0.12887452453E-01  0.77564006374E-02  0.10177407740E+01  0.10174037584E+01 0.  0.
     999903    2    3    3    0    0  0.17551298849E-02  0.86173602776E-01  0.92356861236E-01  0.12793305195E+00  0.20201625371E-01 0.  0.
         14    1    1    2    0    0 -0.21438921975E-01  0.12887452453E-01 -0.77564006374E-02  0.26189225972E-01  0.00000000000E+00 0. -1.
     999901    1    3    3    0    0  0.19683792090E-01 -0.99061055229E-01 -0.84600460599E-01  0.88980772208E+00  0.88000000000E+00 0. -1.
        -11    1    4    4    0    0  0.47992221947E-02  0.84770609335E-01  0.86797980125E-01  0.12142174112E+00  0.51100000000E-03 0. -1.
         11    1    4    4    0    0 -0.30440923097E-02  0.14029934415E-02  0.55588811114E-02  0.65113108356E-02  0.51100000000E-03 0.  1.
</event>
<event>
 8    1  0.1162192E+005  0.1043930E+01  0.7957747E-01            NaN
         13   -1    0    0    0    0  0.00000000000E+00  0.00000000000E+00  0.74505805969E-08  0.10566000000E+00  0.10566000000E+00 0.  1.
     999900   -1    0    0    0    0 -0.00000000000E+00 -0.00000000000E+00 -0.74505805969E-08  0.93827000000E+00  0.93827000000E+00 0.  1.
     999902    2    1    2    0    0 -0.30455849574E-01  0.11713834159E-01 -0.27706364069E-02  0.10111817312E+01  0.10106512971E+01 0.  0.
     999903    2    3    3    0    0 -0.83513408507E-01 -0.74704819292E-01 -0.49237856269E-01  0.12414030558E+00  0.20764141058E-01 0.  0.
         14    1    1    2    0    0  0.30455849574E-01 -0.11713834159E-01  0.27706364069E-02  0.32748268810E-01  0.00000000000E+00 0.  1.
     999901    1    3    3    0    0  0.53057558933E-01  0.86418653451E-01  0.46467219862E-01  0.88704142561E+00  0.88000000000E+00 0. -1.
        -11    1    4    4    0    0 -0.51426105672E-01 -0.47610383989E-01 -0.41454506227E-01  0.81425611546E-01  0.51100000000E-03 0.  1.
         11    1    4    4    0    0 -0.32087302835E-01 -0.27094435303E-01 -0.77833500423E-02  0.42714694035E-01  0.51100000000E-03 0. -1.
</event>
<event>
 8    1  0.1162192E+005  0.1043930E+01  0.7957747E-01            NaN
         13   -1    0    0    0    0  0.00000000000E+00  0.00000000000E+00  0.74505805969E-08  0.10566000000E+00  0.10566000000E+00 0.  1.
     999900   -1    0    0    0    0 -0.00000000000E+00 -0.00000000000E+00 -0.74505805969E-08  0.93827000000E+00  0.93827000000E+00 0. -1.
     999902    2    1    2    0    0  0.14898057256E-01  0.78904600047E-02  0.17025449008E-01  0.10199700880E+01  0.10196886304E+01 0.  0.
     999903    2    3    3    0    0  0.10495275190E+00 -0.31400592793E-02  0.79236869815E-01  0.13312073142E+00  0.20437893548E-01 0.  0.
         14    1    1    2    0    0 -0.14898057256E-01 -0.78904600047E-02 -0.17025449008E-01  0.23959911999E-01  0.00000000000E+00 0. -1.
     999901    1    3    3    0    0 -0.90054694645E-01  0.11030519284E-01 -0.62211420808E-01  0.88684935658E+00  0.88000000000E+00 0. -1.
        -11    1    4    4    0    0  0.55328692773E-01 -0.68153044087E-02  0.30868720701E-01  0.63724811941E-01  0.51100000000E-03 0. -1.
         11    1    4    4    0    0  0.49624059128E-01  0.36752451295E-02  0.48368149114E-01  0.69395919483E-01  0.51100000000E-03 0.  1.
</event>
<event>
 8    1  0.1162192E+005  0.1043930E+01  0.7957747E-01            NaN
         13   -1    0    0    0    0  0.00000000000E+00  0.00000000000E+00  0.74505805969E-08  0.10566000000E+00  0.10566000000E+00 0.  1.
     999900   -1    0    0    0    0 -0.00000000000E+00 -0.00000000000E+00 -0.74505805969E-08  0.93827000000E+00  0.93827000000E+00 0. -1.
     999902    2    1    2    0    0  0.25800799283E-02  0.37129955270E-02 -0.23966392685E-01  0.10195408400E+01  0.10192490830E+01 0.  0.
     999903    2    3    3    0    0 -0.73443685080E-01  0.18238354316E-02  0.10226020774E+00  0.12728732420E+00  0.18644343914E-01 0.  0.
         14    1    1    2    0    0 -0.25800799283E-02 -0.37129955270E-02  0.23966392685E-01  0.24389160022E-01  0.00000000000E+00 0.  1.
     999901    1    3    3    0    0  0.76023765008E-01  0.18891600954E-02 -0.12622660043E+00  0.89225351578E+00  0.88000000000E+00 0. -1.
        -11    1    4    4    0    0 -0.20281944387E-01 -0.78241484277E-02  0.30605035603E-01  0.37543360158E-01  0.51100000000E-03 0.  1.
         11    1    4    4    0    0 -0.53161740693E-01  0.96479838592E-02  0.71655172137E-01  0.89743964037E-01  0.51100000000E-03 0. -1.
</event>
<event>
 8    1  0.1162192E+005  0.1043930E+01  0.7957747E-01            NaN
         13   -1    0    0    0    0  0.00000000000E+00  0.00000000000E+00  0.74505805969E-08  0.10566000000E+00  0.10566000000E+00 0. -1.
     999900   -1    0    0    0    0 -0.00000000000E+00 -0.00000000000E+00 -0.74505805969E-08  0.93827000000E+00  0.93827000000E+00 0. -1.
     999902    2    1    2    0    0 -0.21413775203E-01 -0.41462754502E-02 -0.90380952641E-02  0.10203200755E+01  0.10200468754E+01 0.  0.
     999903    2    3    3    0    0 -0.29582916746E-01 -0.25844191106E-01  0.12257173327E+00  0.13023093313E+00  0.19829144466E-01 0.  0.
         14    1    1    2    0    0  0.21413775203E-01  0.41462754502E-02  0.90380952641E-02  0.23609924493E-01  0.00000000000E+00 0. -1.
     999901    1    3    3    0    0  0.81691415423E-02  0.21697915656E-01 -0.13160982853E+00  0.89008914238E+00  0.88000000000E+00 0. -1.
        -11    1    4    4    0    0 -0.64157664823E-02 -0.17873725883E-01  0.43984633015E-01  0.47911806467E-01  0.51100000000E-03 0. -1.
         11    1    4    4    0    0 -0.23167150263E-01 -0.79704652232E-02  0.78587100251E-01  0.82319126660E-01  0.51100000000E-03 0.  1.
</event>
<event>
 8    1  0.1162192E+005  0.1043930E+01  0.7957747E-01            NaN
         13   -1    0    0    0    0  0.00000000000E+00  0.00000000000E+00  0.74505805969E-08  0.10566000000E+00  0.10566000000E+00 0. -1.
     999900   -1    0    0    0    0 -0.00000000000E+00 -0.00000000000E+00 -0.74505805969E-08  0.93827000000E+00  0.93827000000E+00 0.  1.
     999902    2    1    2    0    0  0.18964104126E-01 -0.14285592247E-02  0.14665413082E-01  0.10199143308E+01  0.10196315461E+01 0.  0.
     999903    2    3    3    0    0 -0.97754149474E-01  0.81156675611E-02 -0.78603591009E-01  0.12727030873E+00  0.19936628755E-01 0.  0.
         14    1    1    2    0    0 -0.18964104126E-01  0.14285592247E-02 -0.14665413082E-01  0.24015669211E-01  0.00000000000E+00 0.  1.
     999901    1    3    3    0    0  0.11671825360E+00 -0.95442267858E-02  0.93269004092E-01  0.89264402206E+00  0.88000000000E+00 0. -1.
        -11    1    4    4    0    0 -0.34703430268E-01 -0.56909742718E-02 -0.33097194150E-01  0.48294933918E-01  0.51100000000E-03 0. -1.
         11    1    4    4    0    0 -0.63050719206E-01  0.13806641833E-01 -0.45506396859E-01  0.78975374815E-01  0.51100000000E-03 0.  1.
</event>
<event>
 8    1  0.1162192E+005  0.1043930E+01  0.7957747E-01            NaN
         13   -1    0    0    0    0  0.00000000000E+00  0.00000000000E+00  0.74505805969E-08  0.10566000000E+00  0.10566000000E+00 0.  1.
     999900   -1    0    0    0    0 -0.00000000000E+00 -0.00000000000E+00 -0.74505805969E-08  0.93827000000E+00  0.93827000000E+00 0.  1.
     999902    2    1    2    0    0 -0.10586727148E-01  0.19703614594E-02  0.20944426533E-01  0.10203794136E+01  0.10201076010E+01 0.  0.
     999903    2    3    3    0    0  0.11008231422E+00  0.55332724381E-01  0.37832018212E-01  0.13038292482E+00  0.19713426711E-01 0.  0.
         14    1    1    2    0    0  0.10586727148E-01 -0.19703614594E-02 -0.20944426533E-01  0.23550586379E-01  0.00000000000E+00 0. -1.
     999901    1    3    3    0    0 -0.12066904136E+00 -0.53362362921E-01 -0.16887591679E-01  0.88999648880E+00  0.88000000000E+00 0.  1.
        -11    1    4    4    0    0  0.83724259517E-01  0.34413413375E-01  0.21827852159E-01  0.93116866908E-01  0.51100000000E-03 0.  1.
         11    1    4    4    0    0  0.26358054700E-01  0.20919311006E-01  0.16004166053E-01  0.37266057915E-01  0.51100000000E-03 0. -1.
</event>
<event>
 8    1  0.1162192E+005  0.1043930E+01  0.7957747E-01            NaN
         13   -1    0    0    0    0  0.00000000000E+00  0.00000000000E+00  0.74505805969E-08  0.10566000000E+00  0.10566000000E+00 0. -1.
     999900   -1    0    0    0    0 -0.00000000000E+00 -0.00000000000E+00 -0.74505805969E-08  0.93827000000E+00  0.93827000000E+00 0.  1.
     999902    2    1    2    0    0 -0.16021106366E-01 -0.10071369596E-01 -0.13695903630E-01  0.10205700747E+01  0.10203026959E+01 0.  0.
     999903    2    3    3    0    0 -0.11741745388E+00 -0.56140436647E-01  0.18069974951E-01  0.13298196679E+00  0.20471257731E-01 0.  0.
         14    1    1    2    0    0  0.16021106366E-01  0.10071369596E-01  0.13695903630E-01  0.23359925320E-01  0.00000000000E+00 0.  1.
     999901    1    3    3    0    0  0.10139634752E+00  0.46069067051E-01 -0.31765878582E-01  0.88758810789E+00  0.88000000000E+00 0.  1.
        -11    1    4    4    0    0 -0.17330771578E-01 -0.16101799393E-01 -0.99703597852E-04  0.23662093081E-01  0.51100000000E-03 0. -1.
         11    1    4    4    0    0 -0.10008668230E+00 -0.40038637255E-01  0.18169678549E-01  0.10931987371E+00  0.51100000000E-03 0.  1.
</event>
<event>
 8    1  0.1162192E+005  0.1043930E+01  0.7957747E-01            NaN
         13   -1    0    0    0    0  0.00000000000E+00  0.00000000000E+00  0.74505805969E-08  0.10566000000E+00  0.10566000000E+00 0.  1.
     999900   -1    0    0    0    0 -0.00000000000E+00 -0.00000000000E+00 -0.74505805969E-08  0.93827000000E+00  0.93827000000E+00 0. -1.
     999902    2    1    2    0    0  0.18692667088E-01 -0.13653110311E-01  0.41615760903E-02  0.10204110302E+01  0.10201399554E+01 0.  0.
     999903    2    3    3    0    0 -0.10838654509E+00 -0.30163580505E-01 -0.59930204481E-01  0.12882285279E+00  0.18606806451E-01 0.  0.
         14    1    1    2    0    0 -0.18692667088E-01  0.13653110311E-01 -0.41615760903E-02  0.23518969782E-01  0.00000000000E+00 0. -1.
     999901    1    3    3    0    0  0.12707921218E+00  0.16510470194E-01  0.64091780571E-01  0.89158817743E+00  0.88000000000E+00 0. -1.
        -11    1    4    4    0    0 -0.72486430763E-01 -0.17689801865E-01 -0.49026710966E-01  0.89280967983E-01  0.51100000000E-03 0.  1.
         11    1    4    4    0    0 -0.35900114326E-01 -0.12473778640E-01 -0.10903493515E-01  0.39541884806E-01  0.51100000000E-03 0. -1.
</event>
<event>
 8    1  0.1162192E+005  0.1043930E+01  0.7957747E-01            NaN
         13   -1    0    0    0    0  0.00000000000E+00  0.00000000000E+00  0.74505805969E-08  0.10566000000E+00  0.10566000000E+00 0.  1.
     999900   -1    0    0    0    0 -0.00000000000E+00 -0.00000000000E+00 -0.74505805969E-08  0.93827000000E+00  0.93827000000E+00 0.  1.
     999902    2    1    2    0    0 -0.10664317307E-01 -0.10755822243E-01 -0.49273209860E-02  0.10280022297E+01  0.10278788306E+01 0.  0.
     999903    2    3    3    0    0  0.79350291553E-01 -0.98452585353E-01 -0.52548084384E-01  0.13779939369E+00  0.15426969799E-01 0.  0.
         14    1    1    2    0    0  0.10664317307E-01  0.10755822243E-01  0.49273209860E-02  0.15927770335E-01  0.00000000000E+00 0.  1.
     999901    1    3    3    0    0 -0.90014608860E-01  0.87696763110E-01  0.47620763398E-01  0.89020283597E+00  0.88000000000E+00 0. -1.
        -11    1    4    4    0    0  0.21886491130E-01 -0.17157657188E-01 -0.10555005296E-01  0.29750175663E-01  0.51100000000E-03 0.  1.
         11    1    4    4    0    0  0.57463800423E-01 -0.81294928165E-01 -0.41993079088E-01  0.10804921803E+00  0.51100000000E-03 0. -1.
</event>
<event>
 8    1  0.1162192E+005  0.1043930E+01  0.7957747E-01            NaN
         13   -1    0    0    0    0  0.00000000000E+00  0.00000000000E+00  0.74505805969E-08  0.10566000000E+00  0.10566000000E+00 0.  1.
     999900   -1    0    0    0    0 -0.00000000000E+00 -0.00000000000E+00 -0.74505805969E-08  0.93827000000E+00  0.93827000000E+00 0. -1.
     999902    2    1    2    0    0  0.14491378233E-03  0.10451444357E-01 -0.21764148371E-01  0.10197860185E+01  0.10195001676E+01 0.  0.
     999903    2    3    3    0    0  0.59615255457E-01 -0.11204403716E-01  0.11049495119E+00  0.12765476877E+00  0.20176431974E-01 0.  0.
         14    1    1    2    0    0 -0.14491378233E-03 -0.10451444357E-01  0.21764148371E-01  0.24143981516E-01  0.00000000000E+00 0.  1.
     999901    1    3    3    0    0 -0.59470341675E-01  0.21655848074E-01 -0.13225909956E+00  0.89213124971E+00  0.88000000000E+00 0. -1.
        -11    1    4    4    0    0  0.93405024276E-02  0.37638995464E-02  0.95249573644E-02  0.13870755538E-01  0.51100000000E-03 0.  1.
         11    1    4    4    0    0  0.50274753029E-01 -0.14968303263E-01  0.10096999382E+00  0.11378401324E+00  0.51100000000E-03 0. -1.
</event>
<event>
 8    1  0.1162192E+005  0.1043930E+01  0.7957747E-01            NaN
         13   -1    0    0    0    0  0.00000000000E+00  0.00000000000E+00  0.74505805969E-08  0.10566000000E+00  0.10566000000E+00 0. -1.
     999900   -1    0    0    0    0 -0.00000000000E+00 -0.00000000000E+00 -0.74505805969E-08  0.93827000000E+00  0.93827000000E+00 0. -1.
     999902    2    1    2    0    0  0.82370412010E-02 -0.68686131978E-02 -0.17995342253E-01  0.10229810373E+01  0.10227665147E+01 0.  0.
     999903    2    3    3    0    0  0.65033455487E-01  0.10123474329E+00 -0.55030604266E-01  0.13377702304E+00  0.19750972255E-01 0.  0.
         14    1    1    2    0    0 -0.82370412010E-02  0.68686131978E-02  0.17995342253E-01  0.20948962691E-01  0.00000000000E+00 0. -1.
     999901    1    3    3    0    0 -0.56796414286E-01 -0.10810335649E+00  0.37035262013E-01  0.88920401427E+00  0.88000000000E+00 0. -1.
        -11    1    4    4    0    0  0.32212689747E-01  0.64883295361E-01 -0.26765918963E-01  0.77228070910E-01  0.51100000000E-03 0.  1.
         11    1    4    4    0    0  0.32820765740E-01  0.36351447934E-01 -0.28264685303E-01  0.56548952129E-01  0.51100000000E-03 0. -1.
</event>
<event>
 8    1  0.1162192E+005  0.1043930E+01  0.7957747E-01            NaN
         13   -1    0    0    0    0  0.00000000000E+00  0.00000000000E+00  0.74505805969E-08  0.10566000000E+00  0.10566000000E+00 0. -1.
     999900   -1    0    0    0    0 -0.00000000000E+00 -0.00000000000E+00 -0.74505805969E-08  0.93827000000E+00  0.93827000000E+00 0. -1.
     999902    2    1    2    0    0 -0.13783736807E-01  0.16881652282E-01  0.86706175602E-02  0.10204744848E+01  0.10202048877E+01 0.  0.
     999903    2    3    3    0    0  0.61709777755E-01 -0.61462129634E-01 -0.91832569354E-01  0.12809681281E+00  0.19745445222E-01 0.  0.
         14    1    1    2    0    0  0.13783736807E-01 -0.16881652282E-01 -0.86706175602E-02  0.23455515194E-01  0.00000000000E+00 0.  1.
     999901    1    3    3    0    0 -0.75493514561E-01  0.78343781916E-01  0.10050318691E+00  0.89237767200E+00  0.88000000000E+00 0.  1.
        -11    1    4    4    0    0  0.33862693247E-01 -0.41619956771E-01 -0.66982624082E-01  0.85824447831E-01  0.51100000000E-03 0. -1.
         11    1    4    4    0    0  0.27847084508E-01 -0.19842172863E-01 -0.24849945272E-01  0.42272364974E-01  0.51100000000E-03 0.  1.
</event>
<event>
 8    1  0.1162192E+005  0.1043930E+01  0.7957747E-01            NaN
         13   -1    0    0    0    0  0.00000000000E+00  0.00000000000E+00  0.74505805969E-08  0.10566000000E+00  0.10566000000E+00 0. -1.
     999900   -1    0    0    0    0 -0.00000000000E+00 -0.00000000000E+00 -0.74505805969E-08  0.93827000000E+00  0.93827000000E+00 0.  1.
     999902    2    1    2    0    0 -0.17072408057E-01 -0.99788529874E-02 -0.13491073874E-01  0.10199914600E+01  0.10197105103E+01 0.  0.
     999903    2    3    3    0    0 -0.47472742313E-01  0.31574420805E-01  0.11431397044E+00  0.12926985127E+00  0.19809222532E-01 0.  0.
         14    1    1    2    0    0  0.17072408057E-01  0.99788529874E-02  0.13491073874E-01  0.23938540016E-01  0.00000000000E+00 0. -1.
     999901    1    3    3    0    0  0.30400334255E-01 -0.41553273793E-01 -0.12780504431E+00  0.89072160872E+00  0.88000000000E+00 0.  1.
        -11    1    4    4    0    0 -0.14157861679E-01  0.65445320127E-02  0.15350237386E-01  0.21889880205E-01  0.51100000000E-03 0. -1.
         11    1    4    4    0    0 -0.33314880634E-01  0.25029888793E-01  0.98963733052E-01  0.10737997106E+00  0.51100000000E-03 0.  1.
</event>
<event>
 8    1  0.1162192E+005  0.1043930E+01  0.7957747E-01            NaN
         13   -1    0    0    0    0  0.00000000000E+00  0.00000000000E+00  0.74505805969E-08  0.10566000000E+00  0.10566000000E+00 0. -1.
     999900   -1    0    0    0    0 -0.00000000000E+00 -0.00000000000E+00 -0.74505805969E-08  0.93827000000E+00  0.93827000000E+00 0. -1.
     999902    2    1    2    0    0  0.16999117951E-01  0.11686999448E-01  0.13417641118E-01  0.10193212808E+01  0.10190241825E+01 0.  0.
     999903    2    3    3    0    0 -0.12308507757E+00  0.22381120097E-01 -0.15560476653E-01  0.12770607380E+00  0.20392694632E-01 0.  0.
         14    1    1    2    0    0 -0.16999117951E-01 -0.11686999448E-01 -0.13417641118E-01  0.24608719194E-01  0.00000000000E+00 0.  1.
     999901    1    3    3    0    0  0.14008419552E+00 -0.10694120649E-01  0.28978117771E-01  0.89161520700E+00  0.88000000000E+00 0.  1.
        -11    1    4    4    0    0 -0.89354312790E-01  0.83932618043E-02 -0.59663777009E-02  0.89947200300E-01  0.51100000000E-03 0.  1.
         11    1    4    4    0    0 -0.33730764782E-01  0.13987858293E-01 -0.95940989525E-02  0.37758873502E-01  0.51100000000E-03 0. -1.
</event>
<event>
 8    1  0.1162192E+005  0.1043930E+01  0.7957747E-01            NaN
         13   -1    0    0    0    0  0.00000000000E+00  0.00000000000E+00  0.74505805969E-08  0.10566000000E+00  0.10566000000E+00 0.  1.
     999900   -1    0    0    0    0 -0.00000000000E+00 -0.00000000000E+00 -0.74505805969E-08  0.93827000000E+00  0.93827000000E+00 0.  1.
     999902    2    1    2    0    0  0.31689741851E-02 -0.22501739381E-01  0.39119080596E-02  0.10208719494E+01  0.10206115144E+01 0.  0.
     999903    2    3    3    0    0  0.37204347833E-01 -0.10912233949E+00 -0.63223101893E-01  0.13342130594E+00  0.22632626729E-01 0.  0.
         14    1    1    2    0    0 -0.31689741851E-02  0.22501739381E-01 -0.39119080596E-02  0.23058050595E-01  0.00000000000E+00 0. -1.
     999901    1    3    3    0    0 -0.34035373648E-01  0.86620600109E-01  0.67135009952E-01  0.88745064346E+00  0.88000000000E+00 0. -1.
        -11    1    4    4    0    0  0.10406706233E-01 -0.26834351919E-01 -0.52652475474E-02  0.29263730628E-01  0.51100000000E-03 0. -1.
         11    1    4    4    0    0  0.26797641600E-01 -0.82287987571E-01 -0.57957854345E-01  0.10415757531E+00  0.51100000000E-03 0.  1.
</event>
<event>
 8    1  0.1162192E+005  0.1043930E+01  0.7957747E-01            NaN
         13   -1    0    0    0    0  0.00000000000E+00  0.00000000000E+00  0.74505805969E-08  0.10566000000E+00  0.10566000000E+00 0. -1.
     999900   -1    0    0    0    0 -0.00000000000E+00 -0.00000000000E+00 -0.74505805969E-08  0.93827000000E+00  0.93827000000E+00 0.  1.
     999902    2    1    2    0    0  0.29440031556E-01 -0.32207779304E-02 -0.49771517267E-02  0.10138990009E+01  0.10134541544E+01 0.  0.
     999903    2    3    3    0    0  0.25637151864E-01 -0.13049303599E-01  0.12015474882E+00  0.12498446374E+00  0.18878681953E-01 0.  0.
         14    1    1    2    0    0 -0.29440031556E-01  0.32207779304E-02  0.49771517267E-02  0.30030999114E-01  0.00000000000E+00 0.  1.
     999901    1    3    3    0    0  0.38028796921E-02  0.98285256681E-02 -0.12513190055E+00  0.88891453714E+00  0.88000000000E+00 0.  1.
        -11    1    4    4    0    0  0.15946776334E-01 -0.13279897792E-01  0.49652534832E-01  0.53817197039E-01  0.51100000000E-03 0. -1.
         11    1    4    4    0    0  0.96903755295E-02  0.23059419333E-03  0.70502213990E-01  0.71167266703E-01  0.51100000000E-03 0.  1.
</event>
<event>
 8    1  0.1162192E+005  0.1043930E+01  0.7957747E-01            NaN
         13   -1    0    0    0    0  0.00000000000E+00  0.00000000000E+00  0.74505805969E-08  0.10566000000E+00  0.10566000000E+00 0.  1.
     999900   -1    0    0    0    0 -0.00000000000E+00 -0.00000000000E+00 -0.74505805969E-08  0.93827000000E+00  0.93827000000E+00 0.  1.
     999902    2    1    2    0    0  0.20542576825E-01  0.13589271313E-01 -0.69255998446E-02  0.10183442678E+01  0.10180227984E+01 0.  0.
     999903    2    3    3    0    0 -0.51108633194E-01  0.17290022176E-01 -0.11515925962E+00  0.12881511341E+00  0.20509537118E-01 0.  0.
         14    1    1    2    0    0 -0.20542576825E-01 -0.13589271313E-01  0.69255998446E-02  0.25585732169E-01  0.00000000000E+00 0.  1.
     999901    1    3    3    0    0  0.71651210019E-01 -0.37007508637E-02  0.10823365978E+00  0.88952915442E+00  0.88000000000E+00 0. -1.
        -11    1    4    4    0    0 -0.38849680100E-01  0.35699777954E-02 -0.84138537446E-01  0.92744794948E-01  0.51100000000E-03 0.  1.
         11    1    4    4    0    0 -0.12258953094E-01  0.13720044381E-01 -0.31020722175E-01  0.36070318463E-01  0.51100000000E-03 0. -1.
</event>
<event>
 8    1  0.1162192E+005  0.1043930E+01  0.7957747E-01            NaN
         13   -1    0    0    0    0  0.00000000000E+00  0.00000000000E+00  0.74505805969E-08  0.10566000000E+00  0.10566000000E+00 0.  1.
     999900   -1    0    0    0    0 -0.00000000000E+00 -0.00000000000E+00 -0.74505805969E-08  0.93827000000E+00  0.93827000000E+00 0. -1.
     999902    2    1    2    0    0 -0.21341344130E-01 -0.10914483874E-01 -0.34409359719E-02  0.10197139110E+01  0.10194263295E+01 0.  0.
     999903    2    3    3    0    0 -0.63780559693E-01 -0.73887431395E-01  0.86649619835E-01  0.13186088970E+00  0.18757006733E-01 0.  0.
         14    1    1    2    0    0  0.21341344130E-01  0.10914483874E-01  0.34409359719E-02  0.24216089029E-01  0.00000000000E+00 0. -1.
     999901    1    3    3    0    0  0.42439215563E-01  0.62972947521E-01 -0.90090555807E-01  0.88785302127E+00  0.88000000000E+00 0. -1.
        -11    1    4    4    0    0 -0.33922810944E-01 -0.52898824213E-01  0.56820386042E-01  0.84722252664E-01  0.51100000000E-03 0. -1.
         11    1    4    4    0    0 -0.29857748749E-01 -0.20988607181E-01  0.29829233793E-01  0.47138637034E-01  0.51100000000E-03 0.  1.
</event>
<event>
 8    1  0.1162192E+005  0.1043930E+01  0.7957747E-01            NaN
         13   -1    0    0    0    0  0.00000000000E+00  0.00000000000E+00  0.74505805969E-08  0.10566000000E+00  0.10566000000E+00 0. -1.
     999900   -1    0    0    0    0 -0.00000000000E+00 -0.00000000000E+00 -0.74505805969E-08  0.93827000000E+00  0.93827000000E+00 0.  1.
     999902    2    1    2    0    0  0.59074100375E-02  0.94875231071E-02  0.20846520158E-01  0.10202765015E+01  0.10200022802E+01 0.  0.
     999903    2    3    3    0    0 -0.12713013278E+00  0.11513503376E-01 -0.11873369886E-01  0.12967351275E+00  0.19483623240E-01 0.  0.
         14    1    1    2    0    0 -0.59074100375E-02 -0.94875231071E-02 -0.20846520158E-01  0.23653498488E-01  0.00000000000E+00 0.  1.
     999901    1    3    3    0    0  0.13303754282E+00 -0.20259802690E-02  0.32719890044E-01  0.89060298877E+00  0.88000000000E+00 0. -1.
        -11    1    4    4    0    0 -0.60519562162E-01  0.97614023955E-02  0.30783575202E-02  0.61381102850E-01  0.51100000000E-03 0.  1.
         11    1    4    4    0    0 -0.66610570618E-01  0.17521009807E-02 -0.14951727406E-01  0.68292409895E-01  0.51100000000E-03 0. -1.
</event>
<event>
 7    1  0.1162192E+005  0.1043930E+01  0.7957747E-01            NaN
         13   -1    0    0    0    0  0.00000000000E+00  0.00000000000E+00  0.74505805969E-08  0.10566000000E+00  0.10566000000E+00 0. -1.
     999900   -1    0    0    0    0 -0.00000000000E+00 -0.00000000000E+00 -0.74505805969E-08  0.93827000000E+00  0.93827000000E+00 0.  1.
     999903    2    1    2    0    0 -0.84226883641E-01 -0.14141187487E-01 -0.18046109996E-01  0.89460114849E-01  0.19578277541E-01 0.  0.
         14    1    1    2    0    0 -0.55851920886E-01 -0.15104695036E-02  0.29495097845E-01  0.63179738696E-01  0.00000000000E+00 0.  1.
     999901    1    1    2    0    0  0.14007880453E+00  0.15651656991E-01 -0.11448987849E-01  0.89129014645E+00  0.88000000000E+00 0. -1.
        -11    1    3    3    0    0 -0.70683418890E-01 -0.14969708300E-01 -0.21621725807E-01  0.75418817416E-01  0.51100000000E-03 0.  1.
         11    1    3    3    0    0 -0.13543464751E-01  0.82852081237E-03  0.35756158103E-02  0.14041297433E-01  0.51100000000E-03 0. -1.
</event>
<event>
 8    1  0.1162192E+005  0.1043930E+01  0.7957747E-01            NaN
         13   -1    0    0    0    0  0.00000000000E+00  0.00000000000E+00  0.74505805969E-08  0.10566000000E+00  0.10566000000E+00 0.  1.
     999900   -1    0    0    0    0 -0.00000000000E+00 -0.00000000000E+00 -0.74505805969E-08  0.93827000000E+00  0.93827000000E+00 0. -1.
     999902    2    1    2    0    0  0.17538715461E-01 -0.64539666356E-02 -0.15342593516E-01  0.10197503515E+01  0.10194636453E+01 0.  0.
     999903    2    3    3    0    0  0.76801616669E-01  0.75408226248E-01  0.69888449832E-01  0.12987516878E+00  0.19956831848E-01 0.  0.
         14    1    1    2    0    0 -0.17538715461E-01  0.64539666356E-02  0.15342593516E-01  0.24179648491E-01  0.00000000000E+00 0.  1.
     999901    1    3    3    0    0 -0.59262901209E-01 -0.81862192884E-01 -0.85231043348E-01  0.88987518273E+00  0.88000000000E+00 0. -1.
        -11    1    4    4    0    0  0.55181874238E-01  0.58060116629E-01  0.41574756039E-01  0.90248201357E-01  0.51100000000E-03 0. -1.
         11    1    4    4    0    0  0.21619742431E-01  0.17348109619E-01  0.28313693793E-01  0.39626967426E-01  0.51100000000E-03 0.  1.
</event>
<event>
 8    1  0.1162192E+005  0.1043930E+01  0.7957747E-01            NaN
         13   -1    0    0    0    0  0.00000000000E+00  0.00000000000E+00  0.74505805969E-08  0.10566000000E+00  0.10566000000E+00 0. -1.
     999900   -1    0    0    0    0 -0.00000000000E+00 -0.00000000000E+00 -0.74505805969E-08  0.93827000000E+00  0.93827000000E+00 0. -1.
     999902    2    1    2    0    0 -0.23013470376E-01 -0.31935973420E-02  0.21277351033E-02  0.10205987733E+01  0.10203320587E+01 0.  0.
     999903    2    3    3    0    0  0.70524281278E-01 -0.41588114119E-01 -0.97506764397E-01  0.12922316033E+00  0.22086434228E-01 0.  0.
         14    1    1    2    0    0  0.23013470376E-01  0.31935973420E-02 -0.21277351033E-02  0.23331226701E-01  0.00000000000E+00 0.  1.
     999901    1    3    3    0    0 -0.93537751654E-01  0.38394516777E-01  0.99634499500E-01  0.89137561297E+00  0.88000000000E+00 0.  1.
        -11    1    4    4    0    0  0.40243563652E-01 -0.33138296792E-01 -0.49868852906E-01  0.72144679228E-01  0.51100000000E-03 0. -1.
         11    1    4    4    0    0  0.30280717626E-01 -0.84498173265E-02 -0.47637911491E-01  0.57078481103E-01  0.51100000000E-03 0.  1.
</event>
<event>
 8    1  0.1162192E+005  0.1043930E+01  0.7957747E-01            NaN
         13   -1    0    0    0    0  0.00000000000E+00  0.00000000000E+00  0.74505805969E-08  0.10566000000E+00  0.10566000000E+00 0. -1.
     999900   -1    0    0    0    0 -0.00000000000E+00 -0.00000000000E+00 -0.74505805969E-08  0.93827000000E+00  0.93827000000E+00 0.  1.
     999902    2    1    2    0    0  0.73675876677E-02 -0.16687079249E-01 -0.14023280488E-01  0.10209214721E+01  0.10206621673E+01 0.  0.
     999903    2    3    3    0    0  0.97327557094E-01 -0.83072676048E-01 -0.33190083989E-01  0.13364067665E+00  0.19609332086E-01 0.  0.
         14    1    1    2    0    0 -0.73675876677E-02  0.16687079249E-01  0.14023280488E-01  0.23008527931E-01  0.00000000000E+00 0. -1.
     999901    1    3    3    0    0 -0.89959969427E-01  0.66385596799E-01  0.19166803501E-01  0.88728079542E+00  0.88000000000E+00 0. -1.
        -11    1    4    4    0    0  0.83404657543E-01 -0.78860059868E-01 -0.27659432503E-01  0.11807011167E+00  0.51100000000E-03 0.  1.
         11    1    4    4    0    0  0.13922899551E-01 -0.42126161807E-02 -0.55306514859E-02  0.15570564982E-01  0.51100000000E-03 0. -1.
</event>
<event>
 8    1  0.1162192E+005  0.1043930E+01  0.7957747E-01            NaN
         13   -1    0    0    0    0  0.00000000000E+00  0.00000000000E+00  0.74505805969E-08  0.10566000000E+00  0.10566000000E+00 0. -1.
     999900   -1    0    0    0    0 -0.00000000000E+00 -0.00000000000E+00 -0.74505805969E-08  0.93827000000E+00  0.93827000000E+00 0.  1.
     999902    2    1    2    0    0 -0.25734903704E-01  0.75774687647E-02 -0.21824935741E-02  0.10170140832E+01  0.10166578474E+01 0.  0.
     999903    2    3    3    0    0 -0.10784230559E+00  0.65915395492E-01 -0.27845652882E-01  0.13089697075E+00  0.19591690327E-01 0.  0.
         14    1    1    2    0    0  0.25734903704E-01 -0.75774687647E-02  0.21824935741E-02  0.26915916847E-01  0.00000000000E+00 0. -1.
     999901    1    3    3    0    0  0.82107401888E-01 -0.58337926728E-01  0.25663159308E-01  0.88611711240E+00  0.88000000000E+00 0. -1.
        -11    1    4    4    0    0 -0.70417746788E-01  0.46283321963E-01 -0.94267002922E-02  0.84793447589E-01  0.51100000000E-03 0. -1.
         11    1    4    4    0    0 -0.37424558804E-01  0.19632073530E-01 -0.18418952590E-01  0.46103523165E-01  0.51100000000E-03 0.  1.
</event>
<event>
 8    1  0.1162192E+005  0.1043930E+01  0.7957747E-01            NaN
         13   -1    0    0    0    0  0.00000000000E+00  0.00000000000E+00  0.74505805969E-08  0.10566000000E+00  0.10566000000E+00 0. -1.
     999900   -1    0    0    0    0 -0.00000000000E+00 -0.00000000000E+00 -0.74505805969E-08  0.93827000000E+00  0.93827000000E+00 0. -1.
     999902    2    1    2    0    0 -0.20881041862E-01  0.67699732484E-02  0.24826037177E-01  0.10107911622E+01  0.10102477870E+01 0.  0.
     999903    2    3    3    0    0  0.10054723382E+00  0.61994656268E-01  0.14852590284E-01  0.12068214565E+00  0.19761002120E-01 0.  0.
         14    1    1    2    0    0  0.20881041862E-01 -0.67699732484E-02 -0.24826037177E-01  0.33138837773E-01  0.00000000000E+00 0.  1.
     999901    1    3    3    0    0 -0.12142827569E+00 -0.55224683020E-01  0.99734468920E-02  0.89010901658E+00  0.88000000000E+00 0.  1.
        -11    1    4    4    0    0  0.28968082317E-01  0.14542695467E-01  0.12574833906E-01  0.34771070638E-01  0.51100000000E-03 0.  1.
         11    1    4    4    0    0  0.71579151508E-01  0.47451960801E-01  0.22777563782E-02  0.85911075011E-01  0.51100000000E-03 0. -1.
</event>
<event>
 8    1  0.1162192E+005  0.1043930E+01  0.7957747E-01            NaN
         13   -1    0    0    0    0  0.00000000000E+00  0.00000000000E+00  0.74505805969E-08  0.10566000000E+00  0.10566000000E+00 0. -1.
     999900   -1    0    0    0    0 -0.00000000000E+00 -0.00000000000E+00 -0.74505805969E-08  0.93827000000E+00  0.93827000000E+00 0. -1.
     999902    2    1    2    0    0  0.12644659744E-01  0.87941995503E-03 -0.22427206414E-01  0.10181687813E+01  0.10178428302E+01 0.  0.
     999903    2    3    3    0    0  0.10091313211E+00  0.27500477814E-01 -0.77479955541E-01  0.13164139365E+00  0.19661548739E-01 0.  0.
         14    1    1    2    0    0 -0.12644659744E-01 -0.87941995503E-03  0.22427206414E-01  0.25761218664E-01  0.00000000000E+00 0.  1.
     999901    1    3    3    0    0 -0.88268472366E-01 -0.26621057859E-01  0.55052749127E-01  0.88652738769E+00  0.88000000000E+00 0.  1.
        -11    1    4    4    0    0  0.58926443894E-01  0.60539735269E-02 -0.41423685915E-01  0.72285263098E-01  0.51100000000E-03 0.  1.
         11    1    4    4    0    0  0.41986688216E-01  0.21446504288E-01 -0.36056269626E-01  0.59356130550E-01  0.51100000000E-03 0. -1.
</event>
<event>
 8    1  0.1162192E+005  0.1043930E+01  0.7957747E-01            NaN
         13   -1    0    0    0    0  0.00000000000E+00  0.00000000000E+00  0.74505805969E-08  0.10566000000E+00  0.10566000000E+00 0.  1.
     999900   -1    0    0    0    0 -0.00000000000E+00 -0.00000000000E+00 -0.74505805969E-08  0.93827000000E+00  0.93827000000E+00 0.  1.
     999902    2    1    2    0    0 -0.13505272730E-02 -0.50847125998E-02  0.25203990778E-01  0.10181827792E+01  0.10178571867E+01 0.  0.
     999903    2    3    3    0    0 -0.48248822159E-01 -0.11735324135E+00 -0.12720404947E-01  0.12900229564E+00  0.19494909131E-01 0.  0.
         14    1    1    2    0    0  0.13505272730E-02  0.50847125998E-02 -0.25203990778E-01  0.25747220768E-01  0.00000000000E+00 0. -1.
     999901    1    3    3    0    0  0.46898294886E-01  0.11226852875E+00  0.37924395725E-01  0.88918048359E+00  0.88000000000E+00 0. -1.
        -11    1    4    4    0    0 -0.33408666792E-01 -0.65200428788E-01  0.17980115315E-03  0.73263417750E-01  0.51100000000E-03 0. -1.
         11    1    4    4    0    0 -0.14840155367E-01 -0.52152812567E-01 -0.12900206100E-01  0.55738877889E-01  0.51100000000E-03 0.  1.
</event>
<event>
 8    1  0.1162192E+005  0.1043930E+01  0.7957747E-01            NaN
         13   -1    0    0    0    0  0.00000000000E+00  0.00000000000E+00  0.74505805969E-08  0.10566000000E+00  0.10566000000E+00 0.  1.
     999900   -1    0    0    0    0 -0.00000000000E+00 -0.00000000000E+00 -0.74505805969E-08  0.93827000000E+00  0.93827000000E+00 0. -1.
     999902    2    1    2    0    0  0.12473533829E-02 -0.14536376872E-01 -0.18543232481E-01  0.10203352206E+01  0.10200623750E+01 0.  0.
     999903    2    3    3    0    0  0.91565143952E-01  0.55874475480E-02  0.88500657491E-01  0.12903242921E+00  0.20040116117E-01 0.  0.
         14    1    1    2    0    0 -0.12473533829E-02  0.14536376872E-01  0.18543232481E-01  0.23594779378E-01  0.00000000000E+00 0.  1.
     999901    1    3    3    0    0 -0.90317790569E-01 -0.20123824420E-01 -0.10704388997E+00  0.89130279141E+00  0.88000000000E+00 0. -1.
        -11    1    4    4    0    0  0.80596876181E-01  0.73270801735E-02  0.85026040160E-01  0.11738496999E+00  0.51100000000E-03 0.  1.
         11    1    4    4    0    0  0.10968267771E-01 -0.17396326255E-02  0.34746173307E-02  0.11647459215E-01  0.51100000000E-03 0. -1.
</event>
<event>
 8    1  0.1162192E+005  0.1043930E+01  0.7957747E-01            NaN
         13   -1    0    0    0    0  0.00000000000E+00  0.00000000000E+00  0.74505805969E-08  0.10566000000E+00  0.10566000000E+00 0.  1.
     999900   -1    0    0    0    0 -0.00000000000E+00 -0.00000000000E+00 -0.74505805969E-08  0.93827000000E+00  0.93827000000E+00 0. -1.
     999902    2    1    2    0    0 -0.14619290454E-01 -0.10369762539E-01  0.15650650338E-01  0.10201350744E+01  0.10198575251E+01 0.  0.
     999903    2    3    3    0    0 -0.91273964797E-01 -0.31059823674E-01  0.90011846341E-01  0.13343692666E+00  0.20189889007E-01 0.  0.
         14    1    1    2    0    0  0.14619290454E-01  0.10369762539E-01 -0.15650650338E-01  0.23794925604E-01  0.00000000000E+00 0.  1.
     999901    1    3    3    0    0  0.76654674343E-01  0.20690061135E-01 -0.74361196004E-01  0.88669814774E+00  0.88000000000E+00 0. -1.
        -11    1    4    4    0    0 -0.21728538861E-01 -0.97752278074E-02  0.34548902782E-01  0.41971088670E-01  0.51100000000E-03 0.  1.
         11    1    4    4    0    0 -0.69545425936E-01 -0.21284595867E-01  0.55462943559E-01  0.91465837989E-01  0.51100000000E-03 0. -1.
</event>
<event>
 8    1  0.1162192E+005  0.1043930E+01  0.7957747E-01            NaN
         13   -1    0    0    0    0  0.00000000000E+00  0.00000000000E+00  0.74505805969E-08  0.10566000000E+00  0.10566000000E+00 0.  1.
     999900   -1    0    0    0    0 -0.00000000000E+00 -0.00000000000E+00 -0.74505805969E-08  0.93827000000E+00  0.93827000000E+00 0.  1.
     999902    2    1    2    0    0 -0.29845827317E-02  0.20046034955E-01 -0.13800436841E-01  0.10194105524E+01  0.10191156319E+01 0.  0.
     999903    2    3    3    0    0 -0.10163530004E+00  0.53961615317E-01 -0.61364042054E-01  0.13197349712E+00  0.20245200527E-01 0.  0.
         14    1    1    2    0    0  0.29845827317E-02 -0.20046034955E-01  0.13800436841E-01  0.24519447557E-01  0.00000000000E+00 0. -1.
     999901    1    3    3    0    0  0.98650717304E-01 -0.33915580362E-01  0.47563605213E-01  0.88743705532E+00  0.88000000000E+00 0. -1.
        -11    1    4    4    0    0 -0.52453679647E-01  0.23986541131E-01 -0.19953911380E-01  0.61034108205E-01  0.51100000000E-03 0. -1.
         11    1    4    4    0    0 -0.49181620388E-01  0.29975074186E-01 -0.41410130675E-01  0.70939388917E-01  0.51100000000E-03 0.  1.
</event>
<event>
 8    1  0.1162192E+005  0.1043930E+01  0.7957747E-01            NaN
         13   -1    0    0    0    0  0.00000000000E+00  0.00000000000E+00  0.74505805969E-08  0.10566000000E+00  0.10566000000E+00 0. -1.
     999900   -1    0    0    0    0 -0.00000000000E+00 -0.00000000000E+00 -0.74505805969E-08  0.93827000000E+00  0.93827000000E+00 0. -1.
     999902    2    1    2    0    0  0.28192653945E-02  0.48256781373E-02  0.23215795932E-01  0.10200509588E+01  0.10197714205E+01 0.  0.
     999903    2    3    3    0    0 -0.32609751402E-01 -0.74384159729E-03  0.12695800041E+00  0.13323154103E+00  0.23840311858E-01 0.  0.
         14    1    1    2    0    0 -0.28192653945E-02 -0.48256781373E-02 -0.23215795932E-01  0.23879041178E-01  0.00000000000E+00 0.  1.
     999901    1    3    3    0    0  0.35429016797E-01  0.55695197346E-02 -0.10374220448E+00  0.88681941779E+00  0.88000000000E+00 0. -1.
        -11    1    4    4    0    0 -0.57361720238E-02 -0.73851574168E-02  0.60750437013E-01  0.61468048105E-01  0.51100000000E-03 0. -1.
         11    1    4    4    0    0 -0.26873579378E-01  0.66413158195E-02  0.66207563400E-01  0.71763492925E-01  0.51100000000E-03 0.  1.
</event>
<event>
 8    1  0.1162192E+005  0.1043930E+01  0.7957747E-01            NaN
         13   -1    0    0    0    0  0.00000000000E+00  0.00000000000E+00  0.74505805969E-08  0.10566000000E+00  0.10566000000E+00 0. -1.
     999900   -1    0    0    0    0 -0.00000000000E+00 -0.00000000000E+00 -0.74505805969E-08  0.93827000000E+00  0.93827000000E+00 0. -1.
     999902    2    1    2    0    0 -0.17351213940E-01 -0.61511537328E-02  0.14652689235E-01  0.10204012385E+01  0.10201299353E+01 0.  0.
     999903    2    3    3    0    0  0.92034795085E-03  0.55652757074E-01 -0.11454959155E+00  0.12863512410E+00  0.18091705774E-01 0.  0.
         14    1    1    2    0    0  0.17351213940E-01  0.61511537328E-02 -0.14652689235E-01  0.23528761533E-01  0.00000000000E+00 0. -1.
     999901    1    3    3    0    0 -0.18271561891E-01 -0.61803910807E-01  0.12920228079E+00  0.89176611436E+00  0.88000000000E+00 0.  1.
        -11    1    4    4    0    0  0.50141594461E-02  0.36829927194E-01 -0.57976678964E-01  0.68870470862E-01  0.51100000000E-03 0. -1.
         11    1    4    4    0    0 -0.40938114953E-02  0.18822829880E-01 -0.56572912590E-01  0.59764653242E-01  0.51100000000E-03 0.  1.
</event>
<event>
 8    1  0.1162192E+005  0.1043930E+01  0.7957747E-01            NaN
         13   -1    0    0    0    0  0.00000000000E+00  0.00000000000E+00  0.74505805969E-08  0.10566000000E+00  0.10566000000E+00 0. -1.
     999900   -1    0    0    0    0 -0.00000000000E+00 -0.00000000000E+00 -0.74505805969E-08  0.93827000000E+00  0.93827000000E+00 0.  1.
     999902    2    1    2    0    0 -0.16610018263E-02  0.61369968549E-02 -0.21204939873E-01  0.10217924497E+01  0.10215526120E+01 0.  0.
     999903    2    3    3    0    0  0.66861044213E-02  0.11851633204E+00 -0.59253588494E-01  0.13379104836E+00  0.17269392533E-01 0.  0.
         14    1    1    2    0    0  0.16610018263E-02 -0.61369968549E-02  0.21204939873E-01  0.22137550282E-01  0.00000000000E+00 0. -1.
     999901    1    3    3    0    0 -0.83471062476E-02 -0.11237933518E+00  0.38048648621E-01  0.88800140136E+00  0.88000000000E+00 0. -1.
        -11    1    4    4    0    0 -0.21199324163E-03  0.50058660422E-01 -0.33911796819E-01  0.60466399834E-01  0.51100000000E-03 0.  1.
         11    1    4    4    0    0  0.68980976630E-02  0.68457671617E-01 -0.25341791675E-01  0.73324648522E-01  0.51100000000E-03 0. -1.
</event>
<event>
 8    1  0.1162192E+005  0.1043930E+01  0.7957747E-01            NaN
         13   -1    0    0    0    0  0.00000000000E+00  0.00000000000E+00  0.74505805969E-08  0.10566000000E+00  0.10566000000E+00 0. -1.
     999900   -1    0    0    0    0 -0.00000000000E+00 -0.00000000000E+00 -0.74505805969E-08  0.93827000000E+00  0.93827000000E+00 0.  1.
     999902    2    1    2    0    0  0.19671042460E-01  0.62532546208E-02 -0.11431974740E-01  0.10203345947E+01  0.10200617344E+01 0.  0.
     999903    2    3    3    0    0  0.53686937384E-01 -0.11448846285E+00  0.25922372629E-01  0.13065432027E+00  0.20215999352E-01 0.  0.
         14    1    1    2    0    0 -0.19671042460E-01 -0.62532546208E-02  0.11431974740E-01  0.23595405299E-01  0.00000000000E+00 0. -1.
     999901    1    3    3    0    0 -0.34015894924E-01  0.12074171747E+00 -0.37354347369E-01  0.88968027443E+00  0.88000000000E+00 0. -1.
        -11    1    4    4    0    0  0.11174867011E-01 -0.18436315373E-01 -0.28298297887E-02  0.21749584706E-01  0.51100000000E-03 0.  1.
         11    1    4    4    0    0  0.42512070373E-01 -0.96052147480E-01  0.28752202418E-01  0.10890473556E+00  0.51100000000E-03 0. -1.
</event>
<event>
 8    1  0.1162192E+005  0.1043930E+01  0.7957747E-01            NaN
         13   -1    0    0    0    0  0.00000000000E+00  0.00000000000E+00  0.74505805969E-08  0.10566000000E+00  0.10566000000E+00 0. -1.
     999900   -1    0    0    0    0 -0.00000000000E+00 -0.00000000000E+00 -0.74505805969E-08  0.93827000000E+00  0.93827000000E+00 0.  1.
     999902    2    1    2    0    0 -0.72208870552E-02  0.15502924010E-01 -0.16227182273E-01  0.10203545189E+01  0.10200821246E+01 0.  0.
     999903    2    3    3    0    0  0.11514893317E+00 -0.11954723009E-01  0.52787511308E-01  0.12878773893E+00  0.19939110755E-01 0.  0.
         14    1    1    2    0    0  0.72208870552E-02 -0.15502924010E-01  0.16227182273E-01  0.23575481061E-01  0.00000000000E+00 0. -1.
     999901    1    3    3    0    0 -0.12236982022E+00  0.27457647019E-01 -0.69014693580E-01  0.89156678001E+00  0.88000000000E+00 0.  1.
        -11    1    4    4    0    0  0.61429337366E-01 -0.13656550048E-01  0.35886236681E-01  0.72444102262E-01  0.51100000000E-03 0.  1.
         11    1    4    4    0    0  0.53719595801E-01  0.17018270389E-02  0.16901274627E-01  0.56343636671E-01  0.51100000000E-03 0. -1.
</event>
<event>
 8    1  0.1162192E+005  0.1043930E+01  0.7957747E-01            NaN
         13   -1    0    0    0    0  0.00000000000E+00  0.00000000000E+00  0.74505805969E-08  0.10566000000E+00  0.10566000000E+00 0.  1.
     999900   -1    0    0    0    0 -0.00000000000E+00 -0.00000000000E+00 -0.74505805969E-08  0.93827000000E+00  0.93827000000E+00 0.  1.
     999902    2    1    2    0    0  0.17427658528E-02  0.22886226808E-02  0.12133306363E-01  0.10314603509E+01  0.10313849733E+01 0.  0.
     999903    2    3    3    0    0 -0.25707801577E-01 -0.12930113323E+00  0.43930479842E-01  0.14068515039E+00  0.21971580822E-01 0.  0.
         14    1    1    2    0    0 -0.17427658528E-02 -0.22886226808E-02 -0.12133306363E-01  0.12469649149E-01  0.00000000000E+00 0. -1.
     999901    1    3    3    0    0  0.27450567430E-01  0.13158975591E+00 -0.31797173478E-01  0.89077520046E+00  0.88000000000E+00 0.  1.
        -11    1    4    4    0    0 -0.24599736061E-01 -0.10472172622E+00  0.27301137892E-01  0.11098378354E+00  0.51100000000E-03 0. -1.
         11    1    4    4    0    0 -0.11080655158E-02 -0.24579407013E-01  0.16629341950E-01  0.29701366854E-01  0.51100000000E-03 0.  1.
</event>
<event>
 8    1  0.1162192E+005  0.1043930E+01  0.7957747E-01            NaN
         13   -1    0    0    0    0  0.00000000000E+00  0.00000000000E+00  0.74505805969E-08  0.10566000000E+00  0.10566000000E+00 0.  1.
     999900   -1    0    0    0    0 -0.00000000000E+00 -0.00000000000E+00 -0.74505805969E-08  0.93827000000E+00  0.93827000000E+00 0.  1.
     999902    2    1    2    0    0 -0.17564218295E-01 -0.14050336498E-02  0.16267503174E-01  0.10199486001E+01  0.10196666314E+01 0.  0.
     999903    2    3    3    0    0 -0.12240167976E+00 -0.46158847024E-01 -0.37236930488E-02  0.13237131043E+00  0.19886869243E-01 0.  0.
         14    1    1    2    0    0  0.17564218295E-01  0.14050336498E-02 -0.16267503174E-01  0.23981399947E-01  0.00000000000E+00 0. -1.
     999901    1    3    3    0    0  0.10483746146E+00  0.44753813375E-01  0.19991196223E-01  0.88757728963E+00  0.88000000000E+00 0. -1.
        -11    1    4    4    0    0 -0.84976436633E-01 -0.39460005412E-01  0.30822896333E-02  0.93743524791E-01  0.51100000000E-03 0. -1.
         11    1    4    4    0    0 -0.37425243122E-01 -0.66988416127E-02 -0.68059826821E-02  0.38627785634E-01  0.51100000000E-03 0.  1.
</event>
<event>
 8    1  0.1162192E+005  0.1043930E+01  0.7957747E-01            NaN
         13   -1    0    0    0    0  0.00000000000E+00  0.00000000000E+00  0.74505805969E-08  0.10566000000E+00  0.10566000000E+00 0. -1.
     999900   -1    0    0    0    0 -0.00000000000E+00 -0.00000000000E+00 -0.74505805969E-08  0.93827000000E+00  0.93827000000E+00 0.  1.
     999902    2    1    2    0    0 -0.19360565221E-01  0.14136437861E-01 -0.63286149513E-02  0.10191364176E+01  0.10188347834E+01 0.  0.
     999903    2    3    3    0    0  0.16092532173E-01 -0.11710272021E+00 -0.44525492474E-01  0.12787908092E+00  0.19963045461E-01 0.  0.
         14    1    1    2    0    0  0.19360565221E-01 -0.14136437861E-01  0.63286149513E-02  0.24793582401E-01  0.00000000000E+00 0.  1.
     999901    1    3    3    0    0 -0.35453097394E-01  0.13123915808E+00  0.38196877522E-01  0.89125733668E+00  0.88000000000E+00 0. -1.
        -11    1    4    4    0    0  0.71004771462E-02 -0.10202849691E+00 -0.39169557314E-01  0.10952052912E+00  0.51100000000E-03 0. -1.
         11    1    4    4    0    0  0.89920550272E-02 -0.15074223301E-01 -0.53559351596E-02  0.18358551800E-01  0.51100000000E-03 0.  1.
</event>
<event>
 8    1  0.1162192E+005  0.1043930E+01  0.7957747E-01            NaN
         13   -1    0    0    0    0  0.00000000000E+00  0.00000000000E+00  0.74505805969E-08  0.10566000000E+00  0.10566000000E+00 0.  1.
     999900   -1    0    0    0    0 -0.00000000000E+00 -0.00000000000E+00 -0.74505805969E-08  0.93827000000E+00  0.93827000000E+00 0.  1.
     999902    2    1    2    0    0  0.21782705704E-01 -0.10748339876E-01  0.35825417160E-02  0.10193770433E+01  0.10190813062E+01 0.  0.
     999903    2    3    3    0    0  0.11856363173E+00  0.49910786353E-02  0.56157173113E-01  0.13237176214E+00  0.16923642774E-01 0.  0.
         14    1    1    2    0    0 -0.21782705704E-01  0.10748339876E-01 -0.35825417160E-02  0.24552956706E-01  0.00000000000E+00 0.  1.
     999901    1    3    3    0    0 -0.96780926022E-01 -0.15739418511E-01 -0.52574631397E-01  0.88700528116E+00  0.88000000000E+00 0.  1.
        -11    1    4    4    0    0  0.88713392118E-01  0.60215719680E-02  0.49492656798E-01  0.10176497171E+00  0.51100000000E-03 0. -1.
         11    1    4    4    0    0  0.29850239608E-01 -0.10304933327E-02  0.66645163143E-02  0.30606790421E-01  0.51100000000E-03 0.  1.
</event>
<event>
 8    1  0.1162192E+005  0.1043930E+01  0.7957747E-01            NaN
         13   -1    0    0    0    0  0.00000000000E+00  0.00000000000E+00  0.74505805969E-08  0.10566000000E+00  0.10566000000E+00 0. -1.
     999900   -1    0    0    0    0 -0.00000000000E+00 -0.00000000000E+00 -0.74505805969E-08  0.93827000000E+00  0.93827000000E+00 0. -1.
     999902    2    1    2    0    0 -0.17136042276E-01  0.17110507637E-01 -0.53863410355E-02  0.10191222172E+01  0.10188202332E+01 0.  0.
     999903    2    3    3    0    0  0.83825105051E-02 -0.41992388846E-01 -0.12034053216E+00  0.12931391485E+00  0.20164763596E-01 0.  0.
         14    1    1    2    0    0  0.17136042276E-01 -0.17110507637E-01  0.53863410355E-02  0.24807782775E-01  0.00000000000E+00 0. -1.
     999901    1    3    3    0    0 -0.25518552781E-01  0.59102896483E-01  0.11495419113E+00  0.88980830237E+00  0.88000000000E+00 0.  1.
        -11    1    4    4    0    0  0.97206172887E-02 -0.39856867804E-01 -0.90535666772E-01  0.99398331930E-01  0.51100000000E-03 0. -1.
         11    1    4    4    0    0 -0.13381067836E-02 -0.21355210429E-02 -0.29804865389E-01  0.29915582925E-01  0.51100000000E-03 0.  1.
</event>
<event>
 8    1  0.1162192E+005  0.1043930E+01  0.7957747E-01            NaN
         13   -1    0    0    0    0  0.00000000000E+00  0.00000000000E+00  0.74505805969E-08  0.10566000000E+00  0.10566000000E+00 0.  1.
     999900   -1    0    0    0    0 -0.00000000000E+00 -0.00000000000E+00 -0.74505805969E-08  0.93827000000E+00  0.93827000000E+00 0.  1.
     999902    2    1    2    0    0 -0.19364001942E-01  0.17574075093E-01 -0.30463627825E-02  0.10176033403E+01  0.10172627316E+01 0.  0.
     999903    2    3    3    0    0 -0.41569852036E-01 -0.20102695168E-01  0.11784810450E+00  0.12826194855E+00  0.20755258601E-01 0.  0.
         14    1    1    2    0    0  0.19364001942E-01 -0.17574075093E-01  0.30463627825E-02  0.26326659734E-01  0.00000000000E+00 0. -1.
     999901    1    3    3    0    0  0.22205850095E-01  0.37676770261E-01 -0.12089446729E+00  0.88934139171E+00  0.88000000000E+00 0.  1.
        -11    1    4    4    0    0 -0.75776534758E-02 -0.13396046311E-01  0.45685823330E-01  0.48211310533E-01  0.51100000000E-03 0.  1.
         11    1    4    4    0    0 -0.33992198560E-01 -0.67066488569E-02  0.72162281174E-01  0.80050638018E-01  0.51100000000E-03 0. -1.
</event>
<event>
 8    1  0.1162192E+005  0.1043930E+01  0.7957747E-01            NaN
         13   -1    0    0    0    0  0.00000000000E+00  0.00000000000E+00  0.74505805969E-08  0.10566000000E+00  0.10566000000E+00 0.  1.
     999900   -1    0    0    0    0 -0.00000000000E+00 -0.00000000000E+00 -0.74505805969E-08  0.93827000000E+00  0.93827000000E+00 0.  1.
     999902    2    1    2    0    0  0.21204084894E-01  0.48989315493E-02 -0.91774528184E-02  0.10203113974E+01  0.10200379941E+01 0.  0.
     999903    2    3    3    0    0  0.88887383668E-01 -0.80338047928E-01  0.50731235598E-01  0.13158454258E+00  0.19638346698E-01 0.  0.
         14    1    1    2    0    0 -0.21204084894E-01 -0.48989315493E-02  0.91774528184E-02  0.23618602557E-01  0.00000000000E+00 0. -1.
     999901    1    3    3    0    0 -0.67683298775E-01  0.85236979477E-01 -0.59908688416E-01  0.88872685486E+00  0.88000000000E+00 0.  1.
        -11    1    4    4    0    0  0.51871299342E-01 -0.50409757345E-01  0.40478762976E-01  0.82888881668E-01  0.51100000000E-03 0.  1.
         11    1    4    4    0    0  0.37016084326E-01 -0.29928290582E-01  0.10252472622E-01  0.48695660914E-01  0.51100000000E-03 0. -1.
</event>
<event>
 8    1  0.1162192E+005  0.1043930E+01  0.7957747E-01            NaN
         13   -1    0    0    0    0  0.00000000000E+00  0.00000000000E+00  0.74505805969E-08  0.10566000000E+00  0.10566000000E+00 0.  1.
     999900   -1    0    0    0    0 -0.00000000000E+00 -0.00000000000E+00 -0.74505805969E-08  0.93827000000E+00  0.93827000000E+00 0.  1.
     999902    2    1    2    0    0 -0.68348826795E-02 -0.10439231758E-01 -0.20106897334E-01  0.10202660929E+01  0.10199916273E+01 0.  0.
     999903    2    3    3    0    0 -0.42336351937E-02 -0.12811022175E+00 -0.27081372040E-01  0.13240243684E+00  0.19153380530E-01 0.  0.
         14    1    1    2    0    0  0.68348826795E-02  0.10439231758E-01  0.20106897334E-01  0.23663907144E-01  0.00000000000E+00 0.  1.
     999901    1    3    3    0    0 -0.26012474857E-02  0.11767098999E+00  0.69744747063E-02  0.88786365601E+00  0.88000000000E+00 0.  1.
        -11    1    4    4    0    0 -0.46768025309E-02 -0.96125454067E-01 -0.28522325553E-01  0.10037808315E+00  0.51100000000E-03 0.  1.
         11    1    4    4    0    0  0.44316733722E-03 -0.31984767684E-01  0.14409535130E-02  0.32024353688E-01  0.51100000000E-03 0. -1.
</event>
<event>
 8    1  0.1162192E+005  0.1043930E+01  0.7957747E-01            NaN
         13   -1    0    0    0    0  0.00000000000E+00  0.00000000000E+00  0.74505805969E-08  0.10566000000E+00  0.10566000000E+00 0. -1.
     999900   -1    0    0    0    0 -0.00000000000E+00 -0.00000000000E+00 -0.74505805969E-08  0.93827000000E+00  0.93827000000E+00 0. -1.
     999902    2    1    2    0    0 -0.26157247194E-01  0.28374016446E-02 -0.43985698982E-02  0.10172541711E+01  0.10169043460E+01 0.  0.
     999903    2    3    3    0    0  0.80109024258E-01  0.93805949413E-01 -0.16762757833E-01  0.12611968617E+00  0.20203298681E-01 0.  0.
         14    1    1    2    0    0  0.26157247194E-01 -0.28374016446E-02  0.43985698982E-02  0.26675828872E-01  0.00000000000E+00 0. -1.
     999901    1    3    3    0    0 -0.10626627145E+00 -0.90968547768E-01  0.12364187935E-01  0.89113448495E+00  0.88000000000E+00 0. -1.
        -11    1    4    4    0    0  0.53429133699E-01  0.75973363294E-01 -0.11357173982E-01  0.93572810046E-01  0.51100000000E-03 0. -1.
         11    1    4    4    0    0  0.26679890559E-01  0.17832586119E-01 -0.54055838509E-02  0.32546876128E-01  0.51100000000E-03 0.  1.
</event>
<event>
 8    1  0.1162192E+005  0.1043930E+01  0.7957747E-01            NaN
         13   -1    0    0    0    0  0.00000000000E+00  0.00000000000E+00  0.74505805969E-08  0.10566000000E+00  0.10566000000E+00 0.  1.
     999900   -1    0    0    0    0 -0.00000000000E+00 -0.00000000000E+00 -0.74505805969E-08  0.93827000000E+00  0.93827000000E+00 0.  1.
     999902    2    1    2    0    0  0.19352627702E-01  0.35551363821E-02  0.10752817353E-01  0.10215071038E+01  0.10212609739E+01 0.  0.
     999903    2    3    3    0    0  0.11853595414E+00  0.22039416075E-01 -0.53540284138E-01  0.13341217432E+00  0.19893163304E-01 0.  0.
         14    1    1    2    0    0 -0.19352627702E-01 -0.35551363821E-02 -0.10752817353E-01  0.22422896215E-01  0.00000000000E+00 0. -1.
     999901    1    3    3    0    0 -0.99183326441E-01 -0.18484279692E-01  0.64293101491E-01  0.88809492946E+00  0.88000000000E+00 0.  1.
        -11    1    4    4    0    0  0.54323892370E-01  0.92354628396E-02 -0.35293694100E-01  0.65439170382E-01  0.51100000000E-03 0.  1.
         11    1    4    4    0    0  0.64212061773E-01  0.12803953235E-01 -0.18246590038E-01  0.67973003939E-01  0.51100000000E-03 0. -1.
</event>
<event>
 8    1  0.1162192E+005  0.1043930E+01  0.7957747E-01            NaN
         13   -1    0    0    0    0  0.00000000000E+00  0.00000000000E+00  0.74505805969E-08  0.10566000000E+00  0.10566000000E+00 0.  1.
     999900   -1    0    0    0    0 -0.00000000000E+00 -0.00000000000E+00 -0.74505805969E-08  0.93827000000E+00  0.93827000000E+00 0. -1.
     999902    2    1    2    0    0  0.54982040123E-02  0.82958875911E-02 -0.22014984825E-01  0.10197698768E+01  0.10194836389E+01 0.  0.
     999903    2    3    3    0    0 -0.24265281559E-02 -0.12333682852E+00  0.29902862650E-01  0.12843075150E+00  0.19555444969E-01 0.  0.
         14    1    1    2    0    0 -0.54982040123E-02 -0.82958875911E-02  0.22014984825E-01  0.24160123244E-01  0.00000000000E+00 0.  1.
     999901    1    3    3    0    0  0.79247321682E-02  0.13163271611E+00 -0.51917847476E-01  0.89133912526E+00  0.88000000000E+00 0. -1.
        -11    1    4    4    0    0 -0.14613265691E-02 -0.71760307472E-01  0.74306856643E-02  0.72160608467E-01  0.51100000000E-03 0. -1.
         11    1    4    4    0    0 -0.96520158683E-03 -0.51576521046E-01  0.22472176986E-01  0.56270143031E-01  0.51100000000E-03 0.  1.
</event>
<event>
 8    1  0.1162192E+005  0.1043930E+01  0.7957747E-01            NaN
         13   -1    0    0    0    0  0.00000000000E+00  0.00000000000E+00  0.74505805969E-08  0.10566000000E+00  0.10566000000E+00 0. -1.
     999900   -1    0    0    0    0 -0.00000000000E+00 -0.00000000000E+00 -0.74505805969E-08  0.93827000000E+00  0.93827000000E+00 0. -1.
     999902    2    1    2    0    0 -0.10301309969E-01 -0.20492957413E-01 -0.28703270501E-02  0.10208147006E+01  0.10205529559E+01 0.  0.
     999903    2    3    3    0    0 -0.31210246635E-01 -0.12820240222E+00 -0.12608479917E-01  0.13394755169E+00  0.19314176312E-01 0.  0.
         14    1    1    2    0    0  0.10301309969E-01  0.20492957413E-01  0.28703270501E-02  0.23115299435E-01  0.00000000000E+00 0. -1.
     999901    1    3    3    0    0  0.20908936666E-01  0.10770944481E+00  0.97381528667E-02  0.88686714888E+00  0.88000000000E+00 0.  1.
        -11    1    4    4    0    0 -0.14946002846E-01 -0.69712714484E-01 -0.16251146030E-01  0.73127330254E-01  0.51100000000E-03 0. -1.
         11    1    4    4    0    0 -0.16264243789E-01 -0.58489687740E-01  0.36426661136E-02  0.60820221435E-01  0.51100000000E-03 0.  1.
</event>
<event>
 8    1  0.1162192E+005  0.1043930E+01  0.7957747E-01            NaN
         13   -1    0    0    0    0  0.00000000000E+00  0.00000000000E+00  0.74505805969E-08  0.10566000000E+00  0.10566000000E+00 0. -1.
     999900   -1    0    0    0    0 -0.00000000000E+00 -0.00000000000E+00 -0.74505805969E-08  0.93827000000E+00  0.93827000000E+00 0.  1.
     999902    2    1    2    0    0 -0.49500123999E-02  0.15833343120E-01  0.17142191742E-01  0.10200751868E+01  0.10197962221E+01 0.  0.
     999903    2    3    3    0    0  0.87025652916E-01 -0.89328434884E-01 -0.21066824178E-01  0.12823526196E+00  0.21152725242E-01 0.  0.
         14    1    1    2    0    0  0.49500123999E-02 -0.15833343120E-01 -0.17142191742E-01  0.23854813242E-01  0.00000000000E+00 0.  1.
     999901    1    3    3    0    0 -0.91975665316E-01  0.10516177800E+00  0.38209015920E-01  0.89183992480E+00  0.88000000000E+00 0. -1.
        -11    1    4    4    0    0  0.15093693504E-01 -0.11214651950E-01  0.37578136610E-02  0.19182551615E-01  0.51100000000E-03 0.  1.
         11    1    4    4    0    0  0.71931959412E-01 -0.78113782934E-01 -0.24824637839E-01  0.10905271035E+00  0.51100000000E-03 0. -1.
</event>
<event>
 8    1  0.1162192E+005  0.1043930E+01  0.7957747E-01            NaN
         13   -1    0    0    0    0  0.00000000000E+00  0.00000000000E+00  0.74505805969E-08  0.10566000000E+00  0.10566000000E+00 0. -1.
     999900   -1    0    0    0    0 -0.00000000000E+00 -0.00000000000E+00 -0.74505805969E-08  0.93827000000E+00  0.93827000000E+00 0. -1.
     999902    2    1    2    0    0 -0.10994065615E-01 -0.15134500523E-01 -0.14759301482E-01  0.10201022942E+01  0.10198239706E+01 0.  0.
     999903    2    3    3    0    0 -0.11171010336E+00  0.71282817793E-02  0.63435200644E-01  0.13063406433E+00  0.22611379636E-01 0.  0.
         14    1    1    2    0    0  0.10994065615E-01  0.15134500523E-01  0.14759301482E-01  0.23827705829E-01  0.00000000000E+00 0.  1.
     999901    1    3    3    0    0  0.10071603774E+00 -0.22262782302E-01 -0.78194502126E-01  0.88946822984E+00  0.88000000000E+00 0.  1.
        -11    1    4    4    0    0 -0.11196569767E+00  0.59464047626E-02  0.60470203939E-01  0.12739145917E+00  0.51100000000E-03 0. -1.
         11    1    4    4    0    0  0.25559431429E-03  0.11818770167E-02  0.29649967054E-02  0.32426051562E-02  0.51100000000E-03 0.  1.
</event>
<event>
 8    1  0.1162192E+005  0.1043930E+01  0.7957747E-01            NaN
         13   -1    0    0    0    0  0.00000000000E+00  0.00000000000E+00  0.74505805969E-08  0.10566000000E+00  0.10566000000E+00 0. -1.
     999900   -1    0    0    0    0 -0.00000000000E+00 -0.00000000000E+00 -0.74505805969E-08  0.93827000000E+00  0.93827000000E+00 0. -1.
     999902    2    1    2    0    0  0.82735913031E-02  0.50249350011E-02  0.22650054559E-01  0.10192981658E+01  0.10190005022E+01 0.  0.
     999903    2    3    3    0    0 -0.10000294784E-01  0.20913038610E-01 -0.12315319028E+00  0.12697257894E+00  0.20444227733E-01 0.  0.
         14    1    1    2    0    0 -0.82735913031E-02 -0.50249350011E-02 -0.22650054559E-01  0.24631834206E-01  0.00000000000E+00 0.  1.
     999901    1    3    3    0    0  0.18273886087E-01 -0.15888103609E-01  0.14580324484E+00  0.89232558685E+00  0.88000000000E+00 0.  1.
        -11    1    4    4    0    0 -0.98816034948E-02  0.11140782367E-01 -0.32040063125E-01  0.35335391401E-01  0.51100000000E-03 0.  1.
         11    1    4    4    0    0 -0.11869128945E-03  0.97722562426E-02 -0.91113127152E-01  0.91637187539E-01  0.51100000000E-03 0. -1.
</event>
<event>
 8    1  0.1162192E+005  0.1043930E+01  0.7957747E-01            NaN
         13   -1    0    0    0    0  0.00000000000E+00  0.00000000000E+00  0.74505805969E-08  0.10566000000E+00  0.10566000000E+00 0. -1.
     999900   -1    0    0    0    0 -0.00000000000E+00 -0.00000000000E+00 -0.74505805969E-08  0.93827000000E+00  0.93827000000E+00 0.  1.
     999902    2    1    2    0    0  0.15884628692E-01 -0.28742590835E-02 -0.18135854640E-01  0.10196505433E+01  0.10193614366E+01 0.  0.
     999903    2    3    3    0    0  0.33997768819E-01 -0.10152627330E+00  0.70435961050E-01  0.12953522926E+00  0.18833973436E-01 0.  0.
         14    1    1    2    0    0 -0.15884628692E-01  0.28742590835E-02  0.18135854640E-01  0.24279456696E-01  0.00000000000E+00 0. -1.
     999901    1    3    3    0    0 -0.18113140127E-01  0.98652014221E-01 -0.88571815690E-01  0.89011531404E+00  0.88000000000E+00 0. -1.
        -11    1    4    4    0    0  0.22784948398E-01 -0.39304026180E-01  0.31414737234E-01  0.55236828149E-01  0.51100000000E-03 0. -1.
         11    1    4    4    0    0  0.11212820421E-01 -0.62222247125E-01  0.39021223816E-01  0.74298401114E-01  0.51100000000E-03 0.  1.
</event>
<event>
 8    1  0.1162192E+005  0.1043930E+01  0.7957747E-01            NaN
         13   -1    0    0    0    0  0.00000000000E+00  0.00000000000E+00  0.74505805969E-08  0.10566000000E+00  0.10566000000E+00 0. -1.
     999900   -1    0    0    0    0 -0.00000000000E+00 -0.00000000000E+00 -0.74505805969E-08  0.93827000000E+00  0.93827000000E+00 0.  1.
     999902    2    1    2    0    0  0.18784700869E-01 -0.86979489434E-02 -0.10123592012E-01  0.10208864235E+01  0.10206263191E+01 0.  0.
     999903    2    3    3    0    0  0.79510289038E-01  0.65468532834E-01 -0.81296404457E-01  0.13282458258E+00  0.20621578618E-01 0.  0.
         14    1    1    2    0    0 -0.18784700869E-01  0.86979489434E-02  0.10123592012E-01  0.23043576497E-01  0.00000000000E+00 0.  1.
     999901    1    3    3    0    0 -0.60725588169E-01 -0.74166481777E-01  0.71172812446E-01  0.88806184093E+00  0.88000000000E+00 0. -1.
        -11    1    4    4    0    0  0.61284130635E-01  0.53275955832E-01 -0.52790066402E-01  0.96856204599E-01  0.51100000000E-03 0.  1.
         11    1    4    4    0    0  0.18226158403E-01  0.12192577002E-01 -0.28506338055E-01  0.35968377978E-01  0.51100000000E-03 0. -1.
</event>
<event>
 8    1  0.1162192E+005  0.1043930E+01  0.7957747E-01            NaN
         13   -1    0    0    0    0  0.00000000000E+00  0.00000000000E+00  0.74505805969E-08  0.10566000000E+00  0.10566000000E+00 0. -1.
     999900   -1    0    0    0    0 -0.00000000000E+00 -0.00000000000E+00 -0.74505805969E-08  0.93827000000E+00  0.93827000000E+00 0. -1.
     999902    2    1    2    0    0 -0.16840896284E-01  0.60652411357E-02  0.17946511504E-01  0.10185828066E+01  0.10182673783E+01 0.  0.
     999903    2    3    3    0    0  0.87256354063E-01  0.89824957339E-01  0.20362966320E-01  0.12849417796E+00  0.20344755784E-01 0.  0.
         14    1    1    2    0    0  0.16840896284E-01 -0.60652411357E-02 -0.17946511504E-01  0.25347193392E-01  0.00000000000E+00 0. -1.
     999901    1    3    3    0    0 -0.10409725035E+00 -0.83759716203E-01 -0.24164548159E-02  0.89008862864E+00  0.88000000000E+00 0.  1.
        -11    1    4    4    0    0  0.15245955034E-01  0.98015879510E-02  0.89965058942E-02  0.20241257633E-01  0.51100000000E-03 0.  1.
         11    1    4    4    0    0  0.72010399029E-01  0.80023369388E-01  0.11366460426E-01  0.10825292033E+00  0.51100000000E-03 0. -1.
</event>
<event>
 8    1  0.1162192E+005  0.1043930E+01  0.7957747E-01            NaN
         13   -1    0    0    0    0  0.00000000000E+00  0.00000000000E+00  0.74505805969E-08  0.10566000000E+00  0.10566000000E+00 0. -1.
     999900   -1    0    0    0    0 -0.00000000000E+00 -0.00000000000E+00 -0.74505805969E-08  0.93827000000E+00  0.93827000000E+00 0.  1.
     999902    2    1    2    0    0  0.36257956616E-02 -0.19175234181E-01 -0.13351523459E-01  0.10202847219E+01  0.10200106933E+01 0.  0.
     999903    2    3    3    0    0 -0.91838852869E-01  0.86713743962E-01  0.11891743190E-01  0.12845334916E+00  0.20129606685E-01 0.  0.
         14    1    1    2    0    0 -0.36257956616E-02  0.19175234181E-01  0.13351523459E-01  0.23645278149E-01  0.00000000000E+00 0. -1.
     999901    1    3    3    0    0  0.95464648530E-01 -0.10588897814E+00 -0.25243266649E-01  0.89183137269E+00  0.88000000000E+00 0. -1.
        -11    1    4    4    0    0 -0.72005316185E-01  0.62486565864E-01  0.16641460044E-01  0.96780864771E-01  0.51100000000E-03 0. -1.
         11    1    4    4    0    0 -0.19833536684E-01  0.24227178098E-01 -0.47497168543E-02  0.31672484386E-01  0.51100000000E-03 0.  1.
</event>
<event>
 8    1  0.1162192E+005  0.1043930E+01  0.7957747E-01            NaN
         13   -1    0    0    0    0  0.00000000000E+00  0.00000000000E+00  0.74505805969E-08  0.10566000000E+00  0.10566000000E+00 0. -1.
     999900   -1    0    0    0    0 -0.00000000000E+00 -0.00000000000E+00 -0.74505805969E-08  0.93827000000E+00  0.93827000000E+00 0. -1.
     999902    2    1    2    0    0  0.10423416758E-01 -0.12353080457E-02  0.21617741265E-01  0.10198987632E+01  0.10196156074E+01 0.  0.
     999903    2    3    3    0    0 -0.45346701158E-01  0.11196237032E-01 -0.11671421815E+00  0.12726189398E+00  0.19791460541E-01 0.  0.
         14    1    1    2    0    0 -0.10423416758E-01  0.12353080457E-02 -0.21617741265E-01  0.24031236762E-01  0.00000000000E+00 0.  1.
     999901    1    3    3    0    0  0.55770117917E-01 -0.12431545078E-01  0.13833195942E+00  0.89263686926E+00  0.88000000000E+00 0.  1.
        -11    1    4    4    0    0 -0.17482602396E-01  0.11277837623E-02 -0.22639442052E-01  0.28630730696E-01  0.51100000000E-03 0.  1.
         11    1    4    4    0    0 -0.27864098762E-01  0.10068453270E-01 -0.94074776100E-01  0.98631163282E-01  0.51100000000E-03 0. -1.
</event>
<event>
 8    1  0.1162192E+005  0.1043930E+01  0.7957747E-01            NaN
         13   -1    0    0    0    0  0.00000000000E+00  0.00000000000E+00  0.74505805969E-08  0.10566000000E+00  0.10566000000E+00 0. -1.
     999900   -1    0    0    0    0 -0.00000000000E+00 -0.00000000000E+00 -0.74505805969E-08  0.93827000000E+00  0.93827000000E+00 0. -1.
     999902    2    1    2    0    0 -0.12965067378E-01  0.74391930241E-02 -0.19388214745E-01  0.10194486308E+01  0.10191546367E+01 0.  0.
     999903    2    3    3    0    0  0.28579383551E-01  0.15558445634E-01  0.12142770871E+00  0.12724854792E+00  0.19714413737E-01 0.  0.
         14    1    1    2    0    0  0.12965067378E-01 -0.74391930241E-02  0.19388214745E-01  0.24481369160E-01  0.00000000000E+00 0. -1.
     999901    1    3    3    0    0 -0.41544450929E-01 -0.81192526098E-02 -0.14081592346E+00  0.89220008292E+00  0.88000000000E+00 0. -1.
        -11    1    4    4    0    0  0.14170396198E-01 -0.29950419073E-02  0.42996335894E-01  0.45373080408E-01  0.51100000000E-03 0. -1.
         11    1    4    4    0    0  0.14408987354E-01  0.18553487541E-01  0.78431372820E-01  0.81875467510E-01  0.51100000000E-03 0.  1.
</event>
<event>
 8    1  0.1162192E+005  0.1043930E+01  0.7957747E-01            NaN
         13   -1    0    0    0    0  0.00000000000E+00  0.00000000000E+00  0.74505805969E-08  0.10566000000E+00  0.10566000000E+00 0.  1.
     999900   -1    0    0    0    0 -0.00000000000E+00 -0.00000000000E+00 -0.74505805969E-08  0.93827000000E+00  0.93827000000E+00 0.  1.
     999902    2    1    2    0    0 -0.21739761804E-01  0.81581535711E-02  0.20499287551E-02  0.10206195963E+01  0.10203533630E+01 0.  0.
     999903    2    3    3    0    0  0.98997939959E-01  0.41986033241E-01  0.68626950482E-01  0.12924177635E+00  0.20745103466E-01 0.  0.
         14    1    1    2    0    0  0.21739761804E-01 -0.81581535711E-02 -0.20499287551E-02  0.23310403705E-01  0.00000000000E+00 0. -1.
     999901    1    3    3    0    0 -0.12073770176E+00 -0.33827879670E-01 -0.66577021727E-01  0.89137781995E+00  0.88000000000E+00 0.  1.
        -11    1    4    4    0    0  0.26434053131E-01  0.67796966776E-02  0.27344092171E-01  0.38635268209E-01  0.51100000000E-03 0. -1.
         11    1    4    4    0    0  0.72563886828E-01  0.35206336563E-01  0.41282858311E-01  0.90606508139E-01  0.51100000000E-03 0.  1.
</event>
<event>
 8    1  0.1162192E+005  0.1043930E+01  0.7957747E-01            NaN
         13   -1    0    0    0    0  0.00000000000E+00  0.00000000000E+00  0.74505805969E-08  0.10566000000E+00  0.10566000000E+00 0.  1.
     999900   -1    0    0    0    0 -0.00000000000E+00 -0.00000000000E+00 -0.74505805969E-08  0.93827000000E+00  0.93827000000E+00 0.  1.
     999902    2    1    2    0    0  0.27061754811E-02 -0.13533321087E-01  0.19135246694E-01  0.10203369537E+01  0.10200641486E+01 0.  0.
     999903    2    3    3    0    0  0.11568716620E+00 -0.48717355071E-01  0.37105379454E-01  0.13223473768E+00  0.18770070752E-01 0.  0.
         14    1    1    2    0    0 -0.27061754811E-02  0.13533321087E-01 -0.19135246694E-01  0.23593046251E-01  0.00000000000E+00 0. -1.
     999901    1    3    3    0    0 -0.11298099072E+00  0.35184033984E-01 -0.17970132759E-01  0.88810221607E+00  0.88000000000E+00 0. -1.
        -11    1    4    4    0    0  0.66452123901E-01 -0.28137280112E-01  0.11616401106E-01  0.73094412911E-01  0.51100000000E-03 0.  1.
         11    1    4    4    0    0  0.49235042302E-01 -0.20580074958E-01  0.25488978348E-01  0.59140324771E-01  0.51100000000E-03 0. -1.
</event>
<event>
 8    1  0.1162192E+005  0.1043930E+01  0.7957747E-01            NaN
         13   -1    0    0    0    0  0.00000000000E+00  0.00000000000E+00  0.74505805969E-08  0.10566000000E+00  0.10566000000E+00 0. -1.
     999900   -1    0    0    0    0 -0.00000000000E+00 -0.00000000000E+00 -0.74505805969E-08  0.93827000000E+00  0.93827000000E+00 0. -1.
     999902    2    1    2    0    0 -0.81165702898E-03  0.22302325920E-01 -0.12517634757E-01  0.10183420398E+01  0.10180205137E+01 0.  0.
     999903    2    3    3    0    0 -0.15699013374E-01  0.10533906173E+00  0.72373414270E-01  0.13024113161E+00  0.19546465775E-01 0.  0.
         14    1    1    2    0    0  0.81165702898E-03 -0.22302325920E-01  0.12517634757E-01  0.25587960226E-01  0.00000000000E+00 0.  1.
     999901    1    3    3    0    0  0.14887356345E-01 -0.83036735806E-01 -0.84891049028E-01  0.88810090816E+00  0.88000000000E+00 0. -1.
        -11    1    4    4    0    0 -0.88258599734E-02  0.55407688162E-01  0.49765073037E-01  0.74998208826E-01  0.51100000000E-03 0. -1.
         11    1    4    4    0    0 -0.68731534008E-02  0.49931373565E-01  0.22608341233E-01  0.55242922787E-01  0.51100000000E-03 0.  1.
</event>
<event>
 8    1  0.1162192E+005  0.1043930E+01  0.7957747E-01            NaN
         13   -1    0    0    0    0  0.00000000000E+00  0.00000000000E+00  0.74505805969E-08  0.10566000000E+00  0.10566000000E+00 0. -1.
     999900   -1    0    0    0    0 -0.00000000000E+00 -0.00000000000E+00 -0.74505805969E-08  0.93827000000E+00  0.93827000000E+00 0. -1.
     999902    2    1    2    0    0  0.88536142237E-02  0.21580826966E-01  0.28304884287E-02  0.10204325482E+01  0.10201619750E+01 0.  0.
     999903    2    3    3    0    0 -0.56630842979E-01  0.55915618149E-01 -0.10230056146E+00  0.13109592481E+00  0.19675565980E-01 0.  0.
         14    1    1    2    0    0 -0.88536142237E-02 -0.21580826966E-01 -0.28304884287E-02  0.23497451821E-01  0.00000000000E+00 0.  1.
     999901    1    3    3    0    0  0.65484457203E-01 -0.34334791183E-01  0.10513104989E+00  0.88933662337E+00  0.88000000000E+00 0.  1.
        -11    1    4    4    0    0 -0.81615936023E-02  0.70940242592E-02 -0.49861814151E-02  0.11918889060E-01  0.51100000000E-03 0. -1.
         11    1    4    4    0    0 -0.48469249377E-01  0.48821593890E-01 -0.97314380043E-01  0.11917703575E+00  0.51100000000E-03 0.  1.
</event>
<event>
 8    1  0.1162192E+005  0.1043930E+01  0.7957747E-01            NaN
         13   -1    0    0    0    0  0.00000000000E+00  0.00000000000E+00  0.74505805969E-08  0.10566000000E+00  0.10566000000E+00 0.  1.
     999900   -1    0    0    0    0 -0.00000000000E+00 -0.00000000000E+00 -0.74505805969E-08  0.93827000000E+00  0.93827000000E+00 0. -1.
     999902    2    1    2    0    0 -0.14783641700E-01 -0.21692073314E-01 -0.72515821087E-02  0.10166960589E+01  0.10163312396E+01 0.  0.
     999903    2    3    3    0    0 -0.25398089942E-01  0.65536396650E-01  0.10215545865E+00  0.12557801222E+00  0.19849865574E-01 0.  0.
         14    1    1    2    0    0  0.14783641700E-01  0.21692073314E-01  0.72515821087E-02  0.27233941133E-01  0.00000000000E+00 0.  1.
     999901    1    3    3    0    0  0.10614448241E-01 -0.87228469964E-01 -0.10940704076E+00  0.89111804664E+00  0.88000000000E+00 0.  1.
        -11    1    4    4    0    0 -0.26884839355E-01  0.48286534173E-01  0.71543737998E-01  0.90405484000E-01  0.51100000000E-03 0.  1.
         11    1    4    4    0    0  0.14867494132E-02  0.17249862477E-01  0.30611720654E-01  0.35172528225E-01  0.51100000000E-03 0. -1.
</event>
<event>
 8    1  0.1267522E+005  0.1043930E+01  0.7957747E-01            NaN
         13   -1    0    0    0    0  0.00000000000E+00  0.00000000000E+00  0.74505805969E-08  0.10566000000E+00  0.10566000000E+00 0.  1.
     999900   -1    0    0    0    0 -0.00000000000E+00 -0.00000000000E+00 -0.74505805969E-08  0.93827000000E+00  0.93827000000E+00 0.  1.
     999902    2    1    2    0    0 -0.12214283799E-01 -0.73599556818E-02 -0.22512723647E-01  0.10172807898E+01  0.10169316717E+01 0.  0.
     999903    2    3    3    0    0  0.10400577368E-01 -0.71416568002E-01 -0.10711513994E+00  0.13061724013E+00  0.19460524692E-01 0.  0.
         14    1    1    2    0    0  0.12214283799E-01  0.73599556818E-02  0.22512723647E-01  0.26649210164E-01  0.00000000000E+00 0.  1.
     999901    1    3    3    0    0 -0.22614861166E-01  0.64056612320E-01  0.84602416291E-01  0.88666354970E+00  0.88000000000E+00 0. -1.
        -11    1    4    4    0    0 -0.14151089585E-02 -0.48455874148E-01 -0.62942748204E-01  0.79448253255E-01  0.51100000000E-03 0. -1.
         11    1    4    4    0    0  0.11815686326E-01 -0.22960693854E-01 -0.44172391735E-01  0.51168986879E-01  0.51100000000E-03 0.  1.
</event>
<event>
 8    1  0.1162192E+005  0.1043930E+01  0.7957747E-01            NaN
         13   -1    0    0    0    0  0.00000000000E+00  0.00000000000E+00  0.74505805969E-08  0.10566000000E+00  0.10566000000E+00 0. -1.
     999900   -1    0    0    0    0 -0.00000000000E+00 -0.00000000000E+00 -0.74505805969E-08  0.93827000000E+00  0.93827000000E+00 0.  1.
     999902    2    1    2    0    0 -0.69226664690E-02 -0.22019291457E-01  0.39431521488E-02  0.10205137459E+01  0.10202450611E+01 0.  0.
     999903    2    3    3    0    0 -0.41518295746E-01 -0.17239338527E-01  0.12240985625E+00  0.13188892884E+00  0.19737096217E-01 0.  0.
         14    1    1    2    0    0  0.69226664690E-02  0.22019291457E-01 -0.39431521488E-02  0.23416254102E-01  0.00000000000E+00 0.  1.
     999901    1    3    3    0    0  0.34595629277E-01 -0.47799529291E-02 -0.11846670411E+00  0.88862481706E+00  0.88000000000E+00 0.  1.
        -11    1    4    4    0    0 -0.10348745134E-01  0.26498704159E-02  0.16072557103E-01  0.19305609337E-01  0.51100000000E-03 0.  1.
         11    1    4    4    0    0 -0.31169550612E-01 -0.19889208943E-01  0.10633729915E+00  0.11258331950E+00  0.51100000000E-03 0. -1.
</event>
<event>
 8    1  0.1162192E+005  0.1043930E+01  0.7957747E-01            NaN
         13   -1    0    0    0    0  0.00000000000E+00  0.00000000000E+00  0.74505805969E-08  0.10566000000E+00  0.10566000000E+00 0. -1.
     999900   -1    0    0    0    0 -0.00000000000E+00 -0.00000000000E+00 -0.74505805969E-08  0.93827000000E+00  0.93827000000E+00 0.  1.
     999902    2    1    2    0    0 -0.12165095947E-01  0.18741134996E-01  0.72097155836E-02  0.10204523575E+01  0.10201822456E+01 0.  0.
     999903    2    3    3    0    0 -0.60312806041E-01 -0.63216555527E-01  0.95504833624E-01  0.13094052905E+00  0.19755541905E-01 0.  0.
         14    1    1    2    0    0  0.12165095947E-01 -0.18741134996E-01 -0.72097155836E-02  0.23477642538E-01  0.00000000000E+00 0.  1.
     999901    1    3    3    0    0  0.48147710094E-01  0.81957690523E-01 -0.88295118041E-01  0.88951182842E+00  0.88000000000E+00 0. -1.
        -11    1    4    4    0    0 -0.26783284440E-01 -0.22947174948E-01  0.51986130636E-01  0.62823053595E-01  0.51100000000E-03 0.  1.
         11    1    4    4    0    0 -0.33529521601E-01 -0.40269380579E-01  0.43518702988E-01  0.68117475450E-01  0.51100000000E-03 0. -1.
</event>
<event>
 8    1  0.1162192E+005  0.1043930E+01  0.7957747E-01            NaN
         13   -1    0    0    0    0  0.00000000000E+00  0.00000000000E+00  0.74505805969E-08  0.10566000000E+00  0.10566000000E+00 0.  1.
     999900   -1    0    0    0    0 -0.00000000000E+00 -0.00000000000E+00 -0.74505805969E-08  0.93827000000E+00  0.93827000000E+00 0.  1.
     999902    2    1    2    0    0 -0.14985170682E-01 -0.61590686839E-02 -0.16956687472E-01  0.10204775221E+01  0.10202079957E+01 0.  0.
     999903    2    3    3    0    0  0.57312932133E-01  0.66771419759E-01  0.90610396455E-01  0.12799976368E+00  0.20748514886E-01 0.  0.
         14    1    1    2    0    0  0.14985170682E-01  0.61590686839E-02  0.16956687472E-01  0.23452477853E-01  0.00000000000E+00 0.  1.
     999901    1    3    3    0    0 -0.72298102814E-01 -0.72930488443E-01 -0.10756708393E+00  0.89247775847E+00  0.88000000000E+00 0.  1.
        -11    1    4    4    0    0  0.38499725657E-01  0.47182003951E-01  0.48335491340E-01  0.77749284348E-01  0.51100000000E-03 0.  1.
         11    1    4    4    0    0  0.18813206476E-01  0.19589415808E-01  0.42274905115E-01  0.50250479332E-01  0.51100000000E-03 0. -1.
</event>
<event>
 8    1  0.1162192E+005  0.1043930E+01  0.7957747E-01            NaN
         13   -1    0    0    0    0  0.00000000000E+00  0.00000000000E+00  0.74505805969E-08  0.10566000000E+00  0.10566000000E+00 0. -1.
     999900   -1    0    0    0    0 -0.00000000000E+00 -0.00000000000E+00 -0.74505805969E-08  0.93827000000E+00  0.93827000000E+00 0.  1.
     999902    2    1    2    0    0  0.11997037592E-01 -0.65167546319E-02  0.19341009806E-01  0.10202557173E+01  0.10199810081E+01 0.  0.
     999903    2    3    3    0    0  0.57569269480E-01 -0.16913234546E-01 -0.11243409302E+00  0.12921722606E+00  0.21339820650E-01 0.  0.
         14    1    1    2    0    0 -0.11997037592E-01  0.65167546319E-02 -0.19341009806E-01  0.23674282718E-01  0.00000000000E+00 0.  1.
     999901    1    3    3    0    0 -0.45572231888E-01  0.10396479914E-01  0.13177510283E+00  0.89103849122E+00  0.88000000000E+00 0. -1.
        -11    1    4    4    0    0  0.42093894836E-01 -0.20777096804E-01 -0.74425933310E-01  0.87994683954E-01  0.51100000000E-03 0. -1.
         11    1    4    4    0    0  0.15475374644E-01  0.38638622573E-02 -0.38008159713E-01  0.41222542106E-01  0.51100000000E-03 0.  1.
</event>
<event>
 8    1  0.1162192E+005  0.1043930E+01  0.7957747E-01            NaN
         13   -1    0    0    0    0  0.00000000000E+00  0.00000000000E+00  0.74505805969E-08  0.10566000000E+00  0.10566000000E+00 0.  1.
     999900   -1    0    0    0    0 -0.00000000000E+00 -0.00000000000E+00 -0.74505805969E-08  0.93827000000E+00  0.93827000000E+00 0.  1.
     999902    2    1    2    0    0 -0.41942770034E-02  0.10147272199E-01  0.18577075581E-01  0.10223506851E+01  0.10221229166E+01 0.  0.
     999903    2    3    3    0    0 -0.11891954874E+00 -0.75335719866E-02  0.57501356183E-01  0.13387468668E+00  0.20430663004E-01 0.  0.
         14    1    1    2    0    0  0.41942770034E-02 -0.10147272199E-01 -0.18577075581E-01  0.21579314859E-01  0.00000000000E+00 0. -1.
     999901    1    3    3    0    0  0.11472527174E+00  0.17680844185E-01 -0.38924280602E-01  0.88847599846E+00  0.88000000000E+00 0.  1.
        -11    1    4    4    0    0 -0.19793070448E-01 -0.80832545761E-02  0.62524813489E-02  0.22281366348E-01  0.51100000000E-03 0. -1.
         11    1    4    4    0    0 -0.99126478292E-01  0.54968258950E-03  0.51248874834E-01  0.11159332033E+00  0.51100000000E-03 0.  1.
</event>
<event>
 8    1  0.1162192E+005  0.1043930E+01  0.7957747E-01            NaN
         13   -1    0    0    0    0  0.00000000000E+00  0.00000000000E+00  0.74505805969E-08  0.10566000000E+00  0.10566000000E+00 0.  1.
     999900   -1    0    0    0    0 -0.00000000000E+00 -0.00000000000E+00 -0.74505805969E-08  0.93827000000E+00  0.93827000000E+00 0. -1.
     999902    2    1    2    0    0  0.21543705235E-01  0.35958844615E-02 -0.12211088143E-01  0.10189065651E+01  0.10185992422E+01 0.  0.
     999903    2    3    3    0    0  0.81138946946E-01 -0.98738558280E-01  0.17199519455E-01  0.13048723008E+00  0.19956506253E-01 0.  0.
         14    1    1    2    0    0 -0.21543705235E-01 -0.35958844615E-02  0.12211088143E-01  0.25023434895E-01  0.00000000000E+00 0.  1.
     999901    1    3    3    0    0 -0.59595241712E-01  0.10233444274E+00 -0.29410607599E-01  0.88841933502E+00  0.88000000000E+00 0. -1.
        -11    1    4    4    0    0  0.60795708027E-01 -0.72853769339E-01  0.21461444957E-01  0.97286404816E-01  0.51100000000E-03 0.  1.
         11    1    4    4    0    0  0.20343238919E-01 -0.25884788941E-01 -0.42619255022E-02  0.33200825264E-01  0.51100000000E-03 0. -1.
</event>
<event>
 8    1  0.1162192E+005  0.1043930E+01  0.7957747E-01            NaN
         13   -1    0    0    0    0  0.00000000000E+00  0.00000000000E+00  0.74505805969E-08  0.10566000000E+00  0.10566000000E+00 0.  1.
     999900   -1    0    0    0    0 -0.00000000000E+00 -0.00000000000E+00 -0.74505805969E-08  0.93827000000E+00  0.93827000000E+00 0.  1.
     999902    2    1    2    0    0  0.31183937670E-02 -0.51933308022E-02 -0.20460192530E-01  0.10225918993E+01  0.10223692473E+01 0.  0.
     999903    2    3    3    0    0 -0.11443230829E-01  0.24446808094E-01  0.12537113781E+00  0.12997924215E+00  0.21168071152E-01 0.  0.
         14    1    1    2    0    0 -0.31183937670E-02  0.51933308022E-02  0.20460192530E-01  0.21338100732E-01  0.00000000000E+00 0.  1.
     999901    1    3    3    0    0  0.14561624596E-01 -0.29640138896E-01 -0.14583133034E+00  0.89261265712E+00  0.88000000000E+00 0.  1.
        -11    1    4    4    0    0 -0.16091554235E-01  0.19204035457E-01  0.11306645501E+00  0.11581026494E+00  0.51100000000E-03 0. -1.
         11    1    4    4    0    0  0.46483234063E-02  0.52427726362E-02  0.12304682798E-01  0.14168977210E-01  0.51100000000E-03 0.  1.
</event>
<event>
 8    1  0.1162192E+005  0.1043930E+01  0.7957747E-01            NaN
         13   -1    0    0    0    0  0.00000000000E+00  0.00000000000E+00  0.74505805969E-08  0.10566000000E+00  0.10566000000E+00 0. -1.
     999900   -1    0    0    0    0 -0.00000000000E+00 -0.00000000000E+00 -0.74505805969E-08  0.93827000000E+00  0.93827000000E+00 0. -1.
     999902    2    1    2    0    0 -0.72824162656E-02  0.86527268778E-02  0.20198039210E-01  0.10207812623E+01  0.10205187511E+01 0.  0.
     999903    2    3    3    0    0  0.74064532293E-02  0.10554850928E+00 -0.75410503629E-01  0.13019406893E+00  0.82709229568E-02 0.  0.
         14    1    1    2    0    0  0.72824162656E-02 -0.86527268778E-02 -0.20198039210E-01  0.23148737698E-01  0.00000000000E+00 0. -1.
     999901    1    3    3    0    0 -0.14688869495E-01 -0.96895782401E-01  0.95608542839E-01  0.89058719337E+00  0.88000000000E+00 0.  1.
        -11    1    4    4    0    0  0.24575921506E-04  0.60514266675E-02 -0.67491204640E-02  0.90792134420E-02  0.51100000000E-03 0. -1.
         11    1    4    4    0    0  0.73818773078E-02  0.99497082611E-01 -0.68661383165E-01  0.12111485549E+00  0.51100000000E-03 0.  1.
</event>
<event>
 8    1  0.1162192E+005  0.1043930E+01  0.7957747E-01            NaN
         13   -1    0    0    0    0  0.00000000000E+00  0.00000000000E+00  0.74505805969E-08  0.10566000000E+00  0.10566000000E+00 0.  1.
     999900   -1    0    0    0    0 -0.00000000000E+00 -0.00000000000E+00 -0.74505805969E-08  0.93827000000E+00  0.93827000000E+00 0. -1.
     999902    2    1    2    0    0  0.92788355238E-02  0.12743653674E-01 -0.14598897906E-01  0.10224445324E+01  0.10222187616E+01 0.  0.
     999903    2    3    3    0    0  0.22758522647E-01  0.95996551688E-01  0.86640389763E-01  0.13263436144E+00  0.18762420063E-01 0.  0.
         14    1    1    2    0    0 -0.92788355238E-02 -0.12743653674E-01  0.14598897906E-01  0.21485467594E-01  0.00000000000E+00 0.  1.
     999901    1    3    3    0    0 -0.13479687123E-01 -0.83252898013E-01 -0.10123928767E+00  0.88981017097E+00  0.88000000000E+00 0. -1.
        -11    1    4    4    0    0  0.12403165993E-01  0.23066329933E-01  0.16754755297E-01  0.31094646634E-01  0.51100000000E-03 0.  1.
         11    1    4    4    0    0  0.10355356653E-01  0.72930221754E-01  0.69885634466E-01  0.10153971480E+00  0.51100000000E-03 0. -1.
</event>
<event>
 8    1  0.1162192E+005  0.1043930E+01  0.7957747E-01            NaN
         13   -1    0    0    0    0  0.00000000000E+00  0.00000000000E+00  0.74505805969E-08  0.10566000000E+00  0.10566000000E+00 0.  1.
     999900   -1    0    0    0    0 -0.00000000000E+00 -0.00000000000E+00 -0.74505805969E-08  0.93827000000E+00  0.93827000000E+00 0. -1.
     999902    2    1    2    0    0 -0.19286723671E-01 -0.14517780952E-01  0.46632753228E-02  0.10193436255E+01  0.10190470730E+01 0.  0.
     999903    2    3    3    0    0  0.58876420685E-01 -0.11454944302E+00  0.48280309674E-02  0.13023404976E+00  0.18697326686E-01 0.  0.
         14    1    1    2    0    0  0.19286723671E-01  0.14517780952E-01 -0.46632753228E-02  0.24586374488E-01  0.00000000000E+00 0. -1.
     999901    1    3    3    0    0 -0.78163144356E-01  0.10003166207E+00 -0.16475564463E-03  0.88910957575E+00  0.88000000000E+00 0.  1.
        -11    1    4    4    0    0  0.52603634067E-03 -0.11248459075E-01  0.26096603592E-02  0.11570479418E-01  0.51100000000E-03 0. -1.
         11    1    4    4    0    0  0.58350384344E-01 -0.10330098394E+00  0.22183706082E-02  0.11866357034E+00  0.51100000000E-03 0.  1.
</event>
<event>
 8    1  0.1162192E+005  0.1043930E+01  0.7957747E-01            NaN
         13   -1    0    0    0    0  0.00000000000E+00  0.00000000000E+00  0.74505805969E-08  0.10566000000E+00  0.10566000000E+00 0. -1.
     999900   -1    0    0    0    0 -0.00000000000E+00 -0.00000000000E+00 -0.74505805969E-08  0.93827000000E+00  0.93827000000E+00 0. -1.
     999902    2    1    2    0    0  0.36715743375E-02  0.19659161023E-01 -0.13278663747E-01  0.10199240428E+01  0.10196414895E+01 0.  0.
     999903    2    3    3    0    0  0.60073484357E-01 -0.95309033670E-01  0.57062182754E-01  0.12787768978E+00  0.20099139812E-01 0.  0.
         14    1    1    2    0    0 -0.36715743375E-02 -0.19659161023E-01  0.13278663747E-01  0.24005957201E-01  0.00000000000E+00 0. -1.
     999901    1    3    3    0    0 -0.56401910020E-01  0.11496819469E+00 -0.70340846501E-01  0.89204635302E+00  0.88000000000E+00 0. -1.
        -11    1    4    4    0    0  0.16402037073E-01 -0.12181106849E-01  0.81737304477E-02  0.22010842207E-01  0.51100000000E-03 0. -1.
         11    1    4    4    0    0  0.43671447284E-01 -0.83127926821E-01  0.48888452306E-01  0.10586684757E+00  0.51100000000E-03 0.  1.
</event>
<event>
 8    1  0.1162192E+005  0.1043930E+01  0.7957747E-01            NaN
         13   -1    0    0    0    0  0.00000000000E+00  0.00000000000E+00  0.74505805969E-08  0.10566000000E+00  0.10566000000E+00 0. -1.
     999900   -1    0    0    0    0 -0.00000000000E+00 -0.00000000000E+00 -0.74505805969E-08  0.93827000000E+00  0.93827000000E+00 0. -1.
     999902    2    1    2    0    0  0.20255586982E-01 -0.75742913486E-02 -0.78975361195E-02  0.10209076246E+01  0.10206480040E+01 0.  0.
     999903    2    3    3    0    0  0.12538011286E-01  0.80647224268E-01 -0.10110088574E+00  0.13156547379E+00  0.20661759009E-01 0.  0.
         14    1    1    2    0    0 -0.20255586982E-01  0.75742913486E-02  0.78975361195E-02  0.23022375424E-01  0.00000000000E+00 0. -1.
     999901    1    3    3    0    0  0.77175756958E-02 -0.88221515616E-01  0.93203349623E-01  0.88934215079E+00  0.88000000000E+00 0.  1.
        -11    1    4    4    0    0  0.10111228478E-01  0.54035919568E-01 -0.81964694786E-01  0.98694426678E-01  0.51100000000E-03 0.  1.
         11    1    4    4    0    0  0.24267828082E-02  0.26611304700E-01 -0.19136190956E-01  0.32871047107E-01  0.51100000000E-03 0. -1.
</event>
<event>
 8    1  0.1162192E+005  0.1043930E+01  0.7957747E-01            NaN
         13   -1    0    0    0    0  0.00000000000E+00  0.00000000000E+00  0.74505805969E-08  0.10566000000E+00  0.10566000000E+00 0.  1.
     999900   -1    0    0    0    0 -0.00000000000E+00 -0.00000000000E+00 -0.74505805969E-08  0.93827000000E+00  0.93827000000E+00 0.  1.
     999902    2    1    2    0    0  0.22211086175E-01 -0.74032410011E-02  0.22215320596E-02  0.10204124421E+01  0.10201414002E+01 0.  0.
     999903    2    3    3    0    0 -0.11981588224E+00  0.36150920913E-01  0.18035052328E-01  0.12782144267E+00  0.18716927506E-01 0.  0.
         14    1    1    2    0    0 -0.22211086175E-01  0.74032410011E-02 -0.22215320596E-02  0.23517557932E-01  0.00000000000E+00 0.  1.
     999901    1    3    3    0    0  0.14202696841E+00 -0.43554161914E-01 -0.15813520268E-01  0.89259099939E+00  0.88000000000E+00 0. -1.
        -11    1    4    4    0    0 -0.86463685224E-01  0.27404389787E-01  0.21337001024E-01  0.93179923674E-01  0.51100000000E-03 0. -1.
         11    1    4    4    0    0 -0.33352197014E-01  0.87465311262E-02 -0.33019486970E-02  0.34641519000E-01  0.51100000000E-03 0.  1.
</event>
<event>
 8    1  0.1162192E+005  0.1043930E+01  0.7957747E-01            NaN
         13   -1    0    0    0    0  0.00000000000E+00  0.00000000000E+00  0.74505805969E-08  0.10566000000E+00  0.10566000000E+00 0.  1.
     999900   -1    0    0    0    0 -0.00000000000E+00 -0.00000000000E+00 -0.74505805969E-08  0.93827000000E+00  0.93827000000E+00 0.  1.
     999902    2    1    2    0    0  0.18822040226E-01  0.95960970084E-02  0.10922160881E-01  0.10201466471E+01  0.10198693709E+01 0.  0.
     999903    2    3    3    0    0  0.17686812958E-01  0.65040705403E-01 -0.10972794885E+00  0.13018493877E+00  0.19099183539E-01 0.  0.
         14    1    1    2    0    0 -0.18822040226E-01 -0.95960970084E-02 -0.10922160881E-01  0.23783352883E-01  0.00000000000E+00 0. -1.
     999901    1    3    3    0    0  0.11352272681E-02 -0.55444608395E-01  0.12065010973E+00  0.88996170834E+00  0.88000000000E+00 0.  1.
        -11    1    4    4    0    0  0.36537852152E-02  0.44755855626E-01 -0.77868563818E-01  0.89889994500E-01  0.51100000000E-03 0. -1.
         11    1    4    4    0    0  0.14033027743E-01  0.20284849778E-01 -0.31859385034E-01  0.40294944272E-01  0.51100000000E-03 0.  1.
</event>
<event>
 8    1  0.1162192E+005  0.1043930E+01  0.7957747E-01            NaN
         13   -1    0    0    0    0  0.00000000000E+00  0.00000000000E+00  0.74505805969E-08  0.10566000000E+00  0.10566000000E+00 0. -1.
     999900   -1    0    0    0    0 -0.00000000000E+00 -0.00000000000E+00 -0.74505805969E-08  0.93827000000E+00  0.93827000000E+00 0.  1.
     999902    2    1    2    0    0  0.15366711922E-01  0.17611819031E-01  0.39379974080E-02  0.10202272612E+01  0.10199518835E+01 0.  0.
     999903    2    3    3    0    0 -0.28770669106E-01  0.74683605482E-01 -0.10170266744E+00  0.13097743840E+00  0.20156003477E-01 0.  0.
         14    1    1    2    0    0 -0.15366711922E-01 -0.17611819031E-01 -0.39379974080E-02  0.23702738839E-01  0.00000000000E+00 0.  1.
     999901    1    3    3    0    0  0.44137381028E-01 -0.57071786450E-01  0.10564066485E+00  0.88924982276E+00  0.88000000000E+00 0. -1.
        -11    1    4    4    0    0  0.26103433439E-02  0.12871135916E-01 -0.18177817695E-01  0.22431544960E-01  0.51100000000E-03 0.  1.
         11    1    4    4    0    0 -0.31381012450E-01  0.61812469566E-01 -0.83524849747E-01  0.10854589344E+00  0.51100000000E-03 0. -1.
</event>
<event>
 7    1  0.1162192E+005  0.1043930E+01  0.7957747E-01            NaN
         13   -1    0    0    0    0  0.00000000000E+00  0.00000000000E+00  0.74505805969E-08  0.10566000000E+00  0.10566000000E+00 0.  1.
     999900   -1    0    0    0    0 -0.00000000000E+00 -0.00000000000E+00 -0.74505805969E-08  0.93827000000E+00  0.93827000000E+00 0.  1.
     999902    2    1    2    0    0 -0.23984214816E-02 -0.21181595170E-01 -0.11927512172E-01  0.10195030078E+01  0.10192103341E+01 0.  0.
         14    1    1    2    0    0  0.23984214816E-02  0.21181595170E-01  0.11927512172E-01  0.24426992164E-01  0.00000000000E+00 0.  1.
     999901    1    3    3    0    0  0.10197480645E+00 -0.26726078765E-01  0.66456537324E-01  0.88877984664E+00  0.88000000000E+00 0. -1.
        -11    1    3    3    0    0 -0.64156717219E-01  0.13343110255E-02 -0.47543456147E-01  0.79865550106E-01  0.51100000000E-03 0. -1.
         11    1    3    3    0    0 -0.40216510712E-01  0.42101725688E-02 -0.30840593349E-01  0.50857611093E-01  0.51100000000E-03 0.  1.
</event>
<event>
 8    1  0.1162192E+005  0.1043930E+01  0.7957747E-01            NaN
         13   -1    0    0    0    0  0.00000000000E+00  0.00000000000E+00  0.74505805969E-08  0.10566000000E+00  0.10566000000E+00 0.  1.
     999900   -1    0    0    0    0 -0.00000000000E+00 -0.00000000000E+00 -0.74505805969E-08  0.93827000000E+00  0.93827000000E+00 0.  1.
     999902    2    1    2    0    0 -0.10325103379E-01 -0.18066891708E-01 -0.10976789028E-01  0.10204032018E+01  0.10201319444E+01 0.  0.
     999903    2    3    3    0    0 -0.11155169679E+00  0.82666053457E-02 -0.67842499232E-01  0.13238631837E+00  0.20283361863E-01 0.  0.
         14    1    1    2    0    0  0.10325103379E-01  0.18066891708E-01  0.10976789028E-01  0.23526798191E-01  0.00000000000E+00 0. -1.
     999901    1    3    3    0    0  0.10122659341E+00 -0.26333497053E-01  0.56865710204E-01  0.88801688344E+00  0.88000000000E+00 0.  1.
        -11    1    4    4    0    0 -0.40898618984E-01  0.79753116253E-02 -0.15526429591E-01  0.44470594409E-01  0.51100000000E-03 0.  1.
         11    1    4    4    0    0 -0.70653077805E-01  0.29129372037E-03 -0.52316069641E-01  0.87915723958E-01  0.51100000000E-03 0. -1.
</event>
<event>
 8    1  0.1162192E+005  0.1043930E+01  0.7957747E-01            NaN
         13   -1    0    0    0    0  0.00000000000E+00  0.00000000000E+00  0.74505805969E-08  0.10566000000E+00  0.10566000000E+00 0. -1.
     999900   -1    0    0    0    0 -0.00000000000E+00 -0.00000000000E+00 -0.74505805969E-08  0.93827000000E+00  0.93827000000E+00 0. -1.
     999902    2    1    2    0    0 -0.12296166680E-01  0.97040105715E-02  0.17333396195E-01  0.10205674197E+01  0.10202999794E+01 0.  0.
     999903    2    3    3    0    0  0.89937173058E-01  0.86913472862E-01  0.33751982553E-01  0.13113921751E+00  0.20387525087E-01 0.  0.
         14    1    1    2    0    0  0.12296166680E-01 -0.97040105715E-02 -0.17333396195E-01  0.23362580334E-01  0.00000000000E+00 0.  1.
     999901    1    3    3    0    0 -0.10223333974E+00 -0.77209462290E-01 -0.16418586359E-01  0.88942820216E+00  0.88000000000E+00 0. -1.
        -11    1    4    4    0    0  0.66524832566E-01  0.52883119502E-01  0.17623890907E-01  0.86793089171E-01  0.51100000000E-03 0. -1.
         11    1    4    4    0    0  0.23412340492E-01  0.34030353360E-01  0.16128091646E-01  0.44346128334E-01  0.51100000000E-03 0.  1.
</event>
<event>
 8    1  0.1162192E+005  0.1043930E+01  0.7957747E-01            NaN
         13   -1    0    0    0    0  0.00000000000E+00  0.00000000000E+00  0.74505805969E-08  0.10566000000E+00  0.10566000000E+00 0.  1.
     999900   -1    0    0    0    0 -0.00000000000E+00 -0.00000000000E+00 -0.74505805969E-08  0.93827000000E+00  0.93827000000E+00 0.  1.
     999902    2    1    2    0    0 -0.10850073089E-01  0.20706095924E-01  0.35069820998E-02  0.10202917806E+01  0.10200179175E+01 0.  0.
     999903    2    3    3    0    0 -0.66448983900E-01 -0.66051453190E-01  0.88069098795E-01  0.13025309445E+00  0.20771146357E-01 0.  0.
         14    1    1    2    0    0  0.10850073089E-01 -0.20706095924E-01 -0.35069820998E-02  0.23638219431E-01  0.00000000000E+00 0. -1.
     999901    1    3    3    0    0  0.55598910811E-01  0.86757549114E-01 -0.84562116695E-01  0.89003868612E+00  0.88000000000E+00 0.  1.
        -11    1    4    4    0    0 -0.12796297417E-02 -0.54628877110E-02  0.11718641381E-01  0.13002625552E-01  0.51100000000E-03 0. -1.
         11    1    4    4    0    0 -0.65169354158E-01 -0.60588565479E-01  0.76350457413E-01  0.11725046890E+00  0.51100000000E-03 0.  1.
</event>
<event>
 8    1  0.1162192E+005  0.1043930E+01  0.7957747E-01            NaN
         13   -1    0    0    0    0  0.00000000000E+00  0.00000000000E+00  0.74505805969E-08  0.10566000000E+00  0.10566000000E+00 0. -1.
     999900   -1    0    0    0    0 -0.00000000000E+00 -0.00000000000E+00 -0.74505805969E-08  0.93827000000E+00  0.93827000000E+00 0. -1.
     999902    2    1    2    0    0  0.19562100799E-01 -0.11803354086E-01  0.53042388619E-03  0.10210766347E+01  0.10208208548E+01 0.  0.
     999903    2    3    3    0    0  0.44171816560E-01 -0.54092290835E-01 -0.11100041077E+00  0.13268870179E+00  0.20200868489E-01 0.  0.
         14    1    1    2    0    0 -0.19562100799E-01  0.11803354086E-01 -0.53042388619E-03  0.22853365285E-01  0.00000000000E+00 0. -1.
     999901    1    3    3    0    0 -0.24609715761E-01  0.42288936749E-01  0.11153083465E+00  0.88838793292E+00  0.88000000000E+00 0.  1.
        -11    1    4    4    0    0  0.93478522101E-02 -0.68620045220E-02 -0.33660304745E-01  0.35605430534E-01  0.51100000000E-03 0.  1.
         11    1    4    4    0    0  0.34823964350E-01 -0.47230286313E-01 -0.77340106021E-01  0.97083271260E-01  0.51100000000E-03 0. -1.
</event>
<event>
 8    1  0.1162192E+005  0.1043930E+01  0.7957747E-01            NaN
         13   -1    0    0    0    0  0.00000000000E+00  0.00000000000E+00  0.74505805969E-08  0.10566000000E+00  0.10566000000E+00 0.  1.
     999900   -1    0    0    0    0 -0.00000000000E+00 -0.00000000000E+00 -0.74505805969E-08  0.93827000000E+00  0.93827000000E+00 0. -1.
     999902    2    1    2    0    0 -0.15849337732E-01 -0.11356300221E-01  0.12608009110E-01  0.10207108494E+01  0.10204467204E+01 0.  0.
     999903    2    3    3    0    0 -0.80750593189E-01  0.17925238068E-01 -0.99196549436E-01  0.13078397557E+00  0.20555300650E-01 0.  0.
         14    1    1    2    0    0  0.15849337732E-01  0.11356300221E-01 -0.12608009110E-01  0.23219150608E-01  0.00000000000E+00 0. -1.
     999901    1    3    3    0    0  0.64901255457E-01 -0.29281538289E-01  0.11180455855E+00  0.88992687383E+00  0.88000000000E+00 0.  1.
        -11    1    4    4    0    0 -0.15614407488E-01 -0.11015327899E-02 -0.95285295791E-02  0.18332405533E-01  0.51100000000E-03 0. -1.
         11    1    4    4    0    0 -0.65136185701E-01  0.19026770858E-01 -0.89668019857E-01  0.11245157003E+00  0.51100000000E-03 0.  1.
</event>
<event>
 8    1  0.1162192E+005  0.1043930E+01  0.7957747E-01            NaN
         13   -1    0    0    0    0  0.00000000000E+00  0.00000000000E+00  0.74505805969E-08  0.10566000000E+00  0.10566000000E+00 0. -1.
     999900   -1    0    0    0    0 -0.00000000000E+00 -0.00000000000E+00 -0.74505805969E-08  0.93827000000E+00  0.93827000000E+00 0. -1.
     999902    2    1    2    0    0 -0.11912977851E-01  0.74930945800E-02 -0.19479446905E-01  0.10198984716E+01  0.10196153088E+01 0.  0.
     999903    2    3    3    0    0 -0.78176124766E-01 -0.81367190264E-01  0.60074954598E-01  0.12938409342E+00  0.19977920963E-01 0.  0.
         14    1    1    2    0    0  0.11912977851E-01 -0.74930945800E-02  0.19479446905E-01  0.24031528445E-01  0.00000000000E+00 0.  1.
     999901    1    3    3    0    0  0.66263146915E-01  0.88860284844E-01 -0.79554401503E-01  0.89051437813E+00  0.88000000000E+00 0. -1.
        -11    1    4    4    0    0 -0.18829109362E-01 -0.13369127490E-01  0.20307631912E-01  0.30755974445E-01  0.51100000000E-03 0. -1.
         11    1    4    4    0    0 -0.59347015404E-01 -0.67998062775E-01  0.39767322685E-01  0.98628118977E-01  0.51100000000E-03 0.  1.
</event>
<event>
 8    1  0.1162192E+005  0.1043930E+01  0.7957747E-01            NaN
         13   -1    0    0    0    0  0.00000000000E+00  0.00000000000E+00  0.74505805969E-08  0.10566000000E+00  0.10566000000E+00 0. -1.
     999900   -1    0    0    0    0 -0.00000000000E+00 -0.00000000000E+00 -0.74505805969E-08  0.93827000000E+00  0.93827000000E+00 0.  1.
     999902    2    1    2    0    0 -0.11318577679E-01 -0.10609910039E-01  0.17832858390E-01  0.10202933499E+01  0.10200195236E+01 0.  0.
     999903    2    3    3    0    0  0.60456225684E-01 -0.48250668987E-01 -0.10135970872E+00  0.12856731727E+00  0.16513092881E-01 0.  0.
         14    1    1    2    0    0  0.11318577679E-01  0.10609910039E-01 -0.17832858390E-01  0.23636650145E-01  0.00000000000E+00 0.  1.
     999901    1    3    3    0    0 -0.71774803363E-01  0.37640758948E-01  0.11919256711E+00  0.89172603258E+00  0.88000000000E+00 0. -1.
        -11    1    4    4    0    0  0.19942025926E-01 -0.71705378564E-02 -0.23340111551E-01  0.31529715181E-01  0.51100000000E-03 0.  1.
         11    1    4    4    0    0  0.40514199759E-01 -0.41080131130E-01 -0.78019597171E-01  0.97037602091E-01  0.51100000000E-03 0. -1.
</event>
<event>
 8    1  0.1162192E+005  0.1043930E+01  0.7957747E-01            NaN
         13   -1    0    0    0    0  0.00000000000E+00  0.00000000000E+00  0.74505805969E-08  0.10566000000E+00  0.10566000000E+00 0. -1.
     999900   -1    0    0    0    0 -0.00000000000E+00 -0.00000000000E+00 -0.74505805969E-08  0.93827000000E+00  0.93827000000E+00 0.  1.
     999902    2    1    2    0    0  0.34505732577E-02  0.17327938523E-01 -0.15329961381E-01  0.10205383001E+01  0.10202701850E+01 0.  0.
     999903    2    3    3    0    0  0.17100513371E-01 -0.11640081551E+00  0.46171636048E-01  0.12820868217E+00  0.21542256099E-01 0.  0.
         14    1    1    2    0    0 -0.34505732577E-02 -0.17327938523E-01  0.15329961381E-01  0.23391699921E-01  0.00000000000E+00 0.  1.
     999901    1    3    3    0    0 -0.13649940113E-01  0.13372875403E+00 -0.61501597429E-01  0.89232961791E+00  0.88000000000E+00 0. -1.
        -11    1    4    4    0    0  0.93109107187E-02 -0.97343136957E-01  0.30848897827E-01  0.10253923634E+00  0.51100000000E-03 0.  1.
         11    1    4    4    0    0  0.77896026522E-02 -0.19057678555E-01  0.15322738222E-01  0.25669445825E-01  0.51100000000E-03 0. -1.
</event>
<event>
 8    1  0.1162192E+005  0.1043930E+01  0.7957747E-01            NaN
         13   -1    0    0    0    0  0.00000000000E+00  0.00000000000E+00  0.74505805969E-08  0.10566000000E+00  0.10566000000E+00 0. -1.
     999900   -1    0    0    0    0 -0.00000000000E+00 -0.00000000000E+00 -0.74505805969E-08  0.93827000000E+00  0.93827000000E+00 0. -1.
     999902    2    1    2    0    0 -0.10059528769E-01  0.18835936682E-02  0.20863682289E-01  0.10206913408E+01  0.10204267626E+01 0.  0.
     999903    2    3    3    0    0 -0.63745484274E-02  0.33477263459E-01 -0.12229853710E+00  0.12855505067E+00  0.20201654380E-01 0.  0.
         14    1    1    2    0    0  0.10059528769E-01 -0.18835936682E-02 -0.20863682289E-01  0.23238659230E-01  0.00000000000E+00 0.  1.
     999901    1    3    3    0    0 -0.36849803414E-02 -0.31593669791E-01  0.14316221939E+00  0.89213629010E+00  0.88000000000E+00 0.  1.
        -11    1    4    4    0    0 -0.16319685677E-02  0.27464366140E-01 -0.62809605875E-01  0.68573044558E-01  0.51100000000E-03 0. -1.
         11    1    4    4    0    0 -0.47425798598E-02  0.60128973195E-02 -0.59488931226E-01  0.59982006113E-01  0.51100000000E-03 0.  1.
</event>
<event>
 8    1  0.1162192E+005  0.1043930E+01  0.7957747E-01            NaN
         13   -1    0    0    0    0  0.00000000000E+00  0.00000000000E+00  0.74505805969E-08  0.10566000000E+00  0.10566000000E+00 0. -1.
     999900   -1    0    0    0    0 -0.00000000000E+00 -0.00000000000E+00 -0.74505805969E-08  0.93827000000E+00  0.93827000000E+00 0. -1.
     999902    2    1    2    0    0 -0.59732196157E-02 -0.20438445859E-01  0.99346928189E-02  0.10204330312E+01  0.10201624692E+01 0.  0.
     999903    2    3    3    0    0 -0.11111934842E-01  0.74569801849E-01  0.10452232174E+00  0.13026462405E+00  0.18969082571E-01 0.  0.
         14    1    1    2    0    0  0.59732196157E-02  0.20438445859E-01 -0.99346928189E-02  0.23496968807E-01  0.00000000000E+00 0.  1.
     999901    1    3    3    0    0  0.51387152267E-02 -0.95008247708E-01 -0.94587628922E-01  0.89016840714E+00  0.88000000000E+00 0. -1.
        -11    1    4    4    0    0  0.40730830441E-03  0.47045164920E-02  0.17179853778E-01  0.17824333713E-01  0.51100000000E-03 0. -1.
         11    1    4    4    0    0 -0.11519243147E-01  0.69865285357E-01  0.87342467963E-01  0.11244029034E+00  0.51100000000E-03 0.  1.
</event>
<event>
 8    1  0.1162192E+005  0.1043930E+01  0.7957747E-01            NaN
         13   -1    0    0    0    0  0.00000000000E+00  0.00000000000E+00  0.74505805969E-08  0.10566000000E+00  0.10566000000E+00 0.  1.
     999900   -1    0    0    0    0 -0.00000000000E+00 -0.00000000000E+00 -0.74505805969E-08  0.93827000000E+00  0.93827000000E+00 0. -1.
     999902    2    1    2    0    0 -0.78022891133E-02 -0.18262867930E-01  0.13266354332E-01  0.10200468633E+01  0.10197672279E+01 0.  0.
     999903    2    3    3    0    0  0.12666375417E+00 -0.14913031074E-01  0.17346443824E-01  0.12981712593E+00  0.16896211300E-01 0.  0.
         14    1    1    2    0    0  0.78022891133E-02  0.18262867930E-01 -0.13266354332E-01  0.23883136680E-01  0.00000000000E+00 0. -1.
     999901    1    3    3    0    0 -0.13446604328E+00 -0.33498368561E-02 -0.40800894916E-02  0.89022973739E+00  0.88000000000E+00 0.  1.
        -11    1    4    4    0    0  0.44094553365E-01 -0.13175076482E-01  0.77661158489E-02  0.46674253643E-01  0.51100000000E-03 0.  1.
         11    1    4    4    0    0  0.82569200801E-01 -0.17379545914E-02  0.95803279748E-02  0.83142872287E-01  0.51100000000E-03 0. -1.
</event>
<event>
 8    1  0.1162192E+005  0.1043930E+01  0.7957747E-01            NaN
         13   -1    0    0    0    0  0.00000000000E+00  0.00000000000E+00  0.74505805969E-08  0.10566000000E+00  0.10566000000E+00 0. -1.
     999900   -1    0    0    0    0 -0.00000000000E+00 -0.00000000000E+00 -0.74505805969E-08  0.93827000000E+00  0.93827000000E+00 0. -1.
     999902    2    1    2    0    0 -0.29138443280E-02  0.23844441483E-01 -0.28471332672E-02  0.10197400425E+01  0.10194530887E+01 0.  0.
     999903    2    3    3    0    0  0.89077628021E-01  0.56494446838E-01 -0.75539284082E-01  0.13136365678E+00  0.20585930744E-01 0.  0.
         14    1    1    2    0    0  0.29138443280E-02 -0.23844441483E-01  0.28471332672E-02  0.24189957549E-01  0.00000000000E+00 0. -1.
     999901    1    3    3    0    0 -0.91991472349E-01 -0.32650005356E-01  0.72692150815E-01  0.88837638567E+00  0.88000000000E+00 0. -1.
        -11    1    4    4    0    0  0.60188457058E-01  0.37243056053E-01 -0.38414392088E-01  0.80533360961E-01  0.51100000000E-03 0.  1.
         11    1    4    4    0    0  0.28889170963E-01  0.19251390785E-01 -0.37124891994E-01  0.50830295815E-01  0.51100000000E-03 0. -1.
</event>
<event>
 8    1  0.1162192E+005  0.1043930E+01  0.7957747E-01            NaN
         13   -1    0    0    0    0  0.00000000000E+00  0.00000000000E+00  0.74505805969E-08  0.10566000000E+00  0.10566000000E+00 0.  1.
     999900   -1    0    0    0    0 -0.00000000000E+00 -0.00000000000E+00 -0.74505805969E-08  0.93827000000E+00  0.93827000000E+00 0.  1.
     999902    2    1    2    0    0 -0.12279858502E-02  0.15428947010E-01  0.17840341080E-01  0.10203114030E+01  0.10200379998E+01 0.  0.
     999903    2    3    3    0    0  0.98659677836E-01  0.21360387993E-01 -0.78395371901E-01  0.12942754984E+00  0.20387695192E-01 0.  0.
         14    1    1    2    0    0  0.12279858502E-02 -0.15428947010E-01 -0.17840341080E-01  0.23618597015E-01  0.00000000000E+00 0. -1.
     999901    1    3    3    0    0 -0.99887663686E-01 -0.59314409835E-02  0.96235712981E-01  0.89088385315E+00  0.88000000000E+00 0. -1.
        -11    1    4    4    0    0  0.94713812301E-01  0.21318250078E-01 -0.68659335896E-01  0.11890979587E+00  0.51100000000E-03 0. -1.
         11    1    4    4    0    0  0.39458655345E-02  0.42137915380E-04 -0.97360360048E-02  0.10517753967E-01  0.51100000000E-03 0.  1.
</event>
<event>
 8    1  0.1162192E+005  0.1043930E+01  0.7957747E-01            NaN
         13   -1    0    0    0    0  0.00000000000E+00  0.00000000000E+00  0.74505805969E-08  0.10566000000E+00  0.10566000000E+00 0.  1.
     999900   -1    0    0    0    0 -0.00000000000E+00 -0.00000000000E+00 -0.74505805969E-08  0.93827000000E+00  0.93827000000E+00 0. -1.
     999902    2    1    2    0    0  0.43433319973E-02 -0.22282400444E-01  0.86538984986E-02  0.10196347358E+01  0.10193452480E+01 0.  0.
     999903    2    3    3    0    0 -0.43061888560E-02 -0.12348220732E+00 -0.42792186884E-01  0.13230001046E+00  0.20142559983E-01 0.  0.
         14    1    1    2    0    0 -0.43433319973E-02  0.22282400444E-01 -0.86538984986E-02  0.24295264181E-01  0.00000000000E+00 0. -1.
     999901    1    3    3    0    0  0.86495208533E-02  0.10119980688E+00  0.51446085382E-01  0.88733472536E+00  0.88000000000E+00 0.  1.
        -11    1    4    4    0    0 -0.64771281682E-02 -0.58890804698E-01 -0.10948957787E-01  0.60251314217E-01  0.51100000000E-03 0.  1.
         11    1    4    4    0    0  0.21709393122E-02 -0.64591402624E-01 -0.31843229096E-01  0.72048696246E-01  0.51100000000E-03 0. -1.
</event>
<event>
 8    1  0.1162192E+005  0.1043930E+01  0.7957747E-01            NaN
         13   -1    0    0    0    0  0.00000000000E+00  0.00000000000E+00  0.74505805969E-08  0.10566000000E+00  0.10566000000E+00 0. -1.
     999900   -1    0    0    0    0 -0.00000000000E+00 -0.00000000000E+00 -0.74505805969E-08  0.93827000000E+00  0.93827000000E+00 0. -1.
     999902    2    1    2    0    0  0.15831869669E-01  0.13099287478E-01  0.13992550779E-01  0.10190697726E+01  0.10187664946E+01 0.  0.
     999903    2    3    3    0    0  0.12579321797E-01  0.12820162892E+00  0.15158892445E-01  0.13156738475E+00  0.22051932190E-01 0.  0.
         14    1    1    2    0    0 -0.15831869669E-01 -0.13099287478E-01 -0.13992550779E-01  0.24860227411E-01  0.00000000000E+00 0.  1.
     999901    1    3    3    0    0  0.32525478723E-02 -0.11510234145E+00 -0.11663416658E-02  0.88750238784E+00  0.88000000000E+00 0.  1.
        -11    1    4    4    0    0 -0.50530279307E-02  0.21841663204E-01  0.67919784403E-02  0.23430395535E-01  0.51100000000E-03 0.  1.
         11    1    4    4    0    0  0.17632349728E-01  0.10635996572E+00  0.83669140042E-02  0.10813698921E+00  0.51100000000E-03 0. -1.
</event>
<event>
 8    1  0.1162192E+005  0.1043930E+01  0.7957747E-01            NaN
         13   -1    0    0    0    0  0.00000000000E+00  0.00000000000E+00  0.74505805969E-08  0.10566000000E+00  0.10566000000E+00 0. -1.
     999900   -1    0    0    0    0 -0.00000000000E+00 -0.00000000000E+00 -0.74505805969E-08  0.93827000000E+00  0.93827000000E+00 0.  1.
     999902    2    1    2    0    0  0.91414805425E-02  0.13789064759E-01 -0.15538206011E-01  0.10212332862E+01  0.10209810399E+01 0.  0.
     999903    2    3    3    0    0 -0.19918336912E-01  0.20613215155E-01  0.12479642448E+00  0.12961405658E+00  0.20100032748E-01 0.  0.
         14    1    1    2    0    0 -0.91414805425E-02 -0.13789064759E-01  0.15538206011E-01  0.22696713848E-01  0.00000000000E+00 0. -1.
     999901    1    3    3    0    0  0.29059817455E-01 -0.68241503956E-02 -0.14033463049E+00  0.89161922957E+00  0.88000000000E+00 0.  1.
        -11    1    4    4    0    0 -0.68414906375E-02  0.20791507116E-01  0.75610354739E-01  0.78716450803E-01  0.51100000000E-03 0.  1.
         11    1    4    4    0    0 -0.13076846275E-01 -0.17829196166E-03  0.49186069743E-01  0.50897605782E-01  0.51100000000E-03 0. -1.
</event>
<event>
 8    1  0.1162192E+005  0.1043930E+01  0.7957747E-01            NaN
         13   -1    0    0    0    0  0.00000000000E+00  0.00000000000E+00  0.74505805969E-08  0.10566000000E+00  0.10566000000E+00 0.  1.
     999900   -1    0    0    0    0 -0.00000000000E+00 -0.00000000000E+00 -0.74505805969E-08  0.93827000000E+00  0.93827000000E+00 0. -1.
     999902    2    1    2    0    0  0.18553544375E-01 -0.12879927226E-01  0.71707899872E-02  0.10202330221E+01  0.10199577798E+01 0.  0.
     999903    2    3    3    0    0  0.79151055053E-01  0.64279750997E-02 -0.10250338113E+00  0.13114738097E+00  0.19659196620E-01 0.  0.
         14    1    1    2    0    0 -0.18553544375E-01  0.12879927226E-01 -0.71707899872E-02  0.23696977935E-01  0.00000000000E+00 0. -1.
     999901    1    3    3    0    0 -0.60597510679E-01 -0.19307902326E-01  0.10967417112E+00  0.88908564110E+00  0.88000000000E+00 0.  1.
        -11    1    4    4    0    0  0.21070726966E-01  0.44232009671E-03 -0.42395660456E-01  0.47347907329E-01  0.51100000000E-03 0. -1.
         11    1    4    4    0    0  0.58080328087E-01  0.59856550030E-02 -0.60107720675E-01  0.83799473640E-01  0.51100000000E-03 0.  1.
</event>
<event>
 8    1  0.1162192E+005  0.1043930E+01  0.7957747E-01            NaN
         13   -1    0    0    0    0  0.00000000000E+00  0.00000000000E+00  0.74505805969E-08  0.10566000000E+00  0.10566000000E+00 0.  1.
     999900   -1    0    0    0    0 -0.00000000000E+00 -0.00000000000E+00 -0.74505805969E-08  0.93827000000E+00  0.93827000000E+00 0. -1.
     999902    2    1    2    0    0 -0.25472617899E-03  0.14729657836E-01  0.19084649664E-01  0.10198208408E+01  0.10195358237E+01 0.  0.
     999903    2    3    3    0    0  0.11903734780E+00 -0.88921352863E-02  0.51770166827E-01  0.13085687579E+00  0.13943153365E-01 0.  0.
         14    1    1    2    0    0  0.25472617899E-03 -0.14729657836E-01 -0.19084649664E-01  0.24109159218E-01  0.00000000000E+00 0. -1.
     999901    1    3    3    0    0 -0.11929207398E+00  0.23621793122E-01 -0.32685517164E-01  0.88896396499E+00  0.88000000000E+00 0. -1.
        -11    1    4    4    0    0  0.73737606811E-01 -0.25450355690E-02  0.38510636609E-01  0.83228853875E-01  0.51100000000E-03 0. -1.
         11    1    4    4    0    0  0.45299740993E-01 -0.63470997173E-02  0.13259530218E-01  0.47628021914E-01  0.51100000000E-03 0.  1.
</event>
<event>
 8    1  0.1162192E+005  0.1043930E+01  0.7957747E-01            NaN
         13   -1    0    0    0    0  0.00000000000E+00  0.00000000000E+00  0.74505805969E-08  0.10566000000E+00  0.10566000000E+00 0.  1.
     999900   -1    0    0    0    0 -0.00000000000E+00 -0.00000000000E+00 -0.74505805969E-08  0.93827000000E+00  0.93827000000E+00 0.  1.
     999902    2    1    2    0    0 -0.14577417471E-01  0.18508520474E-01 -0.56135917225E-02  0.10197106102E+01  0.10194229494E+01 0.  0.
     999903    2    3    3    0    0 -0.12834046047E+00 -0.63551519709E-02  0.21081785452E-01  0.13163804823E+00  0.19299541783E-01 0.  0.
         14    1    1    2    0    0  0.14577417471E-01 -0.18508520474E-01  0.56135917225E-02  0.24219389801E-01  0.00000000000E+00 0.  1.
     999901    1    3    3    0    0  0.11376304300E+00  0.24863672445E-01 -0.26695377174E-01  0.88807256197E+00  0.88000000000E+00 0.  1.
        -11    1    4    4    0    0 -0.29711458291E-01 -0.96757653792E-02  0.53238997460E-02  0.31701675333E-01  0.51100000000E-03 0. -1.
         11    1    4    4    0    0 -0.98629002182E-01  0.33206134083E-02  0.15757885706E-01  0.99936372897E-01  0.51100000000E-03 0.  1.
</event>
<event>
 8    1  0.1162192E+005  0.1043930E+01  0.7957747E-01            NaN
         13   -1    0    0    0    0  0.00000000000E+00  0.00000000000E+00  0.74505805969E-08  0.10566000000E+00  0.10566000000E+00 0. -1.
     999900   -1    0    0    0    0 -0.00000000000E+00 -0.00000000000E+00 -0.74505805969E-08  0.93827000000E+00  0.93827000000E+00 0. -1.
     999902    2    1    2    0    0  0.15210846325E-01 -0.10538607028E-01  0.14136876665E-01  0.10206430215E+01  0.10203773293E+01 0.  0.
     999903    2    3    3    0    0  0.97235827207E-01  0.74082018253E-01  0.46083829397E-01  0.13221218264E+00  0.20332003991E-01 0.  0.
         14    1    1    2    0    0 -0.15210846325E-01  0.10538607028E-01 -0.14136876665E-01  0.23286978462E-01  0.00000000000E+00 0.  1.
     999901    1    3    3    0    0 -0.82024980882E-01 -0.84620625280E-01 -0.31946952732E-01  0.88843083890E+00  0.88000000000E+00 0. -1.
        -11    1    4    4    0    0  0.56221801158E-01  0.48067065180E-01  0.18086267391E-01  0.76149247335E-01  0.51100000000E-03 0.  1.
         11    1    4    4    0    0  0.41014026049E-01  0.26014953072E-01  0.27997562006E-01  0.56062935308E-01  0.51100000000E-03 0. -1.
</event>
<event>
 8    1  0.1162192E+005  0.1043930E+01  0.7957747E-01            NaN
         13   -1    0    0    0    0  0.00000000000E+00  0.00000000000E+00  0.74505805969E-08  0.10566000000E+00  0.10566000000E+00 0.  1.
     999900   -1    0    0    0    0 -0.00000000000E+00 -0.00000000000E+00 -0.74505805969E-08  0.93827000000E+00  0.93827000000E+00 0. -1.
     999902    2    1    2    0    0  0.17205498970E-02  0.53624206011E-02 -0.23059685105E-01  0.10201925839E+01  0.10199163903E+01 0.  0.
     999903    2    3    3    0    0  0.33488276746E-02  0.22646272149E-01  0.12388037045E+00  0.12784020801E+00  0.21741764234E-01 0.  0.
         14    1    1    2    0    0 -0.17205498970E-02 -0.53624206011E-02  0.23059685105E-01  0.23737416114E-01  0.00000000000E+00 0.  1.
     999901    1    3    3    0    0 -0.16282777777E-02 -0.17283851547E-01 -0.14694005555E+00  0.89235237588E+00  0.88000000000E+00 0. -1.
        -11    1    4    4    0    0  0.12298694826E-02  0.47050519274E-02  0.32683321233E-02  0.58815991407E-02  0.51100000000E-03 0.  1.
         11    1    4    4    0    0  0.21189581920E-02  0.17941220221E-01  0.12061203832E+00  0.12195860887E+00  0.51100000000E-03 0. -1.
</event>
<event>
 8    1  0.1162192E+005  0.1043930E+01  0.7957747E-01            NaN
         13   -1    0    0    0    0  0.00000000000E+00  0.00000000000E+00  0.74505805969E-08  0.10566000000E+00  0.10566000000E+00 0.  1.
     999900   -1    0    0    0    0 -0.00000000000E+00 -0.00000000000E+00 -0.74505805969E-08  0.93827000000E+00  0.93827000000E+00 0.  1.
     999902    2    1    2    0    0 -0.58289052500E-02  0.91765399313E-02  0.20923466875E-01  0.10203508463E+01  0.10200783662E+01 0.  0.
     999903    2    3    3    0    0  0.52806989124E-01 -0.49736649686E-01  0.10851569212E+00  0.13210463613E+00  0.20338805996E-01 0.  0.
         14    1    1    2    0    0  0.58289052500E-02 -0.91765399313E-02 -0.20923466875E-01  0.23579153666E-01  0.00000000000E+00 0. -1.
     999901    1    3    3    0    0 -0.58635894374E-01  0.58913189618E-01 -0.87592225240E-01  0.88824621020E+00  0.88000000000E+00 0.  1.
        -11    1    4    4    0    0  0.21702768091E-01 -0.14230807352E-01  0.24277336957E-01  0.35541190631E-01  0.51100000000E-03 0. -1.
         11    1    4    4    0    0  0.31104221033E-01 -0.35505842334E-01  0.84238355158E-01  0.96563445499E-01  0.51100000000E-03 0.  1.
</event>
<event>
 8    1  0.1162192E+005  0.1043930E+01  0.7957747E-01            NaN
         13   -1    0    0    0    0  0.00000000000E+00  0.00000000000E+00  0.74505805969E-08  0.10566000000E+00  0.10566000000E+00 0. -1.
     999900   -1    0    0    0    0 -0.00000000000E+00 -0.00000000000E+00 -0.74505805969E-08  0.93827000000E+00  0.93827000000E+00 0.  1.
     999902    2    1    2    0    0  0.29972246955E-01  0.20800154020E-02  0.95878506964E-02  0.10123928959E+01  0.10119015697E+01 0.  0.
     999903    2    3    3    0    0 -0.14025827953E-01  0.10226278102E+00  0.65237253256E-01  0.12387206156E+00  0.20832383249E-01 0.  0.
         14    1    1    2    0    0 -0.29972246955E-01 -0.20800154020E-02 -0.95878506964E-02  0.31537104061E-01  0.00000000000E+00 0. -1.
     999901    1    3    3    0    0  0.43998074908E-01 -0.10018276561E+00 -0.55649402560E-01  0.88852083438E+00  0.88000000000E+00 0.  1.
        -11    1    4    4    0    0  0.64839137388E-03  0.52402697517E-02  0.98620638055E-02  0.11198315139E-01  0.51100000000E-03 0.  1.
         11    1    4    4    0    0 -0.14674219327E-01  0.97022511263E-01  0.55375189450E-01  0.11267374642E+00  0.51100000000E-03 0. -1.
</event>
<event>
 8    1  0.1162192E+005  0.1043930E+01  0.7957747E-01            NaN
         13   -1    0    0    0    0  0.00000000000E+00  0.00000000000E+00  0.74505805969E-08  0.10566000000E+00  0.10566000000E+00 0. -1.
     999900   -1    0    0    0    0 -0.00000000000E+00 -0.00000000000E+00 -0.74505805969E-08  0.93827000000E+00  0.93827000000E+00 0. -1.
     999902    2    1    2    0    0 -0.80832231251E-02 -0.13871279801E-01 -0.17246417302E-01  0.10203675339E+01  0.10200954438E+01 0.  0.
     999903    2    3    3    0    0 -0.11487413479E+00  0.49611391529E-01 -0.35187815486E-01  0.13146020343E+00  0.19653134963E-01 0.  0.
         14    1    1    2    0    0  0.80832231251E-02  0.13871279801E-01  0.17246417302E-01  0.23562466110E-01  0.00000000000E+00 0. -1.
     999901    1    3    3    0    0  0.10679091167E+00 -0.63482671329E-01  0.17941398183E-01  0.88890733046E+00  0.88000000000E+00 0.  1.
        -11    1    4    4    0    0 -0.82725930882E-01  0.31729699515E-01 -0.16248562435E-01  0.90081243185E-01  0.51100000000E-03 0.  1.
         11    1    4    4    0    0 -0.32148203911E-01  0.17881692014E-01 -0.18939253051E-01  0.41378960247E-01  0.51100000000E-03 0. -1.
</event>
<event>
 8    1  0.1162192E+005  0.1043930E+01  0.7957747E-01            NaN
         13   -1    0    0    0    0  0.00000000000E+00  0.00000000000E+00  0.74505805969E-08  0.10566000000E+00  0.10566000000E+00 0. -1.
     999900   -1    0    0    0    0 -0.00000000000E+00 -0.00000000000E+00 -0.74505805969E-08  0.93827000000E+00  0.93827000000E+00 0. -1.
     999902    2    1    2    0    0  0.76516659951E-02 -0.12558110671E-01 -0.18746763706E-01  0.10201036430E+01  0.10198253514E+01 0.  0.
     999903    2    3    3    0    0  0.12929530322E+00 -0.15717918075E-01 -0.18570224197E-01  0.13173030372E+00  0.66099402268E-02 0.  0.
         14    1    1    2    0    0 -0.76516659951E-02  0.12558110671E-01  0.18746763706E-01  0.23826356951E-01  0.00000000000E+00 0. -1.
     999901    1    3    3    0    0 -0.12164363722E+00  0.31598074037E-02 -0.17653950827E-03  0.88837333933E+00  0.88000000000E+00 0.  1.
        -11    1    4    4    0    0  0.30927806670E-01 -0.62403784374E-02 -0.58085754457E-02  0.32085389482E-01  0.51100000000E-03 0.  1.
         11    1    4    4    0    0  0.98367496546E-01 -0.94775396372E-02 -0.12761648752E-01  0.99644914241E-01  0.51100000000E-03 0. -1.
</event>
<event>
 8    1  0.1162192E+005  0.1043930E+01  0.7957747E-01            NaN
         13   -1    0    0    0    0  0.00000000000E+00  0.00000000000E+00  0.74505805969E-08  0.10566000000E+00  0.10566000000E+00 0.  1.
     999900   -1    0    0    0    0 -0.00000000000E+00 -0.00000000000E+00 -0.74505805969E-08  0.93827000000E+00  0.93827000000E+00 0.  1.
     999902    2    1    2    0    0  0.17013621479E-01  0.33298174712E-02  0.16060450422E-01  0.10202976267E+01  0.10200239007E+01 0.  0.
     999903    2    3    3    0    0 -0.58261064309E-01  0.98278091468E-01 -0.56548148161E-01  0.12903253614E+00  0.19969162358E-01 0.  0.
         14    1    1    2    0    0 -0.17013621479E-01 -0.33298174712E-02 -0.16060450422E-01  0.23632373304E-01  0.00000000000E+00 0. -1.
     999901    1    3    3    0    0  0.75274685788E-01 -0.94948273997E-01  0.72608598583E-01  0.89126509056E+00  0.88000000000E+00 0.  1.
        -11    1    4    4    0    0 -0.48167053955E-01  0.77219399071E-01 -0.35833391603E-01  0.97812032769E-01  0.51100000000E-03 0.  1.
         11    1    4    4    0    0 -0.10094010354E-01  0.21058692397E-01 -0.20714756558E-01  0.31220503371E-01  0.51100000000E-03 0. -1.
</event>
<event>
 8    1  0.1162192E+005  0.1043930E+01  0.7957747E-01            NaN
         13   -1    0    0    0    0  0.00000000000E+00  0.00000000000E+00  0.74505805969E-08  0.10566000000E+00  0.10566000000E+00 0. -1.
     999900   -1    0    0    0    0 -0.00000000000E+00 -0.00000000000E+00 -0.74505805969E-08  0.93827000000E+00  0.93827000000E+00 0. -1.
     999902    2    1    2    0    0  0.14534791403E-01 -0.11953788228E-01 -0.13612358922E-01  0.10207039472E+01  0.10204396593E+01 0.  0.
     999903    2    3    3    0    0  0.42791853257E-01  0.10139689918E+00 -0.69426611356E-01  0.13123102986E+00  0.17001616514E-01 0.  0.
         14    1    1    2    0    0 -0.14534791403E-01  0.11953788228E-01  0.13612358922E-01  0.23226052819E-01  0.00000000000E+00 0.  1.
     999901    1    3    3    0    0 -0.28257061855E-01 -0.11335068741E+00  0.55814252433E-01  0.88947291733E+00  0.88000000000E+00 0.  1.
        -11    1    4    4    0    0  0.34862801025E-01  0.72959020137E-01 -0.42895252121E-01  0.91535224314E-01  0.51100000000E-03 0. -1.
         11    1    4    4    0    0  0.79290522320E-02  0.28437879044E-01 -0.26531359235E-01  0.39695805542E-01  0.51100000000E-03 0.  1.
</event>
<event>
 8    1  0.1162192E+005  0.1043930E+01  0.7957747E-01            NaN
         13   -1    0    0    0    0  0.00000000000E+00  0.00000000000E+00  0.74505805969E-08  0.10566000000E+00  0.10566000000E+00 0.  1.
     999900   -1    0    0    0    0 -0.00000000000E+00 -0.00000000000E+00 -0.74505805969E-08  0.93827000000E+00  0.93827000000E+00 0. -1.
     999902    2    1    2    0    0 -0.22360427885E-01  0.73232956320E-02 -0.23291367064E-02  0.10202858829E+01  0.10200118816E+01 0.  0.
     999903    2    3    3    0    0  0.16601255539E-01 -0.29562646224E-01 -0.12416906198E+00  0.13027265108E+00  0.20086212413E-01 0.  0.
         14    1    1    2    0    0  0.22360427885E-01 -0.73232956320E-02  0.23291367064E-02  0.23644117068E-01  0.00000000000E+00 0.  1.
     999901    1    3    3    0    0 -0.38961683424E-01  0.36885941856E-01  0.12183992527E+00  0.89001323185E+00  0.88000000000E+00 0.  1.
        -11    1    4    4    0    0 -0.14004236111E-02 -0.17424470691E-01 -0.62011009490E-01  0.64429805092E-01  0.51100000000E-03 0.  1.
         11    1    4    4    0    0  0.18001679150E-01 -0.12138175534E-01 -0.62158052489E-01  0.65842845988E-01  0.51100000000E-03 0. -1.
</event>
<event>
 8    1  0.1162192E+005  0.1043930E+01  0.7957747E-01            NaN
         13   -1    0    0    0    0  0.00000000000E+00  0.00000000000E+00  0.74505805969E-08  0.10566000000E+00  0.10566000000E+00 0. -1.
     999900   -1    0    0    0    0 -0.00000000000E+00 -0.00000000000E+00 -0.74505805969E-08  0.93827000000E+00  0.93827000000E+00 0. -1.
     999902    2    1    2    0    0  0.12214471880E-01  0.15945178062E-01  0.11349007434E-01  0.10208596295E+01  0.10205989129E+01 0.  0.
     999903    2    3    3    0    0  0.11459238946E+00 -0.17124379798E-02  0.64766948075E-01  0.13313979428E+00  0.19927345318E-01 0.  0.
         14    1    1    2    0    0 -0.12214471880E-01 -0.15945178062E-01 -0.11349007434E-01  0.23070370532E-01  0.00000000000E+00 0.  1.
     999901    1    3    3    0    0 -0.10237791758E+00  0.17657616042E-01 -0.53417940641E-01  0.88771983519E+00  0.88000000000E+00 0. -1.
        -11    1    4    4    0    0  0.83910007908E-01 -0.88770460796E-02  0.52158159826E-01  0.99198922029E-01  0.51100000000E-03 0.  1.
         11    1    4    4    0    0  0.30682381550E-01  0.71646080998E-02  0.12608788248E-01  0.33940872247E-01  0.51100000000E-03 0. -1.
</event>
<event>
 8    1  0.1162192E+005  0.1043930E+01  0.7957747E-01            NaN
         13   -1    0    0    0    0  0.00000000000E+00  0.00000000000E+00  0.74505805969E-08  0.10566000000E+00  0.10566000000E+00 0.  1.
     999900   -1    0    0    0    0 -0.00000000000E+00 -0.00000000000E+00 -0.74505805969E-08  0.93827000000E+00  0.93827000000E+00 0. -1.
     999902    2    1    2    0    0  0.54829106151E-02  0.20093828929E-01 -0.11705346510E-01  0.10200377543E+01  0.10197579030E+01 0.  0.
     999903    2    3    3    0    0  0.48519830460E-01 -0.22337327763E-01 -0.11855988526E+00  0.13151624524E+00  0.19670948363E-01 0.  0.
         14    1    1    2    0    0 -0.54829106151E-02 -0.20093828929E-01  0.11705346510E-01  0.23892245745E-01  0.00000000000E+00 0. -1.
     999901    1    3    3    0    0 -0.43036919845E-01  0.42431156692E-01  0.10685453875E+00  0.88852150901E+00  0.88000000000E+00 0.  1.
        -11    1    4    4    0    0  0.31402936934E-01 -0.19012509173E-01 -0.97419700726E-01  0.10410801681E+00  0.51100000000E-03 0. -1.
         11    1    4    4    0    0  0.17116893526E-01 -0.33248185896E-02 -0.21140184536E-01  0.27408228433E-01  0.51100000000E-03 0.  1.
</event>
<event>
 8    1  0.1162192E+005  0.1043930E+01  0.7957747E-01            NaN
         13   -1    0    0    0    0  0.00000000000E+00  0.00000000000E+00  0.74505805969E-08  0.10566000000E+00  0.10566000000E+00 0.  1.
     999900   -1    0    0    0    0 -0.00000000000E+00 -0.00000000000E+00 -0.74505805969E-08  0.93827000000E+00  0.93827000000E+00 0. -1.
     999902    2    1    2    0    0 -0.99430073706E-02  0.12816347663E-01  0.17404930833E-01  0.10201381152E+01  0.10198606377E+01 0.  0.
     999903    2    3    3    0    0 -0.39719597221E-01 -0.12093847122E+00 -0.11167408281E-01  0.12907505606E+00  0.18218091672E-01 0.  0.
         14    1    1    2    0    0  0.99430073706E-02 -0.12816347663E-01 -0.17404930833E-01  0.23791884757E-01  0.00000000000E+00 0. -1.
     999901    1    3    3    0    0  0.29776589851E-01  0.13375481888E+00  0.28572339115E-01  0.89106305918E+00  0.88000000000E+00 0.  1.
        -11    1    4    4    0    0 -0.35429246304E-01 -0.10166816481E+00 -0.15722889102E-01  0.10880770925E+00  0.51100000000E-03 0.  1.
         11    1    4    4    0    0 -0.42903509173E-02 -0.19270306410E-01  0.45554808206E-02  0.20267346808E-01  0.51100000000E-03 0. -1.
</event>
<event>
 7    1  0.1162192E+005  0.1043930E+01  0.7957747E-01            NaN
         13   -1    0    0    0    0  0.00000000000E+00  0.00000000000E+00  0.74505805969E-08  0.10566000000E+00  0.10566000000E+00 0.  1.
     999900   -1    0    0    0    0 -0.00000000000E+00 -0.00000000000E+00 -0.74505805969E-08  0.93827000000E+00  0.93827000000E+00 0. -1.
     999902    2    1    2    0    0 -0.52941155975E-02 -0.20034352997E-01  0.10844476089E-01  0.10205418487E+01  0.10202738159E+01 0.  0.
         14    1    1    2    0    0  0.52941155975E-02  0.20034352997E-01 -0.10844476089E-01  0.23388151308E-01  0.00000000000E+00 0. -1.
     999901    1    3    3    0    0 -0.21932610572E-01  0.92631508354E-02 -0.11723246564E+00  0.88809363041E+00  0.88000000000E+00 0. -1.
        -11    1    3    3    0    0  0.10211649869E-01 -0.16689566411E-01  0.72463973064E-01  0.75060694995E-01  0.51100000000E-03 0.  1.
         11    1    3    3    0    0  0.64268451054E-02 -0.12607937421E-01  0.55612968670E-01  0.57387523289E-01  0.51100000000E-03 0. -1.
</event>
<event>
 8    1  0.1162192E+005  0.1043930E+01  0.7957747E-01            NaN
         13   -1    0    0    0    0  0.00000000000E+00  0.00000000000E+00  0.74505805969E-08  0.10566000000E+00  0.10566000000E+00 0. -1.
     999900   -1    0    0    0    0 -0.00000000000E+00 -0.00000000000E+00 -0.74505805969E-08  0.93827000000E+00  0.93827000000E+00 0. -1.
     999902    2    1    2    0    0  0.12892178671E-01  0.13298441052E-01 -0.14776194474E-01  0.10202362724E+01  0.10199611065E+01 0.  0.
     999903    2    3    3    0    0 -0.57194914638E-02  0.12482443641E+00  0.35817563097E-01  0.13156075780E+00  0.20285035379E-01 0.  0.
         14    1    1    2    0    0 -0.12892178671E-01 -0.13298441052E-01  0.14776194474E-01  0.23693727619E-01  0.00000000000E+00 0. -1.
     999901    1    3    3    0    0  0.18611670135E-01 -0.11152599536E+00 -0.50593757571E-01  0.88867551458E+00  0.88000000000E+00 0.  1.
        -11    1    4    4    0    0 -0.37073753768E-02  0.31176903224E-01  0.35692045252E-03  0.31402745740E-01  0.51100000000E-03 0. -1.
         11    1    4    4    0    0 -0.20121160870E-02  0.93647533185E-01  0.35460642645E-01  0.10015801206E+00  0.51100000000E-03 0.  1.
</event>
<event>
 8    1  0.1162192E+005  0.1043930E+01  0.7957747E-01            NaN
         13   -1    0    0    0    0  0.00000000000E+00  0.00000000000E+00  0.74505805969E-08  0.10566000000E+00  0.10566000000E+00 0.  1.
     999900   -1    0    0    0    0 -0.00000000000E+00 -0.00000000000E+00 -0.74505805969E-08  0.93827000000E+00  0.93827000000E+00 0.  1.
     999902    2    1    2    0    0  0.24004303792E-02  0.13366620339E-01 -0.21045090293E-01  0.10188835545E+01  0.10185756591E+01 0.  0.
     999903    2    3    3    0    0  0.57694320566E-01 -0.53697059210E-01  0.97394833374E-01  0.12670477932E+00  0.18876936787E-01 0.  0.
         14    1    1    2    0    0 -0.24004303792E-02 -0.13366620339E-01  0.21045090293E-01  0.25046445471E-01  0.00000000000E+00 0.  1.
     999901    1    3    3    0    0 -0.55293890187E-01  0.67063679549E-01 -0.11843992367E+00  0.89217877520E+00  0.88000000000E+00 0.  1.
        -11    1    4    4    0    0  0.21783357349E-01 -0.32930744785E-01  0.44820914464E-01  0.59733776910E-01  0.51100000000E-03 0. -1.
         11    1    4    4    0    0  0.35910963217E-01 -0.20766314425E-01  0.52573918909E-01  0.66971002414E-01  0.51100000000E-03 0.  1.
</event>
<event>
 8    1  0.1162192E+005  0.1043930E+01  0.7957747E-01            NaN
         13   -1    0    0    0    0  0.00000000000E+00  0.00000000000E+00  0.74505805969E-08  0.10566000000E+00  0.10566000000E+00 0. -1.
     999900   -1    0    0    0    0 -0.00000000000E+00 -0.00000000000E+00 -0.74505805969E-08  0.93827000000E+00  0.93827000000E+00 0. -1.
     999902    2    1    2    0    0  0.19755164342E-01  0.14662586509E-01  0.67569814885E-03  0.10193187317E+01  0.10190215710E+01 0.  0.
     999903    2    3    3    0    0  0.53650432563E-01  0.10428963655E+00 -0.57806151012E-01  0.13218738626E+00  0.19423099273E-01 0.  0.
         14    1    1    2    0    0 -0.19755164342E-01 -0.14662586509E-01 -0.67569814885E-03  0.24611268340E-01  0.00000000000E+00 0.  1.
     999901    1    3    3    0    0 -0.33895268220E-01 -0.89627050044E-01  0.58481849161E-01  0.88713134540E+00  0.88000000000E+00 0.  1.
        -11    1    4    4    0    0  0.31523524354E-01  0.45068162950E-01 -0.20005876420E-01  0.58526644460E-01  0.51100000000E-03 0.  1.
         11    1    4    4    0    0  0.22126908208E-01  0.59221473602E-01 -0.37800274592E-01  0.73660741801E-01  0.51100000000E-03 0. -1.
</event>
<event>
 8    1  0.1162192E+005  0.1043930E+01  0.7957747E-01            NaN
         13   -1    0    0    0    0  0.00000000000E+00  0.00000000000E+00  0.74505805969E-08  0.10566000000E+00  0.10566000000E+00 0.  1.
     999900   -1    0    0    0    0 -0.00000000000E+00 -0.00000000000E+00 -0.74505805969E-08  0.93827000000E+00  0.93827000000E+00 0.  1.
     999902    2    1    2    0    0  0.43277996834E-02 -0.21206551044E-01  0.11849959513E-01  0.10192547250E+01  0.10189559977E+01 0.  0.
     999903    2    3    3    0    0  0.70643320466E-01  0.98146378335E-01  0.37773807394E-01  0.12834793078E+00  0.20570379277E-01 0.  0.
         14    1    1    2    0    0 -0.43277996834E-02  0.21206551044E-01 -0.11849959513E-01  0.24675275028E-01  0.00000000000E+00 0.  1.
     999901    1    3    3    0    0 -0.66315520783E-01 -0.11935292938E+00 -0.25923847881E-01  0.89090679419E+00  0.88000000000E+00 0.  1.
        -11    1    4    4    0    0  0.26362064608E-01  0.53110480528E-01  0.14567769315E-01  0.61058681742E-01  0.51100000000E-03 0.  1.
         11    1    4    4    0    0  0.44281255858E-01  0.45035897808E-01  0.23206038079E-01  0.67289249038E-01  0.51100000000E-03 0. -1.
</event>
<event>
 8    1  0.1199156E+005  0.1043930E+01  0.7957747E-01            NaN
         13   -1    0    0    0    0  0.00000000000E+00  0.00000000000E+00  0.74505805969E-08  0.10566000000E+00  0.10566000000E+00 0. -1.
     999900   -1    0    0    0    0 -0.00000000000E+00 -0.00000000000E+00 -0.74505805969E-08  0.93827000000E+00  0.93827000000E+00 0. -1.
     999902    2    1    2    0    0  0.10716653011E-01  0.20448046956E-01 -0.18796141293E-02  0.10207674823E+01  0.10205046549E+01 0.  0.
     999903    2    3    3    0    0 -0.12451197572E+00  0.70406352911E-02  0.29665976798E-01  0.12977833254E+00  0.20237163165E-01 0.  0.
         14    1    1    2    0    0 -0.10716653011E-01 -0.20448046956E-01  0.18796141293E-02  0.23162517682E-01  0.00000000000E+00 0.  1.
     999901    1    3    3    0    0  0.13522862874E+00  0.13407411665E-01 -0.31545590927E-01  0.89098914978E+00  0.88000000000E+00 0. -1.
        -11    1    4    4    0    0 -0.70246967562E-01  0.89059363423E-02  0.25713411686E-01  0.75335203029E-01  0.51100000000E-03 0. -1.
         11    1    4    4    0    0 -0.54265008163E-01 -0.18653010512E-02  0.39525651117E-02  0.54443129510E-01  0.51100000000E-03 0.  1.
</event>
<event>
 8    1  0.1162192E+005  0.1043930E+01  0.7957747E-01            NaN
         13   -1    0    0    0    0  0.00000000000E+00  0.00000000000E+00  0.74505805969E-08  0.10566000000E+00  0.10566000000E+00 0. -1.
     999900   -1    0    0    0    0 -0.00000000000E+00 -0.00000000000E+00 -0.74505805969E-08  0.93827000000E+00  0.93827000000E+00 0.  1.
     999902    2    1    2    0    0  0.22441374342E-01  0.89334716383E-03 -0.15678732935E-01  0.10165395634E+01  0.10161704817E+01 0.  0.
     999903    2    3    3    0    0 -0.64125945811E-01  0.10263740962E+00  0.26044052245E-01  0.12548033642E+00  0.20504813806E-01 0.  0.
         14    1    1    2    0    0 -0.22441374342E-01 -0.89334716383E-03  0.15678732935E-01  0.27390436615E-01  0.00000000000E+00 0. -1.
     999901    1    3    3    0    0  0.86567320152E-01 -0.10174406246E+00 -0.41722785180E-01  0.89105922697E+00  0.88000000000E+00 0. -1.
        -11    1    4    4    0    0 -0.14078155368E-01  0.40865423730E-01  0.10222165766E-01  0.44417689146E-01  0.51100000000E-03 0. -1.
         11    1    4    4    0    0 -0.50047790443E-01  0.61771985894E-01  0.15821886479E-01  0.81062647269E-01  0.51100000000E-03 0.  1.
</event>
<event>
 8    1  0.1162192E+005  0.1043930E+01  0.7957747E-01            NaN
         13   -1    0    0    0    0  0.00000000000E+00  0.00000000000E+00  0.74505805969E-08  0.10566000000E+00  0.10566000000E+00 0. -1.
     999900   -1    0    0    0    0 -0.00000000000E+00 -0.00000000000E+00 -0.74505805969E-08  0.93827000000E+00  0.93827000000E+00 0. -1.
     999902    2    1    2    0    0 -0.37309353242E-03 -0.42495361541E-02 -0.22075736388E-01  0.10214458746E+01  0.10211983837E+01 0.  0.
     999903    2    3    3    0    0 -0.34692281967E-01  0.72745371460E-01 -0.10437244858E+00  0.13359522766E+00  0.21415726362E-01 0.  0.
         14    1    1    2    0    0  0.37309353242E-03  0.42495361541E-02  0.22075736388E-01  0.22484125364E-01  0.00000000000E+00 0. -1.
     999901    1    3    3    0    0  0.34319188434E-01 -0.76994907614E-01  0.82296712188E-01  0.88785064697E+00  0.88000000000E+00 0.  1.
        -11    1    4    4    0    0 -0.32220654094E-01  0.45091454268E-01 -0.65093089012E-01  0.85491409840E-01  0.51100000000E-03 0.  1.
         11    1    4    4    0    0 -0.24716278727E-02  0.27653917191E-01 -0.39279359564E-01  0.48103817823E-01  0.51100000000E-03 0. -1.
</event>
<event>
 8    1  0.1162192E+005  0.1043930E+01  0.7957747E-01            NaN
         13   -1    0    0    0    0  0.00000000000E+00  0.00000000000E+00  0.74505805969E-08  0.10566000000E+00  0.10566000000E+00 0. -1.
     999900   -1    0    0    0    0 -0.00000000000E+00 -0.00000000000E+00 -0.74505805969E-08  0.93827000000E+00  0.93827000000E+00 0. -1.
     999902    2    1    2    0    0  0.88100315169E-02 -0.62420394020E-02  0.20503390442E-01  0.10207574142E+01  0.10204943557E+01 0.  0.
     999903    2    3    3    0    0  0.92751051274E-01 -0.84280600567E-01 -0.35167534758E-01  0.13158062432E+00  0.19254299514E-01 0.  0.
         14    1    1    2    0    0 -0.88100315169E-02  0.62420394020E-02 -0.20503390442E-01  0.23172585761E-01  0.00000000000E+00 0. -1.
     999901    1    3    3    0    0 -0.83941019757E-01  0.78038561165E-01  0.55670925201E-01  0.88917678992E+00  0.88000000000E+00 0. -1.
        -11    1    4    4    0    0  0.29102263267E-01 -0.30463286630E-01 -0.20838595816E-01  0.47004912043E-01  0.51100000000E-03 0.  1.
         11    1    4    4    0    0  0.63648788007E-01 -0.53817313937E-01 -0.14328938942E-01  0.84575712272E-01  0.51100000000E-03 0. -1.
</event>
<event>
 8    1  0.1162192E+005  0.1043930E+01  0.7957747E-01            NaN
         13   -1    0    0    0    0  0.00000000000E+00  0.00000000000E+00  0.74505805969E-08  0.10566000000E+00  0.10566000000E+00 0.  1.
     999900   -1    0    0    0    0 -0.00000000000E+00 -0.00000000000E+00 -0.74505805969E-08  0.93827000000E+00  0.93827000000E+00 0.  1.
     999902    2    1    2    0    0  0.18265280511E-02 -0.21733866423E-01 -0.88852347516E-02  0.10203791072E+01  0.10201072874E+01 0.  0.
     999903    2    3    3    0    0  0.18522995973E-01  0.12413481513E+00  0.13325270528E-01  0.12793877260E+00  0.20933537512E-01 0.  0.
         14    1    1    2    0    0 -0.18265280511E-02  0.21733866423E-01  0.88852347516E-02  0.23550892786E-01  0.00000000000E+00 0.  1.
     999901    1    3    3    0    0 -0.16696467922E-01 -0.14586868155E+00 -0.22210505279E-01  0.89244033461E+00  0.88000000000E+00 0.  1.
        -11    1    4    4    0    0  0.45703643990E-02  0.72023455066E-01  0.16002745499E-01  0.73923036294E-01  0.51100000000E-03 0.  1.
         11    1    4    4    0    0  0.13952631574E-01  0.52111360064E-01 -0.26774749713E-02  0.54015736307E-01  0.51100000000E-03 0. -1.
</event>
<event>
 8    1  0.1162192E+005  0.1043930E+01  0.7957747E-01            NaN
         13   -1    0    0    0    0  0.00000000000E+00  0.00000000000E+00  0.74505805969E-08  0.10566000000E+00  0.10566000000E+00 0.  1.
     999900   -1    0    0    0    0 -0.00000000000E+00 -0.00000000000E+00 -0.74505805969E-08  0.93827000000E+00  0.93827000000E+00 0.  1.
     999902    2    1    2    0    0 -0.23206026684E-02  0.23270992313E-01 -0.13960064531E-02  0.10205019588E+01  0.10202330003E+01 0.  0.
     999903    2    3    3    0    0  0.78502719078E-01 -0.68882615011E-01  0.72725379753E-01  0.12891983888E+00  0.20587676994E-01 0.  0.
         14    1    1    2    0    0  0.23206026684E-02 -0.23270992313E-01  0.13960064531E-02  0.23428041189E-01  0.00000000000E+00 0. -1.
     999901    1    3    3    0    0 -0.80823321746E-01  0.92153607324E-01 -0.74121386206E-01  0.89158211993E+00  0.88000000000E+00 0. -1.
        -11    1    4    4    0    0  0.58840553862E-01 -0.44217878677E-01  0.41339589556E-01  0.84419514090E-01  0.51100000000E-03 0.  1.
         11    1    4    4    0    0  0.19662165216E-01 -0.24664736334E-01  0.31385790197E-01  0.44500324793E-01  0.51100000000E-03 0. -1.
</event>
<event>
 8    1  0.1162192E+005  0.1043930E+01  0.7957747E-01            NaN
         13   -1    0    0    0    0  0.00000000000E+00  0.00000000000E+00  0.74505805969E-08  0.10566000000E+00  0.10566000000E+00 0.  1.
     999900   -1    0    0    0    0 -0.00000000000E+00 -0.00000000000E+00 -0.74505805969E-08  0.93827000000E+00  0.93827000000E+00 0.  1.
     999902    2    1    2    0    0 -0.56295122043E-02  0.11321784456E-01 -0.20137181713E-01  0.10201522731E+01  0.10198751296E+01 0.  0.
     999903    2    3    3    0    0  0.37055290498E-01 -0.10471795308E+00  0.60385046248E-01  0.12786810181E+00  0.19103753544E-01 0.  0.
         14    1    1    2    0    0  0.56295122043E-02 -0.11321784456E-01  0.20137181713E-01  0.23777726936E-01  0.00000000000E+00 0.  1.
     999901    1    3    3    0    0 -0.42684802702E-01  0.11603973754E+00 -0.80522227960E-01  0.89228417125E+00  0.88000000000E+00 0. -1.
        -11    1    4    4    0    0  0.30786785808E-01 -0.93697779154E-01  0.46438617017E-01  0.10901333070E+00  0.51100000000E-03 0. -1.
         11    1    4    4    0    0  0.62685046896E-02 -0.11020173927E-01  0.13946429231E-01  0.18854771112E-01  0.51100000000E-03 0.  1.
</event>
<event>
 8    1  0.1162192E+005  0.1043930E+01  0.7957747E-01            NaN
         13   -1    0    0    0    0  0.00000000000E+00  0.00000000000E+00  0.74505805969E-08  0.10566000000E+00  0.10566000000E+00 0. -1.
     999900   -1    0    0    0    0 -0.00000000000E+00 -0.00000000000E+00 -0.74505805969E-08  0.93827000000E+00  0.93827000000E+00 0. -1.
     999902    2    1    2    0    0 -0.18732085532E-01  0.36881593938E-02 -0.13594321848E-01  0.10204928685E+01  0.10202236987E+01 0.  0.
     999903    2    3    3    0    0 -0.50886015380E-01  0.10639061857E+00  0.53701338788E-01  0.13138636401E+00  0.21683924428E-01 0.  0.
         14    1    1    2    0    0  0.18732085532E-01 -0.36881593938E-02  0.13594321848E-01  0.23437131535E-01  0.00000000000E+00 0. -1.
     999901    1    3    3    0    0  0.32153929848E-01 -0.10270245918E+00 -0.67295660636E-01  0.88910650446E+00  0.88000000000E+00 0. -1.
        -11    1    4    4    0    0 -0.35397909873E-01  0.56729181739E-01  0.38624697707E-01  0.77222668163E-01  0.51100000000E-03 0. -1.
         11    1    4    4    0    0 -0.15488105506E-01  0.49661436833E-01  0.15076641081E-01  0.54163695847E-01  0.51100000000E-03 0.  1.
</event>
<event>
 8    1  0.1162192E+005  0.1043930E+01  0.7957747E-01            NaN
         13   -1    0    0    0    0  0.00000000000E+00  0.00000000000E+00  0.74505805969E-08  0.10566000000E+00  0.10566000000E+00 0.  1.
     999900   -1    0    0    0    0 -0.00000000000E+00 -0.00000000000E+00 -0.74505805969E-08  0.93827000000E+00  0.93827000000E+00 0.  1.
     999902    2    1    2    0    0 -0.21666596377E-01  0.10884806840E-01 -0.80101694506E-02  0.10183940796E+01  0.10180738765E+01 0.  0.
     999903    2    3    3    0    0  0.94221356549E-01 -0.35684000689E-01  0.72813930737E-01  0.12590810956E+00  0.19999290177E-01 0.  0.
         14    1    1    2    0    0  0.21666596377E-01 -0.10884806840E-01  0.80101694506E-02  0.25535920448E-01  0.00000000000E+00 0.  1.
     999901    1    3    3    0    0 -0.11588795293E+00  0.46568807530E-01 -0.80824100187E-01  0.89248597000E+00  0.88000000000E+00 0. -1.
        -11    1    4    4    0    0  0.68033253571E-01 -0.22266609242E-01  0.61508781768E-01  0.94381761131E-01  0.51100000000E-03 0.  1.
         11    1    4    4    0    0  0.26188102977E-01 -0.13417391447E-01  0.11305148968E-01  0.31526348425E-01  0.51100000000E-03 0. -1.
</event>
<event>
 8    1  0.1162192E+005  0.1043930E+01  0.7957747E-01            NaN
         13   -1    0    0    0    0  0.00000000000E+00  0.00000000000E+00  0.74505805969E-08  0.10566000000E+00  0.10566000000E+00 0.  1.
     999900   -1    0    0    0    0 -0.00000000000E+00 -0.00000000000E+00 -0.74505805969E-08  0.93827000000E+00  0.93827000000E+00 0. -1.
     999902    2    1    2    0    0  0.25024500379E-01 -0.78707867611E-02 -0.30697201007E-02  0.10175179178E+01  0.10171750661E+01 0.  0.
     999903    2    3    3    0    0  0.60136707676E-01  0.91721546281E-01  0.64709406163E-01  0.12861662417E+00  0.18046138212E-01 0.  0.
         14    1    1    2    0    0 -0.25024500379E-01  0.78707867611E-02  0.30697201007E-02  0.26412082178E-01  0.00000000000E+00 0. -1.
     999901    1    3    3    0    0 -0.35112207297E-01 -0.99592333042E-01 -0.67779126264E-01  0.88890129365E+00  0.88000000000E+00 0.  1.
        -11    1    4    4    0    0  0.17110548448E-01  0.14220028753E-01  0.16553804680E-01  0.27735710849E-01  0.51100000000E-03 0.  1.
         11    1    4    4    0    0  0.43026159229E-01  0.77501517528E-01  0.48155601483E-01  0.10088091332E+00  0.51100000000E-03 0. -1.
</event>
<event>
 8    1  0.1162192E+005  0.1043930E+01  0.7957747E-01            NaN
         13   -1    0    0    0    0  0.00000000000E+00  0.00000000000E+00  0.74505805969E-08  0.10566000000E+00  0.10566000000E+00 0.  1.
     999900   -1    0    0    0    0 -0.00000000000E+00 -0.00000000000E+00 -0.74505805969E-08  0.93827000000E+00  0.93827000000E+00 0. -1.
     999902    2    1    2    0    0  0.16091290783E-01  0.12682675736E-02  0.16757575679E-01  0.10206629743E+01  0.10203977424E+01 0.  0.
     999903    2    3    3    0    0  0.10491016514E+00  0.62985201257E-01 -0.45112182383E-01  0.13188536472E+00  0.19630641893E-01 0.  0.
         14    1    1    2    0    0 -0.16091290783E-01 -0.12682675736E-02 -0.16757575679E-01  0.23267025687E-01  0.00000000000E+00 0.  1.
     999901    1    3    3    0    0 -0.88818874359E-01 -0.61716933683E-01  0.61869758061E-01  0.88877760959E+00  0.88000000000E+00 0. -1.
        -11    1    4    4    0    0  0.23256409611E-01  0.11870710772E-01 -0.15563352697E-02  0.26162141784E-01  0.51100000000E-03 0. -1.
         11    1    4    4    0    0  0.81653755531E-01  0.51114490485E-01 -0.43555847113E-01  0.10572322294E+00  0.51100000000E-03 0.  1.
</event>
<event>
 8    1  0.1162192E+005  0.1043930E+01  0.7957747E-01            NaN
         13   -1    0    0    0    0  0.00000000000E+00  0.00000000000E+00  0.74505805969E-08  0.10566000000E+00  0.10566000000E+00 0.  1.
     999900   -1    0    0    0    0 -0.00000000000E+00 -0.00000000000E+00 -0.74505805969E-08  0.93827000000E+00  0.93827000000E+00 0.  1.
     999902    2    1    2    0    0  0.32277612322E-02  0.97502127693E-02 -0.21195935522E-01  0.10203768097E+01  0.10201049362E+01 0.  0.
     999903    2    3    3    0    0 -0.51294255193E-01 -0.76373375331E-01 -0.92143672398E-01  0.13165666021E+00  0.19468609093E-01 0.  0.
         14    1    1    2    0    0 -0.32277612322E-02 -0.97502127693E-02  0.21195935522E-01  0.23553190320E-01  0.00000000000E+00 0.  1.
     999901    1    3    3    0    0  0.54522016425E-01  0.86123588101E-01  0.70947736876E-01  0.88872014947E+00  0.88000000000E+00 0. -1.
        -11    1    4    4    0    0 -0.68279427090E-03 -0.10753387643E-01 -0.14684829954E-01  0.18221056654E-01  0.51100000000E-03 0.  1.
         11    1    4    4    0    0 -0.50611460922E-01 -0.65619987689E-01 -0.77458842443E-01  0.11343560356E+00  0.51100000000E-03 0. -1.
</event>
<event>
 8    1  0.1162192E+005  0.1043930E+01  0.7957747E-01            NaN
         13   -1    0    0    0    0  0.00000000000E+00  0.00000000000E+00  0.74505805969E-08  0.10566000000E+00  0.10566000000E+00 0.  1.
     999900   -1    0    0    0    0 -0.00000000000E+00 -0.00000000000E+00 -0.74505805969E-08  0.93827000000E+00  0.93827000000E+00 0. -1.
     999902    2    1    2    0    0  0.57387079732E-02 -0.19463909643E-01  0.16615980522E-01  0.10177027745E+01  0.10173647674E+01 0.  0.
     999903    2    3    3    0    0  0.30068556541E-01 -0.80924356506E-01  0.97290425152E-01  0.13154381921E+00  0.19633644012E-01 0.  0.
         14    1    1    2    0    0 -0.57387079732E-02  0.19463909643E-01 -0.16615980522E-01  0.26227225482E-01  0.00000000000E+00 0. -1.
     999901    1    3    3    0    0 -0.24329848568E-01  0.61460446862E-01 -0.80674444630E-01  0.88615895531E+00  0.88000000000E+00 0. -1.
        -11    1    4    4    0    0  0.26285014911E-01 -0.51387127052E-01  0.54326412520E-01  0.79266380350E-01  0.51100000000E-03 0.  1.
         11    1    4    4    0    0  0.37835416299E-02 -0.29537229454E-01  0.42964012632E-01  0.52277438858E-01  0.51100000000E-03 0. -1.
</event>
<event>
 8    1  0.1162192E+005  0.1043930E+01  0.7957747E-01            NaN
         13   -1    0    0    0    0  0.00000000000E+00  0.00000000000E+00  0.74505805969E-08  0.10566000000E+00  0.10566000000E+00 0. -1.
     999900   -1    0    0    0    0 -0.00000000000E+00 -0.00000000000E+00 -0.74505805969E-08  0.93827000000E+00  0.93827000000E+00 0.  1.
     999902    2    1    2    0    0 -0.16298884234E-01  0.58152524164E-03  0.12783550699E-01  0.10232077664E+01  0.10229979092E+01 0.  0.
     999903    2    3    3    0    0 -0.11687040562E+00 -0.24235364845E-01 -0.58136509331E-01  0.13429822998E+00  0.20251326850E-01 0.  0.
         14    1    1    2    0    0  0.16298884234E-01 -0.58152524164E-03 -0.12783550699E-01  0.20722233648E-01  0.00000000000E+00 0. -1.
     999901    1    3    3    0    0  0.10057152138E+00  0.24816890087E-01  0.70920060030E-01  0.88890953638E+00  0.88000000000E+00 0. -1.
        -11    1    4    4    0    0 -0.54405739329E-01 -0.21254575082E-01 -0.30970438404E-01  0.66114828971E-01  0.51100000000E-03 0. -1.
         11    1    4    4    0    0 -0.62464666287E-01 -0.29807897636E-02 -0.27166070927E-01  0.68183401005E-01  0.51100000000E-03 0.  1.
</event>
<event>
 8    1  0.1162192E+005  0.1043930E+01  0.7957747E-01            NaN
         13   -1    0    0    0    0  0.00000000000E+00  0.00000000000E+00  0.74505805969E-08  0.10566000000E+00  0.10566000000E+00 0.  1.
     999900   -1    0    0    0    0 -0.00000000000E+00 -0.00000000000E+00 -0.74505805969E-08  0.93827000000E+00  0.93827000000E+00 0. -1.
     999902    2    1    2    0    0 -0.72159819854E-02 -0.66124576190E-02 -0.21338521055E-01  0.10204538957E+01  0.10201838196E+01 0.  0.
     999903    2    3    3    0    0 -0.25645123192E-01  0.14423921120E-01  0.12326186835E+00  0.12821433422E+00  0.19486032616E-01 0.  0.
         14    1    1    2    0    0  0.72159819854E-02  0.66124576190E-02  0.21338521055E-01  0.23476104289E-01  0.00000000000E+00 0.  1.
     999901    1    3    3    0    0  0.18429141207E-01 -0.21036378739E-01 -0.14460038940E+00  0.89223956149E+00  0.88000000000E+00 0. -1.
        -11    1    4    4    0    0 -0.11238904152E-01  0.10921288303E-01  0.30710850378E-01  0.34481951173E-01  0.51100000000E-03 0.  1.
         11    1    4    4    0    0 -0.14406219040E-01  0.35026328177E-02  0.92551017969E-01  0.93732383047E-01  0.51100000000E-03 0. -1.
</event>
<event>
 8    1  0.1162192E+005  0.1043930E+01  0.7957747E-01            NaN
         13   -1    0    0    0    0  0.00000000000E+00  0.00000000000E+00  0.74505805969E-08  0.10566000000E+00  0.10566000000E+00 0. -1.
     999900   -1    0    0    0    0 -0.00000000000E+00 -0.00000000000E+00 -0.74505805969E-08  0.93827000000E+00  0.93827000000E+00 0. -1.
     999902    2    1    2    0    0  0.20109052026E-01 -0.27109181508E-02 -0.12311533955E-01  0.10201961230E+01  0.10199200127E+01 0.  0.
     999903    2    3    3    0    0  0.29482111000E-01  0.86281623972E-01 -0.93491978715E-01  0.13194064654E+00  0.18811449232E-01 0.  0.
         14    1    1    2    0    0 -0.20109052026E-01  0.27109181508E-02  0.12311533955E-01  0.23733877031E-01  0.00000000000E+00 0. -1.
     999901    1    3    3    0    0 -0.93730589744E-02 -0.88992542123E-01  0.81180444759E-01  0.88825547643E+00  0.88000000000E+00 0.  1.
        -11    1    4    4    0    0  0.27712317338E-01  0.54982128661E-01 -0.58089814221E-01  0.84650426115E-01  0.51100000000E-03 0.  1.
         11    1    4    4    0    0  0.17697936621E-02  0.31299495311E-01 -0.35402164494E-01  0.47290220429E-01  0.51100000000E-03 0. -1.
</event>
<event>
 8    1  0.1256496E+005  0.1043930E+01  0.7957747E-01            NaN
         13   -1    0    0    0    0  0.00000000000E+00  0.00000000000E+00  0.74505805969E-08  0.10566000000E+00  0.10566000000E+00 0.  1.
     999900   -1    0    0    0    0 -0.00000000000E+00 -0.00000000000E+00 -0.74505805969E-08  0.93827000000E+00  0.93827000000E+00 0.  1.
     999902    2    1    2    0    0 -0.66581043305E-02 -0.19947940051E-01 -0.10718565613E-01  0.10203262225E+01  0.10200531662E+01 0.  0.
     999903    2    3    3    0    0  0.97885505253E-01 -0.24159665653E-01  0.78876197825E-01  0.12961059636E+00  0.20302475764E-01 0.  0.
         14    1    1    2    0    0  0.66581043305E-02  0.19947940051E-01  0.10718565613E-01  0.23603777545E-01  0.00000000000E+00 0.  1.
     999901    1    3    3    0    0 -0.10454360958E+00  0.42117256015E-02 -0.89594763438E-01  0.89071562610E+00  0.88000000000E+00 0.  1.
        -11    1    4    4    0    0  0.25642363761E-01 -0.15711338965E-01  0.21607027710E-01  0.37033792120E-01  0.51100000000E-03 0.  1.
         11    1    4    4    0    0  0.72243141491E-01 -0.84483266877E-02  0.57269170115E-01  0.92576804239E-01  0.51100000000E-03 0. -1.
</event>
<event>
 8    1  0.1162192E+005  0.1043930E+01  0.7957747E-01            NaN
         13   -1    0    0    0    0  0.00000000000E+00  0.00000000000E+00  0.74505805969E-08  0.10566000000E+00  0.10566000000E+00 0. -1.
     999900   -1    0    0    0    0 -0.00000000000E+00 -0.00000000000E+00 -0.74505805969E-08  0.93827000000E+00  0.93827000000E+00 0. -1.
     999902    2    1    2    0    0 -0.23225169532E-01 -0.30686112872E-02  0.93110781543E-03  0.10204844922E+01  0.10202151278E+01 0.  0.
     999903    2    3    3    0    0 -0.26280200128E-01  0.43519303438E-01 -0.11919497543E+00  0.13109703843E+00  0.19859824479E-01 0.  0.
         14    1    1    2    0    0  0.23225169532E-01  0.30686112872E-02 -0.93110781543E-03  0.23445507816E-01  0.00000000000E+00 0.  1.
     999901    1    3    3    0    0  0.30550305969E-02 -0.46587914725E-01  0.12012608324E+00  0.88938745375E+00  0.88000000000E+00 0.  1.
        -11    1    4    4    0    0 -0.40170431829E-02  0.25380428423E-01 -0.51346480399E-01  0.57419726168E-01  0.51100000000E-03 0. -1.
         11    1    4    4    0    0 -0.22263156946E-01  0.18138875015E-01 -0.67848495030E-01  0.73677312267E-01  0.51100000000E-03 0.  1.
</event>
<event>
 8    1  0.1162192E+005  0.1043930E+01  0.7957747E-01            NaN
         13   -1    0    0    0    0  0.00000000000E+00  0.00000000000E+00  0.74505805969E-08  0.10566000000E+00  0.10566000000E+00 0. -1.
     999900   -1    0    0    0    0 -0.00000000000E+00 -0.00000000000E+00 -0.74505805969E-08  0.93827000000E+00  0.93827000000E+00 0.  1.
     999902    2    1    2    0    0  0.69352763818E-02  0.23629942694E-01  0.34932520527E-02  0.10190568205E+01  0.10187532225E+01 0.  0.
     999903    2    3    3    0    0  0.66260430558E-01  0.68037518049E-01  0.89197145274E-01  0.13179323845E+00  0.19843851824E-01 0.  0.
         14    1    1    2    0    0 -0.69352763818E-02 -0.23629942694E-01 -0.34932520527E-02  0.24873179533E-01  0.00000000000E+00 0.  1.
     999901    1    3    3    0    0 -0.59325154176E-01 -0.44407575355E-01 -0.85703893221E-01  0.88726358202E+00  0.88000000000E+00 0.  1.
        -11    1    4    4    0    0  0.37049800424E-01  0.46347000034E-01  0.44571396823E-01  0.74213224289E-01  0.51100000000E-03 0. -1.
         11    1    4    4    0    0  0.29210630134E-01  0.21690518015E-01  0.44625748451E-01  0.57580014157E-01  0.51100000000E-03 0.  1.
</event>
<event>
 8    1  0.1162192E+005  0.1043930E+01  0.7957747E-01            NaN
         13   -1    0    0    0    0  0.00000000000E+00  0.00000000000E+00  0.74505805969E-08  0.10566000000E+00  0.10566000000E+00 0. -1.
     999900   -1    0    0    0    0 -0.00000000000E+00 -0.00000000000E+00 -0.74505805969E-08  0.93827000000E+00  0.93827000000E+00 0.  1.
     999902    2    1    2    0    0  0.47090883983E-02  0.18284477052E-01  0.14710334143E-01  0.10199948471E+01  0.10197139778E+01 0.  0.
     999903    2    3    3    0    0 -0.93019871248E-01 -0.85832795961E-01  0.35282258042E-02  0.12841400631E+00  0.21394936986E-01 0.  0.
         14    1    1    2    0    0 -0.47090883983E-02 -0.18284477052E-01 -0.14710334143E-01  0.23935152918E-01  0.00000000000E+00 0.  1.
     999901    1    3    3    0    0  0.97728959646E-01  0.10411727301E+00  0.11182108339E-01  0.89158084078E+00  0.88000000000E+00 0.  1.
        -11    1    4    4    0    0 -0.72270296242E-01 -0.54512432518E-01  0.62573324831E-02  0.90741480860E-01  0.51100000000E-03 0.  1.
         11    1    4    4    0    0 -0.20749575006E-01 -0.31320363444E-01 -0.27291066788E-02  0.37672525445E-01  0.51100000000E-03 0. -1.
</event>
<event>
 8    1  0.1162192E+005  0.1043930E+01  0.7957747E-01            NaN
         13   -1    0    0    0    0  0.00000000000E+00  0.00000000000E+00  0.74505805969E-08  0.10566000000E+00  0.10566000000E+00 0.  1.
     999900   -1    0    0    0    0 -0.00000000000E+00 -0.00000000000E+00 -0.74505805969E-08  0.93827000000E+00  0.93827000000E+00 0. -1.
     999902    2    1    2    0    0  0.22267193111E-01 -0.60807289632E-02 -0.49810385232E-02  0.10203161503E+01  0.10200428582E+01 0.  0.
     999903    2    3    3    0    0 -0.39274224828E-01  0.10947442499E+00  0.51105114603E-01  0.12886452720E+00  0.21615253146E-01 0.  0.
         14    1    1    2    0    0 -0.22267193111E-01  0.60807289632E-02  0.49810385232E-02  0.23613849719E-01  0.00000000000E+00 0.  1.
     999901    1    3    3    0    0  0.61541417939E-01 -0.11555515395E+00 -0.56086153126E-01  0.89145162308E+00  0.88000000000E+00 0. -1.
        -11    1    4    4    0    0 -0.64347580096E-02  0.11638274937E-01 -0.82455007859E-03  0.13334037572E-01  0.51100000000E-03 0. -1.
         11    1    4    4    0    0 -0.32839466818E-01  0.97836150053E-01  0.51929664682E-01  0.11553048962E+00  0.51100000000E-03 0.  1.
</event>
<event>
 8    1  0.1162192E+005  0.1043930E+01  0.7957747E-01            NaN
         13   -1    0    0    0    0  0.00000000000E+00  0.00000000000E+00  0.74505805969E-08  0.10566000000E+00  0.10566000000E+00 0. -1.
     999900   -1    0    0    0    0 -0.00000000000E+00 -0.00000000000E+00 -0.74505805969E-08  0.93827000000E+00  0.93827000000E+00 0.  1.
     999902    2    1    2    0    0  0.99165222712E-02  0.20553675771E-01  0.22549902649E-01  0.10118474641E+01  0.10113387175E+01 0.  0.
     999903    2    3    3    0    0 -0.53693116752E-02 -0.11493013941E+00  0.32792071563E-01  0.12128897475E+00  0.19948157454E-01 0.  0.
         14    1    1    2    0    0 -0.99165222712E-02 -0.20553675771E-01 -0.22549902649E-01  0.32082535921E-01  0.00000000000E+00 0.  1.
     999901    1    3    3    0    0  0.15285833946E-01  0.13548381518E+00 -0.10242168914E-01  0.89055848933E+00  0.88000000000E+00 0. -1.
        -11    1    4    4    0    0 -0.41372156664E-02 -0.99734939279E-02 -0.13893302556E-02  0.10898554682E-01  0.51100000000E-03 0.  1.
         11    1    4    4    0    0 -0.12320960088E-02 -0.10495664548E+00  0.34181401819E-01  0.11039042007E+00  0.51100000000E-03 0. -1.
</event>
<event>
 8    1  0.1162192E+005  0.1043930E+01  0.7957747E-01            NaN
         13   -1    0    0    0    0  0.00000000000E+00  0.00000000000E+00  0.74505805969E-08  0.10566000000E+00  0.10566000000E+00 0.  1.
     999900   -1    0    0    0    0 -0.00000000000E+00 -0.00000000000E+00 -0.74505805969E-08  0.93827000000E+00  0.93827000000E+00 0. -1.
     999902    2    1    2    0    0  0.17261723857E-01 -0.43689503488E-02 -0.15762229328E-01  0.10201496991E+01  0.10198724949E+01 0.  0.
     999903    2    3    3    0    0  0.59893336097E-01  0.34024376728E-01 -0.11222431265E+00  0.13302150349E+00  0.18856142749E-01 0.  0.
         14    1    1    2    0    0 -0.17261723857E-01  0.43689503488E-02  0.15762229328E-01  0.23780300903E-01  0.00000000000E+00 0. -1.
     999901    1    3    3    0    0 -0.42631612240E-01 -0.38393327077E-01  0.96462083323E-01  0.88712819561E+00  0.88000000000E+00 0.  1.
        -11    1    4    4    0    0  0.42501738562E-01  0.14146843804E-01 -0.75358037346E-01  0.87667701487E-01  0.51100000000E-03 0.  1.
         11    1    4    4    0    0  0.17391597535E-01  0.19877532924E-01 -0.36866275306E-01  0.45353802000E-01  0.51100000000E-03 0. -1.
</event>
<event>
 8    1  0.1162192E+005  0.1043930E+01  0.7957747E-01            NaN
         13   -1    0    0    0    0  0.00000000000E+00  0.00000000000E+00  0.74505805969E-08  0.10566000000E+00  0.10566000000E+00 0.  1.
     999900   -1    0    0    0    0 -0.00000000000E+00 -0.00000000000E+00 -0.74505805969E-08  0.93827000000E+00  0.93827000000E+00 0. -1.
     999902    2    1    2    0    0 -0.68306064517E-02 -0.65937395097E-02  0.21275807879E-01  0.10206320476E+01  0.10203661019E+01 0.  0.
     999903    2    3    3    0    0  0.20640514201E-01  0.99783485764E-01  0.81227804251E-01  0.13177603091E+00  0.19600798005E-01 0.  0.
         14    1    1    2    0    0  0.68306064517E-02  0.65937395097E-02 -0.21275807879E-01  0.23297952402E-01  0.00000000000E+00 0. -1.
     999901    1    3    3    0    0 -0.27471120653E-01 -0.10637722527E+00 -0.59951996372E-01  0.88885601668E+00  0.88000000000E+00 0.  1.
        -11    1    4    4    0    0  0.13413767236E-02  0.50956482474E-01  0.35162497565E-01  0.61927576681E-01  0.51100000000E-03 0.  1.
         11    1    4    4    0    0  0.19299137478E-01  0.48827003290E-01  0.46065306686E-01  0.69848454233E-01  0.51100000000E-03 0. -1.
</event>
<event>
 8    1  0.1162192E+005  0.1043930E+01  0.7957747E-01            NaN
         13   -1    0    0    0    0  0.00000000000E+00  0.00000000000E+00  0.74505805969E-08  0.10566000000E+00  0.10566000000E+00 0. -1.
     999900   -1    0    0    0    0 -0.00000000000E+00 -0.00000000000E+00 -0.74505805969E-08  0.93827000000E+00  0.93827000000E+00 0.  1.
     999902    2    1    2    0    0 -0.94453968985E-02  0.50879257772E-04 -0.20810909488E-01  0.10210758523E+01  0.10208200547E+01 0.  0.
     999903    2    3    3    0    0  0.47889903621E-01 -0.11573134498E+00  0.30960297289E-01  0.13013639425E+00  0.17022162664E-01 0.  0.
         14    1    1    2    0    0  0.94453968985E-02 -0.50879257772E-04  0.20810909488E-01  0.22854147654E-01  0.00000000000E+00 0. -1.
     999901    1    3    3    0    0 -0.57335300519E-01  0.11578222424E+00 -0.51771206777E-01  0.89093945809E+00  0.88000000000E+00 0. -1.
        -11    1    4    4    0    0  0.17718099510E-01 -0.59954938264E-01  0.20937879319E-01  0.65933159972E-01  0.51100000000E-03 0. -1.
         11    1    4    4    0    0  0.30171804110E-01 -0.55776406714E-01  0.10022417970E-01  0.64203234281E-01  0.51100000000E-03 0.  1.
</event>
<event>
 8    1  0.1162192E+005  0.1043930E+01  0.7957747E-01            NaN
         13   -1    0    0    0    0  0.00000000000E+00  0.00000000000E+00  0.74505805969E-08  0.10566000000E+00  0.10566000000E+00 0. -1.
     999900   -1    0    0    0    0 -0.00000000000E+00 -0.00000000000E+00 -0.74505805969E-08  0.93827000000E+00  0.93827000000E+00 0. -1.
     999902    2    1    2    0    0  0.55805206615E-02  0.20114493242E-01  0.10826112810E-01  0.10204153287E+01  0.10201443541E+01 0.  0.
     999903    2    3    3    0    0  0.46533462749E-01 -0.11454429951E+00  0.30918790987E-01  0.12900417233E+00  0.20008626527E-01 0.  0.
         14    1    1    2    0    0 -0.55805206615E-02 -0.20114493242E-01 -0.10826112810E-01  0.23514671331E-01  0.00000000000E+00 0.  1.
     999901    1    3    3    0    0 -0.40952942088E-01  0.13465879276E+00 -0.20092678177E-01  0.89141115634E+00  0.88000000000E+00 0. -1.
        -11    1    4    4    0    0  0.17583040175E-01 -0.46224796968E-01  0.22466841694E-01  0.54322327392E-01  0.51100000000E-03 0. -1.
         11    1    4    4    0    0  0.28950422574E-01 -0.68319502545E-01  0.84519492930E-02  0.74681844936E-01  0.51100000000E-03 0.  1.
</event>
<event>
 8    1  0.1162192E+005  0.1043930E+01  0.7957747E-01            NaN
         13   -1    0    0    0    0  0.00000000000E+00  0.00000000000E+00  0.74505805969E-08  0.10566000000E+00  0.10566000000E+00 0.  1.
     999900   -1    0    0    0    0 -0.00000000000E+00 -0.00000000000E+00 -0.74505805969E-08  0.93827000000E+00  0.93827000000E+00 0.  1.
     999902    2    1    2    0    0 -0.71946934395E-02  0.37844635781E-02 -0.21773345400E-01  0.10206885640E+01  0.10204239219E+01 0.  0.
     999903    2    3    3    0    0  0.91175105759E-01 -0.79376980719E-01 -0.46322907423E-01  0.13097224728E+00  0.19857311673E-01 0.  0.
         14    1    1    2    0    0  0.71946934395E-02 -0.37844635781E-02  0.21773345400E-01  0.23241436018E-01  0.00000000000E+00 0.  1.
     999901    1    3    3    0    0 -0.98369799199E-01  0.83161444297E-01  0.24549562023E-01  0.88971631670E+00  0.88000000000E+00 0.  1.
        -11    1    4    4    0    0  0.37467933878E-01 -0.43504146100E-01 -0.15899308067E-01  0.59577730025E-01  0.51100000000E-03 0.  1.
         11    1    4    4    0    0  0.53707171881E-01 -0.35872834619E-01 -0.30423599356E-01  0.71394517254E-01  0.51100000000E-03 0. -1.
</event>
<event>
 8    1  0.1162192E+005  0.1043930E+01  0.7957747E-01            NaN
         13   -1    0    0    0    0  0.00000000000E+00  0.00000000000E+00  0.74505805969E-08  0.10566000000E+00  0.10566000000E+00 0. -1.
     999900   -1    0    0    0    0 -0.00000000000E+00 -0.00000000000E+00 -0.74505805969E-08  0.93827000000E+00  0.93827000000E+00 0.  1.
     999902    2    1    2    0    0 -0.15149123817E-02 -0.11954086846E-01  0.19051895084E-01  0.10213873769E+01  0.10211385820E+01 0.  0.
     999903    2    3    3    0    0 -0.75644139337E-01  0.64809668979E-01  0.84893470790E-01  0.13249878452E+00  0.20656657693E-01 0.  0.
         14    1    1    2    0    0  0.15149123817E-02  0.11954086846E-01 -0.19051895084E-01  0.22542623143E-01  0.00000000000E+00 0.  1.
     999901    1    3    3    0    0  0.74129226955E-01 -0.76763755825E-01 -0.65841575706E-01  0.88888859234E+00  0.88000000000E+00 0.  1.
        -11    1    4    4    0    0 -0.71776723411E-01  0.52869614974E-01  0.75282999121E-01  0.11668284059E+00  0.51100000000E-03 0.  1.
         11    1    4    4    0    0 -0.38674159264E-02  0.11940054005E-01  0.96104716696E-02  0.15815943927E-01  0.51100000000E-03 0. -1.
</event>
<event>
 8    1  0.1162192E+005  0.1043930E+01  0.7957747E-01            NaN
         13   -1    0    0    0    0  0.00000000000E+00  0.00000000000E+00  0.74505805969E-08  0.10566000000E+00  0.10566000000E+00 0.  1.
     999900   -1    0    0    0    0 -0.00000000000E+00 -0.00000000000E+00 -0.74505805969E-08  0.93827000000E+00  0.93827000000E+00 0. -1.
     999902    2    1    2    0    0  0.18235618610E-01  0.12641332634E-01 -0.43821160137E-02  0.10213126611E+01  0.10210621958E+01 0.  0.
     999903    2    3    3    0    0 -0.67574254385E-01 -0.79694076012E-01 -0.74600480131E-01  0.12956169777E+00  0.17423440707E-01 0.  0.
         14    1    1    2    0    0 -0.18235618610E-01 -0.12641332634E-01  0.43821160137E-02  0.22617338871E-01  0.00000000000E+00 0.  1.
     999901    1    3    3    0    0  0.85809872995E-01  0.92335408646E-01  0.70218364118E-01  0.89175096336E+00  0.88000000000E+00 0. -1.
        -11    1    4    4    0    0 -0.92157645639E-02 -0.43319085934E-02 -0.10857460673E-01  0.14894338583E-01  0.51100000000E-03 0. -1.
         11    1    4    4    0    0 -0.58358489821E-01 -0.75362167418E-01 -0.63743019459E-01  0.11466735919E+00  0.51100000000E-03 0.  1.
</event>
<event>
 8    1  0.1162192E+005  0.1043930E+01  0.7957747E-01            NaN
         13   -1    0    0    0    0  0.00000000000E+00  0.00000000000E+00  0.74505805969E-08  0.10566000000E+00  0.10566000000E+00 0. -1.
     999900   -1    0    0    0    0 -0.00000000000E+00 -0.00000000000E+00 -0.74505805969E-08  0.93827000000E+00  0.93827000000E+00 0. -1.
     999902    2    1    2    0    0 -0.18162607454E-01 -0.52159950810E-02  0.15303717472E-01  0.10196135306E+01  0.10193235312E+01 0.  0.
     999903    2    3    3    0    0  0.19460220704E-02 -0.10945341144E+00 -0.66071241796E-01  0.12950585178E+00  0.20555300429E-01 0.  0.
         14    1    1    2    0    0  0.18162607454E-01  0.52159950810E-02 -0.15303717472E-01  0.24316469371E-01  0.00000000000E+00 0. -1.
     999901    1    3    3    0    0 -0.20108629524E-01  0.10423741636E+00  0.81374959268E-01  0.89010767885E+00  0.88000000000E+00 0. -1.
        -11    1    4    4    0    0  0.84148265850E-02 -0.87880918424E-01 -0.47147716354E-01  0.10008513080E+00  0.51100000000E-03 0.  1.
         11    1    4    4    0    0 -0.64688045146E-02 -0.21572493013E-01 -0.18923525442E-01  0.29420720977E-01  0.51100000000E-03 0. -1.
</event>
<event>
 8    1  0.1162192E+005  0.1043930E+01  0.7957747E-01            NaN
         13   -1    0    0    0    0  0.00000000000E+00  0.00000000000E+00  0.74505805969E-08  0.10566000000E+00  0.10566000000E+00 0.  1.
     999900   -1    0    0    0    0 -0.00000000000E+00 -0.00000000000E+00 -0.74505805969E-08  0.93827000000E+00  0.93827000000E+00 0.  1.
     999902    2    1    2    0    0 -0.20933280190E-01  0.62726336460E-02 -0.86882592851E-02  0.10204133250E+01  0.10201423037E+01 0.  0.
     999903    2    3    3    0    0 -0.93072049532E-01  0.79752722834E-01  0.46844896158E-01  0.13267053745E+00  0.19599081780E-01 0.  0.
         14    1    1    2    0    0  0.20933280190E-01 -0.62726336460E-02  0.86882592851E-02  0.23516674972E-01  0.00000000000E+00 0.  1.
     999901    1    3    3    0    0  0.72138769342E-01 -0.73480089188E-01 -0.55533155443E-01  0.88774278758E+00  0.88000000000E+00 0.  1.
        -11    1    4    4    0    0 -0.81343810406E-01  0.76518086534E-01  0.39544986201E-01  0.11847320420E+00  0.51100000000E-03 0.  1.
         11    1    4    4    0    0 -0.11728239126E-01  0.32346363004E-02  0.72999099570E-02  0.14197333249E-01  0.51100000000E-03 0. -1.
</event>
<event>
 8    1  0.1162192E+005  0.1043930E+01  0.7957747E-01            NaN
         13   -1    0    0    0    0  0.00000000000E+00  0.00000000000E+00  0.74505805969E-08  0.10566000000E+00  0.10566000000E+00 0. -1.
     999900   -1    0    0    0    0 -0.00000000000E+00 -0.00000000000E+00 -0.74505805969E-08  0.93827000000E+00  0.93827000000E+00 0. -1.
     999902    2    1    2    0    0 -0.74127032745E-02  0.20365145315E-01 -0.94523008465E-02  0.10202861149E+01  0.10200121190E+01 0.  0.
     999903    2    3    3    0    0 -0.80730531571E-01 -0.54810880653E-01 -0.84891420452E-01  0.13083797157E+00  0.19757787629E-01 0.  0.
         14    1    1    2    0    0  0.74127032745E-02 -0.20365145315E-01  0.94523008465E-02  0.23643885147E-01  0.00000000000E+00 0. -1.
     999901    1    3    3    0    0  0.73317828297E-01  0.75176025968E-01  0.75439119605E-01  0.88944814329E+00  0.88000000000E+00 0.  1.
        -11    1    4    4    0    0 -0.16344815754E-01 -0.19555178051E-01 -0.15562988836E-01  0.29866799848E-01  0.51100000000E-03 0. -1.
         11    1    4    4    0    0 -0.64385715817E-01 -0.35255702603E-01 -0.69328431616E-01  0.10097117172E+00  0.51100000000E-03 0.  1.
</event>
<event>
 8    1  0.1162192E+005  0.1043930E+01  0.7957747E-01            NaN
         13   -1    0    0    0    0  0.00000000000E+00  0.00000000000E+00  0.74505805969E-08  0.10566000000E+00  0.10566000000E+00 0. -1.
     999900   -1    0    0    0    0 -0.00000000000E+00 -0.00000000000E+00 -0.74505805969E-08  0.93827000000E+00  0.93827000000E+00 0.  1.
     999902    2    1    2    0    0 -0.13624930547E-01  0.11652847164E-01 -0.15565175923E-01  0.10201875848E+01  0.10199112735E+01 0.  0.
     999903    2    3    3    0    0  0.54747746817E-01  0.50020035985E-01  0.10331064876E+00  0.12874026390E+00  0.20041098273E-01 0.  0.
         14    1    1    2    0    0  0.13624930547E-01 -0.11652847164E-01  0.15565175923E-01  0.23742415230E-01  0.00000000000E+00 0. -1.
     999901    1    3    3    0    0 -0.68372677364E-01 -0.38367188821E-01 -0.11887582469E+00  0.89144732087E+00  0.88000000000E+00 0.  1.
        -11    1    4    4    0    0  0.36890333663E-01  0.21280987525E-01  0.51098625319E-01  0.66521483584E-01  0.51100000000E-03 0.  1.
         11    1    4    4    0    0  0.17857413154E-01  0.28739048461E-01  0.52212023445E-01  0.62218780317E-01  0.51100000000E-03 0. -1.
</event>
<event>
 8    1  0.1162192E+005  0.1043930E+01  0.7957747E-01            NaN
         13   -1    0    0    0    0  0.00000000000E+00  0.00000000000E+00  0.74505805969E-08  0.10566000000E+00  0.10566000000E+00 0. -1.
     999900   -1    0    0    0    0 -0.00000000000E+00 -0.00000000000E+00 -0.74505805969E-08  0.93827000000E+00  0.93827000000E+00 0. -1.
     999902    2    1    2    0    0 -0.16254714545E-01  0.15590799943E-01 -0.53338534039E-02  0.10207839684E+01  0.10205215193E+01 0.  0.
     999903    2    3    3    0    0 -0.39504866716E-01 -0.12053999687E+00 -0.19622835725E-01  0.12989882514E+00  0.19953038666E-01 0.  0.
         14    1    1    2    0    0  0.16254714545E-01 -0.15590799943E-01  0.53338534039E-02  0.23146031624E-01  0.00000000000E+00 0.  1.
     999901    1    3    3    0    0  0.23250152170E-01  0.13613079681E+00  0.14288982321E-01  0.89088514323E+00  0.88000000000E+00 0.  1.
        -11    1    4    4    0    0 -0.12507657643E-01 -0.16382380543E-01 -0.57822553887E-03  0.20625696539E-01  0.51100000000E-03 0.  1.
         11    1    4    4    0    0 -0.26997209073E-01 -0.10415761633E+00 -0.19044610186E-01  0.10927312860E+00  0.51100000000E-03 0. -1.
</event>
<event>
 8    1  0.1162192E+005  0.1043930E+01  0.7957747E-01            NaN
         13   -1    0    0    0    0  0.00000000000E+00  0.00000000000E+00  0.74505805969E-08  0.10566000000E+00  0.10566000000E+00 0. -1.
     999900   -1    0    0    0    0 -0.00000000000E+00 -0.00000000000E+00 -0.74505805969E-08  0.93827000000E+00  0.93827000000E+00 0.  1.
     999902    2    1    2    0    0  0.75049155794E-02 -0.19641610285E-01 -0.12631645962E-01  0.10194009337E+01  0.10191057789E+01 0.  0.
     999903    2    3    3    0    0  0.70707595913E-01  0.29434973913E-01 -0.10348504968E+00  0.13111188680E+00  0.24803014855E-01 0.  0.
         14    1    1    2    0    0 -0.75049155794E-02  0.19641610285E-01  0.12631645962E-01  0.24529066272E-01  0.00000000000E+00 0. -1.
     999901    1    3    3    0    0 -0.63202680334E-01 -0.49076584199E-01  0.90853403714E-01  0.88828904692E+00  0.88000000000E+00 0. -1.
        -11    1    4    4    0    0  0.48944196615E-01  0.76577221637E-02 -0.59610929090E-01  0.77510638489E-01  0.51100000000E-03 0.  1.
         11    1    4    4    0    0  0.21763399299E-01  0.21777251750E-01 -0.43874120586E-01  0.53601248316E-01  0.51100000000E-03 0. -1.
</event>
<event>
 8    1  0.1162192E+005  0.1043930E+01  0.7957747E-01            NaN
         13   -1    0    0    0    0  0.00000000000E+00  0.00000000000E+00  0.74505805969E-08  0.10566000000E+00  0.10566000000E+00 0. -1.
     999900   -1    0    0    0    0 -0.00000000000E+00 -0.00000000000E+00 -0.74505805969E-08  0.93827000000E+00  0.93827000000E+00 0.  1.
     999902    2    1    2    0    0  0.97438639150E-03 -0.22758043006E-01 -0.30778803057E-02  0.10209441066E+01  0.10206853175E+01 0.  0.
     999903    2    3    3    0    0  0.15632066353E-01 -0.10738679112E+00 -0.75686293454E-01  0.13378636734E+00  0.19851767278E-01 0.  0.
         14    1    1    2    0    0 -0.97438639150E-03  0.22758043006E-01  0.30778803057E-02  0.22985893445E-01  0.00000000000E+00 0.  1.
     999901    1    3    3    0    0 -0.14657679961E-01  0.84628748112E-01  0.72608413148E-01  0.88715773921E+00  0.88000000000E+00 0. -1.
        -11    1    4    4    0    0  0.43845715283E-02 -0.19624156961E-01 -0.23999610974E-01  0.31314125436E-01  0.51100000000E-03 0.  1.
         11    1    4    4    0    0  0.11247494824E-01 -0.87762634157E-01 -0.51686682480E-01  0.10247224190E+00  0.51100000000E-03 0. -1.
</event>
<event>
 8    1  0.1162192E+005  0.1043930E+01  0.7957747E-01            NaN
         13   -1    0    0    0    0  0.00000000000E+00  0.00000000000E+00  0.74505805969E-08  0.10566000000E+00  0.10566000000E+00 0.  1.
     999900   -1    0    0    0    0 -0.00000000000E+00 -0.00000000000E+00 -0.74505805969E-08  0.93827000000E+00  0.93827000000E+00 0.  1.
     999902    2    1    2    0    0 -0.40019430189E-02  0.26421680061E-01  0.19631871604E-02  0.10171349477E+01  0.10167819466E+01 0.  0.
     999903    2    3    3    0    0 -0.39672389388E-01  0.91377124096E-01 -0.81268475890E-01  0.13010670676E+00  0.19987813343E-01 0.  0.
         14    1    1    2    0    0  0.40019430189E-02 -0.26421680061E-01 -0.19631871604E-02  0.26795052323E-01  0.00000000000E+00 0. -1.
     999901    1    3    3    0    0  0.35670446369E-01 -0.64955444035E-01  0.83231663051E-01  0.88702824092E+00  0.88000000000E+00 0. -1.
        -11    1    4    4    0    0 -0.56312771152E-02  0.20256794410E-01 -0.27712788377E-01  0.34789492126E-01  0.51100000000E-03 0.  1.
         11    1    4    4    0    0 -0.34041112272E-01  0.71120329685E-01 -0.53555687513E-01  0.95317214632E-01  0.51100000000E-03 0. -1.
</event>
<event>
 8    1  0.1162192E+005  0.1043930E+01  0.7957747E-01            NaN
         13   -1    0    0    0    0  0.00000000000E+00  0.00000000000E+00  0.74505805969E-08  0.10566000000E+00  0.10566000000E+00 0. -1.
     999900   -1    0    0    0    0 -0.00000000000E+00 -0.00000000000E+00 -0.74505805969E-08  0.93827000000E+00  0.93827000000E+00 0. -1.
     999902    2    1    2    0    0 -0.17223051887E-01  0.27907272522E-02  0.15732862359E-01  0.10204364981E+01  0.10201660169E+01 0.  0.
     999903    2    3    3    0    0 -0.41932646960E-01  0.11363138143E+00  0.49641132886E-01  0.13249168812E+00  0.20478467239E-01 0.  0.
         14    1    1    2    0    0  0.17223051887E-01 -0.27907272522E-02 -0.15732862359E-01  0.23493501929E-01  0.00000000000E+00 0.  1.
     999901    1    3    3    0    0  0.24709595073E-01 -0.11084065418E+00 -0.33908270527E-01  0.88794480995E+00  0.88000000000E+00 0. -1.
        -11    1    4    4    0    0 -0.34159380024E-01  0.80707820293E-01  0.26710984532E-01  0.91620703532E-01  0.51100000000E-03 0.  1.
         11    1    4    4    0    0 -0.77732669363E-02  0.32923561136E-01  0.22930148354E-01  0.40870984589E-01  0.51100000000E-03 0. -1.
</event>
<event>
 8    1  0.1162192E+005  0.1043930E+01  0.7957747E-01            NaN
         13   -1    0    0    0    0  0.00000000000E+00  0.00000000000E+00  0.74505805969E-08  0.10566000000E+00  0.10566000000E+00 0.  1.
     999900   -1    0    0    0    0 -0.00000000000E+00 -0.00000000000E+00 -0.74505805969E-08  0.93827000000E+00  0.93827000000E+00 0.  1.
     999902    2    1    2    0    0 -0.69950298757E-02 -0.22559430707E-01 -0.29141662637E-02  0.10201318757E+01  0.10198542509E+01 0.  0.
     999903    2    3    3    0    0  0.11141400715E+00 -0.42133945878E-01 -0.49882417629E-01  0.13074451443E+00  0.20433357020E-01 0.  0.
         14    1    1    2    0    0  0.69950298757E-02  0.22559430707E-01  0.29141662637E-02  0.23798124333E-01  0.00000000000E+00 0. -1.
     999901    1    3    3    0    0 -0.11840903703E+00  0.19574515171E-01  0.46968251366E-01  0.88938736124E+00  0.88000000000E+00 0.  1.
        -11    1    4    4    0    0  0.69146385679E-01 -0.15544443669E-01 -0.27548468796E-01  0.76039671458E-01  0.51100000000E-03 0. -1.
         11    1    4    4    0    0  0.42267621476E-01 -0.26589502209E-01 -0.22333948834E-01  0.54704842970E-01  0.51100000000E-03 0.  1.
</event>
<event>
 8    1  0.1162192E+005  0.1043930E+01  0.7957747E-01            NaN
         13   -1    0    0    0    0  0.00000000000E+00  0.00000000000E+00  0.74505805969E-08  0.10566000000E+00  0.10566000000E+00 0.  1.
     999900   -1    0    0    0    0 -0.00000000000E+00 -0.00000000000E+00 -0.74505805969E-08  0.93827000000E+00  0.93827000000E+00 0.  1.
     999902    2    1    2    0    0  0.21418470930E-01  0.54461736375E-02  0.56190641294E-02  0.10211268075E+01  0.10208721622E+01 0.  0.
     999903    2    3    3    0    0 -0.94363654078E-02  0.90263424304E-01 -0.92583400897E-01  0.13107640950E+00  0.19308242949E-01 0.  0.
         14    1    1    2    0    0 -0.21418470930E-01 -0.54461736375E-02 -0.56190641294E-02  0.22803192451E-01  0.00000000000E+00 0.  1.
     999901    1    3    3    0    0  0.30854836337E-01 -0.84817250667E-01  0.98202465026E-01  0.89005039805E+00  0.88000000000E+00 0. -1.
        -11    1    4    4    0    0 -0.20489415565E-02  0.12219454928E-01 -0.45800462574E-02  0.13219348886E-01  0.51100000000E-03 0.  1.
         11    1    4    4    0    0 -0.73874238513E-02  0.78043969376E-01 -0.88003354639E-01  0.11785706061E+00  0.51100000000E-03 0. -1.
</event>
<event>
 8    1  0.1162192E+005  0.1043930E+01  0.7957747E-01            NaN
         13   -1    0    0    0    0  0.00000000000E+00  0.00000000000E+00  0.74505805969E-08  0.10566000000E+00  0.10566000000E+00 0.  1.
     999900   -1    0    0    0    0 -0.00000000000E+00 -0.00000000000E+00 -0.74505805969E-08  0.93827000000E+00  0.93827000000E+00 0.  1.
     999902    2    1    2    0    0  0.16808989084E-01 -0.14313380218E-01 -0.80147105113E-02  0.10204427577E+01  0.10201724223E+01 0.  0.
     999903    2    3    3    0    0  0.25062333118E-01  0.41695588295E-01  0.11841929249E+00  0.12960569101E+00  0.20195635262E-01 0.  0.
         14    1    1    2    0    0 -0.16808989084E-01  0.14313380218E-01  0.80147105113E-02  0.23487242322E-01  0.00000000000E+00 0.  1.
     999901    1    3    3    0    0 -0.82533440334E-02 -0.56008968512E-01 -0.12643400300E+00  0.89083706667E+00  0.88000000000E+00 0.  1.
        -11    1    4    4    0    0 -0.20730146359E-02  0.54584010214E-02  0.26515529771E-01  0.27155588217E-01  0.51100000000E-03 0.  1.
         11    1    4    4    0    0  0.27135347754E-01  0.36237187273E-01  0.91903762717E-01  0.10245010279E+00  0.51100000000E-03 0. -1.
</event>
<event>
 8    1  0.1162192E+005  0.1043930E+01  0.7957747E-01            NaN
         13   -1    0    0    0    0  0.00000000000E+00  0.00000000000E+00  0.74505805969E-08  0.10566000000E+00  0.10566000000E+00 0. -1.
     999900   -1    0    0    0    0 -0.00000000000E+00 -0.00000000000E+00 -0.74505805969E-08  0.93827000000E+00  0.93827000000E+00 0. -1.
     999902    2    1    2    0    0 -0.64961561521E-02 -0.30005256182E-02  0.22529138398E-01  0.10202917836E+01  0.10200179206E+01 0.  0.
     999903    2    3    3    0    0  0.66668750283E-03 -0.11740104110E+00 -0.52022034494E-01  0.12973203732E+00  0.18456990831E-01 0.  0.
         14    1    1    2    0    0  0.64961561521E-02  0.30005256182E-02 -0.22529138398E-01  0.23638216424E-01  0.00000000000E+00 0.  1.
     999901    1    3    3    0    0 -0.71628436549E-02  0.11440051548E+00  0.74551172892E-01  0.89055974626E+00  0.88000000000E+00 0.  1.
        -11    1    4    4    0    0 -0.21091545236E-02 -0.41710674836E-01 -0.93683625152E-02  0.42804862636E-01  0.51100000000E-03 0.  1.
         11    1    4    4    0    0  0.27758420264E-02 -0.75690366266E-01 -0.42653671979E-01  0.86927174685E-01  0.51100000000E-03 0. -1.
</event>
<event>
 8    1  0.1500901E+005  0.1043930E+01  0.7957747E-01            NaN
         13   -1    0    0    0    0  0.00000000000E+00  0.00000000000E+00  0.74505805969E-08  0.10566000000E+00  0.10566000000E+00 0. -1.
     999900   -1    0    0    0    0 -0.00000000000E+00 -0.00000000000E+00 -0.74505805969E-08  0.93827000000E+00  0.93827000000E+00 0.  1.
     999902    2    1    2    0    0 -0.20942275926E-02 -0.18432564819E-01  0.19018471890E-01  0.10173622092E+01  0.10170152492E+01 0.  0.
     999903    2    3    3    0    0 -0.54621455155E-01  0.39524082295E-01 -0.10385518306E+00  0.12538910553E+00  0.19770490473E-01 0.  0.
         14    1    1    2    0    0  0.20942275926E-02  0.18432564819E-01 -0.19018471890E-01  0.26567790801E-01  0.00000000000E+00 0.  1.
     999901    1    3    3    0    0  0.52527227563E-01 -0.57956647113E-01  0.12287365495E+00  0.89197310366E+00  0.88000000000E+00 0. -1.
        -11    1    4    4    0    0 -0.41278594979E-01  0.18264674300E-01 -0.67922146748E-01  0.81554888698E-01  0.51100000000E-03 0. -1.
         11    1    4    4    0    0 -0.13342860176E-01  0.21259407994E-01 -0.35933036314E-01  0.43834216837E-01  0.51100000000E-03 0.  1.
</event>
<event>
 8    1  0.1614452E+005  0.1043930E+01  0.7957747E-01            NaN
         13   -1    0    0    0    0  0.00000000000E+00  0.00000000000E+00  0.74505805969E-08  0.10566000000E+00  0.10566000000E+00 0.  1.
     999900   -1    0    0    0    0 -0.00000000000E+00 -0.00000000000E+00 -0.74505805969E-08  0.93827000000E+00  0.93827000000E+00 0.  1.
     999902    2    1    2    0    0  0.70789951148E-02 -0.57347208241E-02  0.22696357832E-01  0.10194734292E+01  0.10191800376E+01 0.  0.
     999903    2    3    3    0    0  0.83972364367E-01  0.83384664136E-01  0.52721687982E-01  0.13112869015E+00  0.20268122899E-01 0.  0.
         14    1    1    2    0    0 -0.70789951148E-02  0.57347208241E-02 -0.22696357832E-01  0.24456570766E-01  0.00000000000E+00 0. -1.
     999901    1    3    3    0    0 -0.76893369252E-01 -0.89119384961E-01 -0.30025330150E-01  0.88834473909E+00  0.88000000000E+00 0. -1.
        -11    1    4    4    0    0  0.24082218164E-01  0.12120770994E-01  0.11194374634E-01  0.29196600241E-01  0.51100000000E-03 0.  1.
         11    1    4    4    0    0  0.59890146204E-01  0.71263893142E-01  0.41527313348E-01  0.10193208991E+00  0.51100000000E-03 0. -1.
</event>
<event>
 8    1  0.1162192E+005  0.1043930E+01  0.7957747E-01            NaN
         13   -1    0    0    0    0  0.00000000000E+00  0.00000000000E+00  0.74505805969E-08  0.10566000000E+00  0.10566000000E+00 0. -1.
     999900   -1    0    0    0    0 -0.00000000000E+00 -0.00000000000E+00 -0.74505805969E-08  0.93827000000E+00  0.93827000000E+00 0. -1.
     999902    2    1    2    0    0 -0.69130967966E-02 -0.13479808844E-01 -0.15076268690E-01  0.10225573532E+01  0.10223339721E+01 0.  0.
     999903    2    3    3    0    0 -0.32870172399E-01  0.12000218148E+00  0.35801875972E-01  0.13066061191E+00  0.17591173545E-01 0.  0.
         14    1    1    2    0    0  0.69130967966E-02  0.13479808844E-01  0.15076268690E-01  0.21372646804E-01  0.00000000000E+00 0. -1.
     999901    1    3    3    0    0  0.25957075602E-01 -0.13348199033E+00 -0.50878144662E-01  0.89189674129E+00  0.88000000000E+00 0. -1.
        -11    1    4    4    0    0 -0.72992186933E-02  0.59848417947E-01  0.16963119077E-01  0.62634816629E-01  0.51100000000E-03 0.  1.
         11    1    4    4    0    0 -0.25570953706E-01  0.60153763536E-01  0.18838756895E-01  0.68025795279E-01  0.51100000000E-03 0. -1.
</event>
<event>
 8    1  0.1162192E+005  0.1043930E+01  0.7957747E-01            NaN
         13   -1    0    0    0    0  0.00000000000E+00  0.00000000000E+00  0.74505805969E-08  0.10566000000E+00  0.10566000000E+00 0. -1.
     999900   -1    0    0    0    0 -0.00000000000E+00 -0.00000000000E+00 -0.74505805969E-08  0.93827000000E+00  0.93827000000E+00 0.  1.
     999902    2    1    2    0    0  0.11643791189E-01 -0.18933440376E-01  0.73700575104E-02  0.10205126819E+01  0.10202439724E+01 0.  0.
     999903    2    3    3    0    0 -0.24264382758E-02  0.12281455189E+00  0.32423617511E-01  0.12870656761E+00  0.20610381292E-01 0.  0.
         14    1    1    2    0    0 -0.11643791189E-01  0.18933440376E-01 -0.73700575104E-02  0.23417318067E-01  0.00000000000E+00 0.  1.
     999901    1    3    3    0    0  0.14070229465E-01 -0.14174799226E+00 -0.25053560000E-01  0.89180611432E+00  0.88000000000E+00 0.  1.
        -11    1    4    4    0    0 -0.54836232890E-02  0.64062112033E-01  0.26605399598E-01  0.69585434764E-01  0.51100000000E-03 0. -1.
         11    1    4    4    0    0  0.30571850132E-02  0.58752439853E-01  0.58182179125E-02  0.59121132851E-01  0.51100000000E-03 0.  1.
</event>
<event>
 8    1  0.1162192E+005  0.1043930E+01  0.7957747E-01            NaN
         13   -1    0    0    0    0  0.00000000000E+00  0.00000000000E+00  0.74505805969E-08  0.10566000000E+00  0.10566000000E+00 0. -1.
     999900   -1    0    0    0    0 -0.00000000000E+00 -0.00000000000E+00 -0.74505805969E-08  0.93827000000E+00  0.93827000000E+00 0.  1.
     999902    2    1    2    0    0 -0.16170658154E-01 -0.98133509274E-02 -0.14422931365E-01  0.10201431761E+01  0.10198658180E+01 0.  0.
     999903    2    3    3    0    0  0.36531210996E-01 -0.73084935963E-02 -0.12477558850E+00  0.13168300803E+00  0.19583760192E-01 0.  0.
         14    1    1    2    0    0  0.16170658154E-01  0.98133509274E-02  0.14422931365E-01  0.23786823888E-01  0.00000000000E+00 0. -1.
     999901    1    3    3    0    0 -0.52701869150E-01 -0.25048573311E-02  0.11035265714E+00  0.88846016808E+00  0.88000000000E+00 0.  1.
        -11    1    4    4    0    0  0.18757947599E-01 -0.56055989114E-02 -0.94694096436E-01  0.96698068016E-01  0.51100000000E-03 0.  1.
         11    1    4    4    0    0  0.17773263397E-01 -0.17028946849E-02 -0.30081492067E-01  0.34984940018E-01  0.51100000000E-03 0. -1.
</event>
<event>
 8    1  0.1409827E+005  0.1043930E+01  0.7957747E-01            NaN
         13   -1    0    0    0    0  0.00000000000E+00  0.00000000000E+00  0.74505805969E-08  0.10566000000E+00  0.10566000000E+00 0. -1.
     999900   -1    0    0    0    0 -0.00000000000E+00 -0.00000000000E+00 -0.74505805969E-08  0.93827000000E+00  0.93827000000E+00 0.  1.
     999902    2    1    2    0    0 -0.15224142925E-01  0.21500502294E-01 -0.13057279552E-01  0.10145269614E+01  0.10141007922E+01 0.  0.
     999903    2    3    3    0    0  0.16424467041E-01 -0.92160244215E-01  0.75018280768E-01  0.12229509465E+00  0.23771285072E-01 0.  0.
         14    1    1    2    0    0  0.15224142925E-01 -0.21500502294E-01  0.13057279552E-01  0.29403038551E-01  0.00000000000E+00 0. -1.
     999901    1    3    3    0    0 -0.31648609967E-01  0.11366074651E+00 -0.88075560321E-01  0.89223186680E+00  0.88000000000E+00 0.  1.
        -11    1    4    4    0    0 -0.59012267723E-04 -0.24654355691E-01  0.32615946819E-01  0.40888896352E-01  0.51100000000E-03 0.  1.
         11    1    4    4    0    0  0.16483479309E-01 -0.67505888524E-01  0.42402333950E-01  0.81406198296E-01  0.51100000000E-03 0. -1.
</event>
<event>
 8    1  0.1162192E+005  0.1043930E+01  0.7957747E-01            NaN
         13   -1    0    0    0    0  0.00000000000E+00  0.00000000000E+00  0.74505805969E-08  0.10566000000E+00  0.10566000000E+00 0.  1.
     999900   -1    0    0    0    0 -0.00000000000E+00 -0.00000000000E+00 -0.74505805969E-08  0.93827000000E+00  0.93827000000E+00 0. -1.
     999902    2    1    2    0    0  0.21865306114E-02  0.12528474619E-01 -0.19231186949E-01  0.10208739348E+01  0.10206135452E+01 0.  0.
     999903    2    3    3    0    0  0.76458098820E-01  0.66837047003E-01  0.79588164943E-01  0.13057569756E+00  0.20067512704E-01 0.  0.
         14    1    1    2    0    0 -0.21865306114E-02 -0.12528474619E-01  0.19231186949E-01  0.23056065229E-01  0.00000000000E+00 0.  1.
     999901    1    3    3    0    0 -0.74271568209E-01 -0.54308572384E-01 -0.98819351892E-01  0.89029823721E+00  0.88000000000E+00 0.  1.
        -11    1    4    4    0    0  0.47625244905E-01  0.43639964146E-01  0.62235075611E-01  0.89699922967E-01  0.51100000000E-03 0.  1.
         11    1    4    4    0    0  0.28832853915E-01  0.23197082856E-01  0.17353089332E-01  0.40875774590E-01  0.51100000000E-03 0. -1.
</event>
<event>
 8    1  0.1162192E+005  0.1043930E+01  0.7957747E-01            NaN
         13   -1    0    0    0    0  0.00000000000E+00  0.00000000000E+00  0.74505805969E-08  0.10566000000E+00  0.10566000000E+00 0. -1.
     999900   -1    0    0    0    0 -0.00000000000E+00 -0.00000000000E+00 -0.74505805969E-08  0.93827000000E+00  0.93827000000E+00 0.  1.
     999902    2    1    2    0    0 -0.13282256180E-01  0.13847850004E-01  0.14784500045E-01  0.10197068144E+01  0.10194190623E+01 0.  0.
     999903    2    3    3    0    0 -0.99711542336E-01  0.55800665111E-01  0.65774860730E-01  0.13301065614E+00  0.17589668552E-01 0.  0.
         14    1    1    2    0    0  0.13282256180E-01 -0.13847850004E-01 -0.14784500045E-01  0.24223185599E-01  0.00000000000E+00 0.  1.
     999901    1    3    3    0    0  0.86429286155E-01 -0.41952815107E-01 -0.50990360684E-01  0.88669615827E+00  0.88000000000E+00 0.  1.
        -11    1    4    4    0    0 -0.83260436079E-01  0.51158163514E-01  0.61212527366E-01  0.11531128539E+00  0.51100000000E-03 0. -1.
         11    1    4    4    0    0 -0.16451106257E-01  0.46425015970E-02  0.45623333635E-02  0.17699370748E-01  0.51100000000E-03 0.  1.
</event>
<event>
 8    1  0.1162192E+005  0.1043930E+01  0.7957747E-01            NaN
         13   -1    0    0    0    0  0.00000000000E+00  0.00000000000E+00  0.74505805969E-08  0.10566000000E+00  0.10566000000E+00 0. -1.
     999900   -1    0    0    0    0 -0.00000000000E+00 -0.00000000000E+00 -0.74505805969E-08  0.93827000000E+00  0.93827000000E+00 0.  1.
     999902    2    1    2    0    0 -0.20433884779E-01 -0.14320876964E-01 -0.16704778098E-02  0.10189215682E+01  0.10186146183E+01 0.  0.
     999903    2    3    3    0    0 -0.70124602735E-01  0.13927454220E-01 -0.10758345195E+00  0.13072975686E+00  0.20115573737E-01 0.  0.
         14    1    1    2    0    0  0.20433884779E-01  0.14320876964E-01  0.16704778098E-02  0.25008431784E-01  0.00000000000E+00 0. -1.
     999901    1    3    3    0    0  0.49690717955E-01 -0.28248331184E-01  0.10591297414E+00  0.88819181135E+00  0.88000000000E+00 0. -1.
        -11    1    4    4    0    0 -0.11924004223E-01 -0.40147534921E-02 -0.12021937045E-01  0.17409428871E-01  0.51100000000E-03 0.  1.
         11    1    4    4    0    0 -0.58200598512E-01  0.17942207712E-01 -0.95561514902E-01  0.11332032799E+00  0.51100000000E-03 0. -1.
</event>
<event>
 8    1  0.1162192E+005  0.1043930E+01  0.7957747E-01            NaN
         13   -1    0    0    0    0  0.00000000000E+00  0.00000000000E+00  0.74505805969E-08  0.10566000000E+00  0.10566000000E+00 0. -1.
     999900   -1    0    0    0    0 -0.00000000000E+00 -0.00000000000E+00 -0.74505805969E-08  0.93827000000E+00  0.93827000000E+00 0.  1.
     999902    2    1    2    0    0  0.12713273995E-01 -0.95621001103E-02  0.16905040084E-01  0.10207170408E+01  0.10204530542E+01 0.  0.
     999903    2    3    3    0    0 -0.43377785931E-01  0.17333069358E-01  0.12215538159E+00  0.13226490843E+00  0.19748446621E-01 0.  0.
         14    1    1    2    0    0 -0.12713273995E-01  0.95621001103E-02 -0.16905040084E-01  0.23212959191E-01  0.00000000000E+00 0. -1.
     999901    1    3    3    0    0  0.56091059926E-01 -0.26895169468E-01 -0.10525034151E+00  0.88845213238E+00  0.88000000000E+00 0. -1.
        -11    1    4    4    0    0 -0.38778356902E-01  0.17594812197E-01  0.11963531793E+00  0.12698901053E+00  0.51100000000E-03 0. -1.
         11    1    4    4    0    0 -0.45994290284E-02 -0.26174283883E-03  0.25200636659E-02  0.52758978934E-02  0.51100000000E-03 0.  1.
</event>
<event>
 8    1  0.1162192E+005  0.1043930E+01  0.7957747E-01            NaN
         13   -1    0    0    0    0  0.00000000000E+00  0.00000000000E+00  0.74505805969E-08  0.10566000000E+00  0.10566000000E+00 0.  1.
     999900   -1    0    0    0    0 -0.00000000000E+00 -0.00000000000E+00 -0.74505805969E-08  0.93827000000E+00  0.93827000000E+00 0.  1.
     999902    2    1    2    0    0  0.18894650820E-01  0.10861560184E-01 -0.70022860150E-02  0.10210386626E+01  0.10207820224E+01 0.  0.
     999903    2    3    3    0    0 -0.54805038394E-01 -0.26048445107E-01  0.11217682945E+00  0.12918797203E+00  0.20585852552E-01 0.  0.
         14    1    1    2    0    0 -0.18894650820E-01 -0.10861560184E-01  0.70022860150E-02  0.22891337415E-01  0.00000000000E+00 0.  1.
     999901    1    3    3    0    0  0.73699689213E-01  0.36910005292E-01 -0.11917911547E+00  0.89185069056E+00  0.88000000000E+00 0.  1.
        -11    1    4    4    0    0 -0.12850917825E-01 -0.50310451345E-02  0.46232165089E-01  0.48250717237E-01  0.51100000000E-03 0.  1.
         11    1    4    4    0    0 -0.41954120569E-01 -0.21017399973E-01  0.65944664363E-01  0.80937254792E-01  0.51100000000E-03 0. -1.
</event>
<event>
 8    1  0.1162192E+005  0.1043930E+01  0.7957747E-01            NaN
         13   -1    0    0    0    0  0.00000000000E+00  0.00000000000E+00  0.74505805969E-08  0.10566000000E+00  0.10566000000E+00 0.  1.
     999900   -1    0    0    0    0 -0.00000000000E+00 -0.00000000000E+00 -0.74505805969E-08  0.93827000000E+00  0.93827000000E+00 0. -1.
     999902    2    1    2    0    0 -0.21567056827E-01  0.19823170857E-02  0.65537476244E-02  0.10213021603E+01  0.10210514598E+01 0.  0.
     999903    2    3    3    0    0  0.39121109291E-01 -0.11340449665E+00  0.47733719035E-01  0.13074449214E+00  0.20605175041E-01 0.  0.
         14    1    1    2    0    0  0.21567056827E-01 -0.19823170857E-02 -0.65537476244E-02  0.22627839692E-01  0.00000000000E+00 0.  1.
     999901    1    3    3    0    0 -0.60688166118E-01  0.11538681374E+00 -0.41179971411E-01  0.89055766817E+00  0.88000000000E+00 0. -1.
        -11    1    4    4    0    0  0.14242935294E-01 -0.20070312541E-01  0.49948939498E-02  0.25117498638E-01  0.51100000000E-03 0.  1.
         11    1    4    4    0    0  0.24878173997E-01 -0.93334184111E-01  0.42738825085E-01  0.10562699350E+00  0.51100000000E-03 0. -1.
</event>
<event>
 8    1  0.1162192E+005  0.1043930E+01  0.7957747E-01            NaN
         13   -1    0    0    0    0  0.00000000000E+00  0.00000000000E+00  0.74505805969E-08  0.10566000000E+00  0.10566000000E+00 0.  1.
     999900   -1    0    0    0    0 -0.00000000000E+00 -0.00000000000E+00 -0.74505805969E-08  0.93827000000E+00  0.93827000000E+00 0. -1.
     999902    2    1    2    0    0 -0.12603840553E-01 -0.10954150599E-01  0.17652179031E-01  0.10196308305E+01  0.10193412485E+01 0.  0.
     999903    2    3    3    0    0  0.11645989380E+00  0.12676724368E-01  0.50817868415E-01  0.12928492656E+00  0.20212132033E-01 0.  0.
         14    1    1    2    0    0  0.12603840553E-01  0.10954150599E-01 -0.17652179031E-01  0.24299169463E-01  0.00000000000E+00 0. -1.
     999901    1    3    3    0    0 -0.12906373435E+00 -0.23630874967E-01 -0.33165689384E-01  0.89034590398E+00  0.88000000000E+00 0. -1.
        -11    1    4    4    0    0  0.10189048704E+00  0.71306948750E-02  0.37606350994E-01  0.10884400266E+00  0.51100000000E-03 0.  1.
         11    1    4    4    0    0  0.14569406761E-01  0.55460294926E-02  0.13211517421E-01  0.20440923904E-01  0.51100000000E-03 0. -1.
</event>
<event>
 8    1  0.1162192E+005  0.1043930E+01  0.7957747E-01            NaN
         13   -1    0    0    0    0  0.00000000000E+00  0.00000000000E+00  0.74505805969E-08  0.10566000000E+00  0.10566000000E+00 0.  1.
     999900   -1    0    0    0    0 -0.00000000000E+00 -0.00000000000E+00 -0.74505805969E-08  0.93827000000E+00  0.93827000000E+00 0. -1.
     999902    2    1    2    0    0 -0.22473450847E-01  0.19037802135E-02  0.46195265425E-02  0.10209078281E+01  0.10206482122E+01 0.  0.
     999903    2    3    3    0    0  0.47276321747E-01 -0.18209683415E-03 -0.11874344737E+00  0.12956737410E+00  0.21274735769E-01 0.  0.
         14    1    1    2    0    0  0.22473450847E-01 -0.19037802135E-02 -0.46195265425E-02  0.23022171869E-01  0.00000000000E+00 0. -1.
     999901    1    3    3    0    0 -0.69749772594E-01  0.20858770477E-02  0.12336297391E+00  0.89134045403E+00  0.88000000000E+00 0.  1.
        -11    1    4    4    0    0  0.62166481649E-02 -0.38534542969E-02 -0.58433994858E-02  0.93756206715E-02  0.51100000000E-03 0.  1.
         11    1    4    4    0    0  0.41059673582E-01  0.36713574627E-02 -0.11290004788E+00  0.12019175343E+00  0.51100000000E-03 0. -1.
</event>
<event>
 8    1  0.1162192E+005  0.1043930E+01  0.7957747E-01            NaN
         13   -1    0    0    0    0  0.00000000000E+00  0.00000000000E+00  0.74505805969E-08  0.10566000000E+00  0.10566000000E+00 0. -1.
     999900   -1    0    0    0    0 -0.00000000000E+00 -0.00000000000E+00 -0.74505805969E-08  0.93827000000E+00  0.93827000000E+00 0. -1.
     999902    2    1    2    0    0  0.42712929308E-02 -0.15311301422E-01  0.15336477745E-01  0.10218418257E+01  0.10216030684E+01 0.  0.
     999903    2    3    3    0    0 -0.94690541347E-02 -0.11337768256E+00 -0.65249547518E-01  0.13262873553E+00  0.19715885677E-01 0.  0.
         14    1    1    2    0    0 -0.42712929308E-02  0.15311301422E-01 -0.15336477745E-01  0.22088174306E-01  0.00000000000E+00 0. -1.
     999901    1    3    3    0    0  0.13740347065E-01  0.98066381141E-01  0.80586025263E-01  0.88921309016E+00  0.88000000000E+00 0.  1.
        -11    1    4    4    0    0  0.41969236636E-02 -0.63921675555E-01 -0.38894029565E-01  0.74943988624E-01  0.51100000000E-03 0. -1.
         11    1    4    4    0    0 -0.13665977798E-01 -0.49456007008E-01 -0.26355517953E-01  0.57684746909E-01  0.51100000000E-03 0.  1.
</event>
<event>
 8    1  0.1162192E+005  0.1043930E+01  0.7957747E-01            NaN
         13   -1    0    0    0    0  0.00000000000E+00  0.00000000000E+00  0.74505805969E-08  0.10566000000E+00  0.10566000000E+00 0.  1.
     999900   -1    0    0    0    0 -0.00000000000E+00 -0.00000000000E+00 -0.74505805969E-08  0.93827000000E+00  0.93827000000E+00 0. -1.
     999902    2    1    2    0    0  0.13329016519E-01 -0.10292335244E-02  0.13411600014E-01  0.10249934476E+01  0.10248185081E+01 0.  0.
     999903    2    3    3    0    0  0.61336993723E-01 -0.11735772248E+00  0.24163761300E-01  0.13597562312E+00  0.19246321693E-01 0.  0.
         14    1    1    2    0    0 -0.13329016519E-01  0.10292335244E-02 -0.13411600014E-01  0.18936552430E-01  0.00000000000E+00 0. -1.
     999901    1    3    3    0    0 -0.48007977205E-01  0.11632848895E+00 -0.10752161286E-01  0.88901782445E+00  0.88000000000E+00 0.  1.
        -11    1    4    4    0    0  0.21552650922E-01 -0.58483723966E-01  0.16685702359E-01  0.64525471830E-01  0.51100000000E-03 0. -1.
         11    1    4    4    0    0  0.39784342801E-01 -0.58873998511E-01  0.74780589402E-02  0.71450151290E-01  0.51100000000E-03 0.  1.
</event>
<event>
 8    1  0.1162192E+005  0.1043930E+01  0.7957747E-01            NaN
         13   -1    0    0    0    0  0.00000000000E+00  0.00000000000E+00  0.74505805969E-08  0.10566000000E+00  0.10566000000E+00 0.  1.
     999900   -1    0    0    0    0 -0.00000000000E+00 -0.00000000000E+00 -0.74505805969E-08  0.93827000000E+00  0.93827000000E+00 0.  1.
     999902    2    1    2    0    0 -0.62067463030E-02 -0.14386473375E-01 -0.18303826484E-01  0.10198359265E+01  0.10195512702E+01 0.  0.
     999903    2    3    3    0    0  0.10799878815E-01 -0.58902533498E-01 -0.11680841603E+00  0.13305858176E+00  0.21776921075E-01 0.  0.
         14    1    1    2    0    0  0.62067463030E-02  0.14386473375E-01  0.18303826484E-01  0.24094073541E-01  0.00000000000E+00 0.  1.
     999901    1    3    3    0    0 -0.17006625118E-01  0.44516060123E-01  0.98504589541E-01  0.88677734470E+00  0.88000000000E+00 0. -1.
        -11    1    4    4    0    0  0.14614843553E-01 -0.29267274743E-01 -0.48551427767E-01  0.58546300328E-01  0.51100000000E-03 0. -1.
         11    1    4    4    0    0 -0.38149647378E-02 -0.29635258755E-01 -0.68256988259E-01  0.74512281434E-01  0.51100000000E-03 0.  1.
</event>
<event>
 8    1  0.1162192E+005  0.1043930E+01  0.7957747E-01            NaN
         13   -1    0    0    0    0  0.00000000000E+00  0.00000000000E+00  0.74505805969E-08  0.10566000000E+00  0.10566000000E+00 0. -1.
     999900   -1    0    0    0    0 -0.00000000000E+00 -0.00000000000E+00 -0.74505805969E-08  0.93827000000E+00  0.93827000000E+00 0. -1.
     999902    2    1    2    0    0 -0.15867131594E-02  0.17138069770E-01  0.16438725533E-01  0.10201295212E+01  0.10198518408E+01 0.  0.
     999903    2    3    3    0    0 -0.12237201770E+00  0.28377877722E-01  0.32002712365E-01  0.13167149700E+00  0.23086681542E-01 0.  0.
         14    1    1    2    0    0  0.15867131594E-02 -0.17138069770E-01 -0.16438725533E-01  0.23800478802E-01  0.00000000000E+00 0.  1.
     999901    1    3    3    0    0  0.12078530454E+00 -0.11239807953E-01 -0.15563986833E-01  0.88845802420E+00  0.88000000000E+00 0.  1.
        -11    1    4    4    0    0 -0.56779155052E-01  0.31273877213E-02  0.81567200205E-02  0.57449510049E-01  0.51100000000E-03 0. -1.
         11    1    4    4    0    0 -0.65592862644E-01  0.25250490001E-01  0.23845992345E-01  0.74221986952E-01  0.51100000000E-03 0.  1.
</event>
<event>
 8    1  0.1162192E+005  0.1043930E+01  0.7957747E-01            NaN
         13   -1    0    0    0    0  0.00000000000E+00  0.00000000000E+00  0.74505805969E-08  0.10566000000E+00  0.10566000000E+00 0.  1.
     999900   -1    0    0    0    0 -0.00000000000E+00 -0.00000000000E+00 -0.74505805969E-08  0.93827000000E+00  0.93827000000E+00 0.  1.
     999902    2    1    2    0    0  0.12966950043E-01 -0.12546949430E-01 -0.14889398649E-01  0.10205363700E+01  0.10202682101E+01 0.  0.
     999903    2    3    3    0    0 -0.10939070848E+00  0.62823349868E-01  0.13598406041E-01  0.12842447474E+00  0.19870296280E-01 0.  0.
         14    1    1    2    0    0 -0.12966950043E-01  0.12546949430E-01  0.14889398649E-01  0.23393630021E-01  0.00000000000E+00 0.  1.
     999901    1    3    3    0    0  0.12235765852E+00 -0.75370299298E-01 -0.28487804690E-01  0.89211189524E+00  0.88000000000E+00 0.  1.
        -11    1    4    4    0    0 -0.32464244849E-01  0.94840088881E-02  0.72857848792E-02  0.34600829477E-01  0.51100000000E-03 0.  1.
         11    1    4    4    0    0 -0.76926463632E-01  0.53339340980E-01  0.63126211617E-02  0.93823645261E-01  0.51100000000E-03 0. -1.
</event>
<event>
 8    1  0.1186049E+005  0.1043930E+01  0.7957747E-01            NaN
         13   -1    0    0    0    0  0.00000000000E+00  0.00000000000E+00  0.74505805969E-08  0.10566000000E+00  0.10566000000E+00 0. -1.
     999900   -1    0    0    0    0 -0.00000000000E+00 -0.00000000000E+00 -0.74505805969E-08  0.93827000000E+00  0.93827000000E+00 0. -1.
     999902    2    1    2    0    0 -0.19925750469E-01 -0.62580134304E-02  0.12370235998E-01  0.10196561251E+01  0.10193671529E+01 0.  0.
     999903    2    3    3    0    0 -0.65438097509E-01 -0.10922141422E+00  0.29955060952E-01  0.13231061083E+00  0.19933141565E-01 0.  0.
         14    1    1    2    0    0  0.19925750469E-01  0.62580134304E-02 -0.12370235998E-01  0.24273874896E-01  0.00000000000E+00 0. -1.
     999901    1    3    3    0    0  0.45512347040E-01  0.10296340078E+00 -0.17584824954E-01  0.88734551427E+00  0.88000000000E+00 0. -1.
        -11    1    4    4    0    0 -0.31648732520E-01 -0.36920203120E-01  0.16635803423E-01  0.51398003318E-01  0.51100000000E-03 0. -1.
         11    1    4    4    0    0 -0.33789364989E-01 -0.72301211095E-01  0.13319257529E-01  0.80912607512E-01  0.51100000000E-03 0.  1.
</event>
<event>
 8    1  0.1162192E+005  0.1043930E+01  0.7957747E-01            NaN
         13   -1    0    0    0    0  0.00000000000E+00  0.00000000000E+00  0.74505805969E-08  0.10566000000E+00  0.10566000000E+00 0.  1.
     999900   -1    0    0    0    0 -0.00000000000E+00 -0.00000000000E+00 -0.74505805969E-08  0.93827000000E+00  0.93827000000E+00 0. -1.
     999902    2    1    2    0    0  0.88200183014E-02 -0.15599067353E-01 -0.16154767830E-01  0.10198032483E+01  0.10195178101E+01 0.  0.
     999903    2    3    3    0    0  0.12218524418E+00  0.23393091371E-01  0.33175832339E-01  0.13030587841E+00  0.20062788429E-01 0.  0.
         14    1    1    2    0    0 -0.88200183014E-02  0.15599067353E-01  0.16154767830E-01  0.24126751724E-01  0.00000000000E+00 0.  1.
     999901    1    3    3    0    0 -0.11336522587E+00 -0.38992158723E-01 -0.49330600169E-01  0.88949736986E+00  0.88000000000E+00 0. -1.
        -11    1    4    4    0    0  0.33997105369E-01  0.15476284336E-01  0.73670694223E-02  0.38076940308E-01  0.51100000000E-03 0.  1.
         11    1    4    4    0    0  0.88188138807E-01  0.79168070345E-02  0.25808762916E-01  0.92228938106E-01  0.51100000000E-03 0. -1.
</event>
<event>
 8    1  0.1162192E+005  0.1043930E+01  0.7957747E-01            NaN
         13   -1    0    0    0    0  0.00000000000E+00  0.00000000000E+00  0.74505805969E-08  0.10566000000E+00  0.10566000000E+00 0. -1.
     999900   -1    0    0    0    0 -0.00000000000E+00 -0.00000000000E+00 -0.74505805969E-08  0.93827000000E+00  0.93827000000E+00 0.  1.
     999902    2    1    2    0    0  0.19630682135E-01  0.41797648846E-04 -0.11429899503E-01  0.10212141898E+01  0.10209615142E+01 0.  0.
     999903    2    3    3    0    0  0.11992332579E+00  0.52198716727E-01 -0.20254267264E-01  0.13393924484E+00  0.20571238866E-01 0.  0.
         14    1    1    2    0    0 -0.19630682135E-01 -0.41797648846E-04  0.11429899503E-01  0.22715810151E-01  0.00000000000E+00 0. -1.
     999901    1    3    3    0    0 -0.10029264366E+00 -0.52156919078E-01  0.88243677610E-02  0.88727494501E+00  0.88000000000E+00 0.  1.
        -11    1    4    4    0    0  0.51937148361E-01  0.27196310223E-01 -0.18499161427E-01  0.61478343863E-01  0.51100000000E-03 0.  1.
         11    1    4    4    0    0  0.67986177430E-01  0.25002406504E-01 -0.17551058371E-02  0.72460900975E-01  0.51100000000E-03 0. -1.
</event>
<event>
 8    1  0.1162192E+005  0.1043930E+01  0.7957747E-01            NaN
         13   -1    0    0    0    0  0.00000000000E+00  0.00000000000E+00  0.74505805969E-08  0.10566000000E+00  0.10566000000E+00 0.  1.
     999900   -1    0    0    0    0 -0.00000000000E+00 -0.00000000000E+00 -0.74505805969E-08  0.93827000000E+00  0.93827000000E+00 0.  1.
     999902    2    1    2    0    0 -0.19942933576E-01  0.10662650012E-01  0.51659212833E-02  0.10207330293E+01  0.10204694105E+01 0.  0.
     999903    2    3    3    0    0 -0.22421007235E-01 -0.11435686224E+00 -0.54045777489E-01  0.12992326033E+00  0.19465713538E-01 0.  0.
         14    1    1    2    0    0  0.19942933576E-01 -0.10662650012E-01 -0.51659212833E-02  0.23196970656E-01  0.00000000000E+00 0. -1.
     999901    1    3    3    0    0  0.24780736590E-02  0.12501951226E+00  0.59211698772E-01  0.89080976901E+00  0.88000000000E+00 0.  1.
        -11    1    4    4    0    0 -0.85045762717E-02 -0.72979206090E-01 -0.25559645684E-01  0.77793630508E-01  0.51100000000E-03 0. -1.
         11    1    4    4    0    0 -0.13916430963E-01 -0.41377656154E-01 -0.28486131805E-01  0.52129629826E-01  0.51100000000E-03 0.  1.
</event>
<event>
 8    1  0.1162192E+005  0.1043930E+01  0.7957747E-01            NaN
         13   -1    0    0    0    0  0.00000000000E+00  0.00000000000E+00  0.74505805969E-08  0.10566000000E+00  0.10566000000E+00 0.  1.
     999900   -1    0    0    0    0 -0.00000000000E+00 -0.00000000000E+00 -0.74505805969E-08  0.93827000000E+00  0.93827000000E+00 0. -1.
     999902    2    1    2    0    0  0.64886969259E-02 -0.14327556918E-01 -0.17838374265E-01  0.10201478708E+01  0.10198706234E+01 0.  0.
     999903    2    3    3    0    0 -0.26011383742E-01 -0.13524354803E-02 -0.12837382406E+00  0.13254283771E+00  0.20232250458E-01 0.  0.
         14    1    1    2    0    0 -0.64886969259E-02  0.14327556918E-01  0.17838374265E-01  0.23782129246E-01  0.00000000000E+00 0.  1.
     999901    1    3    3    0    0  0.32500080668E-01 -0.12975121438E-01  0.11053544980E+00  0.88760503304E+00  0.88000000000E+00 0.  1.
        -11    1    4    4    0    0 -0.14157855828E-01 -0.79532716142E-02 -0.40682802168E-01  0.43806973467E-01  0.51100000000E-03 0. -1.
         11    1    4    4    0    0 -0.11853527914E-01  0.66008361339E-02 -0.87691021893E-01  0.88735864245E-01  0.51100000000E-03 0.  1.
</event>
<event>
 8    1  0.1162192E+005  0.1043930E+01  0.7957747E-01            NaN
         13   -1    0    0    0    0  0.00000000000E+00  0.00000000000E+00  0.74505805969E-08  0.10566000000E+00  0.10566000000E+00 0.  1.
     999900   -1    0    0    0    0 -0.00000000000E+00 -0.00000000000E+00 -0.74505805969E-08  0.93827000000E+00  0.93827000000E+00 0.  1.
     999902    2    1    2    0    0  0.19984201059E-01  0.13949412464E-01 -0.28282670620E-02  0.10193952594E+01  0.10190999664E+01 0.  0.
     999903    2    3    3    0    0  0.10787913737E+00 -0.65862550120E-01 -0.27780521117E-01  0.13107207265E+00  0.20792957605E-01 0.  0.
         14    1    1    2    0    0 -0.19984201059E-01 -0.13949412464E-01  0.28282670620E-02  0.24534740566E-01  0.00000000000E+00 0. -1.
     999901    1    3    3    0    0 -0.87894936313E-01  0.79811962585E-01  0.24952254055E-01  0.88832318679E+00  0.88000000000E+00 0.  1.
        -11    1    4    4    0    0  0.88069012395E-01 -0.43699708513E-01 -0.19814892815E-01  0.10029310329E+00  0.51100000000E-03 0. -1.
         11    1    4    4    0    0  0.19810124977E-01 -0.22162841607E-01 -0.79656283023E-02  0.30778969362E-01  0.51100000000E-03 0.  1.
</event>
<event>
 8    1  0.1162192E+005  0.1043930E+01  0.7957747E-01            NaN
         13   -1    0    0    0    0  0.00000000000E+00  0.00000000000E+00  0.74505805969E-08  0.10566000000E+00  0.10566000000E+00 0.  1.
     999900   -1    0    0    0    0 -0.00000000000E+00 -0.00000000000E+00 -0.74505805969E-08  0.93827000000E+00  0.93827000000E+00 0.  1.
     999902    2    1    2    0    0 -0.21489742102E-01  0.10295631826E-01  0.10062772902E-02  0.10200800179E+01  0.10198011676E+01 0.  0.
     999903    2    3    3    0    0 -0.42993162548E-02 -0.12377392739E+00  0.31319668666E-01  0.12924386064E+00  0.19610829838E-01 0.  0.
         14    1    1    2    0    0  0.21489742102E-01 -0.10295631826E-01 -0.10062772902E-02  0.23849982061E-01  0.00000000000E+00 0.  1.
     999901    1    3    3    0    0 -0.17190425847E-01  0.13406955922E+00 -0.30313391376E-01  0.89083615730E+00  0.88000000000E+00 0. -1.
        -11    1    4    4    0    0 -0.10456616443E-01 -0.47968145230E-01  0.84196219586E-02  0.49814003445E-01  0.51100000000E-03 0.  1.
         11    1    4    4    0    0  0.61573001878E-02 -0.75805782159E-01  0.22900046707E-01  0.79429857199E-01  0.51100000000E-03 0. -1.
</event>
<event>
 8    1  0.1162192E+005  0.1043930E+01  0.7957747E-01            NaN
         13   -1    0    0    0    0  0.00000000000E+00  0.00000000000E+00  0.74505805969E-08  0.10566000000E+00  0.10566000000E+00 0.  1.
     999900   -1    0    0    0    0 -0.00000000000E+00 -0.00000000000E+00 -0.74505805969E-08  0.93827000000E+00  0.93827000000E+00 0.  1.
     999902    2    1    2    0    0  0.53257779276E-02  0.13896627999E-01 -0.18743008462E-01  0.10199971659E+01  0.10197163517E+01 0.  0.
     999903    2    3    3    0    0  0.10955022457E+00 -0.53809990036E-01  0.38407907516E-01  0.12942816322E+00  0.19486285985E-01 0.  0.
         14    1    1    2    0    0 -0.53257779276E-02 -0.13896627999E-01  0.18743008462E-01  0.23932834067E-01  0.00000000000E+00 0.  1.
     999901    1    3    3    0    0 -0.10422444665E+00  0.67706618035E-01 -0.57150915977E-01  0.89056900272E+00  0.88000000000E+00 0.  1.
        -11    1    4    4    0    0  0.20663590313E-01 -0.12222457119E-01 -0.84512034496E-04  0.24013343914E-01  0.51100000000E-03 0.  1.
         11    1    4    4    0    0  0.88886634262E-01 -0.41587532917E-01  0.38492419550E-01  0.10541481930E+00  0.51100000000E-03 0. -1.
</event>
<event>
 8    1  0.1162192E+005  0.1043930E+01  0.7957747E-01            NaN
         13   -1    0    0    0    0  0.00000000000E+00  0.00000000000E+00  0.74505805969E-08  0.10566000000E+00  0.10566000000E+00 0. -1.
     999900   -1    0    0    0    0 -0.00000000000E+00 -0.00000000000E+00 -0.74505805969E-08  0.93827000000E+00  0.93827000000E+00 0. -1.
     999902    2    1    2    0    0  0.21291929180E-02  0.23539119819E-02  0.23677820071E-01  0.10200403887E+01  0.10197605999E+01 0.  0.
     999903    2    3    3    0    0 -0.84264358597E-01 -0.31204834154E-01  0.95131254364E-01  0.13229288607E+00  0.19422367063E-01 0.  0.
         14    1    1    2    0    0 -0.21291929180E-02 -0.23539119819E-02 -0.23677820071E-01  0.23889611287E-01  0.00000000000E+00 0.  1.
     999901    1    3    3    0    0  0.86393551515E-01  0.33558746136E-01 -0.71453434293E-01  0.88774750265E+00  0.88000000000E+00 0. -1.
        -11    1    4    4    0    0 -0.71626995619E-01 -0.21108627427E-01  0.69697191750E-01  0.10214675870E+00  0.51100000000E-03 0.  1.
         11    1    4    4    0    0 -0.12637362977E-01 -0.10096206727E-01  0.25434062614E-01  0.30146127369E-01  0.51100000000E-03 0. -1.
</event>
<event>
 8    1  0.1162192E+005  0.1043930E+01  0.7957747E-01            NaN
         13   -1    0    0    0    0  0.00000000000E+00  0.00000000000E+00  0.74505805969E-08  0.10566000000E+00  0.10566000000E+00 0.  1.
     999900   -1    0    0    0    0 -0.00000000000E+00 -0.00000000000E+00 -0.74505805969E-08  0.93827000000E+00  0.93827000000E+00 0.  1.
     999902    2    1    2    0    0 -0.12532116882E-01  0.15499785286E-01  0.12888373081E-01  0.10201937944E+01  0.10199176293E+01 0.  0.
     999903    2    3    3    0    0  0.47758746134E-01  0.71015246312E-01 -0.95471268861E-01  0.12976762304E+00  0.20020234006E-01 0.  0.
         14    1    1    2    0    0  0.12532116882E-01 -0.15499785286E-01 -0.12888373081E-01  0.23736205639E-01  0.00000000000E+00 0. -1.
     999901    1    3    3    0    0 -0.60290863016E-01 -0.55515461026E-01  0.10835964194E+00  0.89042617132E+00  0.88000000000E+00 0. -1.
        -11    1    4    4    0    0  0.42967358208E-02  0.12937572285E-01 -0.25816228272E-01  0.29198997903E-01  0.51100000000E-03 0. -1.
         11    1    4    4    0    0  0.43462010313E-01  0.58077674027E-01 -0.69655040589E-01  0.10056862513E+00  0.51100000000E-03 0.  1.
</event>
<event>
 8    1  0.1162192E+005  0.1043930E+01  0.7957747E-01            NaN
         13   -1    0    0    0    0  0.00000000000E+00  0.00000000000E+00  0.74505805969E-08  0.10566000000E+00  0.10566000000E+00 0. -1.
     999900   -1    0    0    0    0 -0.00000000000E+00 -0.00000000000E+00 -0.74505805969E-08  0.93827000000E+00  0.93827000000E+00 0.  1.
     999902    2    1    2    0    0 -0.60533215256E-02  0.10713273532E-01 -0.12436794587E-01  0.10264345494E+01  0.10262854347E+01 0.  0.
     999903    2    3    3    0    0  0.11854568201E+00  0.57189998616E-01  0.25601598099E-01  0.13563046492E+00  0.20406041350E-01 0.  0.
         14    1    1    2    0    0  0.60533215256E-02 -0.10713273532E-01  0.12436794587E-01  0.17495450576E-01  0.00000000000E+00 0. -1.
     999901    1    3    3    0    0 -0.12459900353E+00 -0.46476725083E-01 -0.38038392686E-01  0.89080408451E+00  0.88000000000E+00 0.  1.
        -11    1    4    4    0    0  0.60913448898E-01  0.18243235021E-01  0.13960603132E-01  0.65103175356E-01  0.51100000000E-03 0.  1.
         11    1    4    4    0    0  0.57632233111E-01  0.38946763595E-01  0.11640994967E-01  0.70527289560E-01  0.51100000000E-03 0. -1.
</event>
<event>
 8    1  0.1162192E+005  0.1043930E+01  0.7957747E-01            NaN
         13   -1    0    0    0    0  0.00000000000E+00  0.00000000000E+00  0.74505805969E-08  0.10566000000E+00  0.10566000000E+00 0.  1.
     999900   -1    0    0    0    0 -0.00000000000E+00 -0.00000000000E+00 -0.74505805969E-08  0.93827000000E+00  0.93827000000E+00 0.  1.
     999902    2    1    2    0    0 -0.21234517274E-01  0.95093211020E-02 -0.42503128403E-02  0.10202784235E+01  0.10200042472E+01 0.  0.
     999903    2    3    3    0    0  0.11223792573E+00  0.45721690024E-01 -0.38359923574E-01  0.12882472630E+00  0.20892617359E-01 0.  0.
         14    1    1    2    0    0  0.21234517274E-01 -0.95093211020E-02  0.42503128403E-02  0.23651576500E-01  0.00000000000E+00 0. -1.
     999901    1    3    3    0    0 -0.13347244300E+00 -0.36212368922E-01  0.34109610733E-01  0.89145369720E+00  0.88000000000E+00 0.  1.
        -11    1    4    4    0    0  0.95656387149E-01  0.32665480197E-01 -0.26039018913E-01  0.10438136628E+00  0.51100000000E-03 0.  1.
         11    1    4    4    0    0  0.16581538578E-01  0.13056209827E-01 -0.12320904661E-01  0.24443360025E-01  0.51100000000E-03 0. -1.
</event>
<event>
 8    1  0.1162192E+005  0.1043930E+01  0.7957747E-01            NaN
         13   -1    0    0    0    0  0.00000000000E+00  0.00000000000E+00  0.74505805969E-08  0.10566000000E+00  0.10566000000E+00 0.  1.
     999900   -1    0    0    0    0 -0.00000000000E+00 -0.00000000000E+00 -0.74505805969E-08  0.93827000000E+00  0.93827000000E+00 0. -1.
     999902    2    1    2    0    0 -0.15501691475E-01 -0.13044132645E-01 -0.12092460246E-01  0.10203359450E+01  0.10200631163E+01 0.  0.
     999903    2    3    3    0    0 -0.63594530806E-01  0.62197253959E-01  0.92334947148E-01  0.12967367971E+00  0.19410254923E-01 0.  0.
         14    1    1    2    0    0  0.15501691475E-01  0.13044132645E-01  0.12092460246E-01  0.23594054968E-01  0.00000000000E+00 0. -1.
     999901    1    3    3    0    0  0.48092839332E-01 -0.75241386605E-01 -0.10442740739E+00  0.89066226532E+00  0.88000000000E+00 0. -1.
        -11    1    4    4    0    0 -0.23876056866E-01  0.20708160046E-01  0.20400998070E-01  0.37621215122E-01  0.51100000000E-03 0.  1.
         11    1    4    4    0    0 -0.39718473940E-01  0.41489093913E-01  0.71933949078E-01  0.92052464588E-01  0.51100000000E-03 0. -1.
</event>
<event>
 8    1  0.1162192E+005  0.1043930E+01  0.7957747E-01            NaN
         13   -1    0    0    0    0  0.00000000000E+00  0.00000000000E+00  0.74505805969E-08  0.10566000000E+00  0.10566000000E+00 0. -1.
     999900   -1    0    0    0    0 -0.00000000000E+00 -0.00000000000E+00 -0.74505805969E-08  0.93827000000E+00  0.93827000000E+00 0. -1.
     999902    2    1    2    0    0 -0.10117725266E-01  0.17295213972E-01  0.13281958107E-01  0.10198903827E+01  0.10196070270E+01 0.  0.
     999903    2    3    3    0    0 -0.74689072859E-01 -0.92388486367E-01 -0.45726903517E-01  0.12877758463E+00  0.19458329342E-01 0.  0.
         14    1    1    2    0    0  0.10117725266E-01 -0.17295213972E-01 -0.13281958107E-01  0.24039617344E-01  0.00000000000E+00 0.  1.
     999901    1    3    3    0    0  0.64571347592E-01  0.10968370034E+00  0.59008861624E-01  0.89111279802E+00  0.88000000000E+00 0.  1.
        -11    1    4    4    0    0 -0.34356556429E-01 -0.45758140029E-01 -0.11880286456E-01  0.58442986541E-01  0.51100000000E-03 0. -1.
         11    1    4    4    0    0 -0.40332516430E-01 -0.46630346338E-01 -0.33846617061E-01  0.70334598092E-01  0.51100000000E-03 0.  1.
</event>
<event>
 8    1  0.1162192E+005  0.1043930E+01  0.7957747E-01            NaN
         13   -1    0    0    0    0  0.00000000000E+00  0.00000000000E+00  0.74505805969E-08  0.10566000000E+00  0.10566000000E+00 0. -1.
     999900   -1    0    0    0    0 -0.00000000000E+00 -0.00000000000E+00 -0.74505805969E-08  0.93827000000E+00  0.93827000000E+00 0. -1.
     999902    2    1    2    0    0  0.19586748156E-01  0.11121114568E-01 -0.12075120561E-01  0.10183736225E+01  0.10180528997E+01 0.  0.
     999903    2    3    3    0    0  0.11998564681E+00  0.49379290597E-01 -0.15699196715E-01  0.13183159826E+00  0.17269503200E-01 0.  0.
         14    1    1    2    0    0 -0.19586748156E-01 -0.11121114568E-01  0.12075120561E-01  0.25556377464E-01  0.00000000000E+00 0. -1.
     999901    1    3    3    0    0 -0.10039889866E+00 -0.38258176029E-01  0.36240761544E-02  0.88654202428E+00  0.88000000000E+00 0.  1.
        -11    1    4    4    0    0  0.67758433133E-01  0.35073204881E-01 -0.38475485539E-02  0.76396333107E-01  0.51100000000E-03 0. -1.
         11    1    4    4    0    0  0.52227213678E-01  0.14306085717E-01 -0.11851648161E-01  0.55435265150E-01  0.51100000000E-03 0.  1.
</event>
<event>
 8    1  0.1162192E+005  0.1043930E+01  0.7957747E-01            NaN
         13   -1    0    0    0    0  0.00000000000E+00  0.00000000000E+00  0.74505805969E-08  0.10566000000E+00  0.10566000000E+00 0.  1.
     999900   -1    0    0    0    0 -0.00000000000E+00 -0.00000000000E+00 -0.74505805969E-08  0.93827000000E+00  0.93827000000E+00 0. -1.
     999902    2    1    2    0    0  0.11553261882E-01 -0.18449083701E-01  0.61484745910E-02  0.10213103119E+01  0.10210597940E+01 0.  0.
     999903    2    3    3    0    0 -0.15886952276E-01 -0.35053230104E-01  0.12571514019E+00  0.13264566731E+00  0.17591258955E-01 0.  0.
         14    1    1    2    0    0 -0.11553261882E-01  0.18449083701E-01 -0.61484745910E-02  0.22619688090E-01  0.00000000000E+00 0.  1.
     999901    1    3    3    0    0  0.27440214157E-01  0.16604146403E-01 -0.11956666560E+00  0.88866464459E+00  0.88000000000E+00 0. -1.
        -11    1    4    4    0    0 -0.41225638590E-02 -0.23270566061E-02  0.37833143253E-01  0.38131595491E-01  0.51100000000E-03 0. -1.
         11    1    4    4    0    0 -0.11764388417E-01 -0.32726173498E-01  0.87881996934E-01  0.94514071824E-01  0.51100000000E-03 0.  1.
</event>
<event>
 8    1  0.1162192E+005  0.1043930E+01  0.7957747E-01            NaN
         13   -1    0    0    0    0  0.00000000000E+00  0.00000000000E+00  0.74505805969E-08  0.10566000000E+00  0.10566000000E+00 0.  1.
     999900   -1    0    0    0    0 -0.00000000000E+00 -0.00000000000E+00 -0.74505805969E-08  0.93827000000E+00  0.93827000000E+00 0.  1.
     999902    2    1    2    0    0  0.72081129895E-02  0.19335304797E-02  0.22426251023E-01  0.10202945993E+01  0.10200208023E+01 0.  0.
     999903    2    3    3    0    0 -0.20609775860E-01 -0.15708424249E-01  0.12909062299E+00  0.13324197300E+00  0.20433232055E-01 0.  0.
         14    1    1    2    0    0 -0.72081129895E-02 -0.19335304797E-02 -0.22426251023E-01  0.23635400735E-01  0.00000000000E+00 0. -1.
     999901    1    3    3    0    0  0.27817888850E-01  0.17641954729E-01 -0.10666437197E+00  0.88705262626E+00  0.88000000000E+00 0.  1.
        -11    1    4    4    0    0 -0.40443362165E-02  0.25843339907E-02  0.53629234190E-01  0.53845996308E-01  0.51100000000E-03 0. -1.
         11    1    4    4    0    0 -0.16565439644E-01 -0.18292758240E-01  0.75461388802E-01  0.79395976696E-01  0.51100000000E-03 0.  1.
</event>
<event>
 8    1  0.1162192E+005  0.1043930E+01  0.7957747E-01            NaN
         13   -1    0    0    0    0  0.00000000000E+00  0.00000000000E+00  0.74505805969E-08  0.10566000000E+00  0.10566000000E+00 0.  1.
     999900   -1    0    0    0    0 -0.00000000000E+00 -0.00000000000E+00 -0.74505805969E-08  0.93827000000E+00  0.93827000000E+00 0.  1.
     999902    2    1    2    0    0  0.18870366359E-01  0.43348787283E-02  0.14651826417E-01  0.10196491862E+01  0.10193600468E+01 0.  0.
     999903    2    3    3    0    0 -0.78167820246E-01  0.10027094566E+00 -0.72896863835E-02  0.12886213615E+00  0.19693652291E-01 0.  0.
         14    1    1    2    0    0 -0.18870366359E-01 -0.43348787283E-02 -0.14651826417E-01  0.24280813773E-01  0.00000000000E+00 0. -1.
     999901    1    3    3    0    0  0.97038186605E-01 -0.95936066931E-01  0.21941512801E-01  0.89078705008E+00  0.88000000000E+00 0.  1.
        -11    1    4    4    0    0 -0.22102310354E-01  0.26419046534E-01 -0.10709216860E-01  0.36075290567E-01  0.51100000000E-03 0. -1.
         11    1    4    4    0    0 -0.56065509892E-01  0.73851899126E-01  0.34195304760E-02  0.92786845585E-01  0.51100000000E-03 0.  1.
</event>
<event>
 8    1  0.1162192E+005  0.1043930E+01  0.7957747E-01            NaN
         13   -1    0    0    0    0  0.00000000000E+00  0.00000000000E+00  0.74505805969E-08  0.10566000000E+00  0.10566000000E+00 0.  1.
     999900   -1    0    0    0    0 -0.00000000000E+00 -0.00000000000E+00 -0.74505805969E-08  0.93827000000E+00  0.93827000000E+00 0. -1.
     999902    2    1    2    0    0  0.20648078753E-01 -0.72012990820E-02 -0.78504292470E-02  0.10206957343E+01  0.10204312573E+01 0.  0.
     999903    2    3    3    0    0 -0.86487044599E-01 -0.87865641935E-01  0.33640921684E-01  0.12956936665E+00  0.21357182550E-01 0.  0.
         14    1    1    2    0    0 -0.20648078753E-01  0.72012990820E-02  0.78504292470E-02  0.23234265730E-01  0.00000000000E+00 0.  1.
     999901    1    3    3    0    0  0.10713512335E+00  0.80664342853E-01 -0.41491350931E-01  0.89112636762E+00  0.88000000000E+00 0. -1.
        -11    1    4    4    0    0 -0.87961497719E-02 -0.15077741635E-01  0.11263597523E-01  0.20780767401E-01  0.51100000000E-03 0. -1.
         11    1    4    4    0    0 -0.77690894827E-01 -0.72787900300E-01  0.22377324161E-01  0.10878859925E+00  0.51100000000E-03 0.  1.
</event>
<event>
 8    1  0.1162192E+005  0.1043930E+01  0.7957747E-01            NaN
         13   -1    0    0    0    0  0.00000000000E+00  0.00000000000E+00  0.74505805969E-08  0.10566000000E+00  0.10566000000E+00 0. -1.
     999900   -1    0    0    0    0 -0.00000000000E+00 -0.00000000000E+00 -0.74505805969E-08  0.93827000000E+00  0.93827000000E+00 0. -1.
     999902    2    1    2    0    0  0.16245663229E-01 -0.13959098006E-01 -0.33194400008E-02  0.10222552065E+01  0.10220253962E+01 0.  0.
     999903    2    3    3    0    0 -0.12546320328E+00 -0.32331591375E-01  0.59493988057E-02  0.13068083343E+00  0.15991801064E-01 0.  0.
         14    1    1    2    0    0 -0.16245663229E-01  0.13959098006E-01  0.33194400008E-02  0.21674793490E-01  0.00000000000E+00 0. -1.
     999901    1    3    3    0    0  0.14170886651E+00  0.18372493368E-01 -0.92688388065E-02  0.89157437308E+00  0.88000000000E+00 0.  1.
        -11    1    4    4    0    0 -0.80824731763E-01 -0.15683972834E-01 -0.21020929727E-02  0.82360817045E-01  0.51100000000E-03 0. -1.
         11    1    4    4    0    0 -0.44638471519E-01 -0.16647618541E-01  0.80514917783E-02  0.48320016385E-01  0.51100000000E-03 0.  1.
</event>
<event>
 8    1  0.1162192E+005  0.1043930E+01  0.7957747E-01            NaN
         13   -1    0    0    0    0  0.00000000000E+00  0.00000000000E+00  0.74505805969E-08  0.10566000000E+00  0.10566000000E+00 0.  1.
     999900   -1    0    0    0    0 -0.00000000000E+00 -0.00000000000E+00 -0.74505805969E-08  0.93827000000E+00  0.93827000000E+00 0. -1.
     999902    2    1    2    0    0 -0.18840411151E-01 -0.95684563980E-03 -0.93149376692E-02  0.10228908767E+01  0.10226744843E+01 0.  0.
     999903    2    3    3    0    0 -0.11857128028E-01 -0.55322185224E-01 -0.12013622455E+00  0.13424825222E+00  0.19716620237E-01 0.  0.
         14    1    1    2    0    0  0.18840411151E-01  0.95684563980E-03  0.93149376692E-02  0.21039123311E-01  0.00000000000E+00 0. -1.
     999901    1    3    3    0    0 -0.69832831231E-02  0.54365339584E-01  0.11082128688E+00  0.88864262447E+00  0.88000000000E+00 0.  1.
        -11    1    4    4    0    0 -0.72866378856E-02 -0.40774486196E-02 -0.14259049368E-01  0.16531856786E-01  0.51100000000E-03 0. -1.
         11    1    4    4    0    0 -0.45704901421E-02 -0.51244736605E-01 -0.10587717518E+00  0.11771639544E+00  0.51100000000E-03 0.  1.
</event>
<event>
 8    1  0.1162192E+005  0.1043930E+01  0.7957747E-01            NaN
         13   -1    0    0    0    0  0.00000000000E+00  0.00000000000E+00  0.74505805969E-08  0.10566000000E+00  0.10566000000E+00 0.  1.
     999900   -1    0    0    0    0 -0.00000000000E+00 -0.00000000000E+00 -0.74505805969E-08  0.93827000000E+00  0.93827000000E+00 0.  1.
     999902    2    1    2    0    0  0.39807305863E-02 -0.58329918719E-02  0.24788294681E-01  0.10181554086E+01  0.10178291146E+01 0.  0.
     999903    2    3    3    0    0 -0.27531881502E-01 -0.96086565935E-01 -0.76059233589E-01  0.12725194786E+00  0.20430823942E-01 0.  0.
         14    1    1    2    0    0 -0.39807305863E-02  0.58329918719E-02 -0.24788294681E-01  0.25774591430E-01  0.00000000000E+00 0. -1.
     999901    1    3    3    0    0  0.31512612088E-01  0.90253574063E-01  0.10084752827E+00  0.89090346071E+00  0.88000000000E+00 0.  1.
        -11    1    4    4    0    0 -0.14126502000E-03 -0.30686332046E-01 -0.28418124442E-01  0.41827285927E-01  0.51100000000E-03 0. -1.
         11    1    4    4    0    0 -0.27390616482E-01 -0.65400233890E-01 -0.47641109147E-01  0.85424661930E-01  0.51100000000E-03 0.  1.
</event>
<event>
 8    1  0.1162192E+005  0.1043930E+01  0.7957747E-01            NaN
         13   -1    0    0    0    0  0.00000000000E+00  0.00000000000E+00  0.74505805969E-08  0.10566000000E+00  0.10566000000E+00 0. -1.
     999900   -1    0    0    0    0 -0.00000000000E+00 -0.00000000000E+00 -0.74505805969E-08  0.93827000000E+00  0.93827000000E+00 0.  1.
     999902    2    1    2    0    0  0.13229244305E-01  0.19917933282E-01  0.39766819871E-03  0.10200156714E+01  0.10197352965E+01 0.  0.
     999903    2    3    3    0    0 -0.10352982573E+00  0.39803835887E-01  0.64141705685E-01  0.12979579304E+00  0.20736907115E-01 0.  0.
         14    1    1    2    0    0 -0.13229244305E-01 -0.19917933282E-01 -0.39766819871E-03  0.23914328573E-01  0.00000000000E+00 0. -1.
     999901    1    3    3    0    0  0.11675907003E+00 -0.19885902605E-01 -0.63744037486E-01  0.89021987839E+00  0.88000000000E+00 0.  1.
        -11    1    4    4    0    0 -0.21090405194E-01  0.76677379008E-02  0.39791120923E-02  0.22796794726E-01  0.51100000000E-03 0. -1.
         11    1    4    4    0    0 -0.82439420533E-01  0.32136097986E-01  0.60162593593E-01  0.10699899832E+00  0.51100000000E-03 0.  1.
</event>
<event>
 8    1  0.1162192E+005  0.1043930E+01  0.7957747E-01            NaN
         13   -1    0    0    0    0  0.00000000000E+00  0.00000000000E+00  0.74505805969E-08  0.10566000000E+00  0.10566000000E+00 0.  1.
     999900   -1    0    0    0    0 -0.00000000000E+00 -0.00000000000E+00 -0.74505805969E-08  0.93827000000E+00  0.93827000000E+00 0. -1.
     999902    2    1    2    0    0  0.16358756308E-01  0.95569429051E-02  0.94905509615E-02  0.10227400348E+01  0.10225204958E+01 0.  0.
     999903    2    3    3    0    0 -0.35603844006E-01  0.65496529822E-01  0.10932367609E+00  0.13381034016E+00  0.19902558987E-01 0.  0.
         14    1    1    2    0    0 -0.16358756308E-01 -0.95569429051E-02 -0.94905509615E-02  0.21189965153E-01  0.00000000000E+00 0. -1.
     999901    1    3    3    0    0  0.51962600313E-01 -0.55939586917E-01 -0.99833125129E-01  0.88892969468E+00  0.88000000000E+00 0. -1.
        -11    1    4    4    0    0 -0.22943797861E-02  0.16314235783E-01  0.14697067644E-01  0.22083554653E-01  0.51100000000E-03 0. -1.
         11    1    4    4    0    0 -0.33309464220E-01  0.49182294039E-01  0.94626608447E-01  0.11172678551E+00  0.51100000000E-03 0.  1.
</event>
<event>
 8    1  0.1353507E+005  0.1043930E+01  0.7957747E-01            NaN
         13   -1    0    0    0    0  0.00000000000E+00  0.00000000000E+00  0.74505805969E-08  0.10566000000E+00  0.10566000000E+00 0. -1.
     999900   -1    0    0    0    0 -0.00000000000E+00 -0.00000000000E+00 -0.74505805969E-08  0.93827000000E+00  0.93827000000E+00 0.  1.
     999902    2    1    2    0    0 -0.25751027210E-02 -0.13562075012E-01  0.19265858681E-01  0.10202290645E+01  0.10199537292E+01 0.  0.
     999903    2    3    3    0    0 -0.56071137424E-01 -0.11514946692E+00  0.28292987166E-01  0.13272508537E+00  0.20299827096E-01 0.  0.
         14    1    1    2    0    0  0.25751027210E-02  0.13562075012E-01 -0.19265858681E-01  0.23700935495E-01  0.00000000000E+00 0.  1.
     999901    1    3    3    0    0  0.53496034703E-01  0.10158739191E+00 -0.90271284852E-02  0.88750397913E+00  0.88000000000E+00 0.  1.
        -11    1    4    4    0    0 -0.27979686138E-01 -0.77080042218E-01  0.22662067479E-01  0.85076590013E-01  0.51100000000E-03 0. -1.
         11    1    4    4    0    0 -0.28091451286E-01 -0.38069424704E-01  0.56309196871E-02  0.47648495361E-01  0.51100000000E-03 0.  1.
</event>
<event>
 8    1  0.1162192E+005  0.1043930E+01  0.7957747E-01            NaN
         13   -1    0    0    0    0  0.00000000000E+00  0.00000000000E+00  0.74505805969E-08  0.10566000000E+00  0.10566000000E+00 0.  1.
     999900   -1    0    0    0    0 -0.00000000000E+00 -0.00000000000E+00 -0.74505805969E-08  0.93827000000E+00  0.93827000000E+00 0. -1.
     999902    2    1    2    0    0  0.10200085348E-01  0.20355672657E-01  0.64218693314E-02  0.10202733824E+01  0.10199990879E+01 0.  0.
     999903    2    3    3    0    0  0.11007756901E+00  0.66311567449E-01  0.28752135540E-01  0.13315101384E+00  0.19703096510E-01 0.  0.
         14    1    1    2    0    0 -0.10200085348E-01 -0.20355672657E-01 -0.64218693314E-02  0.23656617597E-01  0.00000000000E+00 0.  1.
     999901    1    3    3    0    0 -0.99877483665E-01 -0.45955894792E-01 -0.22330266209E-01  0.88712236856E+00  0.88000000000E+00 0. -1.
        -11    1    4    4    0    0  0.45782662368E-01  0.21296198241E-01  0.31574904647E-02  0.50594575797E-01  0.51100000000E-03 0.  1.
         11    1    4    4    0    0  0.64294906645E-01  0.45015369208E-01  0.25594645075E-01  0.82556438047E-01  0.51100000000E-03 0. -1.
</event>
<event>
 8    1  0.1162192E+005  0.1043930E+01  0.7957747E-01            NaN
         13   -1    0    0    0    0  0.00000000000E+00  0.00000000000E+00  0.74505805969E-08  0.10566000000E+00  0.10566000000E+00 0.  1.
     999900   -1    0    0    0    0 -0.00000000000E+00 -0.00000000000E+00 -0.74505805969E-08  0.93827000000E+00  0.93827000000E+00 0.  1.
     999902    2    1    2    0    0  0.20900095387E-01 -0.52463141611E-02  0.93135149669E-02  0.10204549204E+01  0.10201848682E+01 0.  0.
     999903    2    3    3    0    0  0.12367864806E-01  0.12107054392E+00 -0.40021372214E-01  0.13002655235E+00  0.22229561379E-01 0.  0.
         14    1    1    2    0    0 -0.20900095387E-01  0.52463141611E-02 -0.93135149669E-02  0.23475079563E-01  0.00000000000E+00 0. -1.
     999901    1    3    3    0    0  0.85322305809E-02 -0.12631685808E+00  0.49334887181E-01  0.89042836808E+00  0.88000000000E+00 0. -1.
        -11    1    4    4    0    0 -0.55539065200E-02  0.44648101298E-01 -0.18346123689E-01  0.48591565138E-01  0.51100000000E-03 0. -1.
         11    1    4    4    0    0  0.17921771326E-01  0.76422442619E-01 -0.21675248524E-01  0.81434987216E-01  0.51100000000E-03 0.  1.
</event>
<event>
 8    1  0.1162192E+005  0.1043930E+01  0.7957747E-01            NaN
         13   -1    0    0    0    0  0.00000000000E+00  0.00000000000E+00  0.74505805969E-08  0.10566000000E+00  0.10566000000E+00 0.  1.
     999900   -1    0    0    0    0 -0.00000000000E+00 -0.00000000000E+00 -0.74505805969E-08  0.93827000000E+00  0.93827000000E+00 0.  1.
     999902    2    1    2    0    0  0.51469556009E-02  0.17268878864E-01  0.14617964420E-01  0.10207267629E+01  0.10204629999E+01 0.  0.
     999903    2    3    3    0    0  0.65120241878E-01  0.31328303854E-01 -0.10669513341E+00  0.13027107605E+00  0.19094324737E-01 0.  0.
         14    1    1    2    0    0 -0.51469556009E-02 -0.17268878864E-01 -0.14617964420E-01  0.23203237123E-01  0.00000000000E+00 0. -1.
     999901    1    3    3    0    0 -0.59973286277E-01 -0.14059424990E-01  0.12131309783E+00  0.89045568683E+00  0.88000000000E+00 0. -1.
        -11    1    4    4    0    0  0.18589661723E-01  0.65051009729E-02 -0.44882472676E-01  0.49016215033E-01  0.51100000000E-03 0. -1.
         11    1    4    4    0    0  0.46530580155E-01  0.24823202881E-01 -0.61812660734E-01  0.81254861017E-01  0.51100000000E-03 0.  1.
</event>
<event>
 8    1  0.1162192E+005  0.1043930E+01  0.7957747E-01            NaN
         13   -1    0    0    0    0  0.00000000000E+00  0.00000000000E+00  0.74505805969E-08  0.10566000000E+00  0.10566000000E+00 0.  1.
     999900   -1    0    0    0    0 -0.00000000000E+00 -0.00000000000E+00 -0.74505805969E-08  0.93827000000E+00  0.93827000000E+00 0. -1.
     999902    2    1    2    0    0 -0.49280444304E-02 -0.10849403517E-02  0.24073117184E-01  0.10193337058E+01  0.10190369111E+01 0.  0.
     999903    2    3    3    0    0  0.36953645636E-01 -0.84866694351E-01  0.91524895776E-01  0.13179598790E+00  0.20626394322E-01 0.  0.
         14    1    1    2    0    0  0.49280444304E-02  0.10849403517E-02 -0.24073117184E-01  0.24596294201E-01  0.00000000000E+00 0. -1.
     999901    1    3    3    0    0 -0.41881690066E-01  0.83781753999E-01 -0.67451778592E-01  0.88753771790E+00  0.88000000000E+00 0. -1.
        -11    1    4    4    0    0  0.97010999289E-02 -0.16601562707E-01  0.31441816593E-01  0.36858814086E-01  0.51100000000E-03 0.  1.
         11    1    4    4    0    0  0.27252545707E-01 -0.68265131644E-01  0.60083079183E-01  0.94937173809E-01  0.51100000000E-03 0. -1.
</event>
<event>
 8    1  0.1162192E+005  0.1043930E+01  0.7957747E-01            NaN
         13   -1    0    0    0    0  0.00000000000E+00  0.00000000000E+00  0.74505805969E-08  0.10566000000E+00  0.10566000000E+00 0.  1.
     999900   -1    0    0    0    0 -0.00000000000E+00 -0.00000000000E+00 -0.74505805969E-08  0.93827000000E+00  0.93827000000E+00 0.  1.
     999902    2    1    2    0    0  0.16313406183E-01 -0.97646891557E-02 -0.14056653321E-01  0.10202854260E+01  0.10200114140E+01 0.  0.
     999903    2    3    3    0    0  0.53506600924E-01 -0.10466440772E+00  0.56018427176E-01  0.13163487197E+00  0.19289394744E-01 0.  0.
         14    1    1    2    0    0 -0.16313406183E-01  0.97646891557E-02  0.14056653321E-01  0.23644573969E-01  0.00000000000E+00 0.  1.
     999901    1    3    3    0    0 -0.37193194741E-01  0.94899718569E-01 -0.70075080496E-01  0.88865055406E+00  0.88000000000E+00 0.  1.
        -11    1    4    4    0    0  0.31681599534E-01 -0.47495862201E-01  0.19298747451E-01  0.60268428298E-01  0.51100000000E-03 0.  1.
         11    1    4    4    0    0  0.21825001390E-01 -0.57168545523E-01  0.36719679725E-01  0.71366443676E-01  0.51100000000E-03 0. -1.
</event>
<event>
 8    1  0.1162192E+005  0.1043930E+01  0.7957747E-01            NaN
         13   -1    0    0    0    0  0.00000000000E+00  0.00000000000E+00  0.74505805969E-08  0.10566000000E+00  0.10566000000E+00 0. -1.
     999900   -1    0    0    0    0 -0.00000000000E+00 -0.00000000000E+00 -0.74505805969E-08  0.93827000000E+00  0.93827000000E+00 0.  1.
     999902    2    1    2    0    0  0.33878858543E-02  0.26100863860E-03 -0.23432486709E-01  0.10202524298E+01  0.10199776435E+01 0.  0.
     999903    2    3    3    0    0  0.11610651913E+00 -0.54140196533E-01 -0.21294466263E-01  0.13139386259E+00  0.19975188819E-01 0.  0.
         14    1    1    2    0    0 -0.33878858543E-02 -0.26100863860E-03  0.23432486709E-01  0.23677570176E-01  0.00000000000E+00 0. -1.
     999901    1    3    3    0    0 -0.11271863328E+00  0.54401205171E-01 -0.21380204460E-02  0.88885856723E+00  0.88000000000E+00 0.  1.
        -11    1    4    4    0    0  0.75516222704E-01 -0.26572281497E-01 -0.74153236608E-02  0.80399217542E-01  0.51100000000E-03 0. -1.
         11    1    4    4    0    0  0.40590296426E-01 -0.27567915036E-01 -0.13879142602E-01  0.50994645050E-01  0.51100000000E-03 0.  1.
</event>
<event>
 8    1  0.1162192E+005  0.1043930E+01  0.7957747E-01            NaN
         13   -1    0    0    0    0  0.00000000000E+00  0.00000000000E+00  0.74505805969E-08  0.10566000000E+00  0.10566000000E+00 0.  1.
     999900   -1    0    0    0    0 -0.00000000000E+00 -0.00000000000E+00 -0.74505805969E-08  0.93827000000E+00  0.93827000000E+00 0. -1.
     999902    2    1    2    0    0 -0.42526788321E-02  0.17889765847E-01  0.14298925052E-01  0.10206364761E+01  0.10203706327E+01 0.  0.
     999903    2    3    3    0    0 -0.87557917804E-02 -0.25776546712E-01 -0.12550098343E+00  0.12852043021E+00  0.50901758214E-02 0.  0.
         14    1    1    2    0    0  0.42526788321E-02 -0.17889765847E-01 -0.14298925052E-01  0.23293523927E-01  0.00000000000E+00 0. -1.
     999901    1    3    3    0    0  0.45031129483E-02  0.43666312559E-01  0.13979990848E+00  0.89211604586E+00  0.88000000000E+00 0.  1.
        -11    1    4    4    0    0 -0.71015339547E-02 -0.24192198204E-01 -0.11082461093E+00  0.11365759873E+00  0.51100000000E-03 0.  1.
         11    1    4    4    0    0 -0.16542578257E-02 -0.15843485085E-02 -0.14676372492E-01  0.14862831482E-01  0.51100000000E-03 0. -1.
</event>
<event>
 8    1  0.1162192E+005  0.1043930E+01  0.7957747E-01            NaN
         13   -1    0    0    0    0  0.00000000000E+00  0.00000000000E+00  0.74505805969E-08  0.10566000000E+00  0.10566000000E+00 0.  1.
     999900   -1    0    0    0    0 -0.00000000000E+00 -0.00000000000E+00 -0.74505805969E-08  0.93827000000E+00  0.93827000000E+00 0. -1.
     999902    2    1    2    0    0 -0.18875478414E-01 -0.50327772025E-02 -0.12835726519E-01  0.10205554753E+01  0.10202877583E+01 0.  0.
     999903    2    3    3    0    0 -0.11019685521E+00  0.28588378097E-01 -0.67867452760E-01  0.13348249808E+00  0.15841208585E-01 0.  0.
         14    1    1    2    0    0  0.18875478414E-01  0.50327772025E-02  0.12835726519E-01  0.23374524744E-01  0.00000000000E+00 0. -1.
     999901    1    3    3    0    0  0.91321376794E-01 -0.33621155300E-01  0.55031726241E-01  0.88707297718E+00  0.88000000000E+00 0.  1.
        -11    1    4    4    0    0 -0.74601588481E-01  0.24414467607E-01 -0.40124396548E-01  0.88157197958E-01  0.51100000000E-03 0.  1.
         11    1    4    4    0    0 -0.35595266727E-01  0.41739104907E-02 -0.27743056212E-01  0.45325300122E-01  0.51100000000E-03 0. -1.
</event>
<event>
 8    1  0.1162192E+005  0.1043930E+01  0.7957747E-01            NaN
         13   -1    0    0    0    0  0.00000000000E+00  0.00000000000E+00  0.74505805969E-08  0.10566000000E+00  0.10566000000E+00 0.  1.
     999900   -1    0    0    0    0 -0.00000000000E+00 -0.00000000000E+00 -0.74505805969E-08  0.93827000000E+00  0.93827000000E+00 0.  1.
     999902    2    1    2    0    0  0.20850224522E-01  0.73826515107E-02 -0.82686272162E-02  0.10203163260E+01  0.10200430380E+01 0.  0.
     999903    2    3    3    0    0  0.23818364639E-02  0.12976000360E+00 -0.82828608412E-02  0.13165593083E+00  0.20526730380E-01 0.  0.
         14    1    1    2    0    0 -0.20850224522E-01 -0.73826515107E-02  0.82686272162E-02  0.23613674046E-01  0.00000000000E+00 0.  1.
     999901    1    3    3    0    0  0.18468388058E-01 -0.12237735209E+00  0.14233624996E-04  0.88866039513E+00  0.88000000000E+00 0.  1.
        -11    1    4    4    0    0 -0.24656764094E-02  0.12185623833E+00 -0.56910123211E-02  0.12201504465E+00  0.51100000000E-03 0. -1.
         11    1    4    4    0    0  0.48475128733E-02  0.79037652708E-02 -0.25918485201E-02  0.96408861763E-02  0.51100000000E-03 0.  1.
</event>
<event>
 8    1  0.1162192E+005  0.1043930E+01  0.7957747E-01            NaN
         13   -1    0    0    0    0  0.00000000000E+00  0.00000000000E+00  0.74505805969E-08  0.10566000000E+00  0.10566000000E+00 0.  1.
     999900   -1    0    0    0    0 -0.00000000000E+00 -0.00000000000E+00 -0.74505805969E-08  0.93827000000E+00  0.93827000000E+00 0. -1.
     999902    2    1    2    0    0  0.27124326617E-02 -0.23382062967E-01  0.39797339077E-02  0.10200570772E+01  0.10197776838E+01 0.  0.
     999903    2    3    3    0    0  0.61734836782E-01  0.11618734146E-01 -0.11233666744E+00  0.12975476610E+00  0.16449541608E-01 0.  0.
         14    1    1    2    0    0 -0.27124326617E-02  0.23382062967E-01 -0.39797339077E-02  0.23872922768E-01  0.00000000000E+00 0.  1.
     999901    1    3    3    0    0 -0.59022404120E-01 -0.35000797113E-01  0.11631640134E+00  0.89030231113E+00  0.88000000000E+00 0.  1.
        -11    1    4    4    0    0  0.41567817416E-01  0.60958079688E-02 -0.88985640476E-01  0.98406034629E-01  0.51100000000E-03 0. -1.
         11    1    4    4    0    0  0.20167019367E-01  0.55229261777E-02 -0.23351026960E-01  0.31348731470E-01  0.51100000000E-03 0.  1.
</event>
<event>
 8    1  0.1162192E+005  0.1043930E+01  0.7957747E-01            NaN
         13   -1    0    0    0    0  0.00000000000E+00  0.00000000000E+00  0.74505805969E-08  0.10566000000E+00  0.10566000000E+00 0. -1.
     999900   -1    0    0    0    0 -0.00000000000E+00 -0.00000000000E+00 -0.74505805969E-08  0.93827000000E+00  0.93827000000E+00 0. -1.
     999902    2    1    2    0    0 -0.20288970940E-01  0.96441926828E-02  0.43245972154E-02  0.10210530479E+01  0.10207967338E+01 0.  0.
     999903    2    3    3    0    0 -0.11909297829E+00 -0.46540309641E-01 -0.31339299504E-01  0.13302667238E+00  0.19099894549E-01 0.  0.
         14    1    1    2    0    0  0.20288970940E-01 -0.96441926828E-02 -0.43245972154E-02  0.22876952056E-01  0.00000000000E+00 0.  1.
     999901    1    3    3    0    0  0.98804007349E-01  0.56184502323E-01  0.35663896719E-01  0.88802637556E+00  0.88000000000E+00 0.  1.
        -11    1    4    4    0    0 -0.38731663670E-01 -0.24490396869E-01 -0.83679661116E-02  0.46585462188E-01  0.51100000000E-03 0.  1.
         11    1    4    4    0    0 -0.80361314619E-01 -0.22049912772E-01 -0.22971333392E-01  0.86441210191E-01  0.51100000000E-03 0. -1.
</event>
<event>
 8    1  0.1162192E+005  0.1043930E+01  0.7957747E-01            NaN
         13   -1    0    0    0    0  0.00000000000E+00  0.00000000000E+00  0.74505805969E-08  0.10566000000E+00  0.10566000000E+00 0. -1.
     999900   -1    0    0    0    0 -0.00000000000E+00 -0.00000000000E+00 -0.74505805969E-08  0.93827000000E+00  0.93827000000E+00 0. -1.
     999902    2    1    2    0    0 -0.23682719735E-01 -0.12786961942E-02 -0.61292910963E-02  0.10194335822E+01  0.10191392221E+01 0.  0.
     999903    2    3    3    0    0 -0.13953937223E-01  0.62218817485E-01 -0.11229275911E+00  0.13072819487E+00  0.20354448444E-01 0.  0.
         14    1    1    2    0    0  0.23682719735E-01  0.12786961942E-02  0.61292910963E-02  0.24496417847E-01  0.00000000000E+00 0.  1.
     999901    1    3    3    0    0 -0.97287825125E-02 -0.63497513680E-01  0.10616346801E+00  0.88870538729E+00  0.88000000000E+00 0.  1.
        -11    1    4    4    0    0 -0.18402347653E-01  0.52416293101E-01 -0.99872826251E-01  0.11428454281E+00  0.51100000000E-03 0.  1.
         11    1    4    4    0    0  0.44484104302E-02  0.98025243843E-02 -0.12419932857E-01  0.16443652053E-01  0.51100000000E-03 0. -1.
</event>
<event>
 8    1  0.1162192E+005  0.1043930E+01  0.7957747E-01            NaN
         13   -1    0    0    0    0  0.00000000000E+00  0.00000000000E+00  0.74505805969E-08  0.10566000000E+00  0.10566000000E+00 0.  1.
     999900   -1    0    0    0    0 -0.00000000000E+00 -0.00000000000E+00 -0.74505805969E-08  0.93827000000E+00  0.93827000000E+00 0. -1.
     999902    2    1    2    0    0 -0.16817123289E-01 -0.14278697037E-01 -0.86842922140E-02  0.10202210617E+01  0.10199455382E+01 0.  0.
     999903    2    3    3    0    0 -0.44417419030E-03 -0.86309079505E-01 -0.98519427358E-01  0.13256865169E+00  0.20467421637E-01 0.  0.
         14    1    1    2    0    0  0.16817123289E-01  0.14278697037E-01  0.86842922140E-02  0.23708938315E-01  0.00000000000E+00 0.  1.
     999901    1    3    3    0    0 -0.16372949098E-01  0.72030382468E-01  0.89835135144E-01  0.88765240999E+00  0.88000000000E+00 0.  1.
        -11    1    4    4    0    0 -0.10089002210E-01 -0.36034751644E-01 -0.38734257924E-01  0.53859958685E-01  0.51100000000E-03 0. -1.
         11    1    4    4    0    0  0.96448280200E-02 -0.50274327861E-01 -0.59785169434E-01  0.78708693006E-01  0.51100000000E-03 0.  1.
</event>
<event>
 8    1  0.1162192E+005  0.1043930E+01  0.7957747E-01            NaN
         13   -1    0    0    0    0  0.00000000000E+00  0.00000000000E+00  0.74505805969E-08  0.10566000000E+00  0.10566000000E+00 0. -1.
     999900   -1    0    0    0    0 -0.00000000000E+00 -0.00000000000E+00 -0.74505805969E-08  0.93827000000E+00  0.93827000000E+00 0.  1.
     999902    2    1    2    0    0 -0.19091001492E-01  0.32134002854E-02  0.13382463123E-01  0.10203952895E+01  0.10201238475E+01 0.  0.
     999903    2    3    3    0    0 -0.76280246241E-01  0.25132577457E-01 -0.10177624280E+00  0.13078156006E+00  0.17178196610E-01 0.  0.
         14    1    1    2    0    0  0.19091001492E-01 -0.32134002854E-02 -0.13382463123E-01  0.23534710506E-01  0.00000000000E+00 0.  1.
     999901    1    3    3    0    0  0.57189244748E-01 -0.21919177171E-01  0.11515870592E+00  0.88961372943E+00  0.88000000000E+00 0. -1.
        -11    1    4    4    0    0 -0.10007597726E-01  0.99732002716E-02 -0.16910545833E-01  0.22041878715E-01  0.51100000000E-03 0. -1.
         11    1    4    4    0    0 -0.66272648515E-01  0.15159377185E-01 -0.84865696963E-01  0.10873968135E+00  0.51100000000E-03 0.  1.
</event>
<event>
 8    1  0.1162192E+005  0.1043930E+01  0.7957747E-01            NaN
         13   -1    0    0    0    0  0.00000000000E+00  0.00000000000E+00  0.74505805969E-08  0.10566000000E+00  0.10566000000E+00 0.  1.
     999900   -1    0    0    0    0 -0.00000000000E+00 -0.00000000000E+00 -0.74505805969E-08  0.93827000000E+00  0.93827000000E+00 0. -1.
     999902    2    1    2    0    0  0.22387773895E-01 -0.81767850777E-02 -0.43108686527E-02  0.10197090210E+01  0.10194213220E+01 0.  0.
     999903    2    3    3    0    0  0.35024403415E-01 -0.39502772315E-01 -0.11886164646E+00  0.13164208516E+00  0.20356073562E-01 0.  0.
         14    1    1    2    0    0 -0.22387773895E-01  0.81767850777E-02  0.43108686527E-02  0.24220978979E-01  0.00000000000E+00 0. -1.
     999901    1    3    3    0    0 -0.12636629520E-01  0.31325987237E-01  0.11455077780E+00  0.88806693587E+00  0.88000000000E+00 0.  1.
        -11    1    4    4    0    0  0.34947514732E-01 -0.30439179001E-01 -0.87817493163E-01  0.99297762466E-01  0.51100000000E-03 0. -1.
         11    1    4    4    0    0  0.76888682560E-04 -0.90635933137E-02 -0.31044153292E-01  0.32344322690E-01  0.51100000000E-03 0.  1.
</event>
<event>
 8    1  0.1162192E+005  0.1043930E+01  0.7957747E-01            NaN
         13   -1    0    0    0    0  0.00000000000E+00  0.00000000000E+00  0.74505805969E-08  0.10566000000E+00  0.10566000000E+00 0. -1.
     999900   -1    0    0    0    0 -0.00000000000E+00 -0.00000000000E+00 -0.74505805969E-08  0.93827000000E+00  0.93827000000E+00 0. -1.
     999902    2    1    2    0    0  0.19442120595E-01  0.11625786324E-01 -0.78543042408E-02  0.10199540734E+01  0.10196722350E+01 0.  0.
     999903    2    3    3    0    0 -0.81737151371E-01 -0.63959137148E-01  0.71451412545E-01  0.12740731136E+00  0.18856974669E-01 0.  0.
         14    1    1    2    0    0 -0.19442120595E-01 -0.11625786324E-01  0.78543042408E-02  0.23975926593E-01  0.00000000000E+00 0.  1.
     999901    1    3    3    0    0  0.10117927197E+00  0.75584923472E-01 -0.79305716786E-01  0.89254676205E+00  0.88000000000E+00 0. -1.
        -11    1    4    4    0    0 -0.17755782978E-01 -0.11496660341E-01  0.24115995797E-01  0.32082446952E-01  0.51100000000E-03 0. -1.
         11    1    4    4    0    0 -0.63981368393E-01 -0.52462476807E-01  0.47335416748E-01  0.95324864405E-01  0.51100000000E-03 0.  1.
</event>
<event>
 8    1  0.1162192E+005  0.1043930E+01  0.7957747E-01            NaN
         13   -1    0    0    0    0  0.00000000000E+00  0.00000000000E+00  0.74505805969E-08  0.10566000000E+00  0.10566000000E+00 0. -1.
     999900   -1    0    0    0    0 -0.00000000000E+00 -0.00000000000E+00 -0.74505805969E-08  0.93827000000E+00  0.93827000000E+00 0.  1.
     999902    2    1    2    0    0  0.14260479353E-01  0.99507144627E-02  0.16285576011E-01  0.10201056852E+01  0.10198274418E+01 0.  0.
     999903    2    3    3    0    0 -0.42543524541E-01 -0.74214194521E-01 -0.92570382694E-01  0.12760355831E+00  0.19892063536E-01 0.  0.
         14    1    1    2    0    0 -0.14260479353E-01 -0.99507144627E-02 -0.16285576011E-01  0.23824314800E-01  0.00000000000E+00 0. -1.
     999901    1    3    3    0    0  0.56804003894E-01  0.84164908984E-01  0.10885595870E+00  0.89250212689E+00  0.88000000000E+00 0.  1.
        -11    1    4    4    0    0 -0.29062753365E-01 -0.64329204634E-01 -0.69085619137E-01  0.98772334662E-01  0.51100000000E-03 0. -1.
         11    1    4    4    0    0 -0.13480771176E-01 -0.98849898878E-02 -0.23484763557E-01  0.28831223646E-01  0.51100000000E-03 0.  1.
</event>
<event>
 8    1  0.1162192E+005  0.1043930E+01  0.7957747E-01            NaN
         13   -1    0    0    0    0  0.00000000000E+00  0.00000000000E+00  0.74505805969E-08  0.10566000000E+00  0.10566000000E+00 0.  1.
     999900   -1    0    0    0    0 -0.00000000000E+00 -0.00000000000E+00 -0.74505805969E-08  0.93827000000E+00  0.93827000000E+00 0. -1.
     999902    2    1    2    0    0  0.19971940442E-01 -0.11246680022E-01 -0.11716904116E-02  0.10209792032E+01  0.10207212128E+01 0.  0.
     999903    2    3    3    0    0  0.10915553020E+00  0.43031480200E-02  0.73415757387E-01  0.13319612314E+00  0.20442282909E-01 0.  0.
         14    1    1    2    0    0 -0.19971940442E-01  0.11246680022E-01  0.11716904116E-02  0.22950796826E-01  0.00000000000E+00 0.  1.
     999901    1    3    3    0    0 -0.89183589753E-01 -0.15549828042E-01 -0.74587447798E-01  0.88778308004E+00  0.88000000000E+00 0. -1.
        -11    1    4    4    0    0  0.91941149035E-01  0.21911203388E-02  0.52062875469E-01  0.10568244896E+00  0.51100000000E-03 0. -1.
         11    1    4    4    0    0  0.17214381160E-01  0.21120276812E-02  0.21352881918E-01  0.27513674180E-01  0.51100000000E-03 0.  1.
</event>
<event>
 8    1  0.1162192E+005  0.1043930E+01  0.7957747E-01            NaN
         13   -1    0    0    0    0  0.00000000000E+00  0.00000000000E+00  0.74505805969E-08  0.10566000000E+00  0.10566000000E+00 0.  1.
     999900   -1    0    0    0    0 -0.00000000000E+00 -0.00000000000E+00 -0.74505805969E-08  0.93827000000E+00  0.93827000000E+00 0.  1.
     999902    2    1    2    0    0 -0.85393299141E-02  0.20897916638E-01 -0.56544697884E-02  0.10206573529E+01  0.10203919913E+01 0.  0.
     999903    2    3    3    0    0 -0.42699476156E-01 -0.11938717311E+00 -0.11509817161E-01  0.12887200478E+00  0.19974367534E-01 0.  0.
         14    1    1    2    0    0  0.85393299141E-02 -0.20897916638E-01  0.56544697884E-02  0.23272647116E-01  0.00000000000E+00 0.  1.
     999901    1    3    3    0    0  0.34160146242E-01  0.14028508975E+00  0.58553473727E-02  0.89178534810E+00  0.88000000000E+00 0. -1.
        -11    1    4    4    0    0 -0.10903806367E-01 -0.42961388909E-01 -0.12616643904E-01  0.46087034561E-01  0.51100000000E-03 0. -1.
         11    1    4    4    0    0 -0.31795669788E-01 -0.76425784201E-01  0.11068267424E-02  0.82784970221E-01  0.51100000000E-03 0.  1.
</event>
<event>
 8    1  0.1162192E+005  0.1043930E+01  0.7957747E-01            NaN
         13   -1    0    0    0    0  0.00000000000E+00  0.00000000000E+00  0.74505805969E-08  0.10566000000E+00  0.10566000000E+00 0. -1.
     999900   -1    0    0    0    0 -0.00000000000E+00 -0.00000000000E+00 -0.74505805969E-08  0.93827000000E+00  0.93827000000E+00 0. -1.
     999902    2    1    2    0    0 -0.21235983741E-01  0.65565141361E-02  0.80680291289E-02  0.10202858046E+01  0.10200118014E+01 0.  0.
     999903    2    3    3    0    0 -0.12981261999E+00  0.19791516027E-01 -0.10673105274E-01  0.13331608619E+00  0.20402040281E-01 0.  0.
         14    1    1    2    0    0  0.21235983741E-01 -0.65565141361E-02 -0.80680291289E-02  0.23644195421E-01  0.00000000000E+00 0.  1.
     999901    1    3    3    0    0  0.10857663625E+00 -0.13235001891E-01  0.18741134403E-01  0.88696971839E+00  0.88000000000E+00 0.  1.
        -11    1    4    4    0    0 -0.84288770957E-01  0.17054079026E-01 -0.15739124542E-01  0.87426653162E-01  0.51100000000E-03 0.  1.
         11    1    4    4    0    0 -0.45523849029E-01  0.27374370014E-02  0.50660192671E-02  0.45889433032E-01  0.51100000000E-03 0. -1.
</event>
<event>
 8    1  0.1162192E+005  0.1043930E+01  0.7957747E-01            NaN
         13   -1    0    0    0    0  0.00000000000E+00  0.00000000000E+00  0.74505805969E-08  0.10566000000E+00  0.10566000000E+00 0.  1.
     999900   -1    0    0    0    0 -0.00000000000E+00 -0.00000000000E+00 -0.74505805969E-08  0.93827000000E+00  0.93827000000E+00 0.  1.
     999902    2    1    2    0    0 -0.18212387789E-01  0.11835163848E-01  0.15657873957E-01  0.10171544292E+01  0.10168019481E+01 0.  0.
     999903    2    3    3    0    0 -0.94838762463E-01 -0.84122267647E-01 -0.48656061084E-02  0.12839088185E+00  0.19738227855E-01 0.  0.
         14    1    1    2    0    0  0.18212387789E-01 -0.11835163848E-01 -0.15657873957E-01  0.26775570753E-01  0.00000000000E+00 0. -1.
     999901    1    3    3    0    0  0.76626374674E-01  0.95957431495E-01  0.20523480065E-01  0.88876354740E+00  0.88000000000E+00 0.  1.
        -11    1    4    4    0    0 -0.40708517812E-01 -0.42197502159E-01  0.64652810003E-02  0.58990453383E-01  0.51100000000E-03 0.  1.
         11    1    4    4    0    0 -0.54130244651E-01 -0.41924765488E-01 -0.11330887109E-01  0.69400428463E-01  0.51100000000E-03 0. -1.
</event>
<event>
 8    1  0.1162192E+005  0.1043930E+01  0.7957747E-01            NaN
         13   -1    0    0    0    0  0.00000000000E+00  0.00000000000E+00  0.74505805969E-08  0.10566000000E+00  0.10566000000E+00 0.  1.
     999900   -1    0    0    0    0 -0.00000000000E+00 -0.00000000000E+00 -0.74505805969E-08  0.93827000000E+00  0.93827000000E+00 0. -1.
     999902    2    1    2    0    0 -0.10047640605E-01  0.21233465333E-01  0.15294016768E-02  0.10203895199E+01  0.10201179433E+01 0.  0.
     999903    2    3    3    0    0  0.76726628942E-01 -0.17620621356E-01  0.10117008878E+00  0.12967762464E+00  0.19581562324E-01 0.  0.
         14    1    1    2    0    0  0.10047640605E-01 -0.21233465333E-01 -0.15294016768E-02  0.23540480055E-01  0.00000000000E+00 0.  1.
     999901    1    3    3    0    0 -0.86774269547E-01  0.38854086689E-01 -0.99640687104E-01  0.89071189530E+00  0.88000000000E+00 0. -1.
        -11    1    4    4    0    0  0.52770211734E-01 -0.20427889177E-01  0.76681476610E-01  0.95301122127E-01  0.51100000000E-03 0. -1.
         11    1    4    4    0    0  0.23956417208E-01  0.28072678207E-02  0.24488612171E-01  0.34376502514E-01  0.51100000000E-03 0.  1.
</event>
<event>
 8    1  0.1162192E+005  0.1043930E+01  0.7957747E-01            NaN
         13   -1    0    0    0    0  0.00000000000E+00  0.00000000000E+00  0.74505805969E-08  0.10566000000E+00  0.10566000000E+00 0.  1.
     999900   -1    0    0    0    0 -0.00000000000E+00 -0.00000000000E+00 -0.74505805969E-08  0.93827000000E+00  0.93827000000E+00 0. -1.
     999902    2    1    2    0    0 -0.64756776352E-02  0.63057696670E-02 -0.25737001429E-01  0.10166519800E+01  0.10162859628E+01 0.  0.
     999903    2    3    3    0    0 -0.12337156461E+00 -0.52526006711E-03 -0.31964220774E-01  0.12887380410E+00  0.19129221685E-01 0.  0.
         14    1    1    2    0    0  0.64756776352E-02 -0.63057696670E-02  0.25737001429E-01  0.27278019988E-01  0.00000000000E+00 0.  1.
     999901    1    3    3    0    0  0.11689588697E+00  0.68310297341E-02  0.62272193451E-02  0.88777817591E+00  0.88000000000E+00 0.  1.
        -11    1    4    4    0    0 -0.11243709157E+00  0.17733195283E-03 -0.34506409407E-01  0.11761413358E+00  0.51100000000E-03 0. -1.
         11    1    4    4    0    0 -0.10934473038E-01 -0.70259201994E-03  0.25421886330E-02  0.11259670520E-01  0.51100000000E-03 0.  1.
</event>
<event>
 8    1  0.1162192E+005  0.1043930E+01  0.7957747E-01            NaN
         13   -1    0    0    0    0  0.00000000000E+00  0.00000000000E+00  0.74505805969E-08  0.10566000000E+00  0.10566000000E+00 0. -1.
     999900   -1    0    0    0    0 -0.00000000000E+00 -0.00000000000E+00 -0.74505805969E-08  0.93827000000E+00  0.93827000000E+00 0.  1.
     999902    2    1    2    0    0 -0.27476790237E-01 -0.32811118446E-02  0.82115054963E-02  0.10150653413E+01  0.10146548569E+01 0.  0.
     999903    2    3    3    0    0 -0.61238016089E-01 -0.26746169618E-01  0.10784059813E+00  0.12848969009E+00  0.20360590629E-01 0.  0.
         14    1    1    2    0    0  0.27476790237E-01  0.32811118446E-02 -0.82115054963E-02  0.28864658654E-01  0.00000000000E+00 0. -1.
     999901    1    3    3    0    0  0.33761225852E-01  0.23465057774E-01 -0.99629092630E-01  0.88657565126E+00  0.88000000000E+00 0.  1.
        -11    1    4    4    0    0 -0.12695146660E-01  0.13130655564E-02  0.29537458575E-01  0.32180948867E-01  0.51100000000E-03 0. -1.
         11    1    4    4    0    0 -0.48542869429E-01 -0.28059235175E-01  0.78303139551E-01  0.96308741221E-01  0.51100000000E-03 0.  1.
</event>
<event>
 8    1  0.1162192E+005  0.1043930E+01  0.7957747E-01            NaN
         13   -1    0    0    0    0  0.00000000000E+00  0.00000000000E+00  0.74505805969E-08  0.10566000000E+00  0.10566000000E+00 0.  1.
     999900   -1    0    0    0    0 -0.00000000000E+00 -0.00000000000E+00 -0.74505805969E-08  0.93827000000E+00  0.93827000000E+00 0. -1.
     999902    2    1    2    0    0  0.79871872397E-02  0.13061408220E-01  0.17138427635E-01  0.10209491113E+01  0.10206904362E+01 0.  0.
     999903    2    3    3    0    0  0.55832422847E-01 -0.79980419510E-01  0.86597636129E-01  0.13203374415E+00  0.20484922845E-01 0.  0.
         14    1    1    2    0    0 -0.79871872397E-02 -0.13061408220E-01 -0.17138427635E-01  0.22980888723E-01  0.00000000000E+00 0. -1.
     999901    1    3    3    0    0 -0.47845235607E-01  0.93041827730E-01 -0.69459208493E-01  0.88891536713E+00  0.88000000000E+00 0. -1.
        -11    1    4    4    0    0  0.42397302471E-01 -0.55119920619E-01  0.72461881405E-01  0.10043267538E+00  0.51100000000E-03 0. -1.
         11    1    4    4    0    0  0.13435120376E-01 -0.24860498891E-01  0.14135754724E-01  0.31601068767E-01  0.51100000000E-03 0.  1.
</event>
<event>
 8    1  0.1162192E+005  0.1043930E+01  0.7957747E-01            NaN
         13   -1    0    0    0    0  0.00000000000E+00  0.00000000000E+00  0.74505805969E-08  0.10566000000E+00  0.10566000000E+00 0. -1.
     999900   -1    0    0    0    0 -0.00000000000E+00 -0.00000000000E+00 -0.74505805969E-08  0.93827000000E+00  0.93827000000E+00 0.  1.
     999902    2    1    2    0    0 -0.21256293149E-01  0.24868074015E-02 -0.95173890506E-02  0.10205078971E+01  0.10202390765E+01 0.  0.
     999903    2    3    3    0    0 -0.41986683942E-01  0.73679494523E-01  0.97384540034E-01  0.13094273916E+00  0.21695685253E-01 0.  0.
         14    1    1    2    0    0  0.21256293149E-01 -0.24868074015E-02  0.95173890506E-02  0.23422102890E-01  0.00000000000E+00 0. -1.
     999901    1    3    3    0    0  0.20730390793E-01 -0.71192687121E-01 -0.10690192908E+00  0.88956515795E+00  0.88000000000E+00 0.  1.
        -11    1    4    4    0    0 -0.25600761670E-02  0.54669388952E-02  0.18434614161E-01  0.19404575005E-01  0.51100000000E-03 0.  1.
         11    1    4    4    0    0 -0.39426607775E-01  0.68212555627E-01  0.78949925873E-01  0.11153816415E+00  0.51100000000E-03 0. -1.
</event>
<event>
 8    1  0.1162192E+005  0.1043930E+01  0.7957747E-01            NaN
         13   -1    0    0    0    0  0.00000000000E+00  0.00000000000E+00  0.74505805969E-08  0.10566000000E+00  0.10566000000E+00 0. -1.
     999900   -1    0    0    0    0 -0.00000000000E+00 -0.00000000000E+00 -0.74505805969E-08  0.93827000000E+00  0.93827000000E+00 0.  1.
     999902    2    1    2    0    0  0.17358789653E-01  0.12590325466E-01 -0.11227357832E-01  0.10197246816E+01  0.10194373590E+01 0.  0.
     999903    2    3    3    0    0  0.23627763778E-01  0.72642708051E-01  0.10365942739E+00  0.13020539454E+00  0.19311489440E-01 0.  0.
         14    1    1    2    0    0 -0.17358789653E-01 -0.12590325466E-01  0.11227357832E-01  0.24205318371E-01  0.00000000000E+00 0. -1.
     999901    1    3    3    0    0 -0.62689741252E-02 -0.60052382585E-01 -0.11488678523E+00  0.88951928709E+00  0.88000000000E+00 0.  1.
        -11    1    4    4    0    0  0.14927920323E-01  0.33590622831E-01  0.35120864922E-01  0.50842000563E-01  0.51100000000E-03 0.  1.
         11    1    4    4    0    0  0.86998434552E-02  0.39052085220E-01  0.68538562472E-01  0.79363393973E-01  0.51100000000E-03 0. -1.
</event>
<event>
 8    1  0.1162192E+005  0.1043930E+01  0.7957747E-01            NaN
         13   -1    0    0    0    0  0.00000000000E+00  0.00000000000E+00  0.74505805969E-08  0.10566000000E+00  0.10566000000E+00 0. -1.
     999900   -1    0    0    0    0 -0.00000000000E+00 -0.00000000000E+00 -0.74505805969E-08  0.93827000000E+00  0.93827000000E+00 0.  1.
     999902    2    1    2    0    0  0.45038240815E-02 -0.22803581974E-01  0.37178156134E-02  0.10203904602E+01  0.10201189055E+01 0.  0.
     999903    2    3    3    0    0 -0.75466624168E-03 -0.10070274686E+00  0.85376563915E-01  0.13316778081E+00  0.17403661485E-01 0.  0.
         14    1    1    2    0    0 -0.45038240815E-02  0.22803581974E-01 -0.37178156134E-02  0.23539539824E-01  0.00000000000E+00 0.  1.
     999901    1    3    3    0    0  0.52584903232E-02  0.77899164887E-01 -0.81658748302E-01  0.88722267937E+00  0.88000000000E+00 0.  1.
        -11    1    4    4    0    0 -0.56708670895E-02 -0.46997923191E-01  0.48879878276E-01  0.68047535878E-01  0.51100000000E-03 0. -1.
         11    1    4    4    0    0  0.49162008479E-02 -0.53704823669E-01  0.36496685639E-01  0.65120244930E-01  0.51100000000E-03 0.  1.
</event>
<event>
 8    1  0.1162192E+005  0.1043930E+01  0.7957747E-01            NaN
         13   -1    0    0    0    0  0.00000000000E+00  0.00000000000E+00  0.74505805969E-08  0.10566000000E+00  0.10566000000E+00 0. -1.
     999900   -1    0    0    0    0 -0.00000000000E+00 -0.00000000000E+00 -0.74505805969E-08  0.93827000000E+00  0.93827000000E+00 0.  1.
     999902    2    1    2    0    0 -0.74582156574E-02 -0.40403228080E-02 -0.20257309118E-01  0.10219684936E+01  0.10217324964E+01 0.  0.
     999903    2    3    3    0    0  0.13976396124E-01 -0.59899898282E-01 -0.11774208666E+00  0.13456609528E+00  0.21482494396E-01 0.  0.
         14    1    1    2    0    0  0.74582156574E-02  0.40403228080E-02  0.20257309118E-01  0.21961506366E-01  0.00000000000E+00 0. -1.
     999901    1    3    3    0    0 -0.21434611782E-01  0.55859575474E-01  0.97484777539E-01  0.88740239836E+00  0.88000000000E+00 0. -1.
        -11    1    4    4    0    0  0.18287679316E-01 -0.41053639005E-01 -0.71640493486E-01  0.84572229001E-01  0.51100000000E-03 0. -1.
         11    1    4    4    0    0 -0.43112831915E-02 -0.18846259276E-01 -0.46101593171E-01  0.49993866278E-01  0.51100000000E-03 0.  1.
</event>
<event>
 8    1  0.1162192E+005  0.1043930E+01  0.7957747E-01            NaN
         13   -1    0    0    0    0  0.00000000000E+00  0.00000000000E+00  0.74505805969E-08  0.10566000000E+00  0.10566000000E+00 0.  1.
     999900   -1    0    0    0    0 -0.00000000000E+00 -0.00000000000E+00 -0.74505805969E-08  0.93827000000E+00  0.93827000000E+00 0. -1.
     999902    2    1    2    0    0 -0.21295321754E-01  0.90191093857E-02 -0.49001252780E-02  0.10202900700E+01  0.10200161669E+01 0.  0.
     999903    2    3    3    0    0  0.12545550730E+00 -0.12957411811E-01 -0.37410058788E-02  0.12786633832E+00  0.20708126797E-01 0.  0.
         14    1    1    2    0    0  0.21295321754E-01 -0.90191093857E-02  0.49001252780E-02  0.23639930001E-01  0.00000000000E+00 0. -1.
     999901    1    3    3    0    0 -0.14675082906E+00  0.21976521197E-01 -0.11591193992E-02  0.89242373168E+00  0.88000000000E+00 0. -1.
        -11    1    4    4    0    0  0.70352468614E-01 -0.14829355468E-01  0.48511919359E-02  0.72063685778E-01  0.51100000000E-03 0.  1.
         11    1    4    4    0    0  0.55103038690E-01  0.18719436573E-02 -0.85921978147E-02  0.55802652538E-01  0.51100000000E-03 0. -1.
</event>
<event>
 8    1  0.1162192E+005  0.1043930E+01  0.7957747E-01            NaN
         13   -1    0    0    0    0  0.00000000000E+00  0.00000000000E+00  0.74505805969E-08  0.10566000000E+00  0.10566000000E+00 0.  1.
     999900   -1    0    0    0    0 -0.00000000000E+00 -0.00000000000E+00 -0.74505805969E-08  0.93827000000E+00  0.93827000000E+00 0.  1.
     999902    2    1    2    0    0  0.17900392789E-02 -0.17626618038E-01 -0.17419159160E-01  0.10190838935E+01  0.10187809641E+01 0.  0.
     999903    2    3    3    0    0 -0.10805443763E+00  0.42813892092E-01  0.48984138816E-01  0.12772074505E+00  0.20108505989E-01 0.  0.
         14    1    1    2    0    0 -0.17900392789E-02  0.17626618038E-01  0.17419159160E-01  0.24846106535E-01  0.00000000000E+00 0. -1.
     999901    1    3    3    0    0  0.10984447691E+00 -0.60440510129E-01 -0.66403297976E-01  0.89136314842E+00  0.88000000000E+00 0.  1.
        -11    1    4    4    0    0 -0.40387533565E-01  0.15876344593E-01  0.28996510165E-01  0.52194539061E-01  0.51100000000E-03 0. -1.
         11    1    4    4    0    0 -0.67666904064E-01  0.26937547498E-01  0.19987628651E-01  0.75526205988E-01  0.51100000000E-03 0.  1.
</event>
<event>
 8    1  0.1162192E+005  0.1043930E+01  0.7957747E-01            NaN
         13   -1    0    0    0    0  0.00000000000E+00  0.00000000000E+00  0.74505805969E-08  0.10566000000E+00  0.10566000000E+00 0. -1.
     999900   -1    0    0    0    0 -0.00000000000E+00 -0.00000000000E+00 -0.74505805969E-08  0.93827000000E+00  0.93827000000E+00 0.  1.
     999902    2    1    2    0    0  0.37702867216E-02 -0.38443718066E-02  0.23527796219E-01  0.10197938973E+01  0.10195082352E+01 0.  0.
     999903    2    3    3    0    0  0.69457935685E-02  0.12777549160E+00  0.59225813293E-02  0.12982546202E+00  0.21089175326E-01 0.  0.
         14    1    1    2    0    0 -0.37702867216E-02  0.38443718066E-02 -0.23527796219E-01  0.24136102657E-01  0.00000000000E+00 0.  1.
     999901    1    3    3    0    0 -0.31755068469E-02 -0.13161986341E+00  0.17605214889E-01  0.88996843533E+00  0.88000000000E+00 0. -1.
        -11    1    4    4    0    0 -0.62799733099E-02  0.75522636693E-01  0.38336315093E-02  0.75881912004E-01  0.51100000000E-03 0.  1.
         11    1    4    4    0    0  0.13225766878E-01  0.52252854908E-01  0.20889498200E-02  0.53943550012E-01  0.51100000000E-03 0. -1.
</event>
<event>
 8    1  0.1162192E+005  0.1043930E+01  0.7957747E-01            NaN
         13   -1    0    0    0    0  0.00000000000E+00  0.00000000000E+00  0.74505805969E-08  0.10566000000E+00  0.10566000000E+00 0.  1.
     999900   -1    0    0    0    0 -0.00000000000E+00 -0.00000000000E+00 -0.74505805969E-08  0.93827000000E+00  0.93827000000E+00 0.  1.
     999902    2    1    2    0    0 -0.21970615585E-01 -0.46603469141E-02  0.45742281200E-03  0.10214658949E+01  0.10212188494E+01 0.  0.
     999903    2    3    3    0    0  0.21668129376E-01  0.10857636820E+00 -0.66496473417E-01  0.13061814251E+00  0.19518775949E-01 0.  0.
         14    1    1    2    0    0  0.21970615585E-01  0.46603469141E-02 -0.45742281200E-03  0.22464105105E-01  0.00000000000E+00 0. -1.
     999901    1    3    3    0    0 -0.43638744961E-01 -0.11323671511E+00  0.66953896229E-01  0.89084775239E+00  0.88000000000E+00 0. -1.
        -11    1    4    4    0    0  0.11624906417E-01  0.88359800249E-01 -0.58759228002E-01  0.10674971075E+00  0.51100000000E-03 0.  1.
         11    1    4    4    0    0  0.10043222959E-01  0.20216567946E-01 -0.77372454145E-02  0.23868431757E-01  0.51100000000E-03 0. -1.
</event>
<event>
 8    1  0.1162192E+005  0.1043930E+01  0.7957747E-01            NaN
         13   -1    0    0    0    0  0.00000000000E+00  0.00000000000E+00  0.74505805969E-08  0.10566000000E+00  0.10566000000E+00 0.  1.
     999900   -1    0    0    0    0 -0.00000000000E+00 -0.00000000000E+00 -0.74505805969E-08  0.93827000000E+00  0.93827000000E+00 0. -1.
     999902    2    1    2    0    0 -0.15480570290E-01  0.13466114646E-01  0.98558110327E-02  0.10211677217E+01  0.10209139996E+01 0.  0.
     999903    2    3    3    0    0  0.12441622853E+00  0.19114719758E-01 -0.23178342351E-01  0.12948713076E+00  0.19619149937E-01 0.  0.
         14    1    1    2    0    0  0.15480570290E-01 -0.13466114646E-01 -0.98558110327E-02  0.22762278253E-01  0.00000000000E+00 0.  1.
     999901    1    3    3    0    0 -0.13989679882E+00 -0.56486051126E-02  0.33034153384E-01  0.89168059099E+00  0.88000000000E+00 0.  1.
        -11    1    4    4    0    0  0.95141759831E-01  0.11140620253E-01 -0.25268657215E-01  0.99069844260E-01  0.51100000000E-03 0.  1.
         11    1    4    4    0    0  0.29274468699E-01  0.79740995049E-02  0.20903148638E-02  0.30417286496E-01  0.51100000000E-03 0. -1.
</event>
<event>
 8    1  0.1162192E+005  0.1043930E+01  0.7957747E-01            NaN
         13   -1    0    0    0    0  0.00000000000E+00  0.00000000000E+00  0.74505805969E-08  0.10566000000E+00  0.10566000000E+00 0.  1.
     999900   -1    0    0    0    0 -0.00000000000E+00 -0.00000000000E+00 -0.74505805969E-08  0.93827000000E+00  0.93827000000E+00 0. -1.
     999902    2    1    2    0    0  0.18004191841E-01  0.15534192603E-01 -0.14218012840E-02  0.10201080861E+01  0.10198298994E+01 0.  0.
     999903    2    3    3    0    0  0.92350164002E-01  0.48236726149E-01  0.78990979837E-01  0.13271696902E+00  0.22779034875E-01 0.  0.
         14    1    1    2    0    0 -0.18004191841E-01 -0.15534192603E-01  0.14218012840E-02  0.23821913915E-01  0.00000000000E+00 0.  1.
     999901    1    3    3    0    0 -0.74345972161E-01 -0.32702533546E-01 -0.80412781121E-01  0.88739111706E+00  0.88000000000E+00 0. -1.
        -11    1    4    4    0    0  0.67031651139E-01  0.31910442435E-01  0.43060856157E-01  0.85825503463E-01  0.51100000000E-03 0.  1.
         11    1    4    4    0    0  0.25318512863E-01  0.16326283714E-01  0.35930123680E-01  0.46891465558E-01  0.51100000000E-03 0. -1.
</event>
<event>
 8    1  0.1162192E+005  0.1043930E+01  0.7957747E-01            NaN
         13   -1    0    0    0    0  0.00000000000E+00  0.00000000000E+00  0.74505805969E-08  0.10566000000E+00  0.10566000000E+00 0. -1.
     999900   -1    0    0    0    0 -0.00000000000E+00 -0.00000000000E+00 -0.74505805969E-08  0.93827000000E+00  0.93827000000E+00 0.  1.
     999902    2    1    2    0    0 -0.22489251473E-01 -0.56039582780E-02  0.27131935778E-02  0.10205947863E+01  0.10203279794E+01 0.  0.
     999903    2    3    3    0    0 -0.92726335244E-01 -0.33534736642E-01 -0.86115614015E-01  0.13289892993E+00  0.22879571445E-01 0.  0.
         14    1    1    2    0    0  0.22489251473E-01  0.56039582780E-02 -0.27131935778E-02  0.23335213725E-01  0.00000000000E+00 0. -1.
     999901    1    3    3    0    0  0.70237083771E-01  0.27930778364E-01  0.88828807593E-01  0.88769585635E+00  0.88000000000E+00 0.  1.
        -11    1    4    4    0    0 -0.60633298515E-01 -0.32532477889E-01 -0.53862578522E-01  0.87385339116E-01  0.51100000000E-03 0.  1.
         11    1    4    4    0    0 -0.32093036730E-01 -0.10022587522E-02 -0.32253035493E-01  0.45513590812E-01  0.51100000000E-03 0. -1.
</event>
<event>
 8    1  0.1162192E+005  0.1043930E+01  0.7957747E-01            NaN
         13   -1    0    0    0    0  0.00000000000E+00  0.00000000000E+00  0.74505805969E-08  0.10566000000E+00  0.10566000000E+00 0. -1.
     999900   -1    0    0    0    0 -0.00000000000E+00 -0.00000000000E+00 -0.74505805969E-08  0.93827000000E+00  0.93827000000E+00 0. -1.
     999902    2    1    2    0    0 -0.22900583386E-01 -0.14050086984E-02  0.60495106364E-02  0.10202022241E+01  0.10199262575E+01 0.  0.
     999903    2    3    3    0    0  0.89949879478E-01  0.25900745411E-01 -0.84913903149E-01  0.12792694496E+00  0.19826821902E-01 0.  0.
         14    1    1    2    0    0  0.22900583386E-01  0.14050086984E-02 -0.60495106364E-02  0.23727775871E-01  0.00000000000E+00 0.  1.
     999901    1    3    3    0    0 -0.11285046286E+00 -0.27305754109E-01  0.90963413786E-01  0.89227527917E+00  0.88000000000E+00 0.  1.
        -11    1    4    4    0    0  0.77772966679E-01  0.16963544327E-01 -0.77478474903E-01  0.11108362335E+00  0.51100000000E-03 0.  1.
         11    1    4    4    0    0  0.12176912799E-01  0.89372010837E-02 -0.74354282464E-02  0.16843321606E-01  0.51100000000E-03 0. -1.
</event>
<event>
 8    1  0.1162192E+005  0.1043930E+01  0.7957747E-01            NaN
         13   -1    0    0    0    0  0.00000000000E+00  0.00000000000E+00  0.74505805969E-08  0.10566000000E+00  0.10566000000E+00 0.  1.
     999900   -1    0    0    0    0 -0.00000000000E+00 -0.00000000000E+00 -0.74505805969E-08  0.93827000000E+00  0.93827000000E+00 0.  1.
     999902    2    1    2    0    0 -0.46563211029E-02  0.22377954663E-01  0.65528892248E-02  0.10201519736E+01  0.10198748231E+01 0.  0.
     999903    2    3    3    0    0  0.12653953177E+00 -0.11556940188E-01 -0.15064481653E-01  0.12951667249E+00  0.20045295653E-01 0.  0.
         14    1    1    2    0    0  0.46563211029E-02 -0.22377954663E-01 -0.65528892248E-02  0.23778026375E-01  0.00000000000E+00 0. -1.
     999901    1    3    3    0    0 -0.13119585288E+00  0.33934894850E-01  0.21617370877E-01  0.89063530113E+00  0.88000000000E+00 0. -1.
        -11    1    4    4    0    0  0.93257890050E-01 -0.17313665614E-01 -0.11613642727E-01  0.95561157863E-01  0.51100000000E-03 0. -1.
         11    1    4    4    0    0  0.33281641724E-01  0.57567254263E-02 -0.34508389253E-02  0.33955514630E-01  0.51100000000E-03 0.  1.
</event>
<event>
 8    1  0.1162192E+005  0.1043930E+01  0.7957747E-01            NaN
         13   -1    0    0    0    0  0.00000000000E+00  0.00000000000E+00  0.74505805969E-08  0.10566000000E+00  0.10566000000E+00 0. -1.
     999900   -1    0    0    0    0 -0.00000000000E+00 -0.00000000000E+00 -0.74505805969E-08  0.93827000000E+00  0.93827000000E+00 0.  1.
     999902    2    1    2    0    0 -0.12124432576E-02  0.92112592128E-02  0.21914070409E-01  0.10201278195E+01  0.10198500989E+01 0.  0.
     999903    2    3    3    0    0 -0.10880420702E+00 -0.53262251541E-01 -0.40063071488E-01  0.12921811964E+00  0.20421798231E-01 0.  0.
         14    1    1    2    0    0  0.12124432576E-02 -0.92112592128E-02 -0.21914070409E-01  0.23802180506E-01  0.00000000000E+00 0.  1.
     999901    1    3    3    0    0  0.10759176376E+00  0.62473510754E-01  0.61977141898E-01  0.89090969985E+00  0.88000000000E+00 0. -1.
        -11    1    4    4    0    0 -0.68559997187E-01 -0.43657451543E-01 -0.29936835816E-01  0.86619406308E-01  0.51100000000E-03 0. -1.
         11    1    4    4    0    0 -0.40244209828E-01 -0.96047999981E-02 -0.10126235672E-01  0.42598713333E-01  0.51100000000E-03 0.  1.
</event>
<event>
 8    1  0.1162192E+005  0.1043930E+01  0.7957747E-01            NaN
         13   -1    0    0    0    0  0.00000000000E+00  0.00000000000E+00  0.74505805969E-08  0.10566000000E+00  0.10566000000E+00 0.  1.
     999900   -1    0    0    0    0 -0.00000000000E+00 -0.00000000000E+00 -0.74505805969E-08  0.93827000000E+00  0.93827000000E+00 0.  1.
     999902    2    1    2    0    0  0.12393656080E-01 -0.69506177656E-02  0.19523656301E-01  0.10197828065E+01  0.10194968786E+01 0.  0.
     999903    2    3    3    0    0 -0.95176045835E-01 -0.79664019680E-01  0.34518518066E-01  0.13012932033E+00  0.18365080641E-01 0.  0.
         14    1    1    2    0    0 -0.12393656080E-01  0.69506177656E-02 -0.19523656301E-01  0.24147193496E-01  0.00000000000E+00 0. -1.
     999901    1    3    3    0    0  0.10756970191E+00  0.72713401915E-01 -0.14994861765E-01  0.88965348618E+00  0.88000000000E+00 0.  1.
        -11    1    4    4    0    0 -0.48443542231E-01 -0.44473654908E-01  0.92837823503E-02  0.66416357175E-01  0.51100000000E-03 0.  1.
         11    1    4    4    0    0 -0.46732503604E-01 -0.35190364772E-01  0.25234735716E-01  0.63712963151E-01  0.51100000000E-03 0. -1.
</event>
<event>
 8    1  0.1162192E+005  0.1043930E+01  0.7957747E-01            NaN
         13   -1    0    0    0    0  0.00000000000E+00  0.00000000000E+00  0.74505805969E-08  0.10566000000E+00  0.10566000000E+00 0. -1.
     999900   -1    0    0    0    0 -0.00000000000E+00 -0.00000000000E+00 -0.74505805969E-08  0.93827000000E+00  0.93827000000E+00 0.  1.
     999902    2    1    2    0    0  0.12520505252E-01  0.99616791669E-02 -0.11986587189E-01  0.10239380922E+01  0.10237429074E+01 0.  0.
     999903    2    3    3    0    0  0.11519708559E+00 -0.12893412489E-01 -0.68141532300E-01  0.13589630649E+00  0.19695915329E-01 0.  0.
         14    1    1    2    0    0 -0.12520505252E-01 -0.99616791669E-02  0.11986587189E-01  0.19991907764E-01  0.00000000000E+00 0.  1.
     999901    1    3    3    0    0 -0.10267658034E+00  0.22855091656E-01  0.56154945110E-01  0.88804178574E+00  0.88000000000E+00 0. -1.
        -11    1    4    4    0    0  0.54629321335E-01  0.10578287364E-02 -0.39705455525E-01  0.67544548786E-01  0.51100000000E-03 0. -1.
         11    1    4    4    0    0  0.60567764254E-01 -0.13951241226E-01 -0.28436076774E-01  0.68351757708E-01  0.51100000000E-03 0.  1.
</event>
<event>
 8    1  0.1162192E+005  0.1043930E+01  0.7957747E-01            NaN
         13   -1    0    0    0    0  0.00000000000E+00  0.00000000000E+00  0.74505805969E-08  0.10566000000E+00  0.10566000000E+00 0. -1.
     999900   -1    0    0    0    0 -0.00000000000E+00 -0.00000000000E+00 -0.74505805969E-08  0.93827000000E+00  0.93827000000E+00 0. -1.
     999902    2    1    2    0    0  0.10117096762E-03  0.19054180838E-01  0.14789244584E-01  0.10198095979E+01  0.10195243117E+01 0.  0.
     999903    2    3    3    0    0 -0.15388174081E-01  0.78504762855E-01 -0.10061348449E+00  0.13015119074E+00  0.20407486332E-01 0.  0.
         14    1    1    2    0    0 -0.10117096762E-03 -0.19054180838E-01 -0.14789244584E-01  0.24120402118E-01  0.00000000000E+00 0. -1.
     999901    1    3    3    0    0  0.15489345048E-01 -0.59450582016E-01  0.11540272907E+00  0.88965840714E+00  0.88000000000E+00 0.  1.
        -11    1    4    4    0    0 -0.14878754525E-01  0.25433735811E-01 -0.34770968459E-01  0.45579969527E-01  0.51100000000E-03 0. -1.
         11    1    4    4    0    0 -0.50941955531E-03  0.53071027043E-01 -0.65842516032E-01  0.84571221217E-01  0.51100000000E-03 0.  1.
</event>
<event>
 8    1  0.1162192E+005  0.1043930E+01  0.7957747E-01            NaN
         13   -1    0    0    0    0  0.00000000000E+00  0.00000000000E+00  0.74505805969E-08  0.10566000000E+00  0.10566000000E+00 0. -1.
     999900   -1    0    0    0    0 -0.00000000000E+00 -0.00000000000E+00 -0.74505805969E-08  0.93827000000E+00  0.93827000000E+00 0.  1.
     999902    2    1    2    0    0  0.79582651322E-02 -0.15228523777E-01 -0.15839867725E-01  0.10205602903E+01  0.10202926849E+01 0.  0.
     999903    2    3    3    0    0  0.11704953031E+00  0.39527287299E-01  0.37195039811E-01  0.13055365867E+00  0.19944618825E-01 0.  0.
         14    1    1    2    0    0 -0.79582651322E-02  0.15228523777E-01  0.15839867725E-01  0.23369709666E-01  0.00000000000E+00 0. -1.
     999901    1    3    3    0    0 -0.10909126517E+00 -0.54755811076E-01 -0.53034907536E-01  0.89000663166E+00  0.88000000000E+00 0.  1.
        -11    1    4    4    0    0  0.76354890714E-01  0.22867161667E-01  0.33373884748E-01  0.86412115602E-01  0.51100000000E-03 0. -1.
         11    1    4    4    0    0  0.40694639592E-01  0.16660125632E-01  0.38211550630E-02  0.44141543070E-01  0.51100000000E-03 0.  1.
</event>
<event>
 8    1  0.1162192E+005  0.1043930E+01  0.7957747E-01            NaN
         13   -1    0    0    0    0  0.00000000000E+00  0.00000000000E+00  0.74505805969E-08  0.10566000000E+00  0.10566000000E+00 0. -1.
     999900   -1    0    0    0    0 -0.00000000000E+00 -0.00000000000E+00 -0.74505805969E-08  0.93827000000E+00  0.93827000000E+00 0. -1.
     999902    2    1    2    0    0 -0.18799119937E-01  0.13335859985E-01  0.20604346839E-02  0.10207891819E+01  0.10205268524E+01 0.  0.
     999903    2    3    3    0    0  0.12947337221E-01  0.67539143908E-01 -0.10977276162E+00  0.13149030225E+00  0.22593602879E-01 0.  0.
         14    1    1    2    0    0  0.18799119937E-01 -0.13335859985E-01 -0.20604346839E-02  0.23140818115E-01  0.00000000000E+00 0. -1.
     999901    1    3    3    0    0 -0.31746457158E-01 -0.54203283923E-01  0.11183319630E+00  0.88929887964E+00  0.88000000000E+00 0.  1.
        -11    1    4    4    0    0  0.13991030017E-01  0.31252193056E-01 -0.38659961995E-01  0.51645931827E-01  0.51100000000E-03 0.  1.
         11    1    4    4    0    0 -0.10436927966E-02  0.36286950852E-01 -0.71112799622E-01  0.79844370420E-01  0.51100000000E-03 0. -1.
</event>
<event>
 8    1  0.1162192E+005  0.1043930E+01  0.7957747E-01            NaN
         13   -1    0    0    0    0  0.00000000000E+00  0.00000000000E+00  0.74505805969E-08  0.10566000000E+00  0.10566000000E+00 0.  1.
     999900   -1    0    0    0    0 -0.00000000000E+00 -0.00000000000E+00 -0.74505805969E-08  0.93827000000E+00  0.93827000000E+00 0. -1.
     999902    2    1    2    0    0  0.19161576424E-01  0.10239552079E-01 -0.99772206228E-02  0.10200226921E+01  0.10197424837E+01 0.  0.
     999903    2    3    3    0    0 -0.94643080125E-01  0.56399079074E-01  0.63155043536E-01  0.12849000634E+00  0.19569196953E-01 0.  0.
         14    1    1    2    0    0 -0.19161576424E-01 -0.10239552079E-01  0.99772206228E-02  0.23907307862E-01  0.00000000000E+00 0.  1.
     999901    1    3    3    0    0  0.11380465655E+00 -0.46159526995E-01 -0.73132264159E-01  0.89153268580E+00  0.88000000000E+00 0. -1.
        -11    1    4    4    0    0 -0.21264097413E-01  0.19384218463E-01  0.93594688554E-02  0.30261700918E-01  0.51100000000E-03 0.  1.
         11    1    4    4    0    0 -0.73378982712E-01  0.37014860612E-01  0.53795574681E-01  0.98228305422E-01  0.51100000000E-03 0. -1.
</event>
<event>
 8    1  0.1268248E+005  0.1043930E+01  0.7957747E-01            NaN
         13   -1    0    0    0    0  0.00000000000E+00  0.00000000000E+00  0.74505805969E-08  0.10566000000E+00  0.10566000000E+00 0. -1.
     999900   -1    0    0    0    0 -0.00000000000E+00 -0.00000000000E+00 -0.74505805969E-08  0.93827000000E+00  0.93827000000E+00 0.  1.
     999902    2    1    2    0    0  0.36744900776E-02  0.24168758340E-01  0.14927496531E-02  0.10194379797E+01  0.10191437266E+01 0.  0.
     999903    2    3    3    0    0  0.69634067605E-01 -0.37453047182E-01 -0.99787797674E-01  0.12904162860E+00  0.21035760785E-01 0.  0.
         14    1    1    2    0    0 -0.36744900776E-02 -0.24168758340E-01 -0.14927496531E-02  0.24492020304E-01  0.00000000000E+00 0.  1.
     999901    1    3    3    0    0 -0.65959577528E-01  0.61621805522E-01  0.10128054733E+00  0.89039635110E+00  0.88000000000E+00 0. -1.
        -11    1    4    4    0    0  0.35544310784E-01 -0.88616418751E-02 -0.53442806135E-01  0.64794454812E-01  0.51100000000E-03 0.  1.
         11    1    4    4    0    0  0.34089756821E-01 -0.28591405307E-01 -0.46344991540E-01  0.64247173785E-01  0.51100000000E-03 0. -1.
</event>
<event>
 8    1  0.1162192E+005  0.1043930E+01  0.7957747E-01            NaN
         13   -1    0    0    0    0  0.00000000000E+00  0.00000000000E+00  0.74505805969E-08  0.10566000000E+00  0.10566000000E+00 0. -1.
     999900   -1    0    0    0    0 -0.00000000000E+00 -0.00000000000E+00 -0.74505805969E-08  0.93827000000E+00  0.93827000000E+00 0.  1.
     999902    2    1    2    0    0 -0.13795039981E-01  0.13768420113E-01  0.16433822240E-01  0.10184360197E+01  0.10181168809E+01 0.  0.
     999903    2    3    3    0    0  0.26340903843E-01  0.72965488332E-01  0.10384411248E+00  0.13121803871E+00  0.20414903438E-01 0.  0.
         14    1    1    2    0    0  0.13795039981E-01 -0.13768420113E-01 -0.16433822240E-01  0.25493980347E-01  0.00000000000E+00 0.  1.
     999901    1    3    3    0    0 -0.40135943824E-01 -0.59197068218E-01 -0.87410290242E-01  0.88721798095E+00  0.88000000000E+00 0.  1.
        -11    1    4    4    0    0  0.20610206310E-01  0.61922185691E-01  0.97272656566E-01  0.11713824534E+00  0.51100000000E-03 0.  1.
         11    1    4    4    0    0  0.57306975334E-02  0.11043302641E-01  0.65714559168E-02  0.14079793369E-01  0.51100000000E-03 0. -1.
</event>
<event>
 8    1  0.1162192E+005  0.1043930E+01  0.7957747E-01            NaN
         13   -1    0    0    0    0  0.00000000000E+00  0.00000000000E+00  0.74505805969E-08  0.10566000000E+00  0.10566000000E+00 0.  1.
     999900   -1    0    0    0    0 -0.00000000000E+00 -0.00000000000E+00 -0.74505805969E-08  0.93827000000E+00  0.93827000000E+00 0.  1.
     999902    2    1    2    0    0 -0.11231302467E-01 -0.21629785111E-01  0.53294614129E-03  0.10195522686E+01  0.10192607883E+01 0.  0.
     999903    2    3    3    0    0 -0.11048990416E+00  0.61325243998E-01  0.21773501970E-01  0.12984165938E+00  0.20395260425E-01 0.  0.
         14    1    1    2    0    0  0.11231302467E-01  0.21629785111E-01 -0.53294614129E-03  0.24377731450E-01  0.00000000000E+00 0. -1.
     999901    1    3    3    0    0  0.99258601697E-01 -0.82955029109E-01 -0.21240555828E-01  0.88971060917E+00  0.88000000000E+00 0. -1.
        -11    1    4    4    0    0 -0.26728996167E-01  0.23909115975E-01  0.10751575429E-01  0.37442523393E-01  0.51100000000E-03 0.  1.
         11    1    4    4    0    0 -0.83760907997E-01  0.37416128023E-01  0.11021926540E-01  0.92399135982E-01  0.51100000000E-03 0. -1.
</event>
<event>
 8    1  0.1162192E+005  0.1043930E+01  0.7957747E-01            NaN
         13   -1    0    0    0    0  0.00000000000E+00  0.00000000000E+00  0.74505805969E-08  0.10566000000E+00  0.10566000000E+00 0.  1.
     999900   -1    0    0    0    0 -0.00000000000E+00 -0.00000000000E+00 -0.74505805969E-08  0.93827000000E+00  0.93827000000E+00 0.  1.
     999902    2    1    2    0    0  0.53114989246E-02  0.50218918137E-03 -0.23964356726E-01  0.10193789388E+01  0.10190832479E+01 0.  0.
     999903    2    3    3    0    0 -0.34491292994E-01  0.26192465276E-01 -0.12379645179E+00  0.13246817677E+00  0.18616171786E-01 0.  0.
         14    1    1    2    0    0 -0.53114989246E-02 -0.50218918137E-03  0.23964356726E-01  0.24551061242E-01  0.00000000000E+00 0.  1.
     999901    1    3    3    0    0  0.39802791919E-01 -0.25690276095E-01  0.99832095059E-01  0.88691076199E+00  0.88000000000E+00 0. -1.
        -11    1    4    4    0    0 -0.11289203041E-01  0.17020741756E-01 -0.74005303121E-01  0.76773678863E-01  0.51100000000E-03 0. -1.
         11    1    4    4    0    0 -0.23202089953E-01  0.91717235204E-02 -0.49791148665E-01  0.55694497905E-01  0.51100000000E-03 0.  1.
</event>
<event>
 8    1  0.1162192E+005  0.1043930E+01  0.7957747E-01            NaN
         13   -1    0    0    0    0  0.00000000000E+00  0.00000000000E+00  0.74505805969E-08  0.10566000000E+00  0.10566000000E+00 0. -1.
     999900   -1    0    0    0    0 -0.00000000000E+00 -0.00000000000E+00 -0.74505805969E-08  0.93827000000E+00  0.93827000000E+00 0.  1.
     999902    2    1    2    0    0  0.77431064931E-02 -0.21379689553E-01 -0.39712034312E-02  0.10208471648E+01  0.10205861633E+01 0.  0.
     999903    2    3    3    0    0 -0.12258074995E+00 -0.29419968471E-01  0.27935653130E-01  0.13064100827E+00  0.19877060222E-01 0.  0.
         14    1    1    2    0    0 -0.77431064931E-02  0.21379689553E-01  0.39712034312E-02  0.23082835186E-01  0.00000000000E+00 0.  1.
     999901    1    3    3    0    0  0.13032385645E+00  0.80402789185E-02 -0.31906856561E-01  0.89020615654E+00  0.88000000000E+00 0.  1.
        -11    1    4    4    0    0 -0.68556265232E-01 -0.15918376088E-01  0.25635058831E-01  0.74905097037E-01  0.51100000000E-03 0.  1.
         11    1    4    4    0    0 -0.54024484722E-01 -0.13501592383E-01  0.23005942990E-02  0.55735911238E-01  0.51100000000E-03 0. -1.
</event>
<event>
 8    1  0.1162192E+005  0.1043930E+01  0.7957747E-01            NaN
         13   -1    0    0    0    0  0.00000000000E+00  0.00000000000E+00  0.74505805969E-08  0.10566000000E+00  0.10566000000E+00 0.  1.
     999900   -1    0    0    0    0 -0.00000000000E+00 -0.00000000000E+00 -0.74505805969E-08  0.93827000000E+00  0.93827000000E+00 0.  1.
     999902    2    1    2    0    0  0.21196790828E-01  0.10594996149E-01  0.22286761021E-02  0.10201282168E+01  0.10198505057E+01 0.  0.
     999903    2    3    3    0    0 -0.55903544542E-01 -0.10890603548E+00  0.32338016289E-01  0.12820247405E+00  0.20109604651E-01 0.  0.
         14    1    1    2    0    0 -0.21196790828E-01 -0.10594996149E-01 -0.22286761021E-02  0.23801783168E-01  0.00000000000E+00 0. -1.
     999901    1    3    3    0    0  0.77100335370E-01  0.11950103162E+00 -0.30109340187E-01  0.89192574278E+00  0.88000000000E+00 0. -1.
        -11    1    4    4    0    0 -0.43950908242E-01 -0.85442771051E-01  0.16563759903E-01  0.97502660083E-01  0.51100000000E-03 0.  1.
         11    1    4    4    0    0 -0.11952636300E-01 -0.23463264425E-01  0.15774256385E-01  0.30699813966E-01  0.51100000000E-03 0. -1.
</event>
<event>
 8    1  0.1162192E+005  0.1043930E+01  0.7957747E-01            NaN
         13   -1    0    0    0    0  0.00000000000E+00  0.00000000000E+00  0.74505805969E-08  0.10566000000E+00  0.10566000000E+00 0. -1.
     999900   -1    0    0    0    0 -0.00000000000E+00 -0.00000000000E+00 -0.74505805969E-08  0.93827000000E+00  0.93827000000E+00 0.  1.
     999902    2    1    2    0    0  0.12530851133E-01  0.29518101757E-02  0.20055823317E-01  0.10200978481E+01  0.10198194195E+01 0.  0.
     999903    2    3    3    0    0 -0.16482529954E-01  0.11971479447E+00  0.48280187400E-01  0.13146294813E+00  0.18660772411E-01 0.  0.
         14    1    1    2    0    0 -0.12530851133E-01 -0.29518101757E-02 -0.20055823317E-01  0.23832151862E-01  0.00000000000E+00 0. -1.
     999901    1    3    3    0    0  0.29013381087E-01 -0.11676298430E+00 -0.28224364083E-01  0.88863490001E+00  0.88000000000E+00 0.  1.
        -11    1    4    4    0    0 -0.14732788829E-01  0.48898271998E-01  0.25253216508E-01  0.56974398953E-01  0.51100000000E-03 0. -1.
         11    1    4    4    0    0 -0.17497411255E-02  0.70816522473E-01  0.23026970892E-01  0.74488549177E-01  0.51100000000E-03 0.  1.
</event>
<event>
 8    1  0.1162192E+005  0.1043930E+01  0.7957747E-01            NaN
         13   -1    0    0    0    0  0.00000000000E+00  0.00000000000E+00  0.74505805969E-08  0.10566000000E+00  0.10566000000E+00 0.  1.
     999900   -1    0    0    0    0 -0.00000000000E+00 -0.00000000000E+00 -0.74505805969E-08  0.93827000000E+00  0.93827000000E+00 0.  1.
     999902    2    1    2    0    0 -0.12434102637E-01 -0.16156466956E-01 -0.12394616068E-01  0.10200707284E+01  0.10197916582E+01 0.  0.
     999903    2    3    3    0    0  0.60560649620E-01 -0.21956858378E-02 -0.11444237580E+00  0.13106179566E+00  0.20192166408E-01 0.  0.
         14    1    1    2    0    0  0.12434102637E-01  0.16156466956E-01  0.12394616068E-01  0.23859271580E-01  0.00000000000E+00 0.  1.
     999901    1    3    3    0    0 -0.72994752257E-01 -0.13960781118E-01  0.10204775973E+00  0.88900893276E+00  0.88000000000E+00 0. -1.
        -11    1    4    4    0    0  0.38227851085E-01 -0.54472779564E-02 -0.52793588430E-01  0.65409980401E-01  0.51100000000E-03 0. -1.
         11    1    4    4    0    0  0.22332798534E-01  0.32515921186E-02 -0.61648787366E-01  0.65651815256E-01  0.51100000000E-03 0.  1.
</event>
<event>
 8    1  0.1162192E+005  0.1043930E+01  0.7957747E-01            NaN
         13   -1    0    0    0    0  0.00000000000E+00  0.00000000000E+00  0.74505805969E-08  0.10566000000E+00  0.10566000000E+00 0. -1.
     999900   -1    0    0    0    0 -0.00000000000E+00 -0.00000000000E+00 -0.74505805969E-08  0.93827000000E+00  0.93827000000E+00 0.  1.
     999902    2    1    2    0    0  0.27787954654E-02  0.22514306005E-01 -0.64063781933E-02  0.10203576144E+01  0.10200852925E+01 0.  0.
     999903    2    3    3    0    0  0.55696252026E-01  0.82644916497E-02 -0.11728260139E+00  0.13170872355E+00  0.20533021183E-01 0.  0.
         14    1    1    2    0    0 -0.27787954654E-02 -0.22514306005E-01  0.64063781933E-02  0.23572385553E-01  0.00000000000E+00 0.  1.
     999901    1    3    3    0    0 -0.52917456561E-01  0.14249814355E-01  0.11087622320E+00  0.88864889089E+00  0.88000000000E+00 0. -1.
        -11    1    4    4    0    0  0.39622242992E-01  0.11353075379E-01 -0.98574702056E-01  0.10684590524E+00  0.51100000000E-03 0. -1.
         11    1    4    4    0    0  0.16074009034E-01 -0.30885837297E-02 -0.18707899334E-01  0.24862818311E-01  0.51100000000E-03 0.  1.
</event>
<event>
 8    1  0.1162192E+005  0.1043930E+01  0.7957747E-01            NaN
         13   -1    0    0    0    0  0.00000000000E+00  0.00000000000E+00  0.74505805969E-08  0.10566000000E+00  0.10566000000E+00 0.  1.
     999900   -1    0    0    0    0 -0.00000000000E+00 -0.00000000000E+00 -0.74505805969E-08  0.93827000000E+00  0.93827000000E+00 0.  1.
     999902    2    1    2    0    0  0.46606609898E-02  0.10811605486E-01  0.20066532592E-01  0.10206646115E+01  0.10203994173E+01 0.  0.
     999903    2    3    3    0    0  0.45798401212E-01 -0.94436295732E-01  0.76778826279E-01  0.13162821251E+00  0.20378681494E-01 0.  0.
         14    1    1    2    0    0 -0.46606609898E-02 -0.10811605486E-01 -0.20066532592E-01  0.23265388549E-01  0.00000000000E+00 0. -1.
     999901    1    3    3    0    0 -0.41137740222E-01  0.10524790122E+00 -0.56712293687E-01  0.88903639894E+00  0.88000000000E+00 0.  1.
        -11    1    4    4    0    0  0.13628770541E-01 -0.51340115216E-01  0.39210691770E-01  0.66024921711E-01  0.51100000000E-03 0. -1.
         11    1    4    4    0    0  0.32169630671E-01 -0.43096180517E-01  0.37568134509E-01  0.65603290803E-01  0.51100000000E-03 0.  1.
</event>
<event>
 8    1  0.1162192E+005  0.1043930E+01  0.7957747E-01            NaN
         13   -1    0    0    0    0  0.00000000000E+00  0.00000000000E+00  0.74505805969E-08  0.10566000000E+00  0.10566000000E+00 0. -1.
     999900   -1    0    0    0    0 -0.00000000000E+00 -0.00000000000E+00 -0.74505805969E-08  0.93827000000E+00  0.93827000000E+00 0. -1.
     999902    2    1    2    0    0 -0.13179467050E-01  0.28331069519E-01 -0.48727064516E-02  0.10123057827E+01  0.10118116952E+01 0.  0.
     999903    2    3    3    0    0 -0.43777831983E-01 -0.95422437984E-01 -0.57890164106E-01  0.12154091958E+00  0.19974578520E-01 0.  0.
         14    1    1    2    0    0  0.13179467050E-01 -0.28331069519E-01  0.48727064516E-02  0.31624217303E-01  0.00000000000E+00 0. -1.
     999901    1    3    3    0    0  0.30598364933E-01  0.12375350750E+00  0.53017457654E-01  0.89076486312E+00  0.88000000000E+00 0.  1.
        -11    1    4    4    0    0 -0.40855968548E-01 -0.68623209950E-01 -0.44705814096E-01  0.91527187463E-01  0.51100000000E-03 0. -1.
         11    1    4    4    0    0 -0.29218634352E-02 -0.26799228034E-01 -0.13184350010E-01  0.30013732113E-01  0.51100000000E-03 0.  1.
</event>
<event>
 8    1  0.1162192E+005  0.1043930E+01  0.7957747E-01            NaN
         13   -1    0    0    0    0  0.00000000000E+00  0.00000000000E+00  0.74505805969E-08  0.10566000000E+00  0.10566000000E+00 0. -1.
     999900   -1    0    0    0    0 -0.00000000000E+00 -0.00000000000E+00 -0.74505805969E-08  0.93827000000E+00  0.93827000000E+00 0.  1.
     999902    2    1    2    0    0 -0.34470013826E-02 -0.62830796307E-02  0.22631980629E-01  0.10201904664E+01  0.10199142230E+01 0.  0.
     999903    2    3    3    0    0  0.14836357766E-01  0.68345195342E-01 -0.10493094930E+00  0.12767942348E+00  0.20008693660E-01 0.  0.
         14    1    1    2    0    0  0.34470013826E-02  0.62830796307E-02 -0.22631980629E-01  0.23739533597E-01  0.00000000000E+00 0.  1.
     999901    1    3    3    0    0 -0.18283359148E-01 -0.74628274972E-01  0.12756292993E+00  0.89251104292E+00  0.88000000000E+00 0. -1.
        -11    1    4    4    0    0  0.10477628389E-01  0.11962312862E-01 -0.27898372845E-01  0.32116319123E-01  0.51100000000E-03 0. -1.
         11    1    4    4    0    0  0.43587293768E-02  0.56382882480E-01 -0.77032576452E-01  0.95563104357E-01  0.51100000000E-03 0.  1.
</event>
<event>
 8    1  0.1162192E+005  0.1043930E+01  0.7957747E-01            NaN
         13   -1    0    0    0    0  0.00000000000E+00  0.00000000000E+00  0.74505805969E-08  0.10566000000E+00  0.10566000000E+00 0. -1.
     999900   -1    0    0    0    0 -0.00000000000E+00 -0.00000000000E+00 -0.74505805969E-08  0.93827000000E+00  0.93827000000E+00 0. -1.
     999902    2    1    2    0    0  0.19734407573E-01  0.26321064818E-02  0.96051539300E-02  0.10218249370E+01  0.10215858105E+01 0.  0.
     999903    2    3    3    0    0  0.97804310911E-01 -0.36394361421E-01  0.82431036487E-01  0.13451350119E+00  0.20218146562E-01 0.  0.
         14    1    1    2    0    0 -0.19734407573E-01 -0.26321064818E-02 -0.96051539300E-02  0.22105062967E-01  0.00000000000E+00 0.  1.
     999901    1    3    3    0    0 -0.78069903338E-01  0.39026467902E-01 -0.72825882557E-01  0.88731143584E+00  0.88000000000E+00 0. -1.
        -11    1    4    4    0    0  0.69974538522E-01 -0.16684199479E-01  0.60178907001E-01  0.93789980927E-01  0.51100000000E-03 0. -1.
         11    1    4    4    0    0  0.27829772389E-01 -0.19710161941E-01  0.22252129487E-01  0.40723520264E-01  0.51100000000E-03 0.  1.
</event>
<event>
 8    1  0.1162192E+005  0.1043930E+01  0.7957747E-01            NaN
         13   -1    0    0    0    0  0.00000000000E+00  0.00000000000E+00  0.74505805969E-08  0.10566000000E+00  0.10566000000E+00 0. -1.
     999900   -1    0    0    0    0 -0.00000000000E+00 -0.00000000000E+00 -0.74505805969E-08  0.93827000000E+00  0.93827000000E+00 0.  1.
     999902    2    1    2    0    0 -0.22858603787E-01 -0.84119635770E-02  0.16287674095E-02  0.10195183269E+01  0.10192260246E+01 0.  0.
     999903    2    3    3    0    0 -0.12659952184E+00  0.22345509460E-01  0.26377331246E-01  0.13254555868E+00  0.18595719867E-01 0.  0.
         14    1    1    2    0    0  0.22858603787E-01  0.84119635770E-02 -0.16287674095E-02  0.24411673060E-01  0.00000000000E+00 0.  1.
     999901    1    3    3    0    0  0.10374091806E+00 -0.30757473037E-01 -0.24748563837E-01  0.88697276826E+00  0.88000000000E+00 0.  1.
        -11    1    4    4    0    0 -0.34952641930E-01  0.12735263591E-01  0.21645805906E-02  0.37266884050E-01  0.51100000000E-03 0. -1.
         11    1    4    4    0    0 -0.91646879914E-01  0.96102458692E-02  0.24212750655E-01  0.95278674628E-01  0.51100000000E-03 0.  1.
</event>
<event>
 8    1  0.1162192E+005  0.1043930E+01  0.7957747E-01            NaN
         13   -1    0    0    0    0  0.00000000000E+00  0.00000000000E+00  0.74505805969E-08  0.10566000000E+00  0.10566000000E+00 0. -1.
     999900   -1    0    0    0    0 -0.00000000000E+00 -0.00000000000E+00 -0.74505805969E-08  0.93827000000E+00  0.93827000000E+00 0. -1.
     999902    2    1    2    0    0  0.13868859355E-01  0.10065005248E-01 -0.14268903454E-01  0.10216308701E+01  0.10213874796E+01 0.  0.
     999903    2    3    3    0    0  0.10328485975E+00 -0.64654507278E-01 -0.49951729849E-01  0.13323259745E+00  0.20193616357E-01 0.  0.
         14    1    1    2    0    0 -0.13868859355E-01 -0.10065005248E-01  0.14268903454E-01  0.22299129943E-01  0.00000000000E+00 0.  1.
     999901    1    3    3    0    0 -0.89416000398E-01  0.74719512527E-01  0.35682826395E-01  0.88839827261E+00  0.88000000000E+00 0.  1.
        -11    1    4    4    0    0  0.22223755549E-01 -0.58084594177E-02 -0.13425647331E-01  0.26610949603E-01  0.51100000000E-03 0. -1.
         11    1    4    4    0    0  0.81061104204E-01 -0.58846047861E-01 -0.36526082518E-01  0.10662164784E+00  0.51100000000E-03 0.  1.
</event>
<event>
 8    1  0.1162192E+005  0.1043930E+01  0.7957747E-01            NaN
         13   -1    0    0    0    0  0.00000000000E+00  0.00000000000E+00  0.74505805969E-08  0.10566000000E+00  0.10566000000E+00 0.  1.
     999900   -1    0    0    0    0 -0.00000000000E+00 -0.00000000000E+00 -0.74505805969E-08  0.93827000000E+00  0.93827000000E+00 0. -1.
     999902    2    1    2    0    0 -0.12916686874E-01  0.72054055969E-02 -0.18238621566E-01  0.10204479646E+01  0.10201777504E+01 0.  0.
     999903    2    3    3    0    0  0.18234575444E-02 -0.41749161834E-01  0.11924560717E+00  0.12830686888E+00  0.22289465258E-01 0.  0.
         14    1    1    2    0    0  0.12916686874E-01 -0.72054055969E-02  0.18238621566E-01  0.23482035394E-01  0.00000000000E+00 0.  1.
     999901    1    3    3    0    0 -0.14740144419E-01  0.48954567431E-01 -0.13748422874E+00  0.89214109572E+00  0.88000000000E+00 0. -1.
        -11    1    4    4    0    0 -0.58498635491E-02 -0.37695651416E-01  0.88888513538E-01  0.96729581821E-01  0.51100000000E-03 0. -1.
         11    1    4    4    0    0  0.76733210935E-02 -0.40535104180E-02  0.30357093632E-01  0.31577287061E-01  0.51100000000E-03 0.  1.
</event>
<event>
 8    1  0.1162192E+005  0.1043930E+01  0.7957747E-01            NaN
         13   -1    0    0    0    0  0.00000000000E+00  0.00000000000E+00  0.74505805969E-08  0.10566000000E+00  0.10566000000E+00 0.  1.
     999900   -1    0    0    0    0 -0.00000000000E+00 -0.00000000000E+00 -0.74505805969E-08  0.93827000000E+00  0.93827000000E+00 0.  1.
     999902    2    1    2    0    0  0.19510116512E-01 -0.25250268617E-02 -0.11271872251E-01  0.10212567666E+01  0.10210050479E+01 0.  0.
     999903    2    3    3    0    0  0.10033095440E-02  0.72386961000E-01 -0.10811226159E+00  0.13258789195E+00  0.25503122049E-01 0.  0.
         14    1    1    2    0    0 -0.19510116512E-01  0.25250268617E-02  0.11271872251E-01  0.22673233360E-01  0.00000000000E+00 0.  1.
     999901    1    3    3    0    0  0.18506806968E-01 -0.74911987862E-01  0.96840389336E-01  0.88866887469E+00  0.88000000000E+00 0. -1.
        -11    1    4    4    0    0  0.13199555228E-01  0.36571998477E-01 -0.56712222614E-01  0.68762465384E-01  0.51100000000E-03 0.  1.
         11    1    4    4    0    0 -0.12196245684E-01  0.35814962523E-01 -0.51400038973E-01  0.63825426569E-01  0.51100000000E-03 0. -1.
</event>
<event>
 8    1  0.1162192E+005  0.1043930E+01  0.7957747E-01            NaN
         13   -1    0    0    0    0  0.00000000000E+00  0.00000000000E+00  0.74505805969E-08  0.10566000000E+00  0.10566000000E+00 0.  1.
     999900   -1    0    0    0    0 -0.00000000000E+00 -0.00000000000E+00 -0.74505805969E-08  0.93827000000E+00  0.93827000000E+00 0.  1.
     999902    2    1    2    0    0  0.56128277818E-02 -0.11618315776E-01 -0.21030459268E-01  0.10192567490E+01  0.10189580713E+01 0.  0.
     999903    2    3    3    0    0  0.11771002835E+00 -0.51464864801E-01  0.12482715992E-01  0.13061921731E+00  0.20031940714E-01 0.  0.
         14    1    1    2    0    0 -0.56128277818E-02  0.11618315776E-01  0.21030459268E-01  0.24673250986E-01  0.00000000000E+00 0.  1.
     999901    1    3    3    0    0 -0.11209720056E+00  0.39846549025E-01 -0.33513175260E-01  0.88863753171E+00  0.88000000000E+00 0.  1.
        -11    1    4    4    0    0  0.79746699978E-01 -0.24525567835E-01  0.94386049854E-02  0.83966588713E-01  0.51100000000E-03 0.  1.
         11    1    4    4    0    0  0.37963328369E-01 -0.26939296966E-01  0.30441110066E-02  0.46652628594E-01  0.51100000000E-03 0. -1.
</event>
<event>
 8    1  0.1273869E+005  0.1043930E+01  0.7957747E-01            NaN
         13   -1    0    0    0    0  0.00000000000E+00  0.00000000000E+00  0.74505805969E-08  0.10566000000E+00  0.10566000000E+00 0. -1.
     999900   -1    0    0    0    0 -0.00000000000E+00 -0.00000000000E+00 -0.74505805969E-08  0.93827000000E+00  0.93827000000E+00 0. -1.
     999902    2    1    2    0    0  0.55189792764E-02  0.77509308324E-02  0.20873004982E-01  0.10209905493E+01  0.10207328168E+01 0.  0.
     999903    2    3    3    0    0 -0.31841226928E-01 -0.12444150169E+00  0.89649222732E-02  0.13025353613E+00  0.19648480038E-01 0.  0.
         14    1    1    2    0    0 -0.55189792764E-02 -0.77509308324E-02 -0.20873004982E-01  0.22939450691E-01  0.00000000000E+00 0.  1.
     999901    1    3    3    0    0  0.37360206205E-01  0.13219243252E+00  0.11908082708E-01  0.89073701318E+00  0.88000000000E+00 0.  1.
        -11    1    4    4    0    0 -0.18630993433E-01 -0.64888688480E-01  0.14327005508E-01  0.69015795415E-01  0.51100000000E-03 0. -1.
         11    1    4    4    0    0 -0.13210233496E-01 -0.59552813205E-01 -0.53620832351E-02  0.61237740710E-01  0.51100000000E-03 0.  1.
</event>
<event>
 8    1  0.1162192E+005  0.1043930E+01  0.7957747E-01            NaN
         13   -1    0    0    0    0  0.00000000000E+00  0.00000000000E+00  0.74505805969E-08  0.10566000000E+00  0.10566000000E+00 0.  1.
     999900   -1    0    0    0    0 -0.00000000000E+00 -0.00000000000E+00 -0.74505805969E-08  0.93827000000E+00  0.93827000000E+00 0. -1.
     999902    2    1    2    0    0  0.13994928045E-01  0.94856214579E-02 -0.13392356914E-01  0.10223617305E+01  0.10221341975E+01 0.  0.
     999903    2    3    3    0    0  0.12783727720E+00  0.96526108248E-02 -0.36408952088E-01  0.13473012223E+00  0.19775027376E-01 0.  0.
         14    1    1    2    0    0 -0.13994928045E-01 -0.94856214579E-02  0.13392356914E-01  0.21568269498E-01  0.00000000000E+00 0.  1.
     999901    1    3    3    0    0 -0.11384234915E+00 -0.16698936692E-03  0.23016595174E-01  0.88763160827E+00  0.88000000000E+00 0. -1.
        -11    1    4    4    0    0  0.25536939515E-01 -0.53887024159E-02 -0.42855400314E-02  0.26453740150E-01  0.51100000000E-03 0. -1.
         11    1    4    4    0    0  0.10230033768E+00  0.15041313241E-01 -0.32123412057E-01  0.10827638208E+00  0.51100000000E-03 0.  1.
</event>
<event>
 8    1  0.1162192E+005  0.1043930E+01  0.7957747E-01            NaN
         13   -1    0    0    0    0  0.00000000000E+00  0.00000000000E+00  0.74505805969E-08  0.10566000000E+00  0.10566000000E+00 0.  1.
     999900   -1    0    0    0    0 -0.00000000000E+00 -0.00000000000E+00 -0.74505805969E-08  0.93827000000E+00  0.93827000000E+00 0. -1.
     999902    2    1    2    0    0  0.13590766960E-01  0.18251896222E-01 -0.29829332408E-02  0.10209792145E+01  0.10207212244E+01 0.  0.
     999903    2    3    3    0    0  0.51245331549E-01  0.10616781693E+00 -0.55631371375E-01  0.13423295242E+00  0.32030402399E-01 0.  0.
         14    1    1    2    0    0 -0.13590766960E-01 -0.18251896222E-01  0.29829332408E-02  0.22950785455E-01  0.00000000000E+00 0. -1.
     999901    1    3    3    0    0 -0.37654564589E-01 -0.87915920708E-01  0.52648438134E-01  0.88674626212E+00  0.88000000000E+00 0.  1.
        -11    1    4    4    0    0  0.41140575197E-01  0.10170344369E+00 -0.55982928506E-01  0.12316853003E+00  0.51100000000E-03 0.  1.
         11    1    4    4    0    0  0.10104756352E-01  0.44643732410E-02  0.35155713079E-03  0.11064422389E-01  0.51100000000E-03 0. -1.
</event>
<event>
 8    1  0.1162192E+005  0.1043930E+01  0.7957747E-01            NaN
         13   -1    0    0    0    0  0.00000000000E+00  0.00000000000E+00  0.74505805969E-08  0.10566000000E+00  0.10566000000E+00 0. -1.
     999900   -1    0    0    0    0 -0.00000000000E+00 -0.00000000000E+00 -0.74505805969E-08  0.93827000000E+00  0.93827000000E+00 0.  1.
     999902    2    1    2    0    0  0.12118097682E-01 -0.59668052334E-02  0.19186797855E-01  0.10204654679E+01  0.10201956611E+01 0.  0.
     999903    2    3    3    0    0 -0.16986916994E-01  0.11151262983E+00 -0.58826094151E-01  0.12876230490E+00  0.19889692006E-01 0.  0.
         14    1    1    2    0    0 -0.12118097682E-01  0.59668052334E-02 -0.19186797855E-01  0.23464532129E-01  0.00000000000E+00 0.  1.
     999901    1    3    3    0    0  0.29105014676E-01 -0.11747943506E+00  0.78012892006E-01  0.89170316298E+00  0.88000000000E+00 0. -1.
        -11    1    4    4    0    0 -0.21153670376E-01  0.80144884481E-01 -0.42761864943E-01  0.93271209348E-01  0.51100000000E-03 0. -1.
         11    1    4    4    0    0  0.41667533822E-02  0.31367745350E-01 -0.16064229208E-01  0.35491095547E-01  0.51100000000E-03 0.  1.
</event>
<event>
 8    1  0.1162192E+005  0.1043930E+01  0.7957747E-01            NaN
         13   -1    0    0    0    0  0.00000000000E+00  0.00000000000E+00  0.74505805969E-08  0.10566000000E+00  0.10566000000E+00 0. -1.
     999900   -1    0    0    0    0 -0.00000000000E+00 -0.00000000000E+00 -0.74505805969E-08  0.93827000000E+00  0.93827000000E+00 0. -1.
     999902    2    1    2    0    0  0.13572499963E-01 -0.18344472996E-01  0.56596925410E-02  0.10204190544E+01  0.10201481667E+01 0.  0.
     999903    2    3    3    0    0  0.49547700490E-01 -0.68399600238E-01  0.10091783045E+00  0.13313452072E+00  0.20172064030E-01 0.  0.
         14    1    1    2    0    0 -0.13572499963E-01  0.18344472996E-01 -0.56596925410E-02  0.23510945630E-01  0.00000000000E+00 0.  1.
     999901    1    3    3    0    0 -0.35975200527E-01  0.50055127242E-01 -0.95258137913E-01  0.88728453365E+00  0.88000000000E+00 0.  1.
        -11    1    4    4    0    0  0.43891483776E-01 -0.45808100365E-01  0.70969639537E-01  0.95193462297E-01  0.51100000000E-03 0. -1.
         11    1    4    4    0    0  0.56562167135E-02 -0.22591499873E-01  0.29948190917E-01  0.37941058423E-01  0.51100000000E-03 0.  1.
</event>
<event>
 8    1  0.1162192E+005  0.1043930E+01  0.7957747E-01            NaN
         13   -1    0    0    0    0  0.00000000000E+00  0.00000000000E+00  0.74505805969E-08  0.10566000000E+00  0.10566000000E+00 0. -1.
     999900   -1    0    0    0    0 -0.00000000000E+00 -0.00000000000E+00 -0.74505805969E-08  0.93827000000E+00  0.93827000000E+00 0. -1.
     999902    2    1    2    0    0  0.12839138538E-01  0.16167485930E-01  0.10410553835E-01  0.10208083497E+01  0.10205464596E+01 0.  0.
     999903    2    3    3    0    0 -0.28269029958E-01  0.21731258826E-01 -0.12309700978E+00  0.12977237592E+00  0.20411028168E-01 0.  0.
         14    1    1    2    0    0 -0.12839138538E-01 -0.16167485930E-01 -0.10410553835E-01  0.23121650262E-01  0.00000000000E+00 0. -1.
     999901    1    3    3    0    0  0.41108168496E-01 -0.55637728958E-02  0.13350756362E+00  0.89103597381E+00  0.88000000000E+00 0.  1.
        -11    1    4    4    0    0 -0.21073002348E-01  0.41172625286E-02 -0.75943265528E-01  0.78921885296E-01  0.51100000000E-03 0. -1.
         11    1    4    4    0    0 -0.71960276095E-02  0.17613996298E-01 -0.47153744254E-01  0.50850490628E-01  0.51100000000E-03 0.  1.
</event>
<event>
 8    1  0.1162192E+005  0.1043930E+01  0.7957747E-01            NaN
         13   -1    0    0    0    0  0.00000000000E+00  0.00000000000E+00  0.74505805969E-08  0.10566000000E+00  0.10566000000E+00 0. -1.
     999900   -1    0    0    0    0 -0.00000000000E+00 -0.00000000000E+00 -0.74505805969E-08  0.93827000000E+00  0.93827000000E+00 0. -1.
     999902    2    1    2    0    0 -0.73411902729E-02  0.84247348669E-02  0.24369377360E-01  0.10171207519E+01  0.10167673717E+01 0.  0.
     999903    2    3    3    0    0 -0.10363210156E+00  0.72018689333E-01  0.21744508545E-01  0.12958313544E+00  0.19815681991E-01 0.  0.
         14    1    1    2    0    0  0.73411902729E-02 -0.84247348669E-02 -0.24369377360E-01  0.26809248127E-01  0.00000000000E+00 0.  1.
     999901    1    3    3    0    0  0.96290911286E-01 -0.63593954466E-01  0.26248688157E-02  0.88753761643E+00  0.88000000000E+00 0. -1.
        -11    1    4    4    0    0 -0.69449735644E-01  0.38953715787E-01  0.77475457134E-02  0.80005895659E-01  0.51100000000E-03 0.  1.
         11    1    4    4    0    0 -0.34182365915E-01  0.33064973546E-01  0.13996962831E-01  0.49577239784E-01  0.51100000000E-03 0. -1.
</event>
<event>
 8    1  0.1162192E+005  0.1043930E+01  0.7957747E-01            NaN
         13   -1    0    0    0    0  0.00000000000E+00  0.00000000000E+00  0.74505805969E-08  0.10566000000E+00  0.10566000000E+00 0. -1.
     999900   -1    0    0    0    0 -0.00000000000E+00 -0.00000000000E+00 -0.74505805969E-08  0.93827000000E+00  0.93827000000E+00 0.  1.
     999902    2    1    2    0    0  0.12844180921E-01 -0.18784674517E-01 -0.72014103797E-02  0.10200616676E+01  0.10197823829E+01 0.  0.
     999903    2    3    3    0    0  0.10756396145E+00 -0.73773900534E-01 -0.17603162596E-01  0.13321114567E+00  0.20560734289E-01 0.  0.
         14    1    1    2    0    0 -0.12844180921E-01  0.18784674517E-01  0.72014103797E-02  0.23868332403E-01  0.00000000000E+00 0. -1.
     999901    1    3    3    0    0 -0.94719780524E-01  0.54989226017E-01  0.10401752216E-01  0.88685052193E+00  0.88000000000E+00 0. -1.
        -11    1    4    4    0    0  0.20403080658E-01 -0.24082902457E-01 -0.15755059834E-02  0.31607202205E-01  0.51100000000E-03 0. -1.
         11    1    4    4    0    0  0.87160880787E-01 -0.49690998077E-01 -0.16027656612E-01  0.10160394346E+00  0.51100000000E-03 0.  1.
</event>
<event>
 8    1  0.1162192E+005  0.1043930E+01  0.7957747E-01            NaN
         13   -1    0    0    0    0  0.00000000000E+00  0.00000000000E+00  0.74505805969E-08  0.10566000000E+00  0.10566000000E+00 0. -1.
     999900   -1    0    0    0    0 -0.00000000000E+00 -0.00000000000E+00 -0.74505805969E-08  0.93827000000E+00  0.93827000000E+00 0.  1.
     999902    2    1    2    0    0 -0.16020370003E-01  0.19963983940E-01  0.30257339693E-02  0.10181546634E+01  0.10178283503E+01 0.  0.
     999903    2    3    3    0    0  0.11417042249E+00  0.36722533783E-01  0.39096162536E-01  0.12768761335E+00  0.19803707234E-01 0.  0.
         14    1    1    2    0    0  0.16020370003E-01 -0.19963983940E-01 -0.30257339693E-02  0.25775336580E-01  0.00000000000E+00 0. -1.
     999901    1    3    3    0    0 -0.13019079249E+00 -0.16758549844E-01 -0.36070428567E-01  0.89046705007E+00  0.88000000000E+00 0. -1.
        -11    1    4    4    0    0  0.49572264563E-01  0.25204270828E-01  0.22570948183E-01  0.60019775947E-01  0.51100000000E-03 0. -1.
         11    1    4    4    0    0  0.64598157923E-01  0.11518262955E-01  0.16525214353E-01  0.67667837404E-01  0.51100000000E-03 0.  1.
</event>
<event>
 8    1  0.1162192E+005  0.1043930E+01  0.7957747E-01            NaN
         13   -1    0    0    0    0  0.00000000000E+00  0.00000000000E+00  0.74505805969E-08  0.10566000000E+00  0.10566000000E+00 0.  1.
     999900   -1    0    0    0    0 -0.00000000000E+00 -0.00000000000E+00 -0.74505805969E-08  0.93827000000E+00  0.93827000000E+00 0. -1.
     999902    2    1    2    0    0 -0.22698259683E-02 -0.96235507844E-02  0.21437804767E-01  0.10203218592E+01  0.10200487008E+01 0.  0.
     999903    2    3    3    0    0  0.92250877766E-01  0.29882150627E-01 -0.81754126404E-01  0.12838944104E+00  0.19923453798E-01 0.  0.
         14    1    1    2    0    0  0.22698259683E-02  0.96235507844E-02 -0.21437804767E-01  0.23608140817E-01  0.00000000000E+00 0.  1.
     999901    1    3    3    0    0 -0.94520703735E-01 -0.39505701411E-01  0.10319193117E+00  0.89193241814E+00  0.88000000000E+00 0.  1.
        -11    1    4    4    0    0  0.23173839853E-01  0.11967154836E-01 -0.32518879165E-01  0.41689066571E-01  0.51100000000E-03 0. -1.
         11    1    4    4    0    0  0.69077037914E-01  0.17914995791E-01 -0.49235247239E-01  0.86700374468E-01  0.51100000000E-03 0.  1.
</event>
<event>
 8    1  0.1162192E+005  0.1043930E+01  0.7957747E-01            NaN
         13   -1    0    0    0    0  0.00000000000E+00  0.00000000000E+00  0.74505805969E-08  0.10566000000E+00  0.10566000000E+00 0.  1.
     999900   -1    0    0    0    0 -0.00000000000E+00 -0.00000000000E+00 -0.74505805969E-08  0.93827000000E+00  0.93827000000E+00 0.  1.
     999902    2    1    2    0    0  0.20114203677E-01  0.26416824428E-02 -0.11185339203E-01  0.10207638288E+01  0.10205009175E+01 0.  0.
     999903    2    3    3    0    0 -0.12444877477E+00 -0.11250308285E-02 -0.26606979277E-01  0.12882746903E+00  0.19995554367E-01 0.  0.
         14    1    1    2    0    0 -0.20114203677E-01 -0.26416824428E-02  0.11185339203E-01  0.23166171216E-01  0.00000000000E+00 0.  1.
     999901    1    3    3    0    0  0.14456297845E+00  0.37667132714E-02  0.15421640073E-01  0.89193635975E+00  0.88000000000E+00 0.  1.
        -11    1    4    4    0    0 -0.35958243857E-01 -0.76455455975E-02 -0.23548408310E-02  0.36840956355E-01  0.51100000000E-03 0. -1.
         11    1    4    4    0    0 -0.88490530914E-01  0.65205147690E-02 -0.24252138446E-01  0.91986512677E-01  0.51100000000E-03 0.  1.
</event>
<event>
 8    1  0.1162192E+005  0.1043930E+01  0.7957747E-01            NaN
         13   -1    0    0    0    0  0.00000000000E+00  0.00000000000E+00  0.74505805969E-08  0.10566000000E+00  0.10566000000E+00 0.  1.
     999900   -1    0    0    0    0 -0.00000000000E+00 -0.00000000000E+00 -0.74505805969E-08  0.93827000000E+00  0.93827000000E+00 0.  1.
     999902    2    1    2    0    0 -0.15373851791E-01  0.11480025076E-01 -0.14520476598E-01  0.10198677778E+01  0.10195838826E+01 0.  0.
     999903    2    3    3    0    0 -0.43747338167E-01 -0.11685996440E-01 -0.12297376656E+00  0.13245364938E+00  0.19262135459E-01 0.  0.
         14    1    1    2    0    0  0.15373851791E-01 -0.11480025076E-01  0.14520476598E-01  0.24062222160E-01  0.00000000000E+00 0.  1.
     999901    1    3    3    0    0  0.28373486377E-01  0.23166021517E-01  0.10845328997E+00  0.88741412846E+00  0.88000000000E+00 0. -1.
        -11    1    4    4    0    0 -0.80629207679E-02 -0.10527065204E-01 -0.27876754545E-01  0.30874007808E-01  0.51100000000E-03 0. -1.
         11    1    4    4    0    0 -0.35684417399E-01 -0.11589312363E-02 -0.95097012018E-01  0.10157964157E+00  0.51100000000E-03 0.  1.
</event>
<event>
 8    1  0.1162192E+005  0.1043930E+01  0.7957747E-01            NaN
         13   -1    0    0    0    0  0.00000000000E+00  0.00000000000E+00  0.74505805969E-08  0.10566000000E+00  0.10566000000E+00 0.  1.
     999900   -1    0    0    0    0 -0.00000000000E+00 -0.00000000000E+00 -0.74505805969E-08  0.93827000000E+00  0.93827000000E+00 0. -1.
     999902    2    1    2    0    0 -0.44135570832E-03 -0.42526187027E-02 -0.19965144474E-01  0.10235122001E+01  0.10233085249E+01 0.  0.
     999903    2    3    3    0    0 -0.78695256640E-01 -0.30530882558E-01 -0.10437183367E+00  0.13562779917E+00  0.19399536995E-01 0.  0.
         14    1    1    2    0    0  0.44135570832E-03  0.42526187027E-02  0.19965144474E-01  0.20417799944E-01  0.00000000000E+00 0.  1.
     999901    1    3    3    0    0  0.78253900932E-01  0.26278263855E-01  0.84406689196E-01  0.88788440089E+00  0.88000000000E+00 0.  1.
        -11    1    4    4    0    0 -0.39220286905E-01 -0.17305180163E-01 -0.38056122344E-01  0.57325646392E-01  0.51100000000E-03 0.  1.
         11    1    4    4    0    0 -0.39474969735E-01 -0.13225702395E-01 -0.66315711326E-01  0.78302152774E-01  0.51100000000E-03 0. -1.
</event>
<event>
 8    1  0.1162192E+005  0.1043930E+01  0.7957747E-01            NaN
         13   -1    0    0    0    0  0.00000000000E+00  0.00000000000E+00  0.74505805969E-08  0.10566000000E+00  0.10566000000E+00 0.  1.
     999900   -1    0    0    0    0 -0.00000000000E+00 -0.00000000000E+00 -0.74505805969E-08  0.93827000000E+00  0.93827000000E+00 0. -1.
     999902    2    1    2    0    0 -0.56382427999E-02 -0.49656242062E-02  0.22353897335E-01  0.10203472959E+01  0.10200747327E+01 0.  0.
     999903    2    3    3    0    0  0.10973980177E+00  0.62958301621E-01 -0.18650637595E-01  0.12927652165E+00  0.18920912560E-01 0.  0.
         14    1    1    2    0    0  0.56382427999E-02  0.49656242062E-02 -0.22353897335E-01  0.23582704080E-01  0.00000000000E+00 0. -1.
     999901    1    3    3    0    0 -0.11537804457E+00 -0.67923925827E-01  0.41004534930E-01  0.89107077427E+00  0.88000000000E+00 0. -1.
        -11    1    4    4    0    0  0.42119369033E-01  0.25841491441E-01  0.18760360166E-02  0.49453054099E-01  0.51100000000E-03 0.  1.
         11    1    4    4    0    0  0.67620432739E-01  0.37116810180E-01 -0.20526673612E-01  0.79823467554E-01  0.51100000000E-03 0. -1.
</event>
<event>
 8    1  0.1162192E+005  0.1043930E+01  0.7957747E-01            NaN
         13   -1    0    0    0    0  0.00000000000E+00  0.00000000000E+00  0.74505805969E-08  0.10566000000E+00  0.10566000000E+00 0.  1.
     999900   -1    0    0    0    0 -0.00000000000E+00 -0.00000000000E+00 -0.74505805969E-08  0.93827000000E+00  0.93827000000E+00 0.  1.
     999902    2    1    2    0    0 -0.19798230802E-01  0.84157084832E-02 -0.10551632819E-01  0.10199689682E+01  0.10196874840E+01 0.  0.
     999903    2    3    3    0    0 -0.70155875207E-01 -0.10739276334E+00  0.13342175122E-01  0.13063303131E+00  0.20782752217E-01 0.  0.
         14    1    1    2    0    0  0.19798230802E-01 -0.84157084832E-02  0.10551632819E-01  0.23961031850E-01  0.00000000000E+00 0. -1.
     999901    1    3    3    0    0  0.50357644405E-01  0.11580847182E+00 -0.23893807941E-01  0.88933593684E+00  0.88000000000E+00 0. -1.
        -11    1    4    4    0    0 -0.50763046066E-01 -0.59916995209E-01  0.10946602395E-01  0.79290745902E-01  0.51100000000E-03 0. -1.
         11    1    4    4    0    0 -0.19392829141E-01 -0.47475768127E-01  0.23955727265E-02  0.51342285409E-01  0.51100000000E-03 0.  1.
</event>
<event>
 8    1  0.1162192E+005  0.1043930E+01  0.7957747E-01            NaN
         13   -1    0    0    0    0  0.00000000000E+00  0.00000000000E+00  0.74505805969E-08  0.10566000000E+00  0.10566000000E+00 0.  1.
     999900   -1    0    0    0    0 -0.00000000000E+00 -0.00000000000E+00 -0.74505805969E-08  0.93827000000E+00  0.93827000000E+00 0. -1.
     999902    2    1    2    0    0 -0.15752103373E-01  0.18450013150E-01  0.78472669320E-02  0.10184327189E+01  0.10181134964E+01 0.  0.
     999903    2    3    3    0    0 -0.17542537397E-02  0.59046293617E-01  0.11508359185E+00  0.13088349368E+00  0.19917670796E-01 0.  0.
         14    1    1    2    0    0  0.15752103373E-01 -0.18450013150E-01 -0.78472669320E-02  0.25497281114E-01  0.00000000000E+00 0.  1.
     999901    1    3    3    0    0 -0.13997849633E-01 -0.40596280467E-01 -0.10723632491E+00  0.88754922521E+00  0.88000000000E+00 0. -1.
        -11    1    4    4    0    0 -0.58109225371E-02  0.23431383997E-01  0.29684506098E-01  0.38265227035E-01  0.51100000000E-03 0.  1.
         11    1    4    4    0    0  0.40566687973E-02  0.35614909619E-01  0.85399085748E-01  0.92618266646E-01  0.51100000000E-03 0. -1.
</event>
<event>
 8    1  0.1162192E+005  0.1043930E+01  0.7957747E-01            NaN
         13   -1    0    0    0    0  0.00000000000E+00  0.00000000000E+00  0.74505805969E-08  0.10566000000E+00  0.10566000000E+00 0.  1.
     999900   -1    0    0    0    0 -0.00000000000E+00 -0.00000000000E+00 -0.74505805969E-08  0.93827000000E+00  0.93827000000E+00 0. -1.
     999902    2    1    2    0    0 -0.99676408014E-02  0.14968804120E-01 -0.12263031259E-01  0.10221630320E+01  0.10219312419E+01 0.  0.
     999903    2    3    3    0    0 -0.72083704407E-01 -0.89464403141E-01 -0.62692136012E-01  0.13238339932E+00  0.19877641404E-01 0.  0.
         14    1    1    2    0    0  0.99676408014E-02 -0.14968804120E-01  0.12263031259E-01  0.21766967992E-01  0.00000000000E+00 0.  1.
     999901    1    3    3    0    0  0.62116063606E-01  0.10443320726E+00  0.50429104753E-01  0.88977963269E+00  0.88000000000E+00 0. -1.
        -11    1    4    4    0    0 -0.56130299420E-01 -0.80675922306E-01 -0.50919539228E-01  0.11068999751E+00  0.51100000000E-03 0. -1.
         11    1    4    4    0    0 -0.15953404986E-01 -0.87884808354E-02 -0.11772596784E-01  0.21693401810E-01  0.51100000000E-03 0.  1.
</event>
<event>
 8    1  0.1162192E+005  0.1043930E+01  0.7957747E-01            NaN
         13   -1    0    0    0    0  0.00000000000E+00  0.00000000000E+00  0.74505805969E-08  0.10566000000E+00  0.10566000000E+00 0.  1.
     999900   -1    0    0    0    0 -0.00000000000E+00 -0.00000000000E+00 -0.74505805969E-08  0.93827000000E+00  0.93827000000E+00 0. -1.
     999902    2    1    2    0    0 -0.21122920117E-01 -0.63604531612E-02  0.95906052224E-02  0.10198756277E+01  0.10195919199E+01 0.  0.
     999903    2    3    3    0    0  0.42468343410E-01  0.11913438467E+00 -0.95684401167E-02  0.12849474830E+00  0.20561699656E-01 0.  0.
         14    1    1    2    0    0  0.21122920117E-01  0.63604531612E-02 -0.95906052224E-02  0.24054372309E-01  0.00000000000E+00 0. -1.
     999901    1    3    3    0    0 -0.63591263527E-01 -0.12549483783E+00  0.19159045339E-01  0.89138087939E+00  0.88000000000E+00 0. -1.
        -11    1    4    4    0    0  0.16548392945E-01  0.56220243956E-01 -0.14160114076E-01  0.60293740066E-01  0.51100000000E-03 0. -1.
         11    1    4    4    0    0  0.25919950465E-01  0.62914140713E-01  0.45916739590E-02  0.68201008237E-01  0.51100000000E-03 0.  1.
</event>
<event>
 8    1  0.1162192E+005  0.1043930E+01  0.7957747E-01            NaN
         13   -1    0    0    0    0  0.00000000000E+00  0.00000000000E+00  0.74505805969E-08  0.10566000000E+00  0.10566000000E+00 0. -1.
     999900   -1    0    0    0    0 -0.00000000000E+00 -0.00000000000E+00 -0.74505805969E-08  0.93827000000E+00  0.93827000000E+00 0. -1.
     999902    2    1    2    0    0 -0.10934705688E-01 -0.11014200008E-01 -0.17402589300E-01  0.10206119704E+01  0.10203455609E+01 0.  0.
     999903    2    3    3    0    0 -0.31402998874E-01  0.89547169906E-02  0.12300734176E+00  0.12902201004E+00  0.21202303015E-01 0.  0.
         14    1    1    2    0    0  0.10934705688E-01  0.11014200008E-01  0.17402589300E-01  0.23318029604E-01  0.00000000000E+00 0. -1.
     999901    1    3    3    0    0  0.20468293186E-01 -0.19968916998E-01 -0.14040993106E+00  0.89158996036E+00  0.88000000000E+00 0. -1.
        -11    1    4    4    0    0 -0.17598965797E-01 -0.51906097858E-02  0.72374550009E-01  0.74665940275E-01  0.51100000000E-03 0.  1.
         11    1    4    4    0    0 -0.13804033077E-01  0.14145326776E-01  0.50632791749E-01  0.54356069763E-01  0.51100000000E-03 0. -1.
</event>
<event>
 8    1  0.1162192E+005  0.1043930E+01  0.7957747E-01            NaN
         13   -1    0    0    0    0  0.00000000000E+00  0.00000000000E+00  0.74505805969E-08  0.10566000000E+00  0.10566000000E+00 0. -1.
     999900   -1    0    0    0    0 -0.00000000000E+00 -0.00000000000E+00 -0.74505805969E-08  0.93827000000E+00  0.93827000000E+00 0.  1.
     999902    2    1    2    0    0  0.19760670717E-01  0.18365273893E-01 -0.38654469498E-02  0.10166773107E+01  0.10163119822E+01 0.  0.
     999903    2    3    3    0    0  0.43443373873E-01 -0.10824515527E+00  0.43022880778E-01  0.12606539386E+00  0.20908727498E-01 0.  0.
         14    1    1    2    0    0 -0.19760670717E-01 -0.18365273893E-01  0.38654469498E-02  0.27252689271E-01  0.00000000000E+00 0. -1.
     999901    1    3    3    0    0 -0.23682703156E-01  0.12661042916E+00 -0.46888327728E-01  0.89061191687E+00  0.88000000000E+00 0.  1.
        -11    1    4    4    0    0  0.24329119878E-01 -0.77010632796E-01  0.37439113594E-01  0.89019615734E-01  0.51100000000E-03 0.  1.
         11    1    4    4    0    0  0.19114253995E-01 -0.31234522470E-01  0.55837671839E-02  0.37045778122E-01  0.51100000000E-03 0. -1.
</event>
<event>
 8    1  0.1162192E+005  0.1043930E+01  0.7957747E-01            NaN
         13   -1    0    0    0    0  0.00000000000E+00  0.00000000000E+00  0.74505805969E-08  0.10566000000E+00  0.10566000000E+00 0.  1.
     999900   -1    0    0    0    0 -0.00000000000E+00 -0.00000000000E+00 -0.74505805969E-08  0.93827000000E+00  0.93827000000E+00 0. -1.
     999902    2    1    2    0    0  0.86017540609E-02 -0.17701627032E-01 -0.10632098339E-01  0.10215608407E+01  0.10213159021E+01 0.  0.
     999903    2    3    3    0    0  0.12629237133E+00  0.26132689113E-01  0.21221985954E-01  0.13207379114E+00  0.18985076263E-01 0.  0.
         14    1    1    2    0    0 -0.86017540609E-02  0.17701627032E-01  0.10632098339E-01  0.22369159296E-01  0.00000000000E+00 0.  1.
     999901    1    3    3    0    0 -0.11769061727E+00 -0.43834316145E-01 -0.31854084293E-01  0.88948704957E+00  0.88000000000E+00 0. -1.
        -11    1    4    4    0    0  0.58586226378E-01  0.37244515394E-02  0.49050817071E-02  0.58911275730E-01  0.51100000000E-03 0. -1.
         11    1    4    4    0    0  0.67706144951E-01  0.22408237573E-01  0.16316904247E-01  0.73162515406E-01  0.51100000000E-03 0.  1.
</event>
<event>
 8    1  0.1162192E+005  0.1043930E+01  0.7957747E-01            NaN
         13   -1    0    0    0    0  0.00000000000E+00  0.00000000000E+00  0.74505805969E-08  0.10566000000E+00  0.10566000000E+00 0.  1.
     999900   -1    0    0    0    0 -0.00000000000E+00 -0.00000000000E+00 -0.74505805969E-08  0.93827000000E+00  0.93827000000E+00 0.  1.
     999902    2    1    2    0    0  0.27106972145E-02 -0.14787893711E-01  0.26579158460E-01  0.10133934425E+01  0.10129332594E+01 0.  0.
     999903    2    3    3    0    0  0.10172377266E-03 -0.53694399002E-01  0.11468291755E+00  0.12813483889E+00  0.19577194032E-01 0.  0.
         14    1    1    2    0    0 -0.27106972145E-02  0.14787893711E-01 -0.26579158460E-01  0.30536557505E-01  0.00000000000E+00 0. -1.
     999901    1    3    3    0    0  0.26089734419E-02  0.38906505291E-01 -0.88103759093E-01  0.88525860361E+00  0.88000000000E+00 0.  1.
        -11    1    4    4    0    0  0.77632143966E-03 -0.30287790345E-01  0.42134051480E-01  0.51898866404E-01  0.51100000000E-03 0.  1.
         11    1    4    4    0    0 -0.67459766700E-03 -0.23406608657E-01  0.72548866074E-01  0.76235972483E-01  0.51100000000E-03 0. -1.
</event>
<event>
 8    1  0.1162192E+005  0.1043930E+01  0.7957747E-01            NaN
         13   -1    0    0    0    0  0.00000000000E+00  0.00000000000E+00  0.74505805969E-08  0.10566000000E+00  0.10566000000E+00 0.  1.
     999900   -1    0    0    0    0 -0.00000000000E+00 -0.00000000000E+00 -0.74505805969E-08  0.93827000000E+00  0.93827000000E+00 0. -1.
     999902    2    1    2    0    0  0.61509590477E-02 -0.22109212265E-01 -0.90790129067E-02  0.10192504530E+01  0.10189516210E+01 0.  0.
     999903    2    3    3    0    0 -0.86265086645E-01 -0.10782060790E-01 -0.94712052190E-01  0.13020487078E+00  0.20615953457E-01 0.  0.
         14    1    1    2    0    0 -0.61509590477E-02  0.22109212265E-01  0.90790129067E-02  0.24679546989E-01  0.00000000000E+00 0.  1.
     999901    1    3    3    0    0  0.92416045693E-01 -0.11327151475E-01  0.85633039283E-01  0.88904558223E+00  0.88000000000E+00 0.  1.
        -11    1    4    4    0    0 -0.67499879635E-01 -0.63352074873E-02 -0.84627600485E-01  0.10843643525E+00  0.51100000000E-03 0. -1.
         11    1    4    4    0    0 -0.18765207010E-01 -0.44468533028E-02 -0.10084451705E-01  0.21768435534E-01  0.51100000000E-03 0.  1.
</event>
<event>
 8    1  0.1162192E+005  0.1043930E+01  0.7957747E-01            NaN
         13   -1    0    0    0    0  0.00000000000E+00  0.00000000000E+00  0.74505805969E-08  0.10566000000E+00  0.10566000000E+00 0.  1.
     999900   -1    0    0    0    0 -0.00000000000E+00 -0.00000000000E+00 -0.74505805969E-08  0.93827000000E+00  0.93827000000E+00 0. -1.
     999902    2    1    2    0    0 -0.77108576434E-02  0.14447989639E-01 -0.17148153863E-01  0.10202179585E+01  0.10199423621E+01 0.  0.
     999903    2    3    3    0    0 -0.76852952586E-01 -0.95363018016E-02 -0.10580094852E+00  0.13274108923E+00  0.20713249086E-01 0.  0.
         14    1    1    2    0    0  0.77108576434E-02 -0.14447989639E-01  0.17148153863E-01  0.23712041479E-01  0.00000000000E+00 0. -1.
     999901    1    3    3    0    0  0.69142094943E-01  0.23984291440E-01  0.88652794661E-01  0.88747686929E+00  0.88000000000E+00 0.  1.
        -11    1    4    4    0    0 -0.15125457093E-01 -0.46313749742E-02 -0.36620433474E-01  0.39894189492E-01  0.51100000000E-03 0. -1.
         11    1    4    4    0    0 -0.61727495493E-01 -0.49049268274E-02 -0.69180515050E-01  0.92846899736E-01  0.51100000000E-03 0.  1.
</event>
<event>
 8    1  0.1162192E+005  0.1043930E+01  0.7957747E-01            NaN
         13   -1    0    0    0    0  0.00000000000E+00  0.00000000000E+00  0.74505805969E-08  0.10566000000E+00  0.10566000000E+00 0. -1.
     999900   -1    0    0    0    0 -0.00000000000E+00 -0.00000000000E+00 -0.74505805969E-08  0.93827000000E+00  0.93827000000E+00 0. -1.
     999902    2    1    2    0    0  0.15358735638E-01 -0.67980035568E-02 -0.16276699325E-01  0.10205412302E+01  0.10202731830E+01 0.  0.
     999903    2    3    3    0    0 -0.81015870545E-01 -0.90160394417E-03  0.97126366548E-01  0.12802619524E+00  0.19818966144E-01 0.  0.
         14    1    1    2    0    0 -0.15358735638E-01  0.67980035568E-02  0.16276699325E-01  0.23388769820E-01  0.00000000000E+00 0. -1.
     999901    1    3    3    0    0  0.96374606183E-01 -0.58963996127E-02 -0.11340306587E+00  0.89251503494E+00  0.88000000000E+00 0. -1.
        -11    1    4    4    0    0 -0.51175274334E-01 -0.96361677580E-02  0.65398301641E-01  0.83600020399E-01  0.51100000000E-03 0.  1.
         11    1    4    4    0    0 -0.29840596211E-01  0.87345638138E-02  0.31728064906E-01  0.44426174841E-01  0.51100000000E-03 0. -1.
</event>
<event>
 8    1  0.1162192E+005  0.1043930E+01  0.7957747E-01            NaN
         13   -1    0    0    0    0  0.00000000000E+00  0.00000000000E+00  0.74505805969E-08  0.10566000000E+00  0.10566000000E+00 0.  1.
     999900   -1    0    0    0    0 -0.00000000000E+00 -0.00000000000E+00 -0.74505805969E-08  0.93827000000E+00  0.93827000000E+00 0. -1.
     999902    2    1    2    0    0  0.53929660874E-02 -0.17080246454E-01  0.13894784096E-01  0.10212609919E+01  0.10210093681E+01 0.  0.
     999903    2    3    3    0    0 -0.74581383784E-02  0.98257575091E-01 -0.80332512438E-01  0.12865427708E+00  0.19708768764E-01 0.  0.
         14    1    1    2    0    0 -0.53929660874E-02  0.17080246454E-01 -0.13894784096E-01  0.22669008078E-01  0.00000000000E+00 0. -1.
     999901    1    3    3    0    0  0.12851104466E-01 -0.11533782155E+00  0.94227296534E-01  0.89260671484E+00  0.88000000000E+00 0.  1.
        -11    1    4    4    0    0 -0.10538318813E-01  0.57830025219E-01 -0.37790215793E-01  0.69883685585E-01  0.51100000000E-03 0. -1.
         11    1    4    4    0    0  0.30801804350E-02  0.40427549872E-01 -0.42542296645E-01  0.58770591498E-01  0.51100000000E-03 0.  1.
</event>
<event>
 8    1  0.1162192E+005  0.1043930E+01  0.7957747E-01            NaN
         13   -1    0    0    0    0  0.00000000000E+00  0.00000000000E+00  0.74505805969E-08  0.10566000000E+00  0.10566000000E+00 0.  1.
     999900   -1    0    0    0    0 -0.00000000000E+00 -0.00000000000E+00 -0.74505805969E-08  0.93827000000E+00  0.93827000000E+00 0. -1.
     999902    2    1    2    0    0 -0.54914268694E-02 -0.21844980764E-01  0.86818433035E-02  0.10197901293E+01  0.10195043769E+01 0.  0.
     999903    2    3    3    0    0  0.14476025976E-02 -0.55448886858E-01  0.11956194352E+00  0.13216871832E+00  0.98405872389E-02 0.  0.
         14    1    1    2    0    0  0.54914268694E-02  0.21844980764E-01 -0.86818433035E-02  0.24139870687E-01  0.00000000000E+00 0.  1.
     999901    1    3    3    0    0 -0.69390294670E-02  0.33603906094E-01 -0.11088010021E+00  0.88762141100E+00  0.88000000000E+00 0. -1.
        -11    1    4    4    0    0  0.49832934932E-02 -0.34189963489E-01  0.79222084697E-01  0.86430241479E-01  0.51100000000E-03 0. -1.
         11    1    4    4    0    0 -0.35356908956E-02 -0.21258923369E-01  0.40339858819E-01  0.45738476838E-01  0.51100000000E-03 0.  1.
</event>
<event>
 8    1  0.1162192E+005  0.1043930E+01  0.7957747E-01            NaN
         13   -1    0    0    0    0  0.00000000000E+00  0.00000000000E+00  0.74505805969E-08  0.10566000000E+00  0.10566000000E+00 0. -1.
     999900   -1    0    0    0    0 -0.00000000000E+00 -0.00000000000E+00 -0.74505805969E-08  0.93827000000E+00  0.93827000000E+00 0.  1.
     999902    2    1    2    0    0  0.99411667611E-02 -0.21122316419E-01  0.69361260772E-02  0.10195765836E+01  0.10192856915E+01 0.  0.
     999903    2    3    3    0    0  0.67965923989E-01  0.85696407543E-01  0.65464294030E-01  0.12929423582E+00  0.21637572305E-01 0.  0.
         14    1    1    2    0    0 -0.99411667611E-02  0.21122316419E-01 -0.69361260772E-02  0.24353416443E-01  0.00000000000E+00 0. -1.
     999901    1    3    3    0    0 -0.58024757228E-01 -0.10681872396E+00 -0.58528167953E-01  0.89028234773E+00  0.88000000000E+00 0.  1.
        -11    1    4    4    0    0  0.31168502153E-01  0.50555412552E-01  0.44707018902E-01  0.74339114367E-01  0.51100000000E-03 0.  1.
         11    1    4    4    0    0  0.36797421835E-01  0.35140994991E-01  0.20757275128E-01  0.54955121457E-01  0.51100000000E-03 0. -1.
</event>
<event>
 8    1  0.1162192E+005  0.1043930E+01  0.7957747E-01            NaN
         13   -1    0    0    0    0  0.00000000000E+00  0.00000000000E+00  0.74505805969E-08  0.10566000000E+00  0.10566000000E+00 0.  1.
     999900   -1    0    0    0    0 -0.00000000000E+00 -0.00000000000E+00 -0.74505805969E-08  0.93827000000E+00  0.93827000000E+00 0.  1.
     999902    2    1    2    0    0 -0.21034102237E-01 -0.21057799668E-03  0.12000032182E-01  0.10197126803E+01  0.10194250693E+01 0.  0.
     999903    2    3    3    0    0 -0.10060247663E+00 -0.81875182632E-01 -0.14273075330E-01  0.13196806050E+00  0.19683609357E-01 0.  0.
         14    1    1    2    0    0  0.21034102237E-01  0.21057799668E-03 -0.12000032182E-01  0.24217319678E-01  0.00000000000E+00 0.  1.
     999901    1    3    3    0    0  0.79568374390E-01  0.81664604635E-01  0.26273107511E-01  0.88774461983E+00  0.88000000000E+00 0.  1.
        -11    1    4    4    0    0 -0.24316822914E-01 -0.12892010132E-01 -0.90760453742E-02  0.28985298386E-01  0.51100000000E-03 0. -1.
         11    1    4    4    0    0 -0.76285653712E-01 -0.68983172500E-01 -0.51970299554E-02  0.10298276211E+00  0.51100000000E-03 0.  1.
</event>
<event>
 8    1  0.1162192E+005  0.1043930E+01  0.7957747E-01            NaN
         13   -1    0    0    0    0  0.00000000000E+00  0.00000000000E+00  0.74505805969E-08  0.10566000000E+00  0.10566000000E+00 0.  1.
     999900   -1    0    0    0    0 -0.00000000000E+00 -0.00000000000E+00 -0.74505805969E-08  0.93827000000E+00  0.93827000000E+00 0.  1.
     999902    2    1    2    0    0 -0.11600713110E-01  0.12709199583E-01 -0.16851517097E-01  0.10198452761E+01  0.10195608433E+01 0.  0.
     999903    2    3    3    0    0 -0.83709891894E-01  0.70228530403E-01 -0.73483362089E-01  0.13321380079E+00  0.20167293628E-01 0.  0.
         14    1    1    2    0    0  0.11600713110E-01 -0.12709199583E-01  0.16851517097E-01  0.24084723938E-01  0.00000000000E+00 0.  1.
     999901    1    3    3    0    0  0.72109178784E-01 -0.57519330820E-01  0.56631844992E-01  0.88663147528E+00  0.88000000000E+00 0.  1.
        -11    1    4    4    0    0 -0.72803655206E-01  0.57728881183E-01 -0.53425828716E-01  0.10718011116E+00  0.51100000000E-03 0. -1.
         11    1    4    4    0    0 -0.10906236688E-01  0.12499649220E-01 -0.20057533373E-01  0.26033689622E-01  0.51100000000E-03 0.  1.
</event>
<event>
 8    1  0.1162192E+005  0.1043930E+01  0.7957747E-01            NaN
         13   -1    0    0    0    0  0.00000000000E+00  0.00000000000E+00  0.74505805969E-08  0.10566000000E+00  0.10566000000E+00 0. -1.
     999900   -1    0    0    0    0 -0.00000000000E+00 -0.00000000000E+00 -0.74505805969E-08  0.93827000000E+00  0.93827000000E+00 0. -1.
     999902    2    1    2    0    0  0.14695828897E-01  0.14454405348E-01  0.11177014677E-01  0.10204816978E+01  0.10202122684E+01 0.  0.
     999903    2    3    3    0    0  0.12689156283E+00 -0.28888046525E-01 -0.24251541976E-02  0.13219600619E+00  0.23106594926E-01 0.  0.
         14    1    1    2    0    0 -0.14695828897E-01 -0.14454405348E-01 -0.11177014677E-01  0.23448302242E-01  0.00000000000E+00 0.  1.
     999901    1    3    3    0    0 -0.11219573394E+00  0.43342451873E-01  0.13602168875E-01  0.88828569157E+00  0.88000000000E+00 0.  1.
        -11    1    4    4    0    0  0.74763109698E-01 -0.15644961525E-01  0.98774118712E-02  0.77020203708E-01  0.51100000000E-03 0. -1.
         11    1    4    4    0    0  0.52128453135E-01 -0.13243085000E-01 -0.12302566069E-01  0.55175802481E-01  0.51100000000E-03 0.  1.
</event>
<event>
 8    1  0.1162192E+005  0.1043930E+01  0.7957747E-01            NaN
         13   -1    0    0    0    0  0.00000000000E+00  0.00000000000E+00  0.74505805969E-08  0.10566000000E+00  0.10566000000E+00 0. -1.
     999900   -1    0    0    0    0 -0.00000000000E+00 -0.00000000000E+00 -0.74505805969E-08  0.93827000000E+00  0.93827000000E+00 0.  1.
     999902    2    1    2    0    0  0.20947512905E-01  0.86507609212E-02 -0.39739051677E-02  0.10209207435E+01  0.10206614222E+01 0.  0.
     999903    2    3    3    0    0 -0.12413698619E+00 -0.51715209737E-02  0.25728931625E-01  0.12843946872E+00  0.19949517098E-01 0.  0.
         14    1    1    2    0    0 -0.20947512905E-01 -0.86507609212E-02  0.39739051677E-02  0.23009256478E-01  0.00000000000E+00 0.  1.
     999901    1    3    3    0    0  0.14508449910E+00  0.13822281895E-01 -0.29702836792E-01  0.89248127480E+00  0.88000000000E+00 0. -1.
        -11    1    4    4    0    0 -0.25398900946E-01  0.66984649086E-02  0.76079177555E-02  0.27351693457E-01  0.51100000000E-03 0.  1.
         11    1    4    4    0    0 -0.98738085248E-01 -0.11869985882E-01  0.18121013869E-01  0.10108777526E+00  0.51100000000E-03 0. -1.
</event>
<event>
 8    1  0.1365114E+005  0.1043930E+01  0.7957747E-01            NaN
         13   -1    0    0    0    0  0.00000000000E+00  0.00000000000E+00  0.74505805969E-08  0.10566000000E+00  0.10566000000E+00 0. -1.
     999900   -1    0    0    0    0 -0.00000000000E+00 -0.00000000000E+00 -0.74505805969E-08  0.93827000000E+00  0.93827000000E+00 0. -1.
     999902    2    1    2    0    0 -0.61531414207E-02 -0.21138201407E-01 -0.76526188033E-02  0.10206223343E+01  0.10203561642E+01 0.  0.
     999903    2    3    3    0    0  0.19568519572E-01 -0.46410063476E-02  0.12678239793E+00  0.12988862825E+00  0.19819521290E-01 0.  0.
         14    1    1    2    0    0  0.61531414207E-02  0.21138201407E-01  0.76526188033E-02  0.23307665747E-01  0.00000000000E+00 0. -1.
     999901    1    3    3    0    0 -0.25721660992E-01 -0.16497195059E-01 -0.13443501674E+00  0.89073370601E+00  0.88000000000E+00 0. -1.
        -11    1    4    4    0    0  0.80849480225E-02  0.64643695015E-02  0.74506723454E-01  0.75224114607E-01  0.51100000000E-03 0.  1.
         11    1    4    4    0    0  0.11483571549E-01 -0.11105375849E-01  0.52275674479E-01  0.54664513640E-01  0.51100000000E-03 0. -1.
</event>
<event>
 8    1  0.1162192E+005  0.1043930E+01  0.7957747E-01            NaN
         13   -1    0    0    0    0  0.00000000000E+00  0.00000000000E+00  0.74505805969E-08  0.10566000000E+00  0.10566000000E+00 0. -1.
     999900   -1    0    0    0    0 -0.00000000000E+00 -0.00000000000E+00 -0.74505805969E-08  0.93827000000E+00  0.93827000000E+00 0.  1.
     999902    2    1    2    0    0  0.22296988984E-01  0.12490232789E-02 -0.77787650322E-02  0.10202820622E+01  0.10200079713E+01 0.  0.
     999903    2    3    3    0    0 -0.45991153240E-01  0.18121609619E-03 -0.12045149062E+00  0.13047334473E+00  0.19987823249E-01 0.  0.
         14    1    1    2    0    0 -0.22296988984E-01 -0.12490232789E-02  0.77787650322E-02  0.23647937803E-01  0.00000000000E+00 0.  1.
     999901    1    3    3    0    0  0.68288142224E-01  0.10678071827E-02  0.11267272559E+00  0.88980871746E+00  0.88000000000E+00 0. -1.
        -11    1    4    4    0    0 -0.30343626350E-01  0.94251678730E-02 -0.81926700043E-01  0.87873857037E-01  0.51100000000E-03 0.  1.
         11    1    4    4    0    0 -0.15647526889E-01 -0.92439517768E-02 -0.38524790576E-01  0.42599487698E-01  0.51100000000E-03 0. -1.
</event>
<event>
 8    1  0.1162192E+005  0.1043930E+01  0.7957747E-01            NaN
         13   -1    0    0    0    0  0.00000000000E+00  0.00000000000E+00  0.74505805969E-08  0.10566000000E+00  0.10566000000E+00 0.  1.
     999900   -1    0    0    0    0 -0.00000000000E+00 -0.00000000000E+00 -0.74505805969E-08  0.93827000000E+00  0.93827000000E+00 0.  1.
     999902    2    1    2    0    0 -0.15391490014E-01  0.83127399572E-02 -0.14533989067E-01  0.10211871671E+01  0.10209338832E+01 0.  0.
     999903    2    3    3    0    0 -0.12329839754E+00 -0.36947087569E-01  0.24387956672E-01  0.13258868041E+00  0.20430458272E-01 0.  0.
         14    1    1    2    0    0  0.15391490014E-01 -0.83127399572E-02  0.14533989067E-01  0.22742832907E-01  0.00000000000E+00 0.  1.
     999901    1    3    3    0    0  0.10790690753E+00  0.45259827526E-01 -0.38921945739E-01  0.88859848669E+00  0.88000000000E+00 0.  1.
        -11    1    4    4    0    0 -0.79631724685E-01 -0.19319879280E-01  0.24387860727E-01  0.85495603300E-01  0.51100000000E-03 0.  1.
         11    1    4    4    0    0 -0.43666672857E-01 -0.17627208289E-01  0.95945157546E-07  0.47093077108E-01  0.51100000000E-03 0. -1.
</event>
<event>
 7    1  0.1162192E+005  0.1043930E+01  0.7957747E-01            NaN
         13   -1    0    0    0    0  0.00000000000E+00  0.00000000000E+00  0.74505805969E-08  0.10566000000E+00  0.10566000000E+00 0. -1.
     999900   -1    0    0    0    0 -0.00000000000E+00 -0.00000000000E+00 -0.74505805969E-08  0.93827000000E+00  0.93827000000E+00 0.  1.
     999903    2    1    2    0    0  0.83074002907E-01  0.38840800647E-02  0.24669842939E-01  0.89067617688E-01  0.20200577540E-01 0.  0.
         14    1    1    2    0    0  0.35098387349E-01  0.50732359924E-01 -0.21346425256E-01  0.65278932353E-01  0.00000000000E+00 0.  1.
     999901    1    1    2    0    0 -0.11817239026E+00 -0.54616439989E-01 -0.33234176834E-02  0.88958344996E+00  0.88000000000E+00 0. -1.
        -11    1    3    3    0    0  0.19864825242E-01  0.88803060356E-02  0.25618112103E-02  0.21915636309E-01  0.51100000000E-03 0. -1.
         11    1    3    3    0    0  0.63209177666E-01 -0.49962259708E-02  0.22108031729E-01  0.67151981378E-01  0.51100000000E-03 0.  1.
</event>
<event>
 8    1  0.1162192E+005  0.1043930E+01  0.7957747E-01            NaN
         13   -1    0    0    0    0  0.00000000000E+00  0.00000000000E+00  0.74505805969E-08  0.10566000000E+00  0.10566000000E+00 0. -1.
     999900   -1    0    0    0    0 -0.00000000000E+00 -0.00000000000E+00 -0.74505805969E-08  0.93827000000E+00  0.93827000000E+00 0. -1.
     999902    2    1    2    0    0 -0.95749662606E-02  0.18461055097E-01  0.11467309135E-01  0.10201815324E+01  0.10199050786E+01 0.  0.
     999903    2    3    3    0    0 -0.65192605904E-01  0.11421480373E+00  0.89154314183E-02  0.13323812142E+00  0.19437459384E-01 0.  0.
         14    1    1    2    0    0  0.95749662606E-02 -0.18461055097E-01 -0.11467309135E-01  0.23748467593E-01  0.00000000000E+00 0. -1.
     999901    1    3    3    0    0  0.55617639644E-01 -0.95753748628E-01  0.25518777169E-02  0.88694341099E+00  0.88000000000E+00 0.  1.
        -11    1    4    4    0    0 -0.18697893085E-01  0.47746148179E-01  0.93195141399E-02  0.52119289486E-01  0.51100000000E-03 0. -1.
         11    1    4    4    0    0 -0.46494712820E-01  0.66468655546E-01 -0.40408272161E-03  0.81118831933E-01  0.51100000000E-03 0.  1.
</event>
<event>
 8    1  0.1162192E+005  0.1043930E+01  0.7957747E-01            NaN
         13   -1    0    0    0    0  0.00000000000E+00  0.00000000000E+00  0.74505805969E-08  0.10566000000E+00  0.10566000000E+00 0. -1.
     999900   -1    0    0    0    0 -0.00000000000E+00 -0.00000000000E+00 -0.74505805969E-08  0.93827000000E+00  0.93827000000E+00 0.  1.
     999902    2    1    2    0    0 -0.21653195648E-02 -0.22956452771E-01  0.11832269751E-01  0.10180130183E+01  0.10176830624E+01 0.  0.
     999903    2    3    3    0    0 -0.11189968434E+00 -0.59954267898E-01  0.21442340285E-01  0.13037411504E+00  0.20532469919E-01 0.  0.
         14    1    1    2    0    0  0.21653195648E-02  0.22956452771E-01 -0.11832269751E-01  0.25916981694E-01  0.00000000000E+00 0.  1.
     999901    1    3    3    0    0  0.10973436477E+00  0.36997815126E-01 -0.96100705348E-02  0.88763890327E+00  0.88000000000E+00 0.  1.
        -11    1    4    4    0    0 -0.66313689093E-01 -0.32716999247E-01  0.24935253093E-02  0.73989095078E-01  0.51100000000E-03 0.  1.
         11    1    4    4    0    0 -0.45585995246E-01 -0.27237268650E-01  0.18948814976E-01  0.56385019962E-01  0.51100000000E-03 0. -1.
</event>
<event>
 8    1  0.1162192E+005  0.1043930E+01  0.7957747E-01            NaN
         13   -1    0    0    0    0  0.00000000000E+00  0.00000000000E+00  0.74505805969E-08  0.10566000000E+00  0.10566000000E+00 0. -1.
     999900   -1    0    0    0    0 -0.00000000000E+00 -0.00000000000E+00 -0.74505805969E-08  0.93827000000E+00  0.93827000000E+00 0.  1.
     999902    2    1    2    0    0  0.89777392178E-02  0.17682848446E-01  0.11989494587E-01  0.10207560726E+01  0.10204929832E+01 0.  0.
     999903    2    3    3    0    0  0.17884217648E-01  0.85831120205E-02 -0.12495017298E+00  0.13007397268E+00  0.30218828402E-01 0.  0.
         14    1    1    2    0    0 -0.89777392178E-02 -0.17682848446E-01 -0.11989494587E-01  0.23173927399E-01  0.00000000000E+00 0.  1.
     999901    1    3    3    0    0 -0.89064784299E-02  0.90997364255E-02  0.13693966756E+00  0.89068209992E+00  0.88000000000E+00 0. -1.
        -11    1    4    4    0    0  0.55607728146E-02  0.35551649301E-02 -0.10939619414E+00  0.10959630379E+00  0.51100000000E-03 0.  1.
         11    1    4    4    0    0  0.12323444833E-01  0.50279470904E-02 -0.15553978836E-01  0.20477668889E-01  0.51100000000E-03 0. -1.
</event>
<event>
 8    1  0.1162192E+005  0.1043930E+01  0.7957747E-01            NaN
         13   -1    0    0    0    0  0.00000000000E+00  0.00000000000E+00  0.74505805969E-08  0.10566000000E+00  0.10566000000E+00 0. -1.
     999900   -1    0    0    0    0 -0.00000000000E+00 -0.00000000000E+00 -0.74505805969E-08  0.93827000000E+00  0.93827000000E+00 0.  1.
     999902    2    1    2    0    0  0.17473440319E-01 -0.51914801356E-02  0.13901670347E-01  0.10210055802E+01  0.10207481893E+01 0.  0.
     999903    2    3    3    0    0 -0.43867972598E-01 -0.72679043019E-01  0.99240487988E-01  0.13218610821E+00  0.20441390183E-01 0.  0.
         14    1    1    2    0    0 -0.17473440319E-01  0.51914801356E-02 -0.13901670347E-01  0.22924419753E-01  0.00000000000E+00 0. -1.
     999901    1    3    3    0    0  0.61341412917E-01  0.67487562883E-01 -0.85338817641E-01  0.88881947204E+00  0.88000000000E+00 0. -1.
        -11    1    4    4    0    0 -0.35028121529E-02 -0.41494187900E-02  0.16670394518E-01  0.17539969888E-01  0.51100000000E-03 0.  1.
         11    1    4    4    0    0 -0.40365160445E-01 -0.68529624229E-01  0.82570093470E-01  0.11464613832E+00  0.51100000000E-03 0. -1.
</event>
<event>
 8    1  0.1162192E+005  0.1043930E+01  0.7957747E-01            NaN
         13   -1    0    0    0    0  0.00000000000E+00  0.00000000000E+00  0.74505805969E-08  0.10566000000E+00  0.10566000000E+00 0.  1.
     999900   -1    0    0    0    0 -0.00000000000E+00 -0.00000000000E+00 -0.74505805969E-08  0.93827000000E+00  0.93827000000E+00 0. -1.
     999902    2    1    2    0    0 -0.14733678054E-01  0.10544696207E-02 -0.14921382327E-01  0.10229337902E+01  0.10227182888E+01 0.  0.
     999903    2    3    3    0    0  0.18036839443E-01  0.12496922885E+00  0.34008054081E-01  0.13230319107E+00  0.20123391590E-01 0.  0.
         14    1    1    2    0    0  0.14733678054E-01 -0.10544696207E-02  0.14921382327E-01  0.20996209794E-01  0.00000000000E+00 0.  1.
     999901    1    3    3    0    0 -0.32770517498E-01 -0.12391475923E+00 -0.48929436407E-01  0.89063059914E+00  0.88000000000E+00 0. -1.
        -11    1    4    4    0    0  0.27196534414E-02  0.29106891386E-01 -0.58574143369E-03  0.29244005455E-01  0.51100000000E-03 0. -1.
         11    1    4    4    0    0  0.15317186002E-01  0.95862337461E-01  0.34593795514E-01  0.10305918561E+00  0.51100000000E-03 0.  1.
</event>
<event>
 8    1  0.1162192E+005  0.1043930E+01  0.7957747E-01            NaN
         13   -1    0    0    0    0  0.00000000000E+00  0.00000000000E+00  0.74505805969E-08  0.10566000000E+00  0.10566000000E+00 0. -1.
     999900   -1    0    0    0    0 -0.00000000000E+00 -0.00000000000E+00 -0.74505805969E-08  0.93827000000E+00  0.93827000000E+00 0. -1.
     999902    2    1    2    0    0  0.19902392559E-01  0.12208725573E-01  0.21380129639E-02  0.10204836931E+01  0.10202143101E+01 0.  0.
     999903    2    3    3    0    0 -0.12189102765E+00  0.27003562380E-02 -0.34660898001E-01  0.12832342554E+00  0.20020218420E-01 0.  0.
         14    1    1    2    0    0 -0.19902392559E-01 -0.12208725573E-01 -0.21380129639E-02  0.23446306940E-01  0.00000000000E+00 0.  1.
     999901    1    3    3    0    0  0.14179342021E+00  0.95083693353E-02  0.36798910965E-01  0.89216026752E+00  0.88000000000E+00 0.  1.
        -11    1    4    4    0    0 -0.31026780997E-01  0.87003438824E-02 -0.54190057604E-02  0.32680022447E-01  0.51100000000E-03 0.  1.
         11    1    4    4    0    0 -0.90864246653E-01 -0.59999876444E-02 -0.29241892241E-01  0.95643403088E-01  0.51100000000E-03 0. -1.
</event>
<event>
 8    1  0.1162192E+005  0.1043930E+01  0.7957747E-01            NaN
         13   -1    0    0    0    0  0.00000000000E+00  0.00000000000E+00  0.74505805969E-08  0.10566000000E+00  0.10566000000E+00 0. -1.
     999900   -1    0    0    0    0 -0.00000000000E+00 -0.00000000000E+00 -0.74505805969E-08  0.93827000000E+00  0.93827000000E+00 0.  1.
     999902    2    1    2    0    0 -0.19699936198E-01 -0.12594614228E-01  0.75066981397E-03  0.10205360841E+01  0.10202679176E+01 0.  0.
     999903    2    3    3    0    0 -0.12869505068E+00  0.18672083733E-01 -0.19464231784E-01  0.13303048775E+00  0.20178988384E-01 0.  0.
         14    1    1    2    0    0  0.19699936198E-01  0.12594614228E-01 -0.75066981397E-03  0.23393915852E-01  0.00000000000E+00 0. -1.
     999901    1    3    3    0    0  0.10899511448E+00 -0.31266697961E-01  0.20214901598E-01  0.88750559639E+00  0.88000000000E+00 0. -1.
        -11    1    4    4    0    0 -0.35555182194E-01 -0.36125956741E-02 -0.31451321140E-02  0.35880005649E-01  0.51100000000E-03 0.  1.
         11    1    4    4    0    0 -0.93139868488E-01  0.22284679407E-01 -0.16319099670E-01  0.97150482105E-01  0.51100000000E-03 0. -1.
</event>
<event>
 8    1  0.1162192E+005  0.1043930E+01  0.7957747E-01            NaN
         13   -1    0    0    0    0  0.00000000000E+00  0.00000000000E+00  0.74505805969E-08  0.10566000000E+00  0.10566000000E+00 0.  1.
     999900   -1    0    0    0    0 -0.00000000000E+00 -0.00000000000E+00 -0.74505805969E-08  0.93827000000E+00  0.93827000000E+00 0. -1.
     999902    2    1    2    0    0 -0.10458287137E-02 -0.28899779550E-03  0.23885345117E-01  0.10200200232E+01  0.10197397515E+01 0.  0.
     999903    2    3    3    0    0 -0.58173662699E-01  0.79219747234E-01 -0.80051421442E-01  0.12851114420E+00  0.21140972690E-01 0.  0.
         14    1    1    2    0    0  0.10458287137E-02  0.28899779550E-03 -0.23885345117E-01  0.23909976762E-01  0.00000000000E+00 0. -1.
     999901    1    3    3    0    0  0.57127833986E-01 -0.79508745029E-01  0.10393676656E+00  0.89150887903E+00  0.88000000000E+00 0.  1.
        -11    1    4    4    0    0 -0.27400287580E-01  0.39530003782E-01 -0.52587258192E-01  0.71267649068E-01  0.51100000000E-03 0. -1.
         11    1    4    4    0    0 -0.30773375119E-01  0.39689743451E-01 -0.27464163250E-01  0.57243495137E-01  0.51100000000E-03 0.  1.
</event>
<event>
 8    1  0.1162192E+005  0.1043930E+01  0.7957747E-01            NaN
         13   -1    0    0    0    0  0.00000000000E+00  0.00000000000E+00  0.74505805969E-08  0.10566000000E+00  0.10566000000E+00 0.  1.
     999900   -1    0    0    0    0 -0.00000000000E+00 -0.00000000000E+00 -0.74505805969E-08  0.93827000000E+00  0.93827000000E+00 0.  1.
     999902    2    1    2    0    0 -0.11741774233E-01  0.17054835675E-01  0.12395370412E-01  0.10197974102E+01  0.10195118322E+01 0.  0.
     999903    2    3    3    0    0 -0.11584029830E+00  0.35888926765E-01 -0.46663532381E-01  0.13149612141E+00  0.20168165931E-01 0.  0.
         14    1    1    2    0    0  0.11741774233E-01 -0.17054835675E-01 -0.12395370412E-01  0.24132589784E-01  0.00000000000E+00 0.  1.
     999901    1    3    3    0    0  0.10409852406E+00 -0.18834091090E-01  0.59058902793E-01  0.88830128881E+00  0.88000000000E+00 0. -1.
        -11    1    4    4    0    0 -0.77028013829E-01  0.31420531546E-01 -0.25239545534E-01  0.86935956295E-01  0.51100000000E-03 0.  1.
         11    1    4    4    0    0 -0.38812284468E-01  0.44683952188E-02 -0.21423986847E-01  0.44560165113E-01  0.51100000000E-03 0. -1.
</event>
<event>
 8    1  0.1162192E+005  0.1043930E+01  0.7957747E-01            NaN
         13   -1    0    0    0    0  0.00000000000E+00  0.00000000000E+00  0.74505805969E-08  0.10566000000E+00  0.10566000000E+00 0. -1.
     999900   -1    0    0    0    0 -0.00000000000E+00 -0.00000000000E+00 -0.74505805969E-08  0.93827000000E+00  0.93827000000E+00 0. -1.
     999902    2    1    2    0    0  0.12984233541E-01 -0.86123548394E-02  0.16926661836E-01  0.10209240256E+01  0.10206647791E+01 0.  0.
     999903    2    3    3    0    0  0.11158528204E+00  0.52574820406E-01 -0.40607127488E-01  0.13144318035E+00  0.20322006488E-01 0.  0.
         14    1    1    2    0    0 -0.12984233541E-01  0.86123548394E-02 -0.16926661836E-01  0.23005974386E-01  0.00000000000E+00 0. -1.
     999901    1    3    3    0    0 -0.98601048504E-01 -0.61187175245E-01  0.57533789324E-01  0.88948084527E+00  0.88000000000E+00 0. -1.
        -11    1    4    4    0    0  0.46035330193E-01  0.19392480786E-01 -0.26781188984E-01  0.56681682591E-01  0.51100000000E-03 0. -1.
         11    1    4    4    0    0  0.65549951851E-01  0.33182339620E-01 -0.13825938504E-01  0.74761497757E-01  0.51100000000E-03 0.  1.
</event>
<event>
 8    1  0.1162192E+005  0.1043930E+01  0.7957747E-01            NaN
         13   -1    0    0    0    0  0.00000000000E+00  0.00000000000E+00  0.74505805969E-08  0.10566000000E+00  0.10566000000E+00 0. -1.
     999900   -1    0    0    0    0 -0.00000000000E+00 -0.00000000000E+00 -0.74505805969E-08  0.93827000000E+00  0.93827000000E+00 0.  1.
     999902    2    1    2    0    0  0.14694292036E-01  0.17182998498E-01  0.87272375162E-02  0.10196948534E+01  0.10194068137E+01 0.  0.
     999903    2    3    3    0    0 -0.53554979378E-01  0.97564906693E-01  0.67267417160E-01  0.13146843697E+00  0.19287241242E-01 0.  0.
         14    1    1    2    0    0 -0.14694292036E-01 -0.17182998498E-01 -0.87272375162E-02  0.24235146595E-01  0.00000000000E+00 0. -1.
     999901    1    3    3    0    0  0.68249271414E-01 -0.80381908194E-01 -0.58540179643E-01  0.88822641643E+00  0.88000000000E+00 0.  1.
        -11    1    4    4    0    0 -0.15397907503E-01  0.31870280583E-01  0.11485499326E-01  0.37215429000E-01  0.51100000000E-03 0.  1.
         11    1    4    4    0    0 -0.38157071876E-01  0.65694626110E-01  0.55781917833E-01  0.94253007973E-01  0.51100000000E-03 0. -1.
</event>
<event>
 8    1  0.1162192E+005  0.1043930E+01  0.7957747E-01            NaN
         13   -1    0    0    0    0  0.00000000000E+00  0.00000000000E+00  0.74505805969E-08  0.10566000000E+00  0.10566000000E+00 0.  1.
     999900   -1    0    0    0    0 -0.00000000000E+00 -0.00000000000E+00 -0.74505805969E-08  0.93827000000E+00  0.93827000000E+00 0.  1.
     999902    2    1    2    0    0  0.17528546188E-01  0.47809760191E-02 -0.14174918961E-01  0.10208857818E+01  0.10206256628E+01 0.  0.
     999903    2    3    3    0    0  0.87845396311E-01 -0.96512887965E-01  0.91845831821E-02  0.13198164042E+00  0.17413949661E-01 0.  0.
         14    1    1    2    0    0 -0.17528546188E-01 -0.47809760191E-02  0.14174918961E-01  0.23044218163E-01  0.00000000000E+00 0. -1.
     999901    1    3    3    0    0 -0.70316850123E-01  0.10129386398E+00 -0.23359502144E-01  0.88890414142E+00  0.88000000000E+00 0. -1.
        -11    1    4    4    0    0  0.64055433040E-01 -0.68314935960E-01  0.14289432982E-01  0.94733721520E-01  0.51100000000E-03 0. -1.
         11    1    4    4    0    0  0.23789963272E-01 -0.28197952005E-01 -0.51048498000E-02  0.37247918898E-01  0.51100000000E-03 0.  1.
</event>
<event>
 8    1  0.1162192E+005  0.1043930E+01  0.7957747E-01            NaN
         13   -1    0    0    0    0  0.00000000000E+00  0.00000000000E+00  0.74505805969E-08  0.10566000000E+00  0.10566000000E+00 0.  1.
     999900   -1    0    0    0    0 -0.00000000000E+00 -0.00000000000E+00 -0.74505805969E-08  0.93827000000E+00  0.93827000000E+00 0. -1.
     999902    2    1    2    0    0 -0.16675526771E-01  0.17489009851E-02  0.17435119640E-01  0.10197408445E+01  0.10194539100E+01 0.  0.
     999903    2    3    3    0    0 -0.32654243136E-01 -0.91652490622E-01 -0.82280839147E-01  0.12905436105E+00  0.20455145657E-01 0.  0.
         14    1    1    2    0    0  0.16675526771E-01 -0.17489009851E-02 -0.17435119640E-01  0.24189155517E-01  0.00000000000E+00 0. -1.
     999901    1    3    3    0    0  0.15978716365E-01  0.93401391607E-01  0.99715958787E-01  0.89068648343E+00  0.88000000000E+00 0.  1.
        -11    1    4    4    0    0 -0.72182890246E-02 -0.24714603722E-01 -0.10961160815E-01  0.27987917053E-01  0.51100000000E-03 0. -1.
         11    1    4    4    0    0 -0.25435954111E-01 -0.66937886900E-01 -0.71319678332E-01  0.10106644400E+00  0.51100000000E-03 0.  1.
</event>
<event>
 8    1  0.1162192E+005  0.1043930E+01  0.7957747E-01            NaN
         13   -1    0    0    0    0  0.00000000000E+00  0.00000000000E+00  0.74505805969E-08  0.10566000000E+00  0.10566000000E+00 0.  1.
     999900   -1    0    0    0    0 -0.00000000000E+00 -0.00000000000E+00 -0.74505805969E-08  0.93827000000E+00  0.93827000000E+00 0.  1.
     999902    2    1    2    0    0 -0.10367303593E-01 -0.15682694765E-01  0.20840003087E-01  0.10158634073E+01  0.10154756169E+01 0.  0.
     999903    2    3    3    0    0 -0.92592015795E-01  0.72586031602E-01 -0.38810460865E-01  0.12563284769E+00  0.20864974818E-01 0.  0.
         14    1    1    2    0    0  0.10367303593E-01  0.15682694765E-01 -0.20840003087E-01  0.28066592732E-01  0.00000000000E+00 0. -1.
     999901    1    3    3    0    0  0.82224712202E-01 -0.88268726368E-01  0.59650463953E-01  0.89023055957E+00  0.88000000000E+00 0. -1.
        -11    1    4    4    0    0 -0.67718020761E-01  0.58232216510E-01 -0.37537726413E-01  0.96881697966E-01  0.51100000000E-03 0. -1.
         11    1    4    4    0    0 -0.24873995034E-01  0.14353815092E-01 -0.12727344520E-02  0.28751149727E-01  0.51100000000E-03 0.  1.
</event>
<event>
 8    1  0.1162192E+005  0.1043930E+01  0.7957747E-01            NaN
         13   -1    0    0    0    0  0.00000000000E+00  0.00000000000E+00  0.74505805969E-08  0.10566000000E+00  0.10566000000E+00 0.  1.
     999900   -1    0    0    0    0 -0.00000000000E+00 -0.00000000000E+00 -0.74505805969E-08  0.93827000000E+00  0.93827000000E+00 0.  1.
     999902    2    1    2    0    0 -0.30091822756E-03 -0.87671700190E-02 -0.22837030644E-01  0.10194660716E+01  0.10191725013E+01 0.  0.
     999903    2    3    3    0    0 -0.12765483193E+00 -0.91747971472E-02 -0.13803024443E-01  0.13025248720E+00  0.19880993921E-01 0.  0.
         14    1    1    2    0    0  0.30091822756E-03  0.87671700190E-02  0.22837030644E-01  0.24463928355E-01  0.00000000000E+00 0.  1.
     999901    1    3    3    0    0  0.12735391370E+00  0.40762712821E-03 -0.90340062009E-02  0.88921358445E+00  0.88000000000E+00 0. -1.
        -11    1    4    4    0    0 -0.52060405223E-01 -0.43019800973E-02 -0.15464493642E-01  0.54481230799E-01  0.51100000000E-03 0. -1.
         11    1    4    4    0    0 -0.75594426709E-01 -0.48728170499E-02  0.16614691990E-02  0.75771256400E-01  0.51100000000E-03 0.  1.
</event>
<event>
 8    1  0.1162192E+005  0.1043930E+01  0.7957747E-01            NaN
         13   -1    0    0    0    0  0.00000000000E+00  0.00000000000E+00  0.74505805969E-08  0.10566000000E+00  0.10566000000E+00 0. -1.
     999900   -1    0    0    0    0 -0.00000000000E+00 -0.00000000000E+00 -0.74505805969E-08  0.93827000000E+00  0.93827000000E+00 0. -1.
     999902    2    1    2    0    0  0.23833947630E-01 -0.88578799287E-02  0.81271242487E-02  0.10172360073E+01  0.10168856993E+01 0.  0.
     999903    2    3    3    0    0  0.10426272850E+00 -0.65117542696E-01  0.41263220484E-01  0.13115929545E+00  0.19725529090E-01 0.  0.
         14    1    1    2    0    0 -0.23833947630E-01  0.88578799287E-02 -0.81271242487E-02  0.26693992677E-01  0.00000000000E+00 0.  1.
     999901    1    3    3    0    0 -0.80428780869E-01  0.56259662768E-01 -0.33136096236E-01  0.88607671187E+00  0.88000000000E+00 0. -1.
        -11    1    4    4    0    0  0.77669657738E-01 -0.56153437537E-01  0.37148754140E-01  0.10279141664E+00  0.51100000000E-03 0.  1.
         11    1    4    4    0    0  0.26593070761E-01 -0.89641051591E-02  0.41144663441E-02  0.28367878809E-01  0.51100000000E-03 0. -1.
</event>
<event>
 8    1  0.1162192E+005  0.1043930E+01  0.7957747E-01            NaN
         13   -1    0    0    0    0  0.00000000000E+00  0.00000000000E+00  0.74505805969E-08  0.10566000000E+00  0.10566000000E+00 0.  1.
     999900   -1    0    0    0    0 -0.00000000000E+00 -0.00000000000E+00 -0.74505805969E-08  0.93827000000E+00  0.93827000000E+00 0. -1.
     999902    2    1    2    0    0 -0.22411664316E-01 -0.11817484683E-02 -0.80103403278E-02  0.10201005061E+01  0.10198221403E+01 0.  0.
     999903    2    3    3    0    0  0.78580091340E-01  0.37488624234E-01  0.91658783496E-01  0.12789611995E+00  0.19387037032E-01 0.  0.
         14    1    1    2    0    0  0.22411664316E-01  0.11817484683E-02  0.80103403278E-02  0.23829493890E-01  0.00000000000E+00 0.  1.
     999901    1    3    3    0    0 -0.10099175566E+00 -0.38670372702E-01 -0.99669123824E-01  0.89220438616E+00  0.88000000000E+00 0.  1.
        -11    1    4    4    0    0  0.36141119026E-01  0.21438793064E-01  0.31380058125E-01  0.52447797870E-01  0.51100000000E-03 0.  1.
         11    1    4    4    0    0  0.42438972315E-01  0.16049831170E-01  0.60278725372E-01  0.75448322083E-01  0.51100000000E-03 0. -1.
</event>
<event>
 8    1  0.1162192E+005  0.1043930E+01  0.7957747E-01            NaN
         13   -1    0    0    0    0  0.00000000000E+00  0.00000000000E+00  0.74505805969E-08  0.10566000000E+00  0.10566000000E+00 0.  1.
     999900   -1    0    0    0    0 -0.00000000000E+00 -0.00000000000E+00 -0.74505805969E-08  0.93827000000E+00  0.93827000000E+00 0.  1.
     999902    2    1    2    0    0 -0.14290467500E-01 -0.18954039335E-01  0.68338279416E-02  0.10192282941E+01  0.10189289187E+01 0.  0.
     999903    2    3    3    0    0 -0.14370813516E-02 -0.40984821269E-01 -0.12104623108E+00  0.12961946190E+00  0.21614672499E-01 0.  0.
         14    1    1    2    0    0  0.14290467500E-01  0.18954039335E-01 -0.68338279416E-02  0.24701705869E-01  0.00000000000E+00 0. -1.
     999901    1    3    3    0    0 -0.12853386149E-01  0.22030781934E-01  0.12788005902E+00  0.88960883223E+00  0.88000000000E+00 0. -1.
        -11    1    4    4    0    0 -0.19981615340E-02  0.19813740514E-02 -0.13618737891E-01  0.13915805237E-01  0.51100000000E-03 0.  1.
         11    1    4    4    0    0  0.56108018239E-03 -0.42966195321E-01 -0.10742749319E+00  0.11570365666E+00  0.51100000000E-03 0. -1.
</event>
<event>
 7    1  0.1162192E+005  0.1043930E+01  0.7957747E-01            NaN
         13   -1    0    0    0    0  0.00000000000E+00  0.00000000000E+00  0.74505805969E-08  0.10566000000E+00  0.10566000000E+00 0. -1.
     999900   -1    0    0    0    0 -0.00000000000E+00 -0.00000000000E+00 -0.74505805969E-08  0.93827000000E+00  0.93827000000E+00 0. -1.
     999902    2    1    2    0    0  0.19304772229E-01  0.33005889186E-02  0.13320345331E-01  0.10202445674E+01  0.10199695964E+01 0.  0.
         14    1    1    2    0    0 -0.19304772229E-01 -0.33005889186E-02 -0.13320345331E-01  0.23685432607E-01  0.00000000000E+00 0.  1.
     999901    1    3    3    0    0  0.58991346022E-01 -0.61867813910E-01 -0.84523464948E-01  0.88817330597E+00  0.88000000000E+00 0. -1.
        -11    1    3    3    0    0 -0.20035983269E-01  0.97849658065E-02  0.54980187906E-01  0.59331849496E-01  0.51100000000E-03 0. -1.
         11    1    3    3    0    0 -0.19650590523E-01  0.55383437022E-01  0.42863622373E-01  0.72739411932E-01  0.51100000000E-03 0.  1.
</event>
<event>
 8    1  0.1162192E+005  0.1043930E+01  0.7957747E-01            NaN
         13   -1    0    0    0    0  0.00000000000E+00  0.00000000000E+00  0.74505805969E-08  0.10566000000E+00  0.10566000000E+00 0. -1.
     999900   -1    0    0    0    0 -0.00000000000E+00 -0.00000000000E+00 -0.74505805969E-08  0.93827000000E+00  0.93827000000E+00 0. -1.
     999902    2    1    2    0    0 -0.10626356939E-01  0.18277411416E-01 -0.11194872047E-01  0.10200070322E+01  0.10197264522E+01 0.  0.
     999903    2    3    3    0    0 -0.74129040016E-01  0.39273383422E-01  0.98166719109E-01  0.13071890157E+00  0.20327647867E-01 0.  0.
         14    1    1    2    0    0  0.10626356939E-01 -0.18277411416E-01  0.11194872047E-01  0.23922967834E-01  0.00000000000E+00 0.  1.
     999901    1    3    3    0    0  0.63502683077E-01 -0.20995972005E-01 -0.10936159116E+00  0.88928813060E+00  0.88000000000E+00 0. -1.
        -11    1    4    4    0    0 -0.20118367826E-01  0.21299476015E-01  0.36207420087E-01  0.46579553378E-01  0.51100000000E-03 0.  1.
         11    1    4    4    0    0 -0.54010672190E-01  0.17973907407E-01  0.61959299022E-01  0.84139348192E-01  0.51100000000E-03 0. -1.
</event>
<event>
 8    1  0.1162192E+005  0.1043930E+01  0.7957747E-01            NaN
         13   -1    0    0    0    0  0.00000000000E+00  0.00000000000E+00  0.74505805969E-08  0.10566000000E+00  0.10566000000E+00 0. -1.
     999900   -1    0    0    0    0 -0.00000000000E+00 -0.00000000000E+00 -0.74505805969E-08  0.93827000000E+00  0.93827000000E+00 0.  1.
     999902    2    1    2    0    0 -0.21935810639E-01  0.11385390036E-01 -0.17191229461E-02  0.10191557739E+01  0.10188546163E+01 0.  0.
     999903    2    3    3    0    0 -0.36817458484E-01  0.57567083600E-01 -0.11004370235E+00  0.13118706570E+00  0.20758983957E-01 0.  0.
         14    1    1    2    0    0  0.21935810639E-01 -0.11385390036E-01  0.17191229461E-02  0.24774226090E-01  0.00000000000E+00 0.  1.
     999901    1    3    3    0    0  0.14881647844E-01 -0.46181693564E-01  0.10832457941E+00  0.88796870821E+00  0.88000000000E+00 0. -1.
        -11    1    4    4    0    0 -0.28731140523E-01  0.34438520959E-01 -0.55259800898E-01  0.71171601625E-01  0.51100000000E-03 0. -1.
         11    1    4    4    0    0 -0.80863179602E-02  0.23128562641E-01 -0.54783901455E-01  0.60015464071E-01  0.51100000000E-03 0.  1.
</event>
<event>
 8    1  0.1162192E+005  0.1043930E+01  0.7957747E-01            NaN
         13   -1    0    0    0    0  0.00000000000E+00  0.00000000000E+00  0.74505805969E-08  0.10566000000E+00  0.10566000000E+00 0. -1.
     999900   -1    0    0    0    0 -0.00000000000E+00 -0.00000000000E+00 -0.74505805969E-08  0.93827000000E+00  0.93827000000E+00 0. -1.
     999902    2    1    2    0    0 -0.13464413621E-01  0.16366452881E-01 -0.10966688047E-01  0.10200674884E+01  0.10197883415E+01 0.  0.
     999903    2    3    3    0    0 -0.49048378138E-01  0.12066755829E+00 -0.13878189641E-01  0.13318902097E+00  0.24089585635E-01 0.  0.
         14    1    1    2    0    0  0.13464413621E-01 -0.16366452881E-01  0.10966688047E-01  0.23862511619E-01  0.00000000000E+00 0.  1.
     999901    1    3    3    0    0  0.35583964517E-01 -0.10430110541E+00  0.29115015946E-02  0.88687846741E+00  0.88000000000E+00 0.  1.
        -11    1    4    4    0    0 -0.40698952152E-01  0.84432030461E-01 -0.19037069860E-01  0.95644360126E-01  0.51100000000E-03 0.  1.
         11    1    4    4    0    0 -0.83494259863E-02  0.36235527832E-01  0.51588802189E-02  0.37544660841E-01  0.51100000000E-03 0. -1.
</event>
<event>
 8    1  0.1162192E+005  0.1043930E+01  0.7957747E-01            NaN
         13   -1    0    0    0    0  0.00000000000E+00  0.00000000000E+00  0.74505805969E-08  0.10566000000E+00  0.10566000000E+00 0.  1.
     999900   -1    0    0    0    0 -0.00000000000E+00 -0.00000000000E+00 -0.74505805969E-08  0.93827000000E+00  0.93827000000E+00 0. -1.
     999902    2    1    2    0    0 -0.14184561233E-01  0.16122397616E-01  0.98847131083E-02  0.10202901811E+01  0.10200162806E+01 0.  0.
     999903    2    3    3    0    0  0.16117905674E-01  0.41763079235E-01  0.12278362975E+00  0.13219004634E+00  0.19860688461E-01 0.  0.
         14    1    1    2    0    0  0.14184561233E-01 -0.16122397616E-01 -0.98847131083E-02  0.23639818855E-01  0.00000000000E+00 0. -1.
     999901    1    3    3    0    0 -0.30302466907E-01 -0.25640681618E-01 -0.11289891665E+00  0.88810013480E+00  0.88000000000E+00 0. -1.
        -11    1    4    4    0    0  0.18043046327E-01  0.26236785213E-01  0.96266407814E-01  0.10139725249E+00  0.51100000000E-03 0. -1.
         11    1    4    4    0    0 -0.19251406525E-02  0.15526294022E-01  0.26517221940E-01  0.30792793849E-01  0.51100000000E-03 0.  1.
</event>
<event>
 8    1  0.1162192E+005  0.1043930E+01  0.7957747E-01            NaN
         13   -1    0    0    0    0  0.00000000000E+00  0.00000000000E+00  0.74505805969E-08  0.10566000000E+00  0.10566000000E+00 0.  1.
     999900   -1    0    0    0    0 -0.00000000000E+00 -0.00000000000E+00 -0.74505805969E-08  0.93827000000E+00  0.93827000000E+00 0.  1.
     999902    2    1    2    0    0  0.14723684175E-01  0.18862838121E-01 -0.13539564133E-02  0.10199627988E+01  0.10196811679E+01 0.  0.
     999903    2    3    3    0    0 -0.11109247138E+00  0.43594019715E-01 -0.46626221651E-01  0.12951857571E+00  0.18949436845E-01 0.  0.
         14    1    1    2    0    0 -0.14723684175E-01 -0.18862838121E-01  0.13539564133E-02  0.23967201247E-01  0.00000000000E+00 0.  1.
     999901    1    3    3    0    0  0.12581615556E+00 -0.24731181595E-01  0.45272265238E-01  0.89044422304E+00  0.88000000000E+00 0. -1.
        -11    1    4    4    0    0 -0.39844765278E-01  0.24398979975E-01 -0.22698747961E-01  0.51946220496E-01  0.51100000000E-03 0. -1.
         11    1    4    4    0    0 -0.71247706105E-01  0.19195039740E-01 -0.23927473690E-01  0.77572355218E-01  0.51100000000E-03 0.  1.
</event>
<event>
 8    1  0.1162192E+005  0.1043930E+01  0.7957747E-01            NaN
         13   -1    0    0    0    0  0.00000000000E+00  0.00000000000E+00  0.74505805969E-08  0.10566000000E+00  0.10566000000E+00 0. -1.
     999900   -1    0    0    0    0 -0.00000000000E+00 -0.00000000000E+00 -0.74505805969E-08  0.93827000000E+00  0.93827000000E+00 0.  1.
     999902    2    1    2    0    0 -0.18389118978E-01  0.12799356214E-01  0.29988144120E-02  0.10213252194E+01  0.10210750353E+01 0.  0.
     999903    2    3    3    0    0 -0.10777777231E+00  0.46081239527E-02 -0.75666685240E-01  0.13326796427E+00  0.19940412109E-01 0.  0.
         14    1    1    2    0    0  0.18389118978E-01 -0.12799356214E-01 -0.29988144120E-02  0.22604780560E-01  0.00000000000E+00 0. -1.
     999901    1    3    3    0    0  0.89388653327E-01  0.81912322614E-02  0.78665499652E-01  0.88805725517E+00  0.88000000000E+00 0. -1.
        -11    1    4    4    0    0 -0.47663695176E-01 -0.18087562904E-02 -0.44564692966E-01  0.65279188241E-01  0.51100000000E-03 0. -1.
         11    1    4    4    0    0 -0.60114077129E-01  0.64168802431E-02 -0.31101992274E-01  0.67988776026E-01  0.51100000000E-03 0.  1.
</event>
<event>
 8    1  0.1162192E+005  0.1043930E+01  0.7957747E-01            NaN
         13   -1    0    0    0    0  0.00000000000E+00  0.00000000000E+00  0.74505805969E-08  0.10566000000E+00  0.10566000000E+00 0. -1.
     999900   -1    0    0    0    0 -0.00000000000E+00 -0.00000000000E+00 -0.74505805969E-08  0.93827000000E+00  0.93827000000E+00 0.  1.
     999902    2    1    2    0    0 -0.13457590849E-01  0.11221497737E-02  0.22818301792E-01  0.10174150822E+01  0.10170695200E+01 0.  0.
     999903    2    3    3    0    0 -0.28654014306E-01  0.10769716107E+00  0.63666156694E-01  0.12991425874E+00  0.20114772607E-01 0.  0.
         14    1    1    2    0    0  0.13457590849E-01 -0.11221497737E-02 -0.22818301792E-01  0.26514917843E-01  0.00000000000E+00 0.  1.
     999901    1    3    3    0    0  0.15196423457E-01 -0.10657501130E+00 -0.40847854902E-01  0.88750082342E+00  0.88000000000E+00 0.  1.
        -11    1    4    4    0    0 -0.13338716920E-02  0.86847293344E-02  0.12157103134E-01  0.15008664661E-01  0.51100000000E-03 0. -1.
         11    1    4    4    0    0 -0.27320142614E-01  0.99012431735E-01  0.51509053560E-01  0.11490559408E+00  0.51100000000E-03 0.  1.
</event>
<event>
 8    1  0.1167839E+005  0.1043930E+01  0.7957747E-01            NaN
         13   -1    0    0    0    0  0.00000000000E+00  0.00000000000E+00  0.74505805969E-08  0.10566000000E+00  0.10566000000E+00 0. -1.
     999900   -1    0    0    0    0 -0.00000000000E+00 -0.00000000000E+00 -0.74505805969E-08  0.93827000000E+00  0.93827000000E+00 0.  1.
     999902    2    1    2    0    0 -0.83806410757E-02  0.99490490324E-02  0.20356423615E-01  0.10197721296E+01  0.10194859457E+01 0.  0.
     999903    2    3    3    0    0 -0.86945787951E-01  0.96820718322E-01  0.61148435659E-02  0.13189714297E+00  0.20631128713E-01 0.  0.
         14    1    1    2    0    0  0.83806410757E-02 -0.99490490324E-02 -0.20356423615E-01  0.24157870433E-01  0.00000000000E+00 0.  1.
     999901    1    3    3    0    0  0.78565146875E-01 -0.86871669289E-01  0.14241580049E-01  0.88787498660E+00  0.88000000000E+00 0. -1.
        -11    1    4    4    0    0 -0.39916691126E-01  0.42674142831E-01  0.12945146488E-01  0.59852006110E-01  0.51100000000E-03 0. -1.
         11    1    4    4    0    0 -0.47029096825E-01  0.54146575491E-01 -0.68303029223E-02  0.72045136856E-01  0.51100000000E-03 0.  1.
</event>
<event>
 8    1  0.1162192E+005  0.1043930E+01  0.7957747E-01            NaN
         13   -1    0    0    0    0  0.00000000000E+00  0.00000000000E+00  0.74505805969E-08  0.10566000000E+00  0.10566000000E+00 0. -1.
     999900   -1    0    0    0    0 -0.00000000000E+00 -0.00000000000E+00 -0.74505805969E-08  0.93827000000E+00  0.93827000000E+00 0.  1.
     999902    2    1    2    0    0 -0.19842567139E-01 -0.72384219610E-02  0.13242737609E-02  0.10227669207E+01  0.10225479442E+01 0.  0.
     999903    2    3    3    0    0  0.65003632891E-01  0.10397050183E+00  0.40913195307E-01  0.13084002625E+00  0.20245626187E-01 0.  0.
         14    1    1    2    0    0  0.19842567139E-01  0.72384219610E-02 -0.13242737609E-02  0.21163079269E-01  0.00000000000E+00 0. -1.
     999901    1    3    3    0    0 -0.84846200031E-01 -0.11120892379E+00 -0.39588921546E-01  0.89192689448E+00  0.88000000000E+00 0.  1.
        -11    1    4    4    0    0  0.47229263465E-01  0.58127789188E-01  0.20962477491E-01  0.77776151788E-01  0.51100000000E-03 0. -1.
         11    1    4    4    0    0  0.17774369426E-01  0.45842712638E-01  0.19950717816E-01  0.53063874462E-01  0.51100000000E-03 0.  1.
</event>
<event>
 8    1  0.1162192E+005  0.1043930E+01  0.7957747E-01            NaN
         13   -1    0    0    0    0  0.00000000000E+00  0.00000000000E+00  0.74505805969E-08  0.10566000000E+00  0.10566000000E+00 0.  1.
     999900   -1    0    0    0    0 -0.00000000000E+00 -0.00000000000E+00 -0.74505805969E-08  0.93827000000E+00  0.93827000000E+00 0. -1.
     999902    2    1    2    0    0  0.14607561581E-01  0.10264655111E-01  0.16377391099E-01  0.10197026820E+01  0.10194148305E+01 0.  0.
     999903    2    3    3    0    0 -0.84901040690E-01  0.77229461634E-01 -0.54771343880E-01  0.12872098197E+00  0.19915186027E-01 0.  0.
         14    1    1    2    0    0 -0.14607561581E-01 -0.10264655111E-01 -0.16377391099E-01  0.24227318034E-01  0.00000000000E+00 0.  1.
     999901    1    3    3    0    0  0.99508602271E-01 -0.66964806522E-01  0.71148734979E-01  0.89098170000E+00  0.88000000000E+00 0.  1.
        -11    1    4    4    0    0 -0.33331898607E-01  0.27016669962E-01 -0.30936435797E-01  0.52898394129E-01  0.51100000000E-03 0. -1.
         11    1    4    4    0    0 -0.51569142083E-01  0.50212791672E-01 -0.23834908083E-01  0.75822587842E-01  0.51100000000E-03 0.  1.
</event>
<event>
 8    1  0.1162192E+005  0.1043930E+01  0.7957747E-01            NaN
         13   -1    0    0    0    0  0.00000000000E+00  0.00000000000E+00  0.74505805969E-08  0.10566000000E+00  0.10566000000E+00 0. -1.
     999900   -1    0    0    0    0 -0.00000000000E+00 -0.00000000000E+00 -0.74505805969E-08  0.93827000000E+00  0.93827000000E+00 0. -1.
     999902    2    1    2    0    0  0.14909270317E-04  0.21229901932E-01 -0.80980025787E-02  0.10212080590E+01  0.10209552454E+01 0.  0.
     999903    2    3    3    0    0  0.62871555442E-01  0.22983353111E-02 -0.11448015870E+00  0.13237369570E+00  0.21423672627E-01 0.  0.
         14    1    1    2    0    0 -0.14909270317E-04 -0.21229901932E-01  0.80980025787E-02  0.22721941028E-01  0.00000000000E+00 0.  1.
     999901    1    3    3    0    0 -0.62856646171E-01  0.18931566621E-01  0.10638215612E+00  0.88883436327E+00  0.88000000000E+00 0.  1.
        -11    1    4    4    0    0  0.33051561515E-01 -0.44662163202E-02 -0.41489324140E-01  0.53235119474E-01  0.51100000000E-03 0. -1.
         11    1    4    4    0    0  0.29819993927E-01  0.67645516314E-02 -0.72990834563E-01  0.79138576230E-01  0.51100000000E-03 0.  1.
</event>
<event>
 8    1  0.1162192E+005  0.1043930E+01  0.7957747E-01            NaN
         13   -1    0    0    0    0  0.00000000000E+00  0.00000000000E+00  0.74505805969E-08  0.10566000000E+00  0.10566000000E+00 0. -1.
     999900   -1    0    0    0    0 -0.00000000000E+00 -0.00000000000E+00 -0.74505805969E-08  0.93827000000E+00  0.93827000000E+00 0.  1.
     999902    2    1    2    0    0 -0.39035730630E-02  0.32423443050E-01 -0.12172298296E-01  0.10090777061E+01  0.10084756490E+01 0.  0.
     999903    2    3    3    0    0  0.55087271968E-02 -0.85901675004E-01 -0.79112335464E-01  0.11858885526E+00  0.19877402377E-01 0.  0.
         14    1    1    2    0    0  0.39035730630E-02 -0.32423443050E-01  0.12172298296E-01  0.34852293865E-01  0.00000000000E+00 0. -1.
     999901    1    3    3    0    0 -0.94123002598E-02  0.11832511805E+00  0.66940037168E-01  0.89048885088E+00  0.88000000000E+00 0. -1.
        -11    1    4    4    0    0 -0.15273378344E-02 -0.76563234202E-01 -0.70063939168E-01  0.10379536736E+00  0.51100000000E-03 0. -1.
         11    1    4    4    0    0  0.70360650312E-02 -0.93384408014E-02 -0.90483962964E-02  0.14793487901E-01  0.51100000000E-03 0.  1.
</event>
<event>
 8    1  0.1162192E+005  0.1043930E+01  0.7957747E-01            NaN
         13   -1    0    0    0    0  0.00000000000E+00  0.00000000000E+00  0.74505805969E-08  0.10566000000E+00  0.10566000000E+00 0. -1.
     999900   -1    0    0    0    0 -0.00000000000E+00 -0.00000000000E+00 -0.74505805969E-08  0.93827000000E+00  0.93827000000E+00 0.  1.
     999902    2    1    2    0    0 -0.39833015520E-02  0.21935466268E-01 -0.51521430285E-02  0.10210482180E+01  0.10207917944E+01 0.  0.
     999903    2    3    3    0    0 -0.10662197860E+00  0.18321396505E-01  0.72346194596E-01  0.13169241072E+00  0.20124593914E-01 0.  0.
         14    1    1    2    0    0  0.39833015520E-02 -0.21935466268E-01  0.51521430285E-02  0.22881782043E-01  0.00000000000E+00 0. -1.
     999901    1    3    3    0    0  0.10263867704E+00  0.36140697635E-02 -0.77498337624E-01  0.88935580723E+00  0.88000000000E+00 0.  1.
        -11    1    4    4    0    0 -0.63538485356E-01  0.25884277465E-02  0.48621969900E-01  0.80051209594E-01  0.51100000000E-03 0. -1.
         11    1    4    4    0    0 -0.43083493239E-01  0.15732968759E-01  0.23724224696E-01  0.51641201129E-01  0.51100000000E-03 0.  1.
</event>
<event>
 8    1  0.1162192E+005  0.1043930E+01  0.7957747E-01            NaN
         13   -1    0    0    0    0  0.00000000000E+00  0.00000000000E+00  0.74505805969E-08  0.10566000000E+00  0.10566000000E+00 0. -1.
     999900   -1    0    0    0    0 -0.00000000000E+00 -0.00000000000E+00 -0.74505805969E-08  0.93827000000E+00  0.93827000000E+00 0. -1.
     999902    2    1    2    0    0  0.28125845388E-01  0.14586613481E-02 -0.53896136463E-02  0.10152552933E+01  0.10148502706E+01 0.  0.
     999903    2    3    3    0    0 -0.60809341720E-01  0.18185130680E-01  0.10466059981E+00  0.12379565212E+00  0.18521536485E-01 0.  0.
         14    1    1    2    0    0 -0.28125845388E-01 -0.14586613481E-02  0.53896136463E-02  0.28674706746E-01  0.00000000000E+00 0.  1.
     999901    1    3    3    0    0  0.88935187109E-01 -0.16726469332E-01 -0.11005021346E+00  0.89145964113E+00  0.88000000000E+00 0. -1.
        -11    1    4    4    0    0 -0.40742287124E-01  0.12489624939E-01  0.52522671853E-01  0.67637392549E-01  0.51100000000E-03 0.  1.
         11    1    4    4    0    0 -0.20067054597E-01  0.56955057412E-02  0.52137927957E-01  0.56158259575E-01  0.51100000000E-03 0. -1.
</event>
<event>
 8    1  0.1162192E+005  0.1043930E+01  0.7957747E-01            NaN
         13   -1    0    0    0    0  0.00000000000E+00  0.00000000000E+00  0.74505805969E-08  0.10566000000E+00  0.10566000000E+00 0.  1.
     999900   -1    0    0    0    0 -0.00000000000E+00 -0.00000000000E+00 -0.74505805969E-08  0.93827000000E+00  0.93827000000E+00 0.  1.
     999902    2    1    2    0    0 -0.88470862217E-02 -0.16865938633E-01  0.15366090663E-01  0.10194586379E+01  0.10191648870E+01 0.  0.
     999903    2    3    3    0    0  0.39447768047E-01 -0.12181915781E+00 -0.20637906285E-01  0.13117723038E+00  0.19634382586E-01 0.  0.
         14    1    1    2    0    0  0.88470862217E-02  0.16865938633E-01 -0.15366090663E-01  0.24471362096E-01  0.00000000000E+00 0. -1.
     999901    1    3    3    0    0 -0.48294854268E-01  0.10495321918E+00  0.36003996949E-01  0.88828140753E+00  0.88000000000E+00 0. -1.
        -11    1    4    4    0    0  0.34638306964E-01 -0.97552413780E-01 -0.23830068644E-01  0.10622814616E+00  0.51100000000E-03 0. -1.
         11    1    4    4    0    0  0.48094610830E-02 -0.24266744031E-01  0.31921623583E-02  0.24949084218E-01  0.51100000000E-03 0.  1.
</event>
<event>
 8    1  0.1162192E+005  0.1043930E+01  0.7957747E-01            NaN
         13   -1    0    0    0    0  0.00000000000E+00  0.00000000000E+00  0.74505805969E-08  0.10566000000E+00  0.10566000000E+00 0. -1.
     999900   -1    0    0    0    0 -0.00000000000E+00 -0.00000000000E+00 -0.74505805969E-08  0.93827000000E+00  0.93827000000E+00 0.  1.
     999902    2    1    2    0    0  0.22875716704E-01 -0.59759964278E-02 -0.14327699773E-01  0.10162841336E+01  0.10159080403E+01 0.  0.
     999903    2    3    3    0    0  0.29104491354E-01 -0.97010174320E-01 -0.77775745093E-01  0.12929390049E+00  0.20243538268E-01 0.  0.
         14    1    1    2    0    0 -0.22875716704E-01  0.59759964278E-02  0.14327699773E-01  0.27645866396E-01  0.00000000000E+00 0.  1.
     999901    1    3    3    0    0 -0.62287746504E-02  0.91034177892E-01  0.63448045319E-01  0.88699023311E+00  0.88000000000E+00 0. -1.
        -11    1    4    4    0    0  0.24274545090E-01 -0.46787272948E-01 -0.42797953112E-01  0.67898662438E-01  0.51100000000E-03 0.  1.
         11    1    4    4    0    0  0.48299462640E-02 -0.50222901371E-01 -0.34977791980E-01  0.61395238055E-01  0.51100000000E-03 0. -1.
</event>
<event>
 8    1  0.1162192E+005  0.1043930E+01  0.7957747E-01            NaN
         13   -1    0    0    0    0  0.00000000000E+00  0.00000000000E+00  0.74505805969E-08  0.10566000000E+00  0.10566000000E+00 0.  1.
     999900   -1    0    0    0    0 -0.00000000000E+00 -0.00000000000E+00 -0.74505805969E-08  0.93827000000E+00  0.93827000000E+00 0. -1.
     999902    2    1    2    0    0 -0.69130228324E-02 -0.18287072894E-01  0.17484204062E-01  0.10177020700E+01  0.10173640445E+01 0.  0.
     999903    2    3    3    0    0  0.11438171794E+00 -0.48361780075E-01  0.27619729190E-01  0.12881533312E+00  0.20211418448E-01 0.  0.
         14    1    1    2    0    0  0.69130228324E-02  0.18287072894E-01 -0.17484204062E-01  0.26227929987E-01  0.00000000000E+00 0. -1.
     999901    1    3    3    0    0 -0.12129474077E+00  0.30074707181E-01 -0.10135525128E-01  0.88888673689E+00  0.88000000000E+00 0.  1.
        -11    1    4    4    0    0  0.40593258428E-01 -0.26461776041E-01  0.57625319031E-02  0.48800677413E-01  0.51100000000E-03 0. -1.
         11    1    4    4    0    0  0.73788459513E-01 -0.21900004034E-01  0.21857197287E-01  0.80014655709E-01  0.51100000000E-03 0.  1.
</event>
<event>
 8    1  0.1162192E+005  0.1043930E+01  0.7957747E-01            NaN
         13   -1    0    0    0    0  0.00000000000E+00  0.00000000000E+00  0.74505805969E-08  0.10566000000E+00  0.10566000000E+00 0.  1.
     999900   -1    0    0    0    0 -0.00000000000E+00 -0.00000000000E+00 -0.74505805969E-08  0.93827000000E+00  0.93827000000E+00 0. -1.
     999902    2    1    2    0    0  0.16344859014E-01  0.14596963174E-01 -0.87141744759E-02  0.10203469004E+01  0.10200743280E+01 0.  0.
     999903    2    3    3    0    0  0.40182868698E-01 -0.97589216567E-01  0.71981829793E-01  0.12924318324E+00  0.19598430193E-01 0.  0.
         14    1    1    2    0    0 -0.16344859014E-01 -0.14596963174E-01  0.87141744759E-02  0.23583099603E-01  0.00000000000E+00 0. -1.
     999901    1    3    3    0    0 -0.23838009685E-01  0.11218617974E+00 -0.80696004269E-01  0.89110371716E+00  0.88000000000E+00 0. -1.
        -11    1    4    4    0    0  0.15281263216E-01 -0.49554197883E-01  0.24939530694E-01  0.57544563997E-01  0.51100000000E-03 0. -1.
         11    1    4    4    0    0  0.24901605482E-01 -0.48035018685E-01  0.47042299099E-01  0.71698619241E-01  0.51100000000E-03 0.  1.
</event>
<event>
 8    1  0.1162192E+005  0.1043930E+01  0.7957747E-01            NaN
         13   -1    0    0    0    0  0.00000000000E+00  0.00000000000E+00  0.74505805969E-08  0.10566000000E+00  0.10566000000E+00 0. -1.
     999900   -1    0    0    0    0 -0.00000000000E+00 -0.00000000000E+00 -0.74505805969E-08  0.93827000000E+00  0.93827000000E+00 0. -1.
     999902    2    1    2    0    0 -0.39184638762E-02  0.39048182136E-02  0.22720274605E-01  0.10205459704E+01  0.10202780331E+01 0.  0.
     999903    2    3    3    0    0  0.11836069523E+00  0.40051503146E-01  0.34934362938E-01  0.13127213202E+00  0.19964614983E-01 0.  0.
         14    1    1    2    0    0  0.39184638762E-02 -0.39048182136E-02 -0.22720274605E-01  0.23384029648E-01  0.00000000000E+00 0.  1.
     999901    1    3    3    0    0 -0.12227915911E+00 -0.36146684933E-01 -0.12214088332E-01  0.88927383833E+00  0.88000000000E+00 0. -1.
        -11    1    4    4    0    0  0.87128863024E-01  0.22756643923E-01  0.18348112240E-01  0.91903307657E-01  0.51100000000E-03 0.  1.
         11    1    4    4    0    0  0.31231832209E-01  0.17294859224E-01  0.16586250698E-01  0.39368824366E-01  0.51100000000E-03 0. -1.
</event>
<event>
 7    1  0.1162192E+005  0.1043930E+01  0.7957747E-01            NaN
         13   -1    0    0    0    0  0.00000000000E+00  0.00000000000E+00  0.74505805969E-08  0.10566000000E+00  0.10566000000E+00 0. -1.
     999900   -1    0    0    0    0 -0.00000000000E+00 -0.00000000000E+00 -0.74505805969E-08  0.93827000000E+00  0.93827000000E+00 0.  1.
     999903    2    1    2    0    0 -0.57947556905E-01 -0.48643516818E-02 -0.94977488195E-01  0.11316440575E+00  0.20096721041E-01 0.  0.
         14    1    1    2    0    0  0.70750966612E-02  0.38345081458E-01 -0.15110298699E-01  0.41817740154E-01  0.00000000000E+00 0.  1.
     999901    1    1    2    0    0  0.50872460244E-01 -0.33480729776E-01  0.11008778689E+00  0.88894785410E+00  0.88000000000E+00 0. -1.
        -11    1    3    3    0    0 -0.46613864462E-01  0.40916250659E-02 -0.76893964418E-01  0.90014091345E-01  0.51100000000E-03 0. -1.
         11    1    3    3    0    0 -0.11333692443E-01 -0.89559767477E-02 -0.18083523777E-01  0.23150314405E-01  0.51100000000E-03 0.  1.
</event>
<event>
 8    1  0.1162192E+005  0.1043930E+01  0.7957747E-01            NaN
         13   -1    0    0    0    0  0.00000000000E+00  0.00000000000E+00  0.74505805969E-08  0.10566000000E+00  0.10566000000E+00 0. -1.
     999900   -1    0    0    0    0 -0.00000000000E+00 -0.00000000000E+00 -0.74505805969E-08  0.93827000000E+00  0.93827000000E+00 0. -1.
     999902    2    1    2    0    0 -0.16384413242E-01  0.17870640081E-01 -0.50590421920E-02  0.10191630324E+01  0.10188620535E+01 0.  0.
     999903    2    3    3    0    0 -0.32013709192E-02  0.11064084601E+00  0.67429205548E-01  0.13122460565E+00  0.20531775031E-01 0.  0.
         14    1    1    2    0    0  0.16384413242E-01 -0.17870640081E-01  0.50590421920E-02  0.24766967559E-01  0.00000000000E+00 0.  1.
     999901    1    3    3    0    0 -0.13183042323E-01 -0.92770205927E-01 -0.72488247740E-01  0.88793842679E+00  0.88000000000E+00 0. -1.
        -11    1    4    4    0    0 -0.98351476274E-02  0.36258679512E-01  0.27328494561E-01  0.46459979604E-01  0.51100000000E-03 0.  1.
         11    1    4    4    0    0  0.66337767082E-02  0.74382166495E-01  0.40100710987E-01  0.84764626045E-01  0.51100000000E-03 0. -1.
</event>
<event>
 8    1  0.1162192E+005  0.1043930E+01  0.7957747E-01            NaN
         13   -1    0    0    0    0  0.00000000000E+00  0.00000000000E+00  0.74505805969E-08  0.10566000000E+00  0.10566000000E+00 0. -1.
     999900   -1    0    0    0    0 -0.00000000000E+00 -0.00000000000E+00 -0.74505805969E-08  0.93827000000E+00  0.93827000000E+00 0.  1.
     999902    2    1    2    0    0  0.72973273207E-02 -0.18399203048E-01 -0.12791304444E-01  0.10203630925E+01  0.10200908986E+01 0.  0.
     999903    2    3    3    0    0 -0.45259101974E-01 -0.11286221524E+00 -0.49622316575E-01  0.13298382615E+00  0.20881996392E-01 0.  0.
         14    1    1    2    0    0 -0.72973273207E-02  0.18399203048E-01  0.12791304444E-01  0.23566907481E-01  0.00000000000E+00 0. -1.
     999901    1    3    3    0    0  0.52556429295E-01  0.94463012195E-01  0.36831012131E-01  0.88737926637E+00  0.88000000000E+00 0.  1.
        -11    1    4    4    0    0 -0.56934549283E-02 -0.12843836561E-01  0.10236227669E-02  0.14095690519E-01  0.51100000000E-03 0. -1.
         11    1    4    4    0    0 -0.39565647046E-01 -0.10001837868E+00 -0.50645939342E-01  0.11888813563E+00  0.51100000000E-03 0.  1.
</event>
<event>
 8    1  0.1162192E+005  0.1043930E+01  0.7957747E-01            NaN
         13   -1    0    0    0    0  0.00000000000E+00  0.00000000000E+00  0.74505805969E-08  0.10566000000E+00  0.10566000000E+00 0.  1.
     999900   -1    0    0    0    0 -0.00000000000E+00 -0.00000000000E+00 -0.74505805969E-08  0.93827000000E+00  0.93827000000E+00 0. -1.
     999902    2    1    2    0    0 -0.13866365311E-01 -0.17134130580E-01 -0.30598694758E-02  0.10216765212E+01  0.10214341372E+01 0.  0.
     999903    2    3    3    0    0  0.25327407667E-01  0.89775164489E-01 -0.88173195836E-01  0.13026750871E+00  0.22227317072E-01 0.  0.
         14    1    1    2    0    0  0.13866365311E-01  0.17134130580E-01  0.30598694758E-02  0.22253478804E-01  0.00000000000E+00 0.  1.
     999901    1    3    3    0    0 -0.39193772979E-01 -0.10690929507E+00  0.85113326360E-01  0.89140901248E+00  0.88000000000E+00 0.  1.
        -11    1    4    4    0    0  0.12992871722E-01  0.52810249586E-01 -0.36312039987E-01  0.65395432149E-01  0.51100000000E-03 0.  1.
         11    1    4    4    0    0  0.12334535945E-01  0.36964914902E-01 -0.51861155848E-01  0.64872076563E-01  0.51100000000E-03 0. -1.
</event>
<event>
 8    1  0.1162192E+005  0.1043930E+01  0.7957747E-01            NaN
         13   -1    0    0    0    0  0.00000000000E+00  0.00000000000E+00  0.74505805969E-08  0.10566000000E+00  0.10566000000E+00 0.  1.
     999900   -1    0    0    0    0 -0.00000000000E+00 -0.00000000000E+00 -0.74505805969E-08  0.93827000000E+00  0.93827000000E+00 0.  1.
     999902    2    1    2    0    0  0.14614395855E-01  0.18056319284E-01  0.75758441642E-02  0.10194963215E+01  0.10192034855E+01 0.  0.
     999903    2    3    3    0    0  0.35598476576E-01 -0.84252773313E-01  0.89050530481E-01  0.12958306356E+00  0.22270878683E-01 0.  0.
         14    1    1    2    0    0 -0.14614395855E-01 -0.18056319284E-01 -0.75758441642E-02  0.24433678542E-01  0.00000000000E+00 0. -1.
     999901    1    3    3    0    0 -0.20984080721E-01  0.10230909260E+00 -0.81474686317E-01  0.88991325790E+00  0.88000000000E+00 0. -1.
        -11    1    4    4    0    0  0.18014450097E-01 -0.38706378528E-01  0.56840606398E-01  0.71090223011E-01  0.51100000000E-03 0.  1.
         11    1    4    4    0    0  0.17584026479E-01 -0.45546394785E-01  0.32209924083E-01  0.58492840550E-01  0.51100000000E-03 0. -1.
</event>
<event>
 8    1  0.1162192E+005  0.1043930E+01  0.7957747E-01            NaN
         13   -1    0    0    0    0  0.00000000000E+00  0.00000000000E+00  0.74505805969E-08  0.10566000000E+00  0.10566000000E+00 0.  1.
     999900   -1    0    0    0    0 -0.00000000000E+00 -0.00000000000E+00 -0.74505805969E-08  0.93827000000E+00  0.93827000000E+00 0.  1.
     999902    2    1    2    0    0 -0.25508713502E-03 -0.15771272893E-01  0.17332376795E-01  0.10204947828E+01  0.10202256576E+01 0.  0.
     999903    2    3    3    0    0  0.28614291353E-01  0.11664319503E+00  0.45127550852E-01  0.12968638367E+00  0.18911627290E-01 0.  0.
         14    1    1    2    0    0  0.25508713502E-03  0.15771272893E-01 -0.17332376795E-01  0.23435217163E-01  0.00000000000E+00 0.  1.
     999901    1    3    3    0    0 -0.28869378488E-01 -0.13241446792E+00 -0.27795174058E-01  0.89080839917E+00  0.88000000000E+00 0. -1.
        -11    1    4    4    0    0  0.16107886178E-01  0.44297448650E-01  0.25922525061E-01  0.53795598153E-01  0.51100000000E-03 0. -1.
         11    1    4    4    0    0  0.12506405174E-01  0.72345746379E-01  0.19205025791E-01  0.75890785515E-01  0.51100000000E-03 0.  1.
</event>
<event>
 8    1  0.1162192E+005  0.1043930E+01  0.7957747E-01            NaN
         13   -1    0    0    0    0  0.00000000000E+00  0.00000000000E+00  0.74505805969E-08  0.10566000000E+00  0.10566000000E+00 0. -1.
     999900   -1    0    0    0    0 -0.00000000000E+00 -0.00000000000E+00 -0.74505805969E-08  0.93827000000E+00  0.93827000000E+00 0.  1.
     999902    2    1    2    0    0  0.21281478006E-01 -0.56609972301E-02  0.18850035429E-02  0.10218279315E+01  0.10215888704E+01 0.  0.
     999903    2    3    3    0    0  0.12980517639E+00  0.17375796033E-02 -0.29500047664E-01  0.13457534425E+00  0.19694351200E-01 0.  0.
         14    1    1    2    0    0 -0.21281478006E-01  0.56609972301E-02 -0.18850035429E-02  0.22102068548E-01  0.00000000000E+00 0. -1.
     999901    1    3    3    0    0 -0.10852369838E+00 -0.73985768334E-02  0.31385051207E-01  0.88725258720E+00  0.88000000000E+00 0. -1.
        -11    1    4    4    0    0  0.41943781100E-01 -0.77491180601E-02 -0.13683024781E-01  0.44797498723E-01  0.51100000000E-03 0. -1.
         11    1    4    4    0    0  0.87861395287E-01  0.94866976634E-02 -0.15817022883E-01  0.89777845532E-01  0.51100000000E-03 0.  1.
</event>
<event>
 7    1  0.1162192E+005  0.1043930E+01  0.7957747E-01            NaN
         13   -1    0    0    0    0  0.00000000000E+00  0.00000000000E+00  0.74505805969E-08  0.10566000000E+00  0.10566000000E+00 0.  1.
     999900   -1    0    0    0    0 -0.00000000000E+00 -0.00000000000E+00 -0.74505805969E-08  0.93827000000E+00  0.93827000000E+00 0. -1.
     999903    2    1    2    0    0  0.45959121284E-01 -0.85192394754E-02  0.93214527712E-01  0.10616986425E+00  0.19956794038E-01 0.  0.
         14    1    1    2    0    0  0.45741814692E-01 -0.19135236218E-02  0.10219535003E-01  0.46908571494E-01  0.00000000000E+00 0.  1.
     999901    1    1    2    0    0 -0.91700935975E-01  0.10432763097E-01 -0.10343406271E+00  0.89085156425E+00  0.88000000000E+00 0. -1.
        -11    1    3    3    0    0  0.23415920093E-01 -0.38529087309E-02  0.67996967456E-01  0.72020822848E-01  0.51100000000E-03 0. -1.
         11    1    3    3    0    0  0.22543201191E-01 -0.46663307445E-02  0.25217560256E-01  0.34149041404E-01  0.51100000000E-03 0.  1.
</event>
<event>
 8    1  0.1162192E+005  0.1043930E+01  0.7957747E-01            NaN
         13   -1    0    0    0    0  0.00000000000E+00  0.00000000000E+00  0.74505805969E-08  0.10566000000E+00  0.10566000000E+00 0.  1.
     999900   -1    0    0    0    0 -0.00000000000E+00 -0.00000000000E+00 -0.74505805969E-08  0.93827000000E+00  0.93827000000E+00 0. -1.
     999902    2    1    2    0    0  0.21063844602E-01  0.23142045778E-03 -0.10169387418E-01  0.10205386438E+01  0.10202705366E+01 0.  0.
     999903    2    3    3    0    0 -0.50448852747E-01 -0.90081916932E-01  0.74701958550E-01  0.12898174142E+00  0.19901469993E-01 0.  0.
         14    1    1    2    0    0 -0.21063844602E-01 -0.23142045778E-03  0.10169387418E-01  0.23391356209E-01  0.00000000000E+00 0.  1.
     999901    1    3    3    0    0  0.71512697349E-01  0.90313337389E-01 -0.84871345968E-01  0.89155690237E+00  0.88000000000E+00 0. -1.
        -11    1    4    4    0    0 -0.41005038929E-01 -0.83929486479E-01  0.70130762680E-01  0.11680820568E+00  0.51100000000E-03 0. -1.
         11    1    4    4    0    0 -0.94438138182E-02 -0.61524304522E-02  0.45711958694E-02  0.12173535747E-01  0.51100000000E-03 0.  1.
</event>
<event>
 8    1  0.1162192E+005  0.1043930E+01  0.7957747E-01            NaN
         13   -1    0    0    0    0  0.00000000000E+00  0.00000000000E+00  0.74505805969E-08  0.10566000000E+00  0.10566000000E+00 0.  1.
     999900   -1    0    0    0    0 -0.00000000000E+00 -0.00000000000E+00 -0.74505805969E-08  0.93827000000E+00  0.93827000000E+00 0.  1.
     999902    2    1    2    0    0 -0.28184976826E-02  0.22614376936E-01 -0.12920097961E-02  0.10211040660E+01  0.10208489067E+01 0.  0.
     999903    2    3    3    0    0  0.70603470251E-01 -0.14128597271E-01 -0.10741825902E+00  0.13093351364E+00  0.20504520261E-01 0.  0.
         14    1    1    2    0    0  0.28184976826E-02 -0.22614376936E-01  0.12920097961E-02  0.22825933994E-01  0.00000000000E+00 0. -1.
     999901    1    3    3    0    0 -0.73421967934E-01  0.36742974208E-01  0.10612624922E+00  0.89017055237E+00  0.88000000000E+00 0. -1.
        -11    1    4    4    0    0  0.14039424971E-01  0.51104224174E-02 -0.25153752898E-01  0.29260797608E-01  0.51100000000E-03 0. -1.
         11    1    4    4    0    0  0.56564045280E-01 -0.19239019689E-01 -0.82264506119E-01  0.10167271603E+00  0.51100000000E-03 0.  1.
</event>
<event>
 8    1  0.1162192E+005  0.1043930E+01  0.7957747E-01            NaN
         13   -1    0    0    0    0  0.00000000000E+00  0.00000000000E+00  0.74505805969E-08  0.10566000000E+00  0.10566000000E+00 0.  1.
     999900   -1    0    0    0    0 -0.00000000000E+00 -0.00000000000E+00 -0.74505805969E-08  0.93827000000E+00  0.93827000000E+00 0. -1.
     999902    2    1    2    0    0 -0.18519572592E-02 -0.13199690062E-01  0.19403230328E-01  0.10203896748E+01  0.10201181018E+01 0.  0.
     999903    2    3    3    0    0  0.96884570547E-01  0.83372852817E-01  0.27102798486E-02  0.12946105108E+00  0.20375611244E-01 0.  0.
         14    1    1    2    0    0  0.18519572592E-02  0.13199690062E-01 -0.19403230328E-01  0.23540325201E-01  0.00000000000E+00 0.  1.
     999901    1    3    3    0    0 -0.98736527806E-01 -0.96572542880E-01  0.16692950479E-01  0.89092862372E+00  0.88000000000E+00 0. -1.
        -11    1    4    4    0    0  0.31003413486E-01  0.17623680657E-01  0.67330330342E-02  0.36296013865E-01  0.51100000000E-03 0. -1.
         11    1    4    4    0    0  0.65881157061E-01  0.65749172160E-01 -0.40227531856E-02  0.93165037217E-01  0.51100000000E-03 0.  1.
</event>
<event>
 8    1  0.1162192E+005  0.1043930E+01  0.7957747E-01            NaN
         13   -1    0    0    0    0  0.00000000000E+00  0.00000000000E+00  0.74505805969E-08  0.10566000000E+00  0.10566000000E+00 0. -1.
     999900   -1    0    0    0    0 -0.00000000000E+00 -0.00000000000E+00 -0.74505805969E-08  0.93827000000E+00  0.93827000000E+00 0. -1.
     999902    2    1    2    0    0  0.10107365051E-01  0.78055044446E-02  0.19985102376E-01  0.10202131485E+01  0.10199374389E+01 0.  0.
     999903    2    3    3    0    0  0.82193284189E-01  0.10136924155E+00  0.28860483442E-02  0.13215744626E+00  0.20634975852E-01 0.  0.
         14    1    1    2    0    0 -0.10107365051E-01 -0.78055044446E-02 -0.19985102376E-01  0.23716851496E-01  0.00000000000E+00 0.  1.
     999901    1    3    3    0    0 -0.72085919138E-01 -0.93563737108E-01  0.17099054031E-01  0.88805570224E+00  0.88000000000E+00 0. -1.
        -11    1    4    4    0    0  0.67020367613E-01  0.69802480381E-01  0.62328666006E-02  0.96970230945E-01  0.51100000000E-03 0.  1.
         11    1    4    4    0    0  0.15172916575E-01  0.31566761171E-01 -0.33468182564E-02  0.35187215315E-01  0.51100000000E-03 0. -1.
</event>
<event>
 8    1  0.1162192E+005  0.1043930E+01  0.7957747E-01            NaN
         13   -1    0    0    0    0  0.00000000000E+00  0.00000000000E+00  0.74505805969E-08  0.10566000000E+00  0.10566000000E+00 0. -1.
     999900   -1    0    0    0    0 -0.00000000000E+00 -0.00000000000E+00 -0.74505805969E-08  0.93827000000E+00  0.93827000000E+00 0. -1.
     999902    2    1    2    0    0 -0.16787722963E-01 -0.10240228022E-01 -0.16892549817E-01  0.10180061085E+01  0.10176759743E+01 0.  0.
     999903    2    3    3    0    0  0.12091346317E+00  0.21951690096E-01 -0.23658805272E-01  0.12669038525E+00  0.19717311546E-01 0.  0.
         14    1    1    2    0    0  0.16787722963E-01  0.10240228022E-01  0.16892549817E-01  0.25923891520E-01  0.00000000000E+00 0. -1.
     999901    1    3    3    0    0 -0.13770118614E+00 -0.32191918118E-01  0.67662554546E-02  0.89131572323E+00  0.88000000000E+00 0. -1.
        -11    1    4    4    0    0  0.79305379408E-01  0.18772518019E-01 -0.71513579354E-02  0.81811696456E-01  0.51100000000E-03 0. -1.
         11    1    4    4    0    0  0.41608083765E-01  0.31791720778E-02 -0.16507447336E-01  0.44878688798E-01  0.51100000000E-03 0.  1.
</event>
<event>
 8    1  0.1162192E+005  0.1043930E+01  0.7957747E-01            NaN
         13   -1    0    0    0    0  0.00000000000E+00  0.00000000000E+00  0.74505805969E-08  0.10566000000E+00  0.10566000000E+00 0. -1.
     999900   -1    0    0    0    0 -0.00000000000E+00 -0.00000000000E+00 -0.74505805969E-08  0.93827000000E+00  0.93827000000E+00 0.  1.
     999902    2    1    2    0    0  0.13893112331E-01 -0.16210079520E-01  0.10288082103E-01  0.10202312684E+01  0.10199559849E+01 0.  0.
     999903    2    3    3    0    0 -0.42230393469E-01  0.35999831714E-01 -0.11379278747E+00  0.12822690462E+00  0.20345676991E-01 0.  0.
         14    1    1    2    0    0 -0.13893112331E-01  0.16210079520E-01 -0.10288082103E-01  0.23698731646E-01  0.00000000000E+00 0.  1.
     999901    1    3    3    0    0  0.56123505800E-01 -0.52209911234E-01  0.12408086957E+00  0.89200436374E+00  0.88000000000E+00 0. -1.
        -11    1    4    4    0    0 -0.28323961513E-01  0.19279845447E-01 -0.48336909654E-01  0.59250967859E-01  0.51100000000E-03 0.  1.
         11    1    4    4    0    0 -0.13906431956E-01  0.16719986267E-01 -0.65455877811E-01  0.68975936757E-01  0.51100000000E-03 0. -1.
</event>
<event>
 8    1  0.1162192E+005  0.1043930E+01  0.7957747E-01            NaN
         13   -1    0    0    0    0  0.00000000000E+00  0.00000000000E+00  0.74505805969E-08  0.10566000000E+00  0.10566000000E+00 0. -1.
     999900   -1    0    0    0    0 -0.00000000000E+00 -0.00000000000E+00 -0.74505805969E-08  0.93827000000E+00  0.93827000000E+00 0.  1.
     999902    2    1    2    0    0  0.62627058851E-02 -0.29952013650E-04  0.22090863523E-01  0.10209685403E+01  0.10207103074E+01 0.  0.
     999903    2    3    3    0    0 -0.73363123590E-01  0.82114521935E-01  0.70247973301E-01  0.13225762295E+00  0.20793231135E-01 0.  0.
         14    1    1    2    0    0 -0.62627058851E-02  0.29952013650E-04 -0.22090863523E-01  0.22961459738E-01  0.00000000000E+00 0.  1.
     999901    1    3    3    0    0  0.79625829475E-01 -0.82144473949E-01 -0.48157109778E-01  0.88871091731E+00  0.88000000000E+00 0. -1.
        -11    1    4    4    0    0 -0.39237519675E-01  0.58588764199E-01  0.46804804426E-01  0.84635554462E-01  0.51100000000E-03 0.  1.
         11    1    4    4    0    0 -0.34125603915E-01  0.23525757736E-01  0.23443168875E-01  0.47622068493E-01  0.51100000000E-03 0. -1.
</event>
<event>
 8    1  0.1162192E+005  0.1043930E+01  0.7957747E-01            NaN
         13   -1    0    0    0    0  0.00000000000E+00  0.00000000000E+00  0.74505805969E-08  0.10566000000E+00  0.10566000000E+00 0.  1.
     999900   -1    0    0    0    0 -0.00000000000E+00 -0.00000000000E+00 -0.74505805969E-08  0.93827000000E+00  0.93827000000E+00 0. -1.
     999902    2    1    2    0    0  0.23176666457E-01 -0.33642104020E-02  0.11123929913E-02  0.10204840366E+01  0.10202146616E+01 0.  0.
     999903    2    3    3    0    0 -0.65829342733E-01 -0.10986667106E+00 -0.77662978747E-03  0.12960334193E+00  0.19804931462E-01 0.  0.
         14    1    1    2    0    0 -0.23176666457E-01  0.33642104020E-02 -0.11123929913E-02  0.23445963360E-01  0.00000000000E+00 0. -1.
     999901    1    3    3    0    0  0.89006009191E-01  0.10650246066E+00  0.18890227787E-02  0.89088069471E+00  0.88000000000E+00 0.  1.
        -11    1    4    4    0    0 -0.59856496947E-01 -0.87657145040E-01  0.35084461149E-02  0.10620332207E+00  0.51100000000E-03 0. -1.
         11    1    4    4    0    0 -0.59728457860E-02 -0.22209526025E-01 -0.42850759024E-02  0.23400019862E-01  0.51100000000E-03 0.  1.
</event>
<event>
 8    1  0.1162192E+005  0.1043930E+01  0.7957747E-01            NaN
         13   -1    0    0    0    0  0.00000000000E+00  0.00000000000E+00  0.74505805969E-08  0.10566000000E+00  0.10566000000E+00 0. -1.
     999900   -1    0    0    0    0 -0.00000000000E+00 -0.00000000000E+00 -0.74505805969E-08  0.93827000000E+00  0.93827000000E+00 0.  1.
     999902    2    1    2    0    0  0.11054421311E-01  0.44745105660E-02 -0.15292473108E-01  0.10245371867E+01  0.10243536331E+01 0.  0.
     999903    2    3    3    0    0 -0.68483149136E-01 -0.27618876673E-01  0.10732019239E+00  0.13190620112E+00  0.20709373121E-01 0.  0.
         14    1    1    2    0    0 -0.11054421311E-01 -0.44745105660E-02  0.15292473108E-01  0.19392813336E-01  0.00000000000E+00 0. -1.
     999901    1    3    3    0    0  0.79537570448E-01  0.32093387239E-01 -0.12261266549E+00  0.89263098555E+00  0.88000000000E+00 0.  1.
        -11    1    4    4    0    0 -0.18070674070E-01 -0.17695002033E-01  0.34290646759E-01  0.42611875509E-01  0.51100000000E-03 0.  1.
         11    1    4    4    0    0 -0.50412475067E-01 -0.99238746398E-02  0.73029545628E-01  0.89294325608E-01  0.51100000000E-03 0. -1.
</event>
<event>
 8    1  0.1162192E+005  0.1043930E+01  0.7957747E-01            NaN
         13   -1    0    0    0    0  0.00000000000E+00  0.00000000000E+00  0.74505805969E-08  0.10566000000E+00  0.10566000000E+00 0. -1.
     999900   -1    0    0    0    0 -0.00000000000E+00 -0.00000000000E+00 -0.74505805969E-08  0.93827000000E+00  0.93827000000E+00 0.  1.
     999902    2    1    2    0    0  0.21369248058E-01 -0.97847623034E-03 -0.10974263970E-01  0.10198876073E+01  0.10196041854E+01 0.  0.
     999903    2    3    3    0    0  0.79344852949E-02  0.87455278551E-01 -0.95570138352E-01  0.13131713522E+00  0.19978910273E-01 0.  0.
         14    1    1    2    0    0 -0.21369248058E-01  0.97847623034E-03  0.10974263970E-01  0.24042392726E-01  0.00000000000E+00 0.  1.
     999901    1    3    3    0    0  0.13434762763E-01 -0.88433754782E-01  0.84595874382E-01  0.88857047205E+00  0.88000000000E+00 0. -1.
        -11    1    4    4    0    0 -0.61112447698E-02  0.42129039540E-01 -0.43499971040E-01  0.60866344450E-01  0.51100000000E-03 0. -1.
         11    1    4    4    0    0  0.14045730065E-01  0.45326239011E-01 -0.52070167311E-01  0.70450790775E-01  0.51100000000E-03 0.  1.
</event>
<event>
 8    1  0.1162192E+005  0.1043930E+01  0.7957747E-01            NaN
         13   -1    0    0    0    0  0.00000000000E+00  0.00000000000E+00  0.74505805969E-08  0.10566000000E+00  0.10566000000E+00 0. -1.
     999900   -1    0    0    0    0 -0.00000000000E+00 -0.00000000000E+00 -0.74505805969E-08  0.93827000000E+00  0.93827000000E+00 0.  1.
     999902    2    1    2    0    0  0.53568643182E-02 -0.91554135758E-02  0.21426784722E-01  0.10200213259E+01  0.10197410851E+01 0.  0.
     999903    2    3    3    0    0  0.10176714509E+00 -0.80808975590E-01  0.10144160286E-01  0.13178910808E+00  0.19463367221E-01 0.  0.
         14    1    1    2    0    0 -0.53568643182E-02  0.91554135758E-02 -0.21426784722E-01  0.23908674086E-01  0.00000000000E+00 0.  1.
     999901    1    3    3    0    0 -0.96410280775E-01  0.71653562014E-01  0.11282624436E-01  0.88823221784E+00  0.88000000000E+00 0. -1.
        -11    1    4    4    0    0  0.41826725832E-01 -0.45340230094E-01  0.67428675478E-02  0.62055933178E-01  0.51100000000E-03 0. -1.
         11    1    4    4    0    0  0.59940419261E-01 -0.35468745496E-01  0.34012927383E-02  0.69733174899E-01  0.51100000000E-03 0.  1.
</event>
<event>
 8    1  0.1162192E+005  0.1043930E+01  0.7957747E-01            NaN
         13   -1    0    0    0    0  0.00000000000E+00  0.00000000000E+00  0.74505805969E-08  0.10566000000E+00  0.10566000000E+00 0.  1.
     999900   -1    0    0    0    0 -0.00000000000E+00 -0.00000000000E+00 -0.74505805969E-08  0.93827000000E+00  0.93827000000E+00 0. -1.
     999902    2    1    2    0    0 -0.19670663803E-01 -0.10501541781E-01  0.77540281175E-02  0.10203219008E+01  0.10200487434E+01 0.  0.
     999903    2    3    3    0    0 -0.11947162218E+00  0.24275169959E-01 -0.47584120053E-01  0.13227237428E+00  0.19208855573E-01 0.  0.
         14    1    1    2    0    0  0.19670663803E-01  0.10501541781E-01 -0.77540281175E-02  0.23608099167E-01  0.00000000000E+00 0. -1.
     999901    1    3    3    0    0  0.99800958379E-01 -0.34776711740E-01  0.55338148171E-01  0.88804952656E+00  0.88000000000E+00 0.  1.
        -11    1    4    4    0    0 -0.62705528157E-01  0.17689810715E-01 -0.16478836002E-01  0.67206590612E-01  0.51100000000E-03 0. -1.
         11    1    4    4    0    0 -0.56766094025E-01  0.65853592441E-02 -0.31105284051E-01  0.65065783666E-01  0.51100000000E-03 0.  1.
</event>
<event>
 8    1  0.1162192E+005  0.1043930E+01  0.7957747E-01            NaN
         13   -1    0    0    0    0  0.00000000000E+00  0.00000000000E+00  0.74505805969E-08  0.10566000000E+00  0.10566000000E+00 0. -1.
     999900   -1    0    0    0    0 -0.00000000000E+00 -0.00000000000E+00 -0.74505805969E-08  0.93827000000E+00  0.93827000000E+00 0. -1.
     999902    2    1    2    0    0 -0.79326377588E-02  0.60791238853E-02  0.21728694026E-01  0.10200130890E+01  0.10197326527E+01 0.  0.
     999903    2    3    3    0    0 -0.56172631604E-02 -0.66648391322E-01 -0.10707440838E+00  0.12766512343E+00  0.18970848670E-01 0.  0.
         14    1    1    2    0    0  0.79326377588E-02 -0.60791238853E-02 -0.21728694026E-01  0.23916911027E-01  0.00000000000E+00 0.  1.
     999901    1    3    3    0    0 -0.23153745983E-02  0.72727515207E-01  0.12880310240E+00  0.89234796555E+00  0.88000000000E+00 0.  1.
        -11    1    4    4    0    0  0.30820705607E-02 -0.52209157890E-01 -0.86232807383E-01  0.10085461574E+00  0.51100000000E-03 0. -1.
         11    1    4    4    0    0 -0.86993337212E-02 -0.14439233432E-01 -0.20841600992E-01  0.26810507683E-01  0.51100000000E-03 0.  1.
</event>
<event>
 8    1  0.1162192E+005  0.1043930E+01  0.7957747E-01            NaN
         13   -1    0    0    0    0  0.00000000000E+00  0.00000000000E+00  0.74505805969E-08  0.10566000000E+00  0.10566000000E+00 0. -1.
     999900   -1    0    0    0    0 -0.00000000000E+00 -0.00000000000E+00 -0.74505805969E-08  0.93827000000E+00  0.93827000000E+00 0. -1.
     999902    2    1    2    0    0 -0.10621623984E-01  0.11907701458E-01  0.19539101437E-01  0.10187032536E+01  0.10183908533E+01 0.  0.
     999903    2    3    3    0    0 -0.11296982299E+00  0.25237758760E-01 -0.53777537685E-01  0.12964297787E+00  0.22718995979E-01 0.  0.
         14    1    1    2    0    0  0.10621623984E-01 -0.11907701458E-01 -0.19539101437E-01  0.25226746422E-01  0.00000000000E+00 0.  1.
     999901    1    3    3    0    0  0.10234819901E+00 -0.13330057302E-01  0.73316639122E-01  0.88906027571E+00  0.88000000000E+00 0.  1.
        -11    1    4    4    0    0 -0.10603853657E+00  0.26677201860E-01 -0.44719103856E-01  0.11813510786E+00  0.51100000000E-03 0.  1.
         11    1    4    4    0    0 -0.69312864172E-02 -0.14394431006E-02 -0.90584338294E-02  0.11507870015E-01  0.51100000000E-03 0. -1.
</event>
<event>
 8    1  0.1162192E+005  0.1043930E+01  0.7957747E-01            NaN
         13   -1    0    0    0    0  0.00000000000E+00  0.00000000000E+00  0.74505805969E-08  0.10566000000E+00  0.10566000000E+00 0.  1.
     999900   -1    0    0    0    0 -0.00000000000E+00 -0.00000000000E+00 -0.74505805969E-08  0.93827000000E+00  0.93827000000E+00 0.  1.
     999902    2    1    2    0    0  0.19339600556E-01 -0.14407254775E-01  0.16184828372E-02  0.10197595919E+01  0.10194731074E+01 0.  0.
     999903    2    3    3    0    0  0.34727155529E-01 -0.20268685261E-01 -0.12314579369E+00  0.13080669221E+00  0.18130341658E-01 0.  0.
         14    1    1    2    0    0 -0.19339600556E-01  0.14407254775E-01 -0.16184828372E-02  0.24170408075E-01  0.00000000000E+00 0. -1.
     999901    1    3    3    0    0 -0.15387554972E-01  0.58614304858E-02  0.12476427653E+00  0.88895289972E+00  0.88000000000E+00 0. -1.
        -11    1    4    4    0    0  0.27587984153E-01 -0.63988436384E-02 -0.73679188246E-01  0.78936214573E-01  0.51100000000E-03 0.  1.
         11    1    4    4    0    0  0.71391713759E-02 -0.13869841623E-01 -0.49466605448E-01  0.51870477635E-01  0.51100000000E-03 0. -1.
</event>
<event>
 8    1  0.1162192E+005  0.1043930E+01  0.7957747E-01            NaN
         13   -1    0    0    0    0  0.00000000000E+00  0.00000000000E+00  0.74505805969E-08  0.10566000000E+00  0.10566000000E+00 0.  1.
     999900   -1    0    0    0    0 -0.00000000000E+00 -0.00000000000E+00 -0.74505805969E-08  0.93827000000E+00  0.93827000000E+00 0.  1.
     999902    2    1    2    0    0  0.85785625140E-02  0.14507198259E-01 -0.20678892290E-01  0.10172529102E+01  0.10169030515E+01 0.  0.
     999903    2    3    3    0    0 -0.98968941333E-01  0.22986652580E-01 -0.76802418761E-01  0.12889024944E+00  0.19769859086E-01 0.  0.
         14    1    1    2    0    0 -0.85785625140E-02 -0.14507198259E-01  0.20678892290E-01  0.26677089842E-01  0.00000000000E+00 0. -1.
     999901    1    3    3    0    0  0.10754750385E+00 -0.84794543217E-02  0.56123526472E-01  0.88836266072E+00  0.88000000000E+00 0. -1.
        -11    1    4    4    0    0 -0.81750192761E-01  0.15037233037E-01 -0.70205730957E-01  0.10880403565E+00  0.51100000000E-03 0. -1.
         11    1    4    4    0    0 -0.17218748572E-01  0.79494195429E-02 -0.65966878042E-02  0.20086213791E-01  0.51100000000E-03 0.  1.
</event>
<event>
 8    1  0.1162192E+005  0.1043930E+01  0.7957747E-01            NaN
         13   -1    0    0    0    0  0.00000000000E+00  0.00000000000E+00  0.74505805969E-08  0.10566000000E+00  0.10566000000E+00 0.  1.
     999900   -1    0    0    0    0 -0.00000000000E+00 -0.00000000000E+00 -0.74505805969E-08  0.93827000000E+00  0.93827000000E+00 0. -1.
     999902    2    1    2    0    0  0.22077138100E-01  0.18082868742E-02 -0.71261192331E-02  0.10206608895E+01  0.10203956095E+01 0.  0.
     999903    2    3    3    0    0 -0.11197493957E+00 -0.13439638349E-01 -0.59150731607E-01  0.12885989206E+00  0.19673631121E-01 0.  0.
         14    1    1    2    0    0 -0.22077138100E-01 -0.18082868742E-02  0.71261192331E-02  0.23269110499E-01  0.00000000000E+00 0.  1.
     999901    1    3    3    0    0  0.13405207767E+00  0.15247925223E-01  0.52024612374E-01  0.89180099744E+00  0.88000000000E+00 0. -1.
        -11    1    4    4    0    0 -0.74815761996E-01 -0.10091117928E-02 -0.44291858058E-01  0.86950827259E-01  0.51100000000E-03 0. -1.
         11    1    4    4    0    0 -0.37159177569E-01 -0.12430526556E-01 -0.14858873549E-01  0.41909064798E-01  0.51100000000E-03 0.  1.
</event>
<event>
 8    1  0.1162192E+005  0.1043930E+01  0.7957747E-01            NaN
         13   -1    0    0    0    0  0.00000000000E+00  0.00000000000E+00  0.74505805969E-08  0.10566000000E+00  0.10566000000E+00 0. -1.
     999900   -1    0    0    0    0 -0.00000000000E+00 -0.00000000000E+00 -0.74505805969E-08  0.93827000000E+00  0.93827000000E+00 0. -1.
     999902    2    1    2    0    0  0.16342097746E-01  0.88034207065E-02  0.16128761277E-01  0.10193393246E+01  0.10190426671E+01 0.  0.
     999903    2    3    3    0    0  0.17745949656E-01  0.12789477329E+00  0.11491156242E-01  0.13130428678E+00  0.20899217505E-01 0.  0.
         14    1    1    2    0    0 -0.16342097746E-01 -0.88034207065E-02 -0.16128761277E-01  0.24590675372E-01  0.00000000000E+00 0.  1.
     999901    1    3    3    0    0 -0.14038519098E-02 -0.11909135258E+00  0.46376050353E-02  0.88803503784E+00  0.88000000000E+00 0.  1.
        -11    1    4    4    0    0  0.83769920682E-02  0.46102444507E-01 -0.56825100043E-02  0.47203404819E-01  0.51100000000E-03 0.  1.
         11    1    4    4    0    0  0.93689575880E-02  0.81792328781E-01  0.17173666246E-01  0.84100881964E-01  0.51100000000E-03 0. -1.
</event>
<event>
 8    1  0.1162192E+005  0.1043930E+01  0.7957747E-01            NaN
         13   -1    0    0    0    0  0.00000000000E+00  0.00000000000E+00  0.74505805969E-08  0.10566000000E+00  0.10566000000E+00 0.  1.
     999900   -1    0    0    0    0 -0.00000000000E+00 -0.00000000000E+00 -0.74505805969E-08  0.93827000000E+00  0.93827000000E+00 0. -1.
     999902    2    1    2    0    0  0.20838188527E-01 -0.12052711697E-01  0.59069420197E-02  0.10191431098E+01  0.10188416405E+01 0.  0.
     999903    2    3    3    0    0  0.56020016844E-01 -0.81648949898E-01 -0.83618799952E-01  0.13116999318E+00  0.20215590485E-01 0.  0.
         14    1    1    2    0    0 -0.20838188527E-01  0.12052711697E-01 -0.59069420197E-02  0.24786890172E-01  0.00000000000E+00 0. -1.
     999901    1    3    3    0    0 -0.35181828317E-01  0.69596238201E-01  0.89525741971E-01  0.88797311665E+00  0.88000000000E+00 0.  1.
        -11    1    4    4    0    0  0.15042814337E-01 -0.39301215827E-01 -0.32871047723E-01  0.53400737149E-01  0.51100000000E-03 0. -1.
         11    1    4    4    0    0  0.40977202507E-01 -0.42347734071E-01 -0.50747752229E-01  0.77769256031E-01  0.51100000000E-03 0.  1.
</event>
<event>
 8    1  0.1162192E+005  0.1043930E+01  0.7957747E-01            NaN
         13   -1    0    0    0    0  0.00000000000E+00  0.00000000000E+00  0.74505805969E-08  0.10566000000E+00  0.10566000000E+00 0.  1.
     999900   -1    0    0    0    0 -0.00000000000E+00 -0.00000000000E+00 -0.74505805969E-08  0.93827000000E+00  0.93827000000E+00 0. -1.
     999902    2    1    2    0    0  0.17895498926E-01 -0.13081604898E-01 -0.93281276634E-02  0.10198802342E+01  0.10195966364E+01 0.  0.
     999903    2    3    3    0    0 -0.64276608160E-01 -0.66975643217E-01  0.87528690769E-01  0.12912882904E+00  0.19893809094E-01 0.  0.
         14    1    1    2    0    0 -0.17895498926E-01  0.13081604898E-01  0.93281276634E-02  0.24049765783E-01  0.00000000000E+00 0. -1.
     999901    1    3    3    0    0  0.82172107086E-01  0.53894038319E-01 -0.96856818433E-01  0.89075140518E+00  0.88000000000E+00 0. -1.
        -11    1    4    4    0    0 -0.33076745294E-01 -0.47833380522E-01  0.49908600931E-01  0.76637020684E-01  0.51100000000E-03 0.  1.
         11    1    4    4    0    0 -0.31199862866E-01 -0.19142262695E-01  0.37620089838E-01  0.52491808355E-01  0.51100000000E-03 0. -1.
</event>
<event>
 8    1  0.1162192E+005  0.1043930E+01  0.7957747E-01            NaN
         13   -1    0    0    0    0  0.00000000000E+00  0.00000000000E+00  0.74505805969E-08  0.10566000000E+00  0.10566000000E+00 0.  1.
     999900   -1    0    0    0    0 -0.00000000000E+00 -0.00000000000E+00 -0.74505805969E-08  0.93827000000E+00  0.93827000000E+00 0.  1.
     999902    2    1    2    0    0  0.13533272956E-01 -0.49824078326E-02  0.19110389633E-01  0.10199888042E+01  0.10197077914E+01 0.  0.
     999903    2    3    3    0    0 -0.58718604326E-02 -0.61010141723E-01  0.11597753177E+00  0.13269014568E+00  0.19979257969E-01 0.  0.
         14    1    1    2    0    0 -0.13533272956E-01  0.49824078326E-02 -0.19110389633E-01  0.23941195806E-01  0.00000000000E+00 0. -1.
     999901    1    3    3    0    0  0.19405133389E-01  0.56027733890E-01 -0.96867142134E-01  0.88729865851E+00  0.88000000000E+00 0.  1.
        -11    1    4    4    0    0 -0.12539938322E-01 -0.45126452470E-01  0.90953283568E-01  0.10230546260E+00  0.51100000000E-03 0.  1.
         11    1    4    4    0    0  0.66680778896E-02 -0.15883689253E-01  0.25024248200E-01  0.30384683082E-01  0.51100000000E-03 0. -1.
</event>
<event>
 8    1  0.1162192E+005  0.1043930E+01  0.7957747E-01            NaN
         13   -1    0    0    0    0  0.00000000000E+00  0.00000000000E+00  0.74505805969E-08  0.10566000000E+00  0.10566000000E+00 0.  1.
     999900   -1    0    0    0    0 -0.00000000000E+00 -0.00000000000E+00 -0.74505805969E-08  0.93827000000E+00  0.93827000000E+00 0. -1.
     999902    2    1    2    0    0 -0.21599525866E-01  0.10620797109E-01  0.76539115545E-02  0.10186728582E+01  0.10183596952E+01 0.  0.
     999903    2    3    3    0    0 -0.12063029000E+00  0.35365070584E-01 -0.36941133823E-01  0.13165082389E+00  0.12842779244E-01 0.  0.
         14    1    1    2    0    0  0.21599525866E-01 -0.10620797109E-01 -0.76539115545E-02  0.25257141781E-01  0.00000000000E+00 0. -1.
     999901    1    3    3    0    0  0.99030764138E-01 -0.24744273474E-01  0.44595045377E-01  0.88702203433E+00  0.88000000000E+00 0. -1.
        -11    1    4    4    0    0 -0.42317693726E-01  0.17674915161E-01 -0.97888482160E-02  0.46896401766E-01  0.51100000000E-03 0.  1.
         11    1    4    4    0    0 -0.78312596277E-01  0.17690155423E-01 -0.27152285607E-01  0.84754422122E-01  0.51100000000E-03 0. -1.
</event>
<event>
 8    1  0.1162192E+005  0.1043930E+01  0.7957747E-01            NaN
         13   -1    0    0    0    0  0.00000000000E+00  0.00000000000E+00  0.74505805969E-08  0.10566000000E+00  0.10566000000E+00 0. -1.
     999900   -1    0    0    0    0 -0.00000000000E+00 -0.00000000000E+00 -0.74505805969E-08  0.93827000000E+00  0.93827000000E+00 0. -1.
     999902    2    1    2    0    0  0.10543611944E-01  0.84321168058E-02  0.19827223129E-01  0.10199427717E+01  0.10196606643E+01 0.  0.
     999903    2    3    3    0    0 -0.47027897537E-01  0.11273001967E-01  0.12145155201E+00  0.13222093822E+00  0.19829102302E-01 0.  0.
         14    1    1    2    0    0 -0.10543611944E-01 -0.84321168058E-02 -0.19827223129E-01  0.23987228345E-01  0.00000000000E+00 0.  1.
     999901    1    3    3    0    0  0.57571509481E-01 -0.28408851613E-02 -0.10162432888E+00  0.88772183343E+00  0.88000000000E+00 0. -1.
        -11    1    4    4    0    0 -0.17290522506E-01 -0.32717742824E-02  0.27964099193E-01  0.33044192231E-01  0.51100000000E-03 0.  1.
         11    1    4    4    0    0 -0.29737375030E-01  0.14544776250E-01  0.93487452819E-01  0.99176745992E-01  0.51100000000E-03 0. -1.
</event>
<event>
 8    1  0.1162192E+005  0.1043930E+01  0.7957747E-01            NaN
         13   -1    0    0    0    0  0.00000000000E+00  0.00000000000E+00  0.74505805969E-08  0.10566000000E+00  0.10566000000E+00 0.  1.
     999900   -1    0    0    0    0 -0.00000000000E+00 -0.00000000000E+00 -0.74505805969E-08  0.93827000000E+00  0.93827000000E+00 0. -1.
     999902    2    1    2    0    0  0.20236495927E-01  0.85809894735E-02  0.84768919659E-02  0.10203714167E+01  0.10200994173E+01 0.  0.
     999903    2    3    3    0    0 -0.98780489208E-03 -0.54562417235E-01 -0.11527043218E+00  0.12921993636E+00  0.20796304559E-01 0.  0.
         14    1    1    2    0    0 -0.20236495927E-01 -0.85809894735E-02 -0.84768919659E-02  0.23558583258E-01  0.00000000000E+00 0.  1.
     999901    1    3    3    0    0  0.21224300819E-01  0.63143406709E-01  0.12374732415E+00  0.89115148038E+00  0.88000000000E+00 0.  1.
        -11    1    4    4    0    0 -0.74788220493E-02 -0.10042900690E-01 -0.35338268508E-01  0.37494625957E-01  0.51100000000E-03 0.  1.
         11    1    4    4    0    0  0.64910171572E-02 -0.44519516545E-01 -0.79932163676E-01  0.91725310400E-01  0.51100000000E-03 0. -1.
</event>
<event>
 8    1  0.1162192E+005  0.1043930E+01  0.7957747E-01            NaN
         13   -1    0    0    0    0  0.00000000000E+00  0.00000000000E+00  0.74505805969E-08  0.10566000000E+00  0.10566000000E+00 0.  1.
     999900   -1    0    0    0    0 -0.00000000000E+00 -0.00000000000E+00 -0.74505805969E-08  0.93827000000E+00  0.93827000000E+00 0. -1.
     999902    2    1    2    0    0 -0.18207981165E-01  0.10732728252E-01 -0.10408613997E-01  0.10203702615E+01  0.10200982351E+01 0.  0.
     999903    2    3    3    0    0 -0.11753666238E+00 -0.57368485719E-01 -0.17789619014E-02  0.13212568190E+00  0.18655319735E-01 0.  0.
         14    1    1    2    0    0  0.18207981165E-01 -0.10732728252E-01  0.10408613997E-01  0.23559738521E-01  0.00000000000E+00 0.  1.
     999901    1    3    3    0    0  0.99328681218E-01  0.68101213971E-01 -0.86296520954E-02  0.88824457958E+00  0.88000000000E+00 0.  1.
        -11    1    4    4    0    0 -0.55201665557E-01 -0.37000362694E-01 -0.31443674417E-02  0.66531187328E-01  0.51100000000E-03 0. -1.
         11    1    4    4    0    0 -0.62334996826E-01 -0.20368123025E-01  0.13654055402E-02  0.65594494572E-01  0.51100000000E-03 0.  1.
</event>
<event>
 8    1  0.1162192E+005  0.1043930E+01  0.7957747E-01            NaN
         13   -1    0    0    0    0  0.00000000000E+00  0.00000000000E+00  0.74505805969E-08  0.10566000000E+00  0.10566000000E+00 0. -1.
     999900   -1    0    0    0    0 -0.00000000000E+00 -0.00000000000E+00 -0.74505805969E-08  0.93827000000E+00  0.93827000000E+00 0.  1.
     999902    2    1    2    0    0 -0.24543926484E-01  0.20155676878E-01 -0.18187359371E-01  0.10073316984E+01  0.10066666355E+01 0.  0.
     999903    2    3    3    0    0  0.87976263679E-01  0.23555504581E-01  0.68255543588E-01  0.11595931412E+00  0.22204921381E-01 0.  0.
         14    1    1    2    0    0  0.24543926484E-01 -0.20155676878E-01  0.18187359371E-01  0.36598301580E-01  0.00000000000E+00 0.  1.
     999901    1    3    3    0    0 -0.11252019016E+00 -0.33998277036E-02 -0.86442902959E-01  0.89137238430E+00  0.88000000000E+00 0.  1.
        -11    1    4    4    0    0  0.43204813619E-01  0.81433737580E-02  0.46012723507E-01  0.63642771007E-01  0.51100000000E-03 0. -1.
         11    1    4    4    0    0  0.44771450060E-01  0.15412130823E-01  0.22242820081E-01  0.52316543112E-01  0.51100000000E-03 0.  1.
</event>
<event>
 8    1  0.1162192E+005  0.1043930E+01  0.7957747E-01            NaN
         13   -1    0    0    0    0  0.00000000000E+00  0.00000000000E+00  0.74505805969E-08  0.10566000000E+00  0.10566000000E+00 0.  1.
     999900   -1    0    0    0    0 -0.00000000000E+00 -0.00000000000E+00 -0.74505805969E-08  0.93827000000E+00  0.93827000000E+00 0.  1.
     999902    2    1    2    0    0  0.48558094648E-02  0.73781291346E-02 -0.21854948073E-01  0.10203576766E+01  0.10200853561E+01 0.  0.
     999903    2    3    3    0    0 -0.11366079634E+00 -0.54737529717E-01  0.19730999236E-01  0.12927186034E+00  0.20172450548E-01 0.  0.
         14    1    1    2    0    0 -0.48558094648E-02 -0.73781291346E-02  0.21854948073E-01  0.23572323397E-01  0.00000000000E+00 0.  1.
     999901    1    3    3    0    0  0.11851660581E+00  0.62115658852E-01 -0.41585947308E-01  0.89108581626E+00  0.88000000000E+00 0.  1.
        -11    1    4    4    0    0 -0.74534210038E-01 -0.41337727952E-01  0.21401639291E-01  0.87877457312E-01  0.51100000000E-03 0.  1.
         11    1    4    4    0    0 -0.39126586303E-01 -0.13399801765E-01 -0.16706400553E-02  0.41394403031E-01  0.51100000000E-03 0. -1.
</event>
<event>
 8    1  0.1162192E+005  0.1043930E+01  0.7957747E-01            NaN
         13   -1    0    0    0    0  0.00000000000E+00  0.00000000000E+00  0.74505805969E-08  0.10566000000E+00  0.10566000000E+00 0. -1.
     999900   -1    0    0    0    0 -0.00000000000E+00 -0.00000000000E+00 -0.74505805969E-08  0.93827000000E+00  0.93827000000E+00 0. -1.
     999902    2    1    2    0    0 -0.13329393242E-01 -0.17919614720E-01 -0.79788024245E-02  0.10202140433E+01  0.10199383547E+01 0.  0.
     999903    2    3    3    0    0 -0.85555744669E-01  0.93556412945E-01 -0.21398683873E-01  0.13014458316E+00  0.20177239796E-01 0.  0.
         14    1    1    2    0    0  0.13329393242E-01  0.17919614720E-01  0.79788024245E-02  0.23715956739E-01  0.00000000000E+00 0. -1.
     999901    1    3    3    0    0  0.72226351428E-01 -0.11147602766E+00  0.13419881449E-01  0.89006946010E+00  0.88000000000E+00 0.  1.
        -11    1    4    4    0    0 -0.25115846841E-01  0.15109575963E-01 -0.60173065564E-02  0.29926144883E-01  0.51100000000E-03 0.  1.
         11    1    4    4    0    0 -0.60439897828E-01  0.78446836982E-01 -0.15381377317E-01  0.10021843828E+00  0.51100000000E-03 0. -1.
</event>
<event>
 8    1  0.1162192E+005  0.1043930E+01  0.7957747E-01            NaN
         13   -1    0    0    0    0  0.00000000000E+00  0.00000000000E+00  0.74505805969E-08  0.10566000000E+00  0.10566000000E+00 0.  1.
     999900   -1    0    0    0    0 -0.00000000000E+00 -0.00000000000E+00 -0.74505805969E-08  0.93827000000E+00  0.93827000000E+00 0.  1.
     999902    2    1    2    0    0  0.28292269198E-02  0.17272037526E-01 -0.17973219081E-01  0.10188428637E+01  0.10185339545E+01 0.  0.
     999903    2    3    3    0    0 -0.10315015384E+00  0.47422283653E-01  0.57034911057E-01  0.12880528801E+00  0.21189476574E-01 0.  0.
         14    1    1    2    0    0 -0.28292269198E-02 -0.17272037526E-01  0.17973219081E-01  0.25087136333E-01  0.00000000000E+00 0.  1.
     999901    1    3    3    0    0  0.10597938076E+00 -0.30150246128E-01 -0.75008130138E-01  0.89003757565E+00  0.88000000000E+00 0.  1.
        -11    1    4    4    0    0 -0.54351048646E-01  0.36269115469E-01  0.29823179683E-01  0.71827351289E-01  0.51100000000E-03 0. -1.
         11    1    4    4    0    0 -0.48799105192E-01  0.11153168184E-01  0.27211731374E-01  0.56977936725E-01  0.51100000000E-03 0.  1.
</event>
<event>
 8    1  0.1162192E+005  0.1043930E+01  0.7957747E-01            NaN
         13   -1    0    0    0    0  0.00000000000E+00  0.00000000000E+00  0.74505805969E-08  0.10566000000E+00  0.10566000000E+00 0. -1.
     999900   -1    0    0    0    0 -0.00000000000E+00 -0.00000000000E+00 -0.74505805969E-08  0.93827000000E+00  0.93827000000E+00 0.  1.
     999902    2    1    2    0    0 -0.11468824172E-02  0.10164840055E-01 -0.27626777570E-01  0.10144702283E+01  0.10140423886E+01 0.  0.
     999903    2    3    3    0    0  0.75791731490E-01  0.31918239645E-01 -0.96355313277E-01  0.12817661306E+00  0.19538094970E-01 0.  0.
         14    1    1    2    0    0  0.11468824172E-02 -0.10164840055E-01  0.27626777570E-01  0.29459771749E-01  0.00000000000E+00 0. -1.
     999901    1    3    3    0    0 -0.76938613907E-01 -0.21753399590E-01  0.68728535707E-01  0.88629361519E+00  0.88000000000E+00 0. -1.
        -11    1    4    4    0    0  0.17247585197E-01  0.12783746614E-01 -0.36140901048E-01  0.42039614915E-01  0.51100000000E-03 0.  1.
         11    1    4    4    0    0  0.58544146294E-01  0.19134493032E-01 -0.60214412228E-01  0.86136998147E-01  0.51100000000E-03 0. -1.
</event>
<event>
 8    1  0.1162192E+005  0.1043930E+01  0.7957747E-01            NaN
         13   -1    0    0    0    0  0.00000000000E+00  0.00000000000E+00  0.74505805969E-08  0.10566000000E+00  0.10566000000E+00 0. -1.
     999900   -1    0    0    0    0 -0.00000000000E+00 -0.00000000000E+00 -0.74505805969E-08  0.93827000000E+00  0.93827000000E+00 0. -1.
     999902    2    1    2    0    0  0.32277884897E-02  0.43383100001E-03  0.24423901651E-01  0.10192899148E+01  0.10189920493E+01 0.  0.
     999903    2    3    3    0    0 -0.77794688720E-01  0.10117910533E+00  0.12217944031E-01  0.12976013028E+00  0.19979697338E-01 0.  0.
         14    1    1    2    0    0 -0.32277884897E-02 -0.43383100001E-03 -0.24423901651E-01  0.24640085221E-01  0.00000000000E+00 0.  1.
     999901    1    3    3    0    0  0.81022477209E-01 -0.10074527433E+00  0.12205957619E-01  0.88952978450E+00  0.88000000000E+00 0.  1.
        -11    1    4    4    0    0 -0.71808639260E-01  0.95788812976E-01  0.65481581561E-02  0.11989627542E+00  0.51100000000E-03 0.  1.
         11    1    4    4    0    0 -0.59860494591E-02  0.53902923509E-02  0.56697858752E-02  0.98638548563E-02  0.51100000000E-03 0. -1.
</event>
<event>
 8    1  0.1162192E+005  0.1043930E+01  0.7957747E-01            NaN
         13   -1    0    0    0    0  0.00000000000E+00  0.00000000000E+00  0.74505805969E-08  0.10566000000E+00  0.10566000000E+00 0. -1.
     999900   -1    0    0    0    0 -0.00000000000E+00 -0.00000000000E+00 -0.74505805969E-08  0.93827000000E+00  0.93827000000E+00 0. -1.
     999902    2    1    2    0    0 -0.21037458771E-01 -0.98103903241E-02 -0.26284317314E-02  0.10205691977E+01  0.10203017986E+01 0.  0.
     999903    2    3    3    0    0 -0.40980754284E-01  0.11134709990E+00  0.50669022576E-01  0.13044702009E+00  0.19273721029E-01 0.  0.
         14    1    1    2    0    0  0.21037458771E-01  0.98103903241E-02  0.26284317314E-02  0.23360802281E-01  0.00000000000E+00 0.  1.
     999901    1    3    3    0    0  0.19943295514E-01 -0.12115749023E+00 -0.53297454308E-01  0.89012217763E+00  0.88000000000E+00 0. -1.
        -11    1    4    4    0    0 -0.22560495792E-01  0.55946166839E-01  0.15491017734E-01  0.62283082019E-01  0.51100000000E-03 0. -1.
         11    1    4    4    0    0 -0.18420258492E-01  0.55400933066E-01  0.35178004843E-01  0.68163938070E-01  0.51100000000E-03 0.  1.
</event>
<event>
 8    1  0.1162192E+005  0.1043930E+01  0.7957747E-01            NaN
         13   -1    0    0    0    0  0.00000000000E+00  0.00000000000E+00  0.74505805969E-08  0.10566000000E+00  0.10566000000E+00 0.  1.
     999900   -1    0    0    0    0 -0.00000000000E+00 -0.00000000000E+00 -0.74505805969E-08  0.93827000000E+00  0.93827000000E+00 0.  1.
     999902    2    1    2    0    0 -0.11978091610E-01 -0.19862382226E-01 -0.11338745954E-02  0.10207077138E+01  0.10204435126E+01 0.  0.
     999903    2    3    3    0    0  0.64265877489E-01  0.20285649012E-02  0.11115164591E+00  0.13003359014E+00  0.20489706919E-01 0.  0.
         14    1    1    2    0    0  0.11978091610E-01  0.19862382226E-01  0.11338745954E-02  0.23222286234E-01  0.00000000000E+00 0. -1.
     999901    1    3    3    0    0 -0.76243969099E-01 -0.21890947127E-01 -0.11228552051E+00  0.89067412363E+00  0.88000000000E+00 0.  1.
        -11    1    4    4    0    0  0.41656468258E-01  0.36859620036E-02  0.52307562937E-01  0.66971560569E-01  0.51100000000E-03 0.  1.
         11    1    4    4    0    0  0.22609409232E-01 -0.16573971024E-02  0.58844082974E-01  0.63062029566E-01  0.51100000000E-03 0. -1.
</event>
<event>
 8    1  0.1162192E+005  0.1043930E+01  0.7957747E-01            NaN
         13   -1    0    0    0    0  0.00000000000E+00  0.00000000000E+00  0.74505805969E-08  0.10566000000E+00  0.10566000000E+00 0.  1.
     999900   -1    0    0    0    0 -0.00000000000E+00 -0.00000000000E+00 -0.74505805969E-08  0.93827000000E+00  0.93827000000E+00 0.  1.
     999902    2    1    2    0    0  0.18997562395E-01 -0.62744406904E-02 -0.10951613470E-01  0.10211218037E+01  0.10208670452E+01 0.  0.
     999903    2    3    3    0    0  0.25950000087E-01  0.12656123651E+00  0.81343165421E-02  0.13092074420E+00  0.19568471204E-01 0.  0.
         14    1    1    2    0    0 -0.18997562395E-01  0.62744406904E-02  0.10951613470E-01  0.22808196346E-01  0.00000000000E+00 0.  1.
     999901    1    3    3    0    0 -0.69524376919E-02 -0.13283567720E+00 -0.19085930012E-01  0.89020105945E+00  0.88000000000E+00 0.  1.
        -11    1    4    4    0    0  0.17410668922E-01  0.40519385723E-01  0.36201438153E-03  0.44106056127E-01  0.51100000000E-03 0. -1.
         11    1    4    4    0    0  0.85393311653E-02  0.86041850786E-01  0.77723021605E-02  0.86814688074E-01  0.51100000000E-03 0.  1.
</event>
<event>
 8    1  0.1162192E+005  0.1043930E+01  0.7957747E-01            NaN
         13   -1    0    0    0    0  0.00000000000E+00  0.00000000000E+00  0.74505805969E-08  0.10566000000E+00  0.10566000000E+00 0. -1.
     999900   -1    0    0    0    0 -0.00000000000E+00 -0.00000000000E+00 -0.74505805969E-08  0.93827000000E+00  0.93827000000E+00 0. -1.
     999902    2    1    2    0    0 -0.25577195855E-02  0.22081641506E-01  0.76262008970E-02  0.10204289413E+01  0.10201582840E+01 0.  0.
     999903    2    3    3    0    0 -0.60228199813E-01  0.10861685740E+00 -0.42816427484E-01  0.13287123237E+00  0.19911307444E-01 0.  0.
         14    1    1    2    0    0  0.25577195855E-02 -0.22081641506E-01 -0.76262008970E-02  0.23501058725E-01  0.00000000000E+00 0.  1.
     999901    1    3    3    0    0  0.57670480228E-01 -0.86535215896E-01  0.50442628381E-01  0.88755770891E+00  0.88000000000E+00 0.  1.
        -11    1    4    4    0    0 -0.37771691397E-01  0.61576807231E-01 -0.14982410633E-01  0.73777622685E-01  0.51100000000E-03 0. -1.
         11    1    4    4    0    0 -0.22456508416E-01  0.47040050171E-01 -0.27834016852E-01  0.59093609684E-01  0.51100000000E-03 0.  1.
</event>
<event>
 8    1  0.1162192E+005  0.1043930E+01  0.7957747E-01            NaN
         13   -1    0    0    0    0  0.00000000000E+00  0.00000000000E+00  0.74505805969E-08  0.10566000000E+00  0.10566000000E+00 0.  1.
     999900   -1    0    0    0    0 -0.00000000000E+00 -0.00000000000E+00 -0.74505805969E-08  0.93827000000E+00  0.93827000000E+00 0.  1.
     999902    2    1    2    0    0 -0.28024450314E-01  0.48011045727E-02 -0.45812949636E-02  0.10151305437E+01  0.10147219383E+01 0.  0.
     999903    2    3    3    0    0  0.28208243637E-01 -0.63170038178E-01 -0.10250704801E+00  0.12531503178E+00  0.20248544796E-01 0.  0.
         14    1    1    2    0    0  0.28024450314E-01 -0.48011045727E-02  0.45812949636E-02  0.28799456315E-01  0.00000000000E+00 0.  1.
     999901    1    3    3    0    0 -0.56232693951E-01  0.67971142751E-01  0.97925753044E-01  0.88981551190E+00  0.88000000000E+00 0. -1.
        -11    1    4    4    0    0  0.13610059565E-01 -0.50067954627E-01 -0.66949834157E-01  0.84702864276E-01  0.51100000000E-03 0.  1.
         11    1    4    4    0    0  0.14598184072E-01 -0.13102083551E-01 -0.35557213851E-01  0.40612167504E-01  0.51100000000E-03 0. -1.
</event>
<event>
 8    1  0.1162192E+005  0.1043930E+01  0.7957747E-01            NaN
         13   -1    0    0    0    0  0.00000000000E+00  0.00000000000E+00  0.74505805969E-08  0.10566000000E+00  0.10566000000E+00 0. -1.
     999900   -1    0    0    0    0 -0.00000000000E+00 -0.00000000000E+00 -0.74505805969E-08  0.93827000000E+00  0.93827000000E+00 0. -1.
     999902    2    1    2    0    0  0.40313852098E-02 -0.22584132715E-01 -0.58783711678E-02  0.10202477204E+01  0.10199728235E+01 0.  0.
     999903    2    3    3    0    0  0.93797545195E-02 -0.12648725132E+00 -0.36541676687E-01  0.13358842770E+00  0.20580800226E-01 0.  0.
         14    1    1    2    0    0 -0.40313852098E-02  0.22584132715E-01  0.58783711678E-02  0.23682279552E-01  0.00000000000E+00 0. -1.
     999901    1    3    3    0    0 -0.53483693096E-02  0.10390311861E+00  0.30663305519E-01  0.88665929275E+00  0.88000000000E+00 0.  1.
        -11    1    4    4    0    0  0.97604586710E-02 -0.44047453372E-01 -0.53164209830E-02  0.45430938303E-01  0.51100000000E-03 0.  1.
         11    1    4    4    0    0 -0.38070415155E-03 -0.82439797952E-01 -0.31225255704E-01  0.88157489397E-01  0.51100000000E-03 0. -1.
</event>
<event>
 8    1  0.1162192E+005  0.1043930E+01  0.7957747E-01            NaN
         13   -1    0    0    0    0  0.00000000000E+00  0.00000000000E+00  0.74505805969E-08  0.10566000000E+00  0.10566000000E+00 0.  1.
     999900   -1    0    0    0    0 -0.00000000000E+00 -0.00000000000E+00 -0.74505805969E-08  0.93827000000E+00  0.93827000000E+00 0.  1.
     999902    2    1    2    0    0  0.58443385448E-02 -0.12494921145E-01  0.76944427009E-03  0.10301143787E+01  0.10300217288E+01 0.  0.
     999903    2    3    3    0    0  0.60611280961E-01  0.64285416865E-01  0.10246424323E+00  0.13925161125E+00  0.32950688851E-01 0.  0.
         14    1    1    2    0    0 -0.58443385448E-02  0.12494921145E-01 -0.76944427009E-03  0.13815621301E-01  0.00000000000E+00 0. -1.
     999901    1    3    3    0    0 -0.54766942416E-01 -0.76780338010E-01 -0.10169479896E+00  0.89086276745E+00  0.88000000000E+00 0.  1.
        -11    1    4    4    0    0  0.50898311068E-01  0.36373198321E-01  0.54810527764E-01  0.83175132705E-01  0.51100000000E-03 0.  1.
         11    1    4    4    0    0  0.97129698933E-02  0.27912218544E-01  0.47653715461E-01  0.56076478549E-01  0.51100000000E-03 0. -1.
</event>
<event>
 8    1  0.1162192E+005  0.1043930E+01  0.7957747E-01            NaN
         13   -1    0    0    0    0  0.00000000000E+00  0.00000000000E+00  0.74505805969E-08  0.10566000000E+00  0.10566000000E+00 0.  1.
     999900   -1    0    0    0    0 -0.00000000000E+00 -0.00000000000E+00 -0.74505805969E-08  0.93827000000E+00  0.93827000000E+00 0.  1.
     999902    2    1    2    0    0 -0.62560266860E-02 -0.22312384680E-01  0.52578478478E-02  0.10201681536E+01  0.10198913846E+01 0.  0.
     999903    2    3    3    0    0 -0.73749944681E-01 -0.62730591258E-01 -0.87282323152E-01  0.13182545868E+00  0.19635839691E-01 0.  0.
         14    1    1    2    0    0  0.62560266860E-02  0.22312384680E-01 -0.52578478478E-02  0.23761846392E-01  0.00000000000E+00 0. -1.
     999901    1    3    3    0    0  0.67493917995E-01  0.40418206578E-01  0.92540171000E-01  0.88834269493E+00  0.88000000000E+00 0. -1.
        -11    1    4    4    0    0 -0.57537075709E-01 -0.43227345027E-01 -0.73866080558E-01  0.10312893589E+00  0.51100000000E-03 0. -1.
         11    1    4    4    0    0 -0.16212868972E-01 -0.19503246231E-01 -0.13416242594E-01  0.28696522789E-01  0.51100000000E-03 0.  1.
</event>
<event>
 8    1  0.1162192E+005  0.1043930E+01  0.7957747E-01            NaN
         13   -1    0    0    0    0  0.00000000000E+00  0.00000000000E+00  0.74505805969E-08  0.10566000000E+00  0.10566000000E+00 0. -1.
     999900   -1    0    0    0    0 -0.00000000000E+00 -0.00000000000E+00 -0.74505805969E-08  0.93827000000E+00  0.93827000000E+00 0. -1.
     999902    2    1    2    0    0 -0.54034592557E-02 -0.20921897000E-01 -0.99231748023E-02  0.10201520156E+01  0.10198748660E+01 0.  0.
     999903    2    3    3    0    0 -0.36502740294E-03 -0.70688044460E-01 -0.11093830490E+00  0.13296200674E+00  0.19356003456E-01 0.  0.
         14    1    1    2    0    0  0.54034592557E-02  0.20921897000E-01  0.99231748023E-02  0.23777984443E-01  0.00000000000E+00 0. -1.
     999901    1    3    3    0    0 -0.50384318527E-02  0.49766147460E-01  0.10101513009E+00  0.88719000881E+00  0.88000000000E+00 0.  1.
        -11    1    4    4    0    0  0.30126823994E-02 -0.42348982107E-01 -0.81852801956E-01  0.92209841394E-01  0.51100000000E-03 0. -1.
         11    1    4    4    0    0 -0.33777098024E-02 -0.28339062353E-01 -0.29085502940E-01  0.40752165351E-01  0.51100000000E-03 0.  1.
</event>
<event>
 8    1  0.1162192E+005  0.1043930E+01  0.7957747E-01            NaN
         13   -1    0    0    0    0  0.00000000000E+00  0.00000000000E+00  0.74505805969E-08  0.10566000000E+00  0.10566000000E+00 0.  1.
     999900   -1    0    0    0    0 -0.00000000000E+00 -0.00000000000E+00 -0.74505805969E-08  0.93827000000E+00  0.93827000000E+00 0. -1.
     999902    2    1    2    0    0  0.89424184215E-02  0.16693092040E-01 -0.15162265296E-01  0.10196705594E+01  0.10193819349E+01 0.  0.
     999903    2    3    3    0    0 -0.91604851923E-01 -0.18642665087E-01 -0.88921588880E-01  0.13017699163E+00  0.17320575119E-01 0.  0.
         14    1    1    2    0    0 -0.89424184215E-02 -0.16693092040E-01  0.15162265296E-01  0.24259440595E-01  0.00000000000E+00 0.  1.
     999901    1    3    3    0    0  0.10054727034E+00  0.35335757127E-01  0.73759323583E-01  0.88949356778E+00  0.88000000000E+00 0.  1.
        -11    1    4    4    0    0 -0.37570363204E-01 -0.10522113266E-01 -0.26243663944E-01  0.47023803303E-01  0.51100000000E-03 0. -1.
         11    1    4    4    0    0 -0.54034488719E-01 -0.81205518208E-02 -0.62677924936E-01  0.83153188323E-01  0.51100000000E-03 0.  1.
</event>
<event>
 8    1  0.1162192E+005  0.1043930E+01  0.7957747E-01            NaN
         13   -1    0    0    0    0  0.00000000000E+00  0.00000000000E+00  0.74505805969E-08  0.10566000000E+00  0.10566000000E+00 0.  1.
     999900   -1    0    0    0    0 -0.00000000000E+00 -0.00000000000E+00 -0.74505805969E-08  0.93827000000E+00  0.93827000000E+00 0.  1.
     999902    2    1    2    0    0  0.21603574654E-01 -0.70482279864E-02  0.13292155787E-02  0.10211668989E+01  0.10209131583E+01 0.  0.
     999903    2    3    3    0    0  0.45352031666E-01 -0.10309527980E+00 -0.68025053089E-01  0.13291071971E+00  0.18772535023E-01 0.  0.
         14    1    1    2    0    0 -0.21603574654E-01  0.70482279864E-02 -0.13292155787E-02  0.22763101054E-01  0.00000000000E+00 0.  1.
     999901    1    3    3    0    0 -0.23748457012E-01  0.96047051818E-01  0.69354268668E-01  0.88825617924E+00  0.88000000000E+00 0. -1.
        -11    1    4    4    0    0  0.22636175121E-01 -0.31632088388E-01 -0.18764771890E-01  0.43189850948E-01  0.51100000000E-03 0.  1.
         11    1    4    4    0    0  0.22715856545E-01 -0.71463191416E-01 -0.49260281199E-01  0.89720868759E-01  0.51100000000E-03 0. -1.
</event>
<event>
 8    1  0.1162192E+005  0.1043930E+01  0.7957747E-01            NaN
         13   -1    0    0    0    0  0.00000000000E+00  0.00000000000E+00  0.74505805969E-08  0.10566000000E+00  0.10566000000E+00 0. -1.
     999900   -1    0    0    0    0 -0.00000000000E+00 -0.00000000000E+00 -0.74505805969E-08  0.93827000000E+00  0.93827000000E+00 0. -1.
     999902    2    1    2    0    0  0.12617762548E-01 -0.19191601866E-01  0.55774496619E-02  0.10202945720E+01  0.10200207744E+01 0.  0.
     999903    2    3    3    0    0 -0.62622193246E-01 -0.87162108459E-02  0.11200971096E+00  0.13063249510E+00  0.22828972996E-01 0.  0.
         14    1    1    2    0    0 -0.12617762548E-01  0.19191601866E-01 -0.55774496619E-02  0.23635428040E-01  0.00000000000E+00 0.  1.
     999901    1    3    3    0    0  0.75239955794E-01 -0.10475391020E-01 -0.10643226129E+00  0.88966207686E+00  0.88000000000E+00 0. -1.
        -11    1    4    4    0    0 -0.54857679247E-01 -0.10474493649E-01  0.10825984286E+00  0.12181762880E+00  0.51100000000E-03 0.  1.
         11    1    4    4    0    0 -0.77645139996E-02  0.17582828034E-02  0.37498680959E-02  0.88148662952E-02  0.51100000000E-03 0. -1.
</event>
<event>
 8    1  0.1162192E+005  0.1043930E+01  0.7957747E-01            NaN
         13   -1    0    0    0    0  0.00000000000E+00  0.00000000000E+00  0.74505805969E-08  0.10566000000E+00  0.10566000000E+00 0.  1.
     999900   -1    0    0    0    0 -0.00000000000E+00 -0.00000000000E+00 -0.74505805969E-08  0.93827000000E+00  0.93827000000E+00 0. -1.
     999902    2    1    2    0    0  0.94401229765E-02  0.23675204291E-01 -0.17949071016E-02  0.10183790135E+01  0.10180584277E+01 0.  0.
     999903    2    3    3    0    0 -0.58036490783E-01  0.89064997436E-01  0.72503464196E-01  0.13026349937E+00  0.20273601465E-01 0.  0.
         14    1    1    2    0    0 -0.94401229765E-02 -0.23675204291E-01  0.17949071016E-02  0.25550986508E-01  0.00000000000E+00 0.  1.
     999901    1    3    3    0    0  0.67476613759E-01 -0.65389793145E-01 -0.74298371297E-01  0.88811551412E+00  0.88000000000E+00 0. -1.
        -11    1    4    4    0    0 -0.15501820006E-01  0.29781328463E-01  0.33901060166E-01  0.47715583932E-01  0.51100000000E-03 0.  1.
         11    1    4    4    0    0 -0.42534670776E-01  0.59283668972E-01  0.38602404030E-01  0.82547915436E-01  0.51100000000E-03 0. -1.
</event>
<event>
 8    1  0.1167254E+005  0.1043930E+01  0.7957747E-01            NaN
         13   -1    0    0    0    0  0.00000000000E+00  0.00000000000E+00  0.74505805969E-08  0.10566000000E+00  0.10566000000E+00 0. -1.
     999900   -1    0    0    0    0 -0.00000000000E+00 -0.00000000000E+00 -0.74505805969E-08  0.93827000000E+00  0.93827000000E+00 0. -1.
     999902    2    1    2    0    0 -0.12670741890E-01  0.21926049425E-01 -0.49997191008E-02  0.10181172796E+01  0.10177900071E+01 0.  0.
     999903    2    3    3    0    0 -0.46744803484E-01  0.60570279372E-01 -0.10465142084E+00  0.13099559694E+00  0.18817309532E-01 0.  0.
         14    1    1    2    0    0  0.12670741890E-01 -0.21926049425E-01  0.49997191008E-02  0.25812720401E-01  0.00000000000E+00 0.  1.
     999901    1    3    3    0    0  0.34074061594E-01 -0.38644229947E-01  0.99651701740E-01  0.88712168266E+00  0.88000000000E+00 0.  1.
        -11    1    4    4    0    0 -0.34074013713E-01  0.46385889746E-01 -0.63775402776E-01  0.85908394807E-01  0.51100000000E-03 0.  1.
         11    1    4    4    0    0 -0.12670789771E-01  0.14184389626E-01 -0.40876018064E-01  0.45087202134E-01  0.51100000000E-03 0. -1.
</event>
<event>
 7    1  0.1162192E+005  0.1043930E+01  0.7957747E-01            NaN
         13   -1    0    0    0    0  0.00000000000E+00  0.00000000000E+00  0.74505805969E-08  0.10566000000E+00  0.10566000000E+00 0.  1.
     999900   -1    0    0    0    0 -0.00000000000E+00 -0.00000000000E+00 -0.74505805969E-08  0.93827000000E+00  0.93827000000E+00 0.  1.
     999903    2    1    2    0    0 -0.77896541465E-01 -0.75251276802E-02 -0.81955305130E-01  0.11444533872E+00  0.16017640160E-01 0.  0.
         14    1    1    2    0    0  0.13840705040E-02  0.25816738838E-01 -0.29211136580E-01  0.39009103497E-01  0.00000000000E+00 0. -1.
     999901    1    1    2    0    0  0.76512470961E-01 -0.18291611158E-01  0.11116644171E+00  0.89047555779E+00  0.88000000000E+00 0. -1.
        -11    1    3    3    0    0 -0.23306071730E-01 -0.38294183623E-02 -0.15035775083E-01  0.28003090505E-01  0.51100000000E-03 0.  1.
         11    1    3    3    0    0 -0.54590469735E-01 -0.36957093180E-02 -0.66919530047E-01  0.86442248212E-01  0.51100000000E-03 0. -1.
</event>
<event>
 8    1  0.1162192E+005  0.1043930E+01  0.7957747E-01            NaN
         13   -1    0    0    0    0  0.00000000000E+00  0.00000000000E+00  0.74505805969E-08  0.10566000000E+00  0.10566000000E+00 0.  1.
     999900   -1    0    0    0    0 -0.00000000000E+00 -0.00000000000E+00 -0.74505805969E-08  0.93827000000E+00  0.93827000000E+00 0. -1.
     999902    2    1    2    0    0  0.31206067254E-02 -0.10074817478E-01  0.22590300514E-01  0.10189988586E+01  0.10186938264E+01 0.  0.
     999903    2    3    3    0    0  0.96428906199E-01 -0.30173827909E-01 -0.76091835167E-01  0.12835382670E+00  0.21811547578E-01 0.  0.
         14    1    1    2    0    0 -0.31206067254E-02  0.10074817478E-01 -0.22590300514E-01  0.24931141387E-01  0.00000000000E+00 0. -1.
     999901    1    3    3    0    0 -0.93308299474E-01  0.20099010431E-01  0.98682135681E-01  0.89064503191E+00  0.88000000000E+00 0.  1.
        -11    1    4    4    0    0  0.67512880024E-01 -0.14032100456E-01 -0.41594633391E-01  0.80531133485E-01  0.51100000000E-03 0.  1.
         11    1    4    4    0    0  0.28916026175E-01 -0.16141727453E-01 -0.34497201776E-01  0.47822693214E-01  0.51100000000E-03 0. -1.
</event>
<event>
 8    1  0.1162192E+005  0.1043930E+01  0.7957747E-01            NaN
         13   -1    0    0    0    0  0.00000000000E+00  0.00000000000E+00  0.74505805969E-08  0.10566000000E+00  0.10566000000E+00 0. -1.
     999900   -1    0    0    0    0 -0.00000000000E+00 -0.00000000000E+00 -0.74505805969E-08  0.93827000000E+00  0.93827000000E+00 0. -1.
     999902    2    1    2    0    0 -0.16495092988E-01  0.14339719302E-01 -0.64772615507E-02  0.10211337161E+01  0.10208792267E+01 0.  0.
     999903    2    3    3    0    0 -0.84721303712E-02 -0.85355415277E-01  0.94893138147E-01  0.12968576713E+00  0.21362739041E-01 0.  0.
         14    1    1    2    0    0  0.16495092988E-01 -0.14339719302E-01  0.64772615507E-02  0.22796283897E-01  0.00000000000E+00 0. -1.
     999901    1    3    3    0    0 -0.80229626167E-02  0.99695134578E-01 -0.10137039970E+00  0.89144794897E+00  0.88000000000E+00 0. -1.
        -11    1    4    4    0    0 -0.15520036598E-01 -0.55159672269E-01  0.64175473413E-01  0.86036117355E-01  0.51100000000E-03 0.  1.
         11    1    4    4    0    0  0.70479062269E-02 -0.30195743007E-01  0.30717664734E-01  0.43649649777E-01  0.51100000000E-03 0. -1.
</event>
<event>
 7    1  0.1162192E+005  0.1043930E+01  0.7957747E-01            NaN
         13   -1    0    0    0    0  0.00000000000E+00  0.00000000000E+00  0.74505805969E-08  0.10566000000E+00  0.10566000000E+00 0. -1.
     999900   -1    0    0    0    0 -0.00000000000E+00 -0.00000000000E+00 -0.74505805969E-08  0.93827000000E+00  0.93827000000E+00 0.  1.
     999903    2    1    2    0    0 -0.62757157542E-01 -0.50928456540E-01  0.80182832159E-01  0.11560701935E+00  0.20088002448E-01 0.  0.
         14    1    1    2    0    0 -0.21169714787E-02 -0.37009857041E-01 -0.11922619442E-01  0.38940466623E-01  0.00000000000E+00 0.  1.
     999901    1    1    2    0    0  0.64874129021E-01  0.87938313581E-01 -0.68260212717E-01  0.88938251402E+00  0.88000000000E+00 0. -1.
        -11    1    3    3    0    0 -0.27261154129E-01 -0.11471053758E-01  0.35639200726E-01  0.46315972927E-01  0.51100000000E-03 0. -1.
         11    1    3    3    0    0 -0.35496003414E-01 -0.39457402782E-01  0.44543631433E-01  0.69291046426E-01  0.51100000000E-03 0.  1.
</event>
<event>
 8    1  0.1162192E+005  0.1043930E+01  0.7957747E-01            NaN
         13   -1    0    0    0    0  0.00000000000E+00  0.00000000000E+00  0.74505805969E-08  0.10566000000E+00  0.10566000000E+00 0.  1.
     999900   -1    0    0    0    0 -0.00000000000E+00 -0.00000000000E+00 -0.74505805969E-08  0.93827000000E+00  0.93827000000E+00 0.  1.
     999902    2    1    2    0    0 -0.16987834338E-02 -0.13423130536E-01 -0.19193105074E-01  0.10204472067E+01  0.10201769749E+01 0.  0.
     999903    2    3    3    0    0 -0.11196647050E+00  0.26911436430E-01  0.55735999376E-01  0.12949254411E+00  0.20027516723E-01 0.  0.
         14    1    1    2    0    0  0.16987834338E-02  0.13423130536E-01  0.19193105074E-01  0.23482793295E-01  0.00000000000E+00 0.  1.
     999901    1    3    3    0    0  0.11026768707E+00 -0.40334566966E-01 -0.74929104449E-01  0.89095466259E+00  0.88000000000E+00 0. -1.
        -11    1    4    4    0    0 -0.39994749520E-01  0.81426495655E-02  0.30473821410E-01  0.50939156289E-01  0.51100000000E-03 0.  1.
         11    1    4    4    0    0 -0.71971720984E-01  0.18768786864E-01  0.25262177966E-01  0.78553387822E-01  0.51100000000E-03 0. -1.
</event>
<event>
 8    1  0.1162192E+005  0.1043930E+01  0.7957747E-01            NaN
         13   -1    0    0    0    0  0.00000000000E+00  0.00000000000E+00  0.74505805969E-08  0.10566000000E+00  0.10566000000E+00 0. -1.
     999900   -1    0    0    0    0 -0.00000000000E+00 -0.00000000000E+00 -0.74505805969E-08  0.93827000000E+00  0.93827000000E+00 0.  1.
     999902    2    1    2    0    0  0.18773422301E-01 -0.90691516905E-02 -0.77069012404E-02  0.10217019271E+01  0.10214601023E+01 0.  0.
     999903    2    3    3    0    0 -0.11284540342E+00 -0.58358875713E-01  0.19316889021E-01  0.13013965929E+00  0.20575355919E-01 0.  0.
         14    1    1    2    0    0 -0.18773422301E-01  0.90691516905E-02  0.77069012404E-02  0.22228072881E-01  0.00000000000E+00 0.  1.
     999901    1    3    3    0    0  0.13161882572E+00  0.49289724023E-01 -0.27023790262E-01  0.89156226783E+00  0.88000000000E+00 0. -1.
        -11    1    4    4    0    0 -0.89843146858E-01 -0.46209793172E-01  0.67819179307E-02  0.10125903196E+00  0.51100000000E-03 0. -1.
         11    1    4    4    0    0 -0.23002256560E-01 -0.12149082541E-01  0.12534971091E-01  0.28880627325E-01  0.51100000000E-03 0.  1.
</event>
<event>
 8    1  0.1162192E+005  0.1043930E+01  0.7957747E-01            NaN
         13   -1    0    0    0    0  0.00000000000E+00  0.00000000000E+00  0.74505805969E-08  0.10566000000E+00  0.10566000000E+00 0. -1.
     999900   -1    0    0    0    0 -0.00000000000E+00 -0.00000000000E+00 -0.74505805969E-08  0.93827000000E+00  0.93827000000E+00 0. -1.
     999902    2    1    2    0    0 -0.53973251093E-02  0.23100955347E-01 -0.13279338179E-01  0.10167431267E+01  0.10163795844E+01 0.  0.
     999903    2    3    3    0    0  0.12265202423E+00 -0.16603098034E-01  0.14712422500E-01  0.12614973668E+00  0.19445276422E-01 0.  0.
         14    1    1    2    0    0  0.53973251093E-02 -0.23100955347E-01  0.13279338179E-01  0.27186873280E-01  0.00000000000E+00 0. -1.
     999901    1    3    3    0    0 -0.12804934934E+00  0.39704053381E-01 -0.27991760678E-01  0.89059339004E+00  0.88000000000E+00 0. -1.
        -11    1    4    4    0    0  0.80038047147E-01 -0.18003027878E-01  0.15556863722E-01  0.83501348096E-01  0.51100000000E-03 0.  1.
         11    1    4    4    0    0  0.42613977086E-01  0.13999298436E-02 -0.84444122259E-03  0.42648388582E-01  0.51100000000E-03 0. -1.
</event>
<event>
 8    1  0.1162192E+005  0.1043930E+01  0.7957747E-01            NaN
         13   -1    0    0    0    0  0.00000000000E+00  0.00000000000E+00  0.74505805969E-08  0.10566000000E+00  0.10566000000E+00 0.  1.
     999900   -1    0    0    0    0 -0.00000000000E+00 -0.00000000000E+00 -0.74505805969E-08  0.93827000000E+00  0.93827000000E+00 0. -1.
     999902    2    1    2    0    0  0.18651145838E-01 -0.20813293938E-01 -0.40373535080E-02  0.10156924599E+01  0.10152998643E+01 0.  0.
     999903    2    3    3    0    0  0.94922130914E-01 -0.43910240683E-01  0.72521010983E-01  0.12878101267E+00  0.19670587598E-01 0.  0.
         14    1    1    2    0    0 -0.18651145838E-01  0.20813293938E-01  0.40373535080E-02  0.28237540066E-01  0.00000000000E+00 0.  1.
     999901    1    3    3    0    0 -0.76270985076E-01  0.23096946745E-01 -0.76558364491E-01  0.88691144726E+00  0.88000000000E+00 0. -1.
        -11    1    4    4    0    0  0.56247446359E-01 -0.16191363813E-01  0.35162806034E-01  0.68283376697E-01  0.51100000000E-03 0. -1.
         11    1    4    4    0    0  0.38674684555E-01 -0.27718876869E-01  0.37358204949E-01  0.60497635973E-01  0.51100000000E-03 0.  1.
</event>
<event>
 8    1  0.1162192E+005  0.1043930E+01  0.7957747E-01            NaN
         13   -1    0    0    0    0  0.00000000000E+00  0.00000000000E+00  0.74505805969E-08  0.10566000000E+00  0.10566000000E+00 0.  1.
     999900   -1    0    0    0    0 -0.00000000000E+00 -0.00000000000E+00 -0.74505805969E-08  0.93827000000E+00  0.93827000000E+00 0.  1.
     999902    2    1    2    0    0 -0.95135434975E-02  0.82603487914E-02  0.19457664149E-01  0.10207493709E+01  0.10204861276E+01 0.  0.
     999903    2    3    3    0    0  0.88570240514E-01  0.77497961168E-01 -0.50736533280E-01  0.12982765659E+00  0.20746159063E-01 0.  0.
         14    1    1    2    0    0  0.95135434975E-02 -0.82603487914E-02 -0.19457664149E-01  0.23180629115E-01  0.00000000000E+00 0. -1.
     999901    1    3    3    0    0 -0.98083784011E-01 -0.69237612377E-01  0.70194197429E-01  0.89092171430E+00  0.88000000000E+00 0.  1.
        -11    1    4    4    0    0  0.32543036111E-01  0.31137430304E-01 -0.88480606441E-02  0.45903573537E-01  0.51100000000E-03 0. -1.
         11    1    4    4    0    0  0.56027204403E-01  0.46360530864E-01 -0.41888472636E-01  0.83924083051E-01  0.51100000000E-03 0.  1.
</event>
<event>
 8    1  0.1162192E+005  0.1043930E+01  0.7957747E-01            NaN
         13   -1    0    0    0    0  0.00000000000E+00  0.00000000000E+00  0.74505805969E-08  0.10566000000E+00  0.10566000000E+00 0. -1.
     999900   -1    0    0    0    0 -0.00000000000E+00 -0.00000000000E+00 -0.74505805969E-08  0.93827000000E+00  0.93827000000E+00 0. -1.
     999902    2    1    2    0    0  0.67711404941E-02 -0.96565378937E-02 -0.19936089412E-01  0.10207665648E+01  0.10205037164E+01 0.  0.
     999903    2    3    3    0    0  0.18179499362E-01  0.69642016969E-01 -0.10949982813E+00  0.13259987172E+00  0.20298002279E-01 0.  0.
         14    1    1    2    0    0 -0.67711404941E-02  0.96565378937E-02  0.19936089412E-01  0.23163435167E-01  0.00000000000E+00 0. -1.
     999901    1    3    3    0    0 -0.11408358868E-01 -0.79298554863E-01  0.89563738716E-01  0.88816669311E+00  0.88000000000E+00 0. -1.
        -11    1    4    4    0    0  0.10011102511E-01  0.53314250635E-01 -0.66081966140E-01  0.85496893886E-01  0.51100000000E-03 0.  1.
         11    1    4    4    0    0  0.81683968512E-02  0.16327766335E-01 -0.43417861988E-01  0.47102977838E-01  0.51100000000E-03 0. -1.
</event>
<event>
 8    1  0.1162192E+005  0.1043930E+01  0.7957747E-01            NaN
         13   -1    0    0    0    0  0.00000000000E+00  0.00000000000E+00  0.74505805969E-08  0.10566000000E+00  0.10566000000E+00 0. -1.
     999900   -1    0    0    0    0 -0.00000000000E+00 -0.00000000000E+00 -0.74505805969E-08  0.93827000000E+00  0.93827000000E+00 0.  1.
     999902    2    1    2    0    0 -0.58750443016E-02  0.21004480486E-01  0.90257894937E-02  0.10203255677E+01  0.10200524962E+01 0.  0.
     999903    2    3    3    0    0  0.66116584311E-01 -0.12869289936E-01  0.11033916737E+00  0.13094678036E+00  0.20863990207E-01 0.  0.
         14    1    1    2    0    0  0.58750443016E-02 -0.21004480486E-01 -0.90257894937E-02  0.23604432253E-01  0.00000000000E+00 0.  1.
     999901    1    3    3    0    0 -0.71991628613E-01  0.33873770421E-01 -0.10131337787E+00  0.88937878738E+00  0.88000000000E+00 0.  1.
        -11    1    4    4    0    0  0.61549883689E-01 -0.17388350731E-01  0.10220302575E+00  0.12056725309E+00  0.51100000000E-03 0.  1.
         11    1    4    4    0    0  0.45667006226E-02  0.45190607953E-02  0.81361416138E-02  0.10379527273E-01  0.51100000000E-03 0. -1.
</event>
<event>
 8    1  0.1162192E+005  0.1043930E+01  0.7957747E-01            NaN
         13   -1    0    0    0    0  0.00000000000E+00  0.00000000000E+00  0.74505805969E-08  0.10566000000E+00  0.10566000000E+00 0. -1.
     999900   -1    0    0    0    0 -0.00000000000E+00 -0.00000000000E+00 -0.74505805969E-08  0.93827000000E+00  0.93827000000E+00 0.  1.
     999902    2    1    2    0    0 -0.18338322588E-01  0.13282338586E-01  0.67532609772E-02  0.10203011802E+01  0.10200275374E+01 0.  0.
     999903    2    3    3    0    0  0.96900575395E-01 -0.62848156240E-01 -0.51255066764E-01  0.12764177033E+00  0.18047919820E-01 0.  0.
         14    1    1    2    0    0  0.18338322588E-01 -0.13282338586E-01 -0.67532609772E-02  0.23628819849E-01  0.00000000000E+00 0. -1.
     999901    1    3    3    0    0 -0.11523889798E+00  0.76130494826E-01  0.58008327741E-01  0.89265940982E+00  0.88000000000E+00 0. -1.
        -11    1    4    4    0    0  0.16882474306E-01 -0.13702471457E-01 -0.26745503400E-02  0.21913238082E-01  0.51100000000E-03 0.  1.
         11    1    4    4    0    0  0.80018101089E-01 -0.49145684784E-01 -0.48580516424E-01  0.10572853225E+00  0.51100000000E-03 0. -1.
</event>
<event>
 8    1  0.1162192E+005  0.1043930E+01  0.7957747E-01            NaN
         13   -1    0    0    0    0  0.00000000000E+00  0.00000000000E+00  0.74505805969E-08  0.10566000000E+00  0.10566000000E+00 0. -1.
     999900   -1    0    0    0    0 -0.00000000000E+00 -0.00000000000E+00 -0.74505805969E-08  0.93827000000E+00  0.93827000000E+00 0.  1.
     999902    2    1    2    0    0  0.22618640083E-01  0.79870088595E-02  0.25631060208E-02  0.10198060554E+01  0.10195206844E+01 0.  0.
     999903    2    3    3    0    0 -0.97160852898E-01 -0.75173717595E-01  0.31831805817E-01  0.12732664941E+00  0.10367865509E-01 0.  0.
         14    1    1    2    0    0 -0.22618640083E-01 -0.79870088595E-02 -0.25631060208E-02  0.24123944582E-01  0.00000000000E+00 0. -1.
     999901    1    3    3    0    0  0.11977949298E+00  0.83160726454E-01 -0.29268699796E-01  0.89247940601E+00  0.88000000000E+00 0. -1.
        -11    1    4    4    0    0 -0.25351319559E-01 -0.20282843207E-01  0.37998207857E-02  0.32692245119E-01  0.51100000000E-03 0.  1.
         11    1    4    4    0    0 -0.71809533339E-01 -0.54890874387E-01  0.28031985031E-01  0.94634404289E-01  0.51100000000E-03 0. -1.
</event>
<event>
 8    1  0.1162192E+005  0.1043930E+01  0.7957747E-01            NaN
         13   -1    0    0    0    0  0.00000000000E+00  0.00000000000E+00  0.74505805969E-08  0.10566000000E+00  0.10566000000E+00 0. -1.
     999900   -1    0    0    0    0 -0.00000000000E+00 -0.00000000000E+00 -0.74505805969E-08  0.93827000000E+00  0.93827000000E+00 0. -1.
     999902    2    1    2    0    0  0.34317907795E-02 -0.17922752982E-01  0.13932504188E-01  0.10209709727E+01  0.10207127951E+01 0.  0.
     999903    2    3    3    0    0 -0.90053948055E-01  0.84177203223E-01  0.35609392223E-01  0.12988519011E+00  0.20164788453E-01 0.  0.
         14    1    1    2    0    0 -0.34317907795E-02  0.17922752982E-01 -0.13932504188E-01  0.22959027318E-01  0.00000000000E+00 0. -1.
     999901    1    3    3    0    0  0.93485738835E-01 -0.10209995621E+00 -0.21676888034E-01  0.89108578257E+00  0.88000000000E+00 0.  1.
        -11    1    4    4    0    0 -0.89759984177E-01  0.78876705407E-01  0.35021522064E-01  0.12451970745E+00  0.51100000000E-03 0.  1.
         11    1    4    4    0    0 -0.29396387857E-03  0.53004978161E-02  0.58787015910E-03  0.53654826608E-02  0.51100000000E-03 0. -1.
</event>
<event>
 8    1  0.1162192E+005  0.1043930E+01  0.7957747E-01            NaN
         13   -1    0    0    0    0  0.00000000000E+00  0.00000000000E+00  0.74505805969E-08  0.10566000000E+00  0.10566000000E+00 0. -1.
     999900   -1    0    0    0    0 -0.00000000000E+00 -0.00000000000E+00 -0.74505805969E-08  0.93827000000E+00  0.93827000000E+00 0. -1.
     999902    2    1    2    0    0  0.17831230198E-01  0.97589568878E-02 -0.12546124658E-01  0.10200428643E+01  0.10197631341E+01 0.  0.
     999903    2    3    3    0    0 -0.96023448543E-01 -0.72512815354E-01  0.36830260274E-01  0.12753540784E+00  0.20741290220E-01 0.  0.
         14    1    1    2    0    0 -0.17831230198E-01 -0.97589568878E-02  0.12546124658E-01  0.23887135740E-01  0.00000000000E+00 0. -1.
     999901    1    3    3    0    0  0.11385467874E+00  0.82271772242E-01 -0.49376384933E-01  0.89250745642E+00  0.88000000000E+00 0. -1.
        -11    1    4    4    0    0 -0.25060927247E-01 -0.29350514842E-01  0.66713014038E-02  0.39169761033E-01  0.51100000000E-03 0. -1.
         11    1    4    4    0    0 -0.70962521296E-01 -0.43162300512E-01  0.30158958871E-01  0.88365646805E-01  0.51100000000E-03 0.  1.
</event>
<event>
 8    1  0.1162192E+005  0.1043930E+01  0.7957747E-01            NaN
         13   -1    0    0    0    0  0.00000000000E+00  0.00000000000E+00  0.74505805969E-08  0.10566000000E+00  0.10566000000E+00 0. -1.
     999900   -1    0    0    0    0 -0.00000000000E+00 -0.00000000000E+00 -0.74505805969E-08  0.93827000000E+00  0.93827000000E+00 0.  1.
     999902    2    1    2    0    0  0.21486049584E-01  0.78674775737E-03  0.12136608259E-01  0.10192405982E+01  0.10189415246E+01 0.  0.
     999903    2    3    3    0    0 -0.35631466955E-01 -0.80229659780E-01  0.93557232576E-01  0.12994009389E+00  0.20617286141E-01 0.  0.
         14    1    1    2    0    0 -0.21486049584E-01 -0.78674775737E-03 -0.12136608259E-01  0.24689401750E-01  0.00000000000E+00 0.  1.
     999901    1    3    3    0    0  0.57117516538E-01  0.81016407537E-01 -0.81420624316E-01  0.88930050436E+00  0.88000000000E+00 0.  1.
        -11    1    4    4    0    0 -0.24152364675E-01 -0.30398651793E-01  0.36046511925E-01  0.52981382515E-01  0.51100000000E-03 0.  1.
         11    1    4    4    0    0 -0.11479102279E-01 -0.49831007986E-01  0.57510720650E-01  0.76958711377E-01  0.51100000000E-03 0. -1.
</event>
<event>
 8    1  0.1162192E+005  0.1043930E+01  0.7957747E-01            NaN
         13   -1    0    0    0    0  0.00000000000E+00  0.00000000000E+00  0.74505805969E-08  0.10566000000E+00  0.10566000000E+00 0.  1.
     999900   -1    0    0    0    0 -0.00000000000E+00 -0.00000000000E+00 -0.74505805969E-08  0.93827000000E+00  0.93827000000E+00 0.  1.
     999902    2    1    2    0    0  0.86805588470E-03 -0.30818171063E-02 -0.24121515698E-01  0.10195969230E+01  0.10193065225E+01 0.  0.
     999903    2    3    3    0    0  0.11310385938E+00  0.52283164135E-01 -0.33124507226E-01  0.13069692265E+00  0.21411220225E-01 0.  0.
         14    1    1    2    0    0 -0.86805588470E-03  0.30818171063E-02  0.24121515698E-01  0.24333077020E-01  0.00000000000E+00 0.  1.
     999901    1    3    3    0    0 -0.11223580350E+00 -0.55364981241E-01  0.90029915284E-02  0.88890000033E+00  0.88000000000E+00 0. -1.
        -11    1    4    4    0    0  0.79348754385E-01  0.35483843039E-01 -0.33035594658E-01  0.92988921785E-01  0.51100000000E-03 0.  1.
         11    1    4    4    0    0  0.33755104997E-01  0.16799321096E-01 -0.88912568565E-04  0.37708000863E-01  0.51100000000E-03 0. -1.
</event>
<event>
 8    1  0.1162192E+005  0.1043930E+01  0.7957747E-01            NaN
         13   -1    0    0    0    0  0.00000000000E+00  0.00000000000E+00  0.74505805969E-08  0.10566000000E+00  0.10566000000E+00 0. -1.
     999900   -1    0    0    0    0 -0.00000000000E+00 -0.00000000000E+00 -0.74505805969E-08  0.93827000000E+00  0.93827000000E+00 0.  1.
     999902    2    1    2    0    0  0.18129705520E-01 -0.14343889141E-01 -0.45179561956E-03  0.10208077705E+01  0.10205458671E+01 0.  0.
     999903    2    3    3    0    0  0.52170150924E-02 -0.86995180179E-01  0.97498764494E-01  0.13230382572E+00  0.20072732758E-01 0.  0.
         14    1    1    2    0    0 -0.18129705520E-01  0.14343889141E-01  0.45179561956E-03  0.23122229504E-01  0.00000000000E+00 0.  1.
     999901    1    3    3    0    0  0.12912690428E-01  0.72651291038E-01 -0.97950560114E-01  0.88850394478E+00  0.88000000000E+00 0.  1.
        -11    1    4    4    0    0  0.11102676829E-01 -0.61165494310E-01  0.75965792823E-01  0.98160837034E-01  0.51100000000E-03 0.  1.
         11    1    4    4    0    0 -0.58856617367E-02 -0.25829685869E-01  0.21532971672E-01  0.34142988682E-01  0.51100000000E-03 0. -1.
</event>
<event>
 7    1  0.1162192E+005  0.1043930E+01  0.7957747E-01            NaN
         13   -1    0    0    0    0  0.00000000000E+00  0.00000000000E+00  0.74505805969E-08  0.10566000000E+00  0.10566000000E+00 0.  1.
     999900   -1    0    0    0    0 -0.00000000000E+00 -0.00000000000E+00 -0.74505805969E-08  0.93827000000E+00  0.93827000000E+00 0.  1.
     999902    2    1    2    0    0  0.39658971341E-02  0.52091356491E-02  0.22805016176E-01  0.10202038078E+01  0.10199278784E+01 0.  0.
         14    1    1    2    0    0 -0.39658971341E-02 -0.52091356491E-02 -0.22805016176E-01  0.23726192216E-01  0.00000000000E+00 0. -1.
     999901    1    3    3    0    0 -0.69361859438E-01 -0.61006764075E-01  0.92669358848E-01  0.88967438025E+00  0.88000000000E+00 0. -1.
        -11    1    3    3    0    0  0.13859615020E-01 -0.36625617766E-02 -0.23967015093E-01  0.27931742172E-01  0.51100000000E-03 0. -1.
         11    1    3    3    0    0  0.59468141553E-01  0.69878461501E-01 -0.45897327578E-01  0.10259768536E+00  0.51100000000E-03 0.  1.
</event>
<event>
 8    1  0.1162192E+005  0.1043930E+01  0.7957747E-01            NaN
         13   -1    0    0    0    0  0.00000000000E+00  0.00000000000E+00  0.74505805969E-08  0.10566000000E+00  0.10566000000E+00 0. -1.
     999900   -1    0    0    0    0 -0.00000000000E+00 -0.00000000000E+00 -0.74505805969E-08  0.93827000000E+00  0.93827000000E+00 0. -1.
     999902    2    1    2    0    0  0.98985357200E-02  0.15486402466E-01 -0.11719585883E-01  0.10221318725E+01  0.10218994111E+01 0.  0.
     999903    2    3    3    0    0 -0.43661219878E-02  0.12626116009E-02 -0.13223342080E+00  0.13368976344E+00  0.19147273006E-01 0.  0.
         14    1    1    2    0    0 -0.98985357200E-02 -0.15486402466E-01  0.11719585883E-01  0.21798127535E-01  0.00000000000E+00 0. -1.
     999901    1    3    3    0    0  0.14264657708E-01  0.14223790865E-01  0.12051383491E+00  0.88844210903E+00  0.88000000000E+00 0.  1.
        -11    1    4    4    0    0 -0.10707805995E-01  0.53207429916E-02 -0.72424704867E-01  0.73406855342E-01  0.51100000000E-03 0. -1.
         11    1    4    4    0    0  0.63416840070E-02 -0.40581313907E-02 -0.59808715930E-01  0.60282908097E-01  0.51100000000E-03 0.  1.
</event>
<event>
 8    1  0.1162192E+005  0.1043930E+01  0.7957747E-01            NaN
         13   -1    0    0    0    0  0.00000000000E+00  0.00000000000E+00  0.74505805969E-08  0.10566000000E+00  0.10566000000E+00 0.  1.
     999900   -1    0    0    0    0 -0.00000000000E+00 -0.00000000000E+00 -0.74505805969E-08  0.93827000000E+00  0.93827000000E+00 0. -1.
     999902    2    1    2    0    0 -0.22239293721E-01 -0.10368488449E-02  0.90868219291E-02  0.10198835538E+01  0.10196000352E+01 0.  0.
     999903    2    3    3    0    0  0.52048741926E-02 -0.49065853387E-01 -0.11756431508E+00  0.12909711582E+00  0.20252122085E-01 0.  0.
         14    1    1    2    0    0  0.22239293721E-01  0.10368488449E-02 -0.90868219291E-02  0.24046446173E-01  0.00000000000E+00 0. -1.
     999901    1    3    3    0    0 -0.27444167914E-01  0.48029004543E-01  0.12665113701E+00  0.89078643801E+00  0.88000000000E+00 0.  1.
        -11    1    4    4    0    0  0.77288938815E-02 -0.85840647357E-02 -0.39017511312E-01  0.40694585365E-01  0.51100000000E-03 0. -1.
         11    1    4    4    0    0 -0.25240196889E-02 -0.40481788652E-01 -0.78546803769E-01  0.88402530457E-01  0.51100000000E-03 0.  1.
</event>
<event>
 8    1  0.1162192E+005  0.1043930E+01  0.7957747E-01            NaN
         13   -1    0    0    0    0  0.00000000000E+00  0.00000000000E+00  0.74505805969E-08  0.10566000000E+00  0.10566000000E+00 0. -1.
     999900   -1    0    0    0    0 -0.00000000000E+00 -0.00000000000E+00 -0.74505805969E-08  0.93827000000E+00  0.93827000000E+00 0.  1.
     999902    2    1    2    0    0  0.17458924208E-01 -0.16173797437E-01  0.37290488547E-02  0.10198403432E+01  0.10195557925E+01 0.  0.
     999903    2    3    3    0    0 -0.91536460383E-01 -0.25627676212E-02 -0.87232389605E-01  0.12835885869E+00  0.21932064416E-01 0.  0.
         14    1    1    2    0    0 -0.17458924208E-01  0.16173797437E-01 -0.37290488547E-02  0.24089656772E-01  0.00000000000E+00 0.  1.
     999901    1    3    3    0    0  0.10899538459E+00 -0.13611029816E-01  0.90961438459E-01  0.89148148454E+00  0.88000000000E+00 0. -1.
        -11    1    4    4    0    0 -0.95380737176E-02  0.46787251696E-02 -0.41962415853E-02  0.11433935626E-01  0.51100000000E-03 0. -1.
         11    1    4    4    0    0 -0.81998386666E-01 -0.72414927908E-02 -0.83036148019E-01  0.11692492306E+00  0.51100000000E-03 0.  1.
</event>
<event>
 8    1  0.1162192E+005  0.1043930E+01  0.7957747E-01            NaN
         13   -1    0    0    0    0  0.00000000000E+00  0.00000000000E+00  0.74505805969E-08  0.10566000000E+00  0.10566000000E+00 0.  1.
     999900   -1    0    0    0    0 -0.00000000000E+00 -0.00000000000E+00 -0.74505805969E-08  0.93827000000E+00  0.93827000000E+00 0. -1.
     999902    2    1    2    0    0  0.14161083134E-01  0.10792188065E-01 -0.13955514850E-01  0.10213077987E+01  0.10210572245E+01 0.  0.
     999903    2    3    3    0    0 -0.86320582064E-01  0.87976924373E-01 -0.43280492663E-01  0.13174947967E+00  0.17133074392E-01 0.  0.
         14    1    1    2    0    0 -0.14161083134E-01 -0.10792188065E-01  0.13955514850E-01  0.22622201341E-01  0.00000000000E+00 0.  1.
     999901    1    3    3    0    0  0.10048166520E+00 -0.77184736308E-01  0.29324977813E-01  0.88955831899E+00  0.88000000000E+00 0.  1.
        -11    1    4    4    0    0 -0.15702958933E-01  0.21104647352E-01 -0.15775178111E-01  0.30677457922E-01  0.51100000000E-03 0.  1.
         11    1    4    4    0    0 -0.70617623131E-01  0.66872277021E-01 -0.27505314552E-01  0.10107202175E+00  0.51100000000E-03 0. -1.
</event>
<event>
 8    1  0.1162192E+005  0.1043930E+01  0.7957747E-01            NaN
         13   -1    0    0    0    0  0.00000000000E+00  0.00000000000E+00  0.74505805969E-08  0.10566000000E+00  0.10566000000E+00 0.  1.
     999900   -1    0    0    0    0 -0.00000000000E+00 -0.00000000000E+00 -0.74505805969E-08  0.93827000000E+00  0.93827000000E+00 0. -1.
     999902    2    1    2    0    0  0.19471342927E-01  0.13821884868E-01 -0.46112452077E-02  0.10196104342E+01  0.10193203600E+01 0.  0.
     999903    2    3    3    0    0 -0.74327162685E-01  0.56144485293E-01  0.86170512330E-01  0.12897544185E+00  0.23077631221E-01 0.  0.
         14    1    1    2    0    0 -0.19471342927E-01 -0.13821884868E-01  0.46112452077E-02  0.24319565766E-01  0.00000000000E+00 0.  1.
     999901    1    3    3    0    0  0.93798505612E-01 -0.42322600425E-01 -0.90781757538E-01  0.89063499239E+00  0.88000000000E+00 0. -1.
        -11    1    4    4    0    0 -0.29997168882E-01  0.25951256982E-01  0.51901597014E-01  0.65324840402E-01  0.51100000000E-03 0. -1.
         11    1    4    4    0    0 -0.44329993803E-01  0.30193228311E-01  0.34268915316E-01  0.63650601445E-01  0.51100000000E-03 0.  1.
</event>
<event>
 8    1  0.1162192E+005  0.1043930E+01  0.7957747E-01            NaN
         13   -1    0    0    0    0  0.00000000000E+00  0.00000000000E+00  0.74505805969E-08  0.10566000000E+00  0.10566000000E+00 0. -1.
     999900   -1    0    0    0    0 -0.00000000000E+00 -0.00000000000E+00 -0.74505805969E-08  0.93827000000E+00  0.93827000000E+00 0. -1.
     999902    2    1    2    0    0  0.17728814818E-01  0.53443267733E-02 -0.14767401555E-01  0.10202456412E+01  0.10199706954E+01 0.  0.
     999903    2    3    3    0    0 -0.53372620733E-01  0.11576216521E+00 -0.19886177826E-01  0.13048515935E+00  0.19529495725E-01 0.  0.
         14    1    1    2    0    0 -0.17728814818E-01 -0.53443267733E-02  0.14767401555E-01  0.23684358809E-01  0.00000000000E+00 0. -1.
     999901    1    3    3    0    0  0.71101435551E-01 -0.11041783844E+00  0.51187762709E-02  0.88976048184E+00  0.88000000000E+00 0.  1.
        -11    1    4    4    0    0 -0.33971575142E-01  0.52275155679E-01 -0.13505640096E-01  0.63792031275E-01  0.51100000000E-03 0. -1.
         11    1    4    4    0    0 -0.19401045591E-01  0.63487009530E-01 -0.63805377302E-02  0.66693128070E-01  0.51100000000E-03 0.  1.
</event>
<event>
 8    1  0.1162192E+005  0.1043930E+01  0.7957747E-01            NaN
         13   -1    0    0    0    0  0.00000000000E+00  0.00000000000E+00  0.74505805969E-08  0.10566000000E+00  0.10566000000E+00 0. -1.
     999900   -1    0    0    0    0 -0.00000000000E+00 -0.00000000000E+00 -0.74505805969E-08  0.93827000000E+00  0.93827000000E+00 0. -1.
     999902    2    1    2    0    0  0.75465758567E-03 -0.23827146344E-01 -0.29400738582E-02  0.10199102905E+01  0.10196274095E+01 0.  0.
     999903    2    3    3    0    0  0.47704297207E-01  0.10131624828E+00 -0.59087953464E-01  0.12804834923E+00  0.19086942084E-01 0.  0.
         14    1    1    2    0    0 -0.75465758567E-03  0.23827146344E-01  0.29400738582E-02  0.24019709517E-01  0.00000000000E+00 0.  1.
     999901    1    3    3    0    0 -0.46949639621E-01 -0.12514339462E+00  0.56147879605E-01  0.89186194126E+00  0.88000000000E+00 0.  1.
        -11    1    4    4    0    0  0.41476818701E-01  0.67617839168E-01 -0.41100946406E-01  0.89342305655E-01  0.51100000000E-03 0.  1.
         11    1    4    4    0    0  0.62274785056E-02  0.33698409110E-01 -0.17987007058E-01  0.38706043572E-01  0.51100000000E-03 0. -1.
</event>
<event>
 8    1  0.1162192E+005  0.1043930E+01  0.7957747E-01            NaN
         13   -1    0    0    0    0  0.00000000000E+00  0.00000000000E+00  0.74505805969E-08  0.10566000000E+00  0.10566000000E+00 0. -1.
     999900   -1    0    0    0    0 -0.00000000000E+00 -0.00000000000E+00 -0.74505805969E-08  0.93827000000E+00  0.93827000000E+00 0.  1.
     999902    2    1    2    0    0 -0.10306188640E-01 -0.20592279490E-01  0.52301914105E-02  0.10203161396E+01  0.10200428473E+01 0.  0.
     999903    2    3    3    0    0 -0.47747082532E-01 -0.52855578043E-01  0.11023680758E+00  0.13269621512E+00  0.19561077216E-01 0.  0.
         14    1    1    2    0    0  0.10306188640E-01  0.20592279490E-01 -0.52301914105E-02  0.23613860359E-01  0.00000000000E+00 0. -1.
     999901    1    3    3    0    0  0.37440893892E-01  0.32263298553E-01 -0.10500661617E+00  0.88761992452E+00  0.88000000000E+00 0. -1.
        -11    1    4    4    0    0 -0.35347192016E-01 -0.48249940242E-01  0.97114535295E-01  0.11405689284E+00  0.51100000000E-03 0. -1.
         11    1    4    4    0    0 -0.12399890517E-01 -0.46056378002E-02  0.13122272282E-01  0.18639322284E-01  0.51100000000E-03 0.  1.
</event>
<event>
 8    1  0.1162192E+005  0.1043930E+01  0.7957747E-01            NaN
         13   -1    0    0    0    0  0.00000000000E+00  0.00000000000E+00  0.74505805969E-08  0.10566000000E+00  0.10566000000E+00 0. -1.
     999900   -1    0    0    0    0 -0.00000000000E+00 -0.00000000000E+00 -0.74505805969E-08  0.93827000000E+00  0.93827000000E+00 0. -1.
     999902    2    1    2    0    0  0.54138081843E-02 -0.22145971572E-01 -0.98168927455E-02  0.10191081395E+01  0.10188058084E+01 0.  0.
     999903    2    3    3    0    0  0.11604760621E-01 -0.85425018740E-01 -0.98582205549E-01  0.13236023481E+00  0.19200942995E-01 0.  0.
         14    1    1    2    0    0 -0.54138081843E-02  0.22145971572E-01  0.98168927455E-02  0.24821860508E-01  0.00000000000E+00 0.  1.
     999901    1    3    3    0    0 -0.61909524367E-02  0.63279047169E-01  0.88765312804E-01  0.88674790468E+00  0.88000000000E+00 0.  1.
        -11    1    4    4    0    0  0.52590922505E-02 -0.73260520820E-01 -0.74375963453E-01  0.10453136861E+00  0.51100000000E-03 0. -1.
         11    1    4    4    0    0  0.63456683705E-02 -0.12164497921E-01 -0.24206242096E-01  0.27828866203E-01  0.51100000000E-03 0.  1.
</event>
<event>
 8    1  0.1162192E+005  0.1043930E+01  0.7957747E-01            NaN
         13   -1    0    0    0    0  0.00000000000E+00  0.00000000000E+00  0.74505805969E-08  0.10566000000E+00  0.10566000000E+00 0. -1.
     999900   -1    0    0    0    0 -0.00000000000E+00 -0.00000000000E+00 -0.74505805969E-08  0.93827000000E+00  0.93827000000E+00 0.  1.
     999902    2    1    2    0    0  0.81205938952E-02 -0.34065318068E-02  0.21864196950E-01  0.10203590091E+01  0.10200867198E+01 0.  0.
     999903    2    3    3    0    0  0.11912690061E+00 -0.52401058949E-01 -0.23777068179E-02  0.13170241978E+00  0.20069490753E-01 0.  0.
         14    1    1    2    0    0 -0.81205938952E-02  0.34065318068E-02 -0.21864196950E-01  0.23570990909E-01  0.00000000000E+00 0.  1.
     999901    1    3    3    0    0 -0.11100630672E+00  0.48994527143E-01  0.24241903768E-01  0.88865658931E+00  0.88000000000E+00 0.  1.
        -11    1    4    4    0    0  0.37554505047E-01 -0.13359251497E-01  0.80495808387E-02  0.40667767612E-01  0.51100000000E-03 0.  1.
         11    1    4    4    0    0  0.81572395564E-01 -0.39041807452E-01 -0.10427287657E-01  0.91034652172E-01  0.51100000000E-03 0. -1.
</event>
<event>
 8    1  0.1162192E+005  0.1043930E+01  0.7957747E-01            NaN
         13   -1    0    0    0    0  0.00000000000E+00  0.00000000000E+00  0.74505805969E-08  0.10566000000E+00  0.10566000000E+00 0.  1.
     999900   -1    0    0    0    0 -0.00000000000E+00 -0.00000000000E+00 -0.74505805969E-08  0.93827000000E+00  0.93827000000E+00 0.  1.
     999902    2    1    2    0    0  0.35360557181E-02  0.17905201830E-01 -0.13566764912E-01  0.10211889127E+01  0.10209356681E+01 0.  0.
     999903    2    3    3    0    0  0.29105297139E-01 -0.11066245533E+00 -0.58940169542E-01  0.13032294384E+00  0.20416384700E-01 0.  0.
         14    1    1    2    0    0 -0.35360557181E-02 -0.17905201830E-01  0.13566764912E-01  0.22741087326E-01  0.00000000000E+00 0.  1.
     999901    1    3    3    0    0 -0.25569241421E-01  0.12856765716E+00  0.45373404631E-01  0.89086596883E+00  0.88000000000E+00 0. -1.
        -11    1    4    4    0    0  0.12102801950E-01 -0.81656180229E-01 -0.43722876786E-01  0.93413921125E-01  0.51100000000E-03 0. -1.
         11    1    4    4    0    0  0.17002495190E-01 -0.29006275103E-01 -0.15217292757E-01  0.36909022716E-01  0.51100000000E-03 0.  1.
</event>
<event>
 8    1  0.1162192E+005  0.1043930E+01  0.7957747E-01            NaN
         13   -1    0    0    0    0  0.00000000000E+00  0.00000000000E+00  0.74505805969E-08  0.10566000000E+00  0.10566000000E+00 0.  1.
     999900   -1    0    0    0    0 -0.00000000000E+00 -0.00000000000E+00 -0.74505805969E-08  0.93827000000E+00  0.93827000000E+00 0.  1.
     999902    2    1    2    0    0 -0.38443525894E-02  0.16852380981E-01 -0.16795508968E-01  0.10198287363E+01  0.10195439080E+01 0.  0.
     999903    2    3    3    0    0 -0.12909476826E+00 -0.17529821566E-02 -0.50708633965E-02  0.13068797494E+00  0.19623990370E-01 0.  0.
         14    1    1    2    0    0  0.38443525894E-02 -0.16852380981E-01  0.16795508968E-01  0.24101263723E-01  0.00000000000E+00 0.  1.
     999901    1    3    3    0    0  0.12525041567E+00  0.18605363137E-01 -0.11724645572E-01  0.88914076134E+00  0.88000000000E+00 0. -1.
        -11    1    4    4    0    0 -0.37321455074E-01  0.67896963728E-02  0.36087987814E-02  0.38108733058E-01  0.51100000000E-03 0. -1.
         11    1    4    4    0    0 -0.91773313189E-01 -0.85426785295E-02 -0.86796621779E-02  0.92579241878E-01  0.51100000000E-03 0.  1.
</event>
<event>
 8    1  0.1162192E+005  0.1043930E+01  0.7957747E-01            NaN
         13   -1    0    0    0    0  0.00000000000E+00  0.00000000000E+00  0.74505805969E-08  0.10566000000E+00  0.10566000000E+00 0.  1.
     999900   -1    0    0    0    0 -0.00000000000E+00 -0.00000000000E+00 -0.74505805969E-08  0.93827000000E+00  0.93827000000E+00 0. -1.
     999902    2    1    2    0    0  0.16321768208E-01 -0.79759813451E-02 -0.11584319970E-01  0.10223844003E+01  0.10221573505E+01 0.  0.
     999903    2    3    3    0    0 -0.11011388242E-01  0.81605842221E-01 -0.10226804021E+00  0.13278025147E+00  0.19775716874E-01 0.  0.
         14    1    1    2    0    0 -0.16321768208E-01  0.79759813451E-02  0.11584319970E-01  0.21545599667E-01  0.00000000000E+00 0.  1.
     999901    1    3    3    0    0  0.27333156450E-01 -0.89581823566E-01  0.90683720236E-01  0.88960414886E+00  0.88000000000E+00 0.  1.
        -11    1    4    4    0    0  0.17463078873E-02  0.14351656823E-01 -0.29602428643E-01  0.32948210078E-01  0.51100000000E-03 0.  1.
         11    1    4    4    0    0 -0.12757696129E-01  0.67254185398E-01 -0.72665611562E-01  0.99832041394E-01  0.51100000000E-03 0. -1.
</event>
<event>
 8    1  0.1162192E+005  0.1043930E+01  0.7957747E-01            NaN
         13   -1    0    0    0    0  0.00000000000E+00  0.00000000000E+00  0.74505805969E-08  0.10566000000E+00  0.10566000000E+00 0. -1.
     999900   -1    0    0    0    0 -0.00000000000E+00 -0.00000000000E+00 -0.74505805969E-08  0.93827000000E+00  0.93827000000E+00 0.  1.
     999902    2    1    2    0    0 -0.26338552934E-02  0.65699614593E-02  0.30229267286E-01  0.10128830970E+01  0.10124071602E+01 0.  0.
     999903    2    3    3    0    0  0.57895024521E-01  0.77008392898E-01 -0.72292227137E-01  0.12207673488E+00  0.19860429340E-01 0.  0.
         14    1    1    2    0    0  0.26338552934E-02 -0.65699614593E-02 -0.30229267286E-01  0.31046903033E-01  0.00000000000E+00 0.  1.
     999901    1    3    3    0    0 -0.60528879814E-01 -0.70438431439E-01  0.10252149442E+00  0.89080636209E+00  0.88000000000E+00 0. -1.
        -11    1    4    4    0    0  0.23219345352E-01  0.19401614714E-01 -0.15185112480E-01  0.33858668227E-01  0.51100000000E-03 0. -1.
         11    1    4    4    0    0  0.34675679169E-01  0.57606778184E-01 -0.57107114657E-01  0.88218066653E-01  0.51100000000E-03 0.  1.
</event>
<event>
 8    1  0.1162192E+005  0.1043930E+01  0.7957747E-01            NaN
         13   -1    0    0    0    0  0.00000000000E+00  0.00000000000E+00  0.74505805969E-08  0.10566000000E+00  0.10566000000E+00 0. -1.
     999900   -1    0    0    0    0 -0.00000000000E+00 -0.00000000000E+00 -0.74505805969E-08  0.93827000000E+00  0.93827000000E+00 0.  1.
     999902    2    1    2    0    0  0.82598801449E-02  0.21362747069E-01  0.97769809019E-03  0.10210051559E+01  0.10207477553E+01 0.  0.
     999903    2    3    3    0    0  0.38124368640E-01  0.99730498592E-01 -0.78020305196E-01  0.13349511278E+00  0.18279422328E-01 0.  0.
         14    1    1    2    0    0 -0.82598801449E-02 -0.21362747069E-01 -0.97769809019E-03  0.22924844076E-01  0.00000000000E+00 0. -1.
     999901    1    3    3    0    0 -0.29864488495E-01 -0.78367751523E-01  0.78998003286E-01  0.88751004314E+00  0.88000000000E+00 0. -1.
        -11    1    4    4    0    0  0.11259577494E-01  0.20425321934E-01 -0.25937021680E-01  0.34884983532E-01  0.51100000000E-03 0.  1.
         11    1    4    4    0    0  0.26864791145E-01  0.79305176658E-01 -0.52083283516E-01  0.98610129251E-01  0.51100000000E-03 0. -1.
</event>
<event>
 8    1  0.1162192E+005  0.1043930E+01  0.7957747E-01            NaN
         13   -1    0    0    0    0  0.00000000000E+00  0.00000000000E+00  0.74505805969E-08  0.10566000000E+00  0.10566000000E+00 0.  1.
     999900   -1    0    0    0    0 -0.00000000000E+00 -0.00000000000E+00 -0.74505805969E-08  0.93827000000E+00  0.93827000000E+00 0. -1.
     999902    2    1    2    0    0 -0.12083037529E-01 -0.22754579095E-02  0.18602726263E-01  0.10216311451E+01  0.10213877607E+01 0.  0.
     999903    2    3    3    0    0 -0.55909354347E-01 -0.11411669365E+00  0.34961330214E-01  0.13331993165E+00  0.20085663788E-01 0.  0.
         14    1    1    2    0    0  0.12083037529E-01  0.22754579095E-02 -0.18602726263E-01  0.22298854882E-01  0.00000000000E+00 0. -1.
     999901    1    3    3    0    0  0.43826316817E-01  0.11184123574E+00 -0.16358603951E-01  0.88831121347E+00  0.88000000000E+00 0.  1.
        -11    1    4    4    0    0 -0.34541568467E-01 -0.81409197371E-01  0.15927572834E-01  0.89858366701E-01  0.51100000000E-03 0. -1.
         11    1    4    4    0    0 -0.21367785879E-01 -0.32707496282E-01  0.19033757380E-01  0.43461564944E-01  0.51100000000E-03 0.  1.
</event>
<event>
 8    1  0.1162192E+005  0.1043930E+01  0.7957747E-01            NaN
         13   -1    0    0    0    0  0.00000000000E+00  0.00000000000E+00  0.74505805969E-08  0.10566000000E+00  0.10566000000E+00 0.  1.
     999900   -1    0    0    0    0 -0.00000000000E+00 -0.00000000000E+00 -0.74505805969E-08  0.93827000000E+00  0.93827000000E+00 0. -1.
     999902    2    1    2    0    0 -0.20882879918E-01  0.74506004760E-02 -0.68914852981E-02  0.10207115011E+01  0.10204473871E+01 0.  0.
     999903    2    3    3    0    0  0.80062772690E-01  0.97535427225E-01 -0.25077699218E-01  0.13018579167E+00  0.19905833836E-01 0.  0.
         14    1    1    2    0    0  0.20882879918E-01 -0.74506004760E-02  0.68914852981E-02  0.23218498891E-01  0.00000000000E+00 0.  1.
     999901    1    3    3    0    0 -0.10094565261E+00 -0.90084826749E-01  0.18186213920E-01  0.89052570944E+00  0.88000000000E+00 0. -1.
        -11    1    4    4    0    0  0.49511105465E-01  0.69440329095E-01 -0.93466519241E-02  0.85795861743E-01  0.51100000000E-03 0.  1.
         11    1    4    4    0    0  0.30551667225E-01  0.28095098130E-01 -0.15731047294E-01  0.44389929929E-01  0.51100000000E-03 0. -1.
</event>
<event>
 8    1  0.1162192E+005  0.1043930E+01  0.7957747E-01            NaN
         13   -1    0    0    0    0  0.00000000000E+00  0.00000000000E+00  0.74505805969E-08  0.10566000000E+00  0.10566000000E+00 0. -1.
     999900   -1    0    0    0    0 -0.00000000000E+00 -0.00000000000E+00 -0.74505805969E-08  0.93827000000E+00  0.93827000000E+00 0. -1.
     999902    2    1    2    0    0 -0.16774518525E-01 -0.92017358800E-03  0.17734264648E-01  0.10195018332E+01  0.10192091309E+01 0.  0.
     999903    2    3    3    0    0  0.45869493568E-01 -0.77325224355E-01 -0.88378610173E-01  0.12763752387E+00  0.19933840618E-01 0.  0.
         14    1    1    2    0    0  0.16774518525E-01  0.92017358800E-03 -0.17734264648E-01  0.24428166812E-01  0.00000000000E+00 0.  1.
     999901    1    3    3    0    0 -0.62644012093E-01  0.76405050767E-01  0.10611287482E+00  0.89186430932E+00  0.88000000000E+00 0.  1.
        -11    1    4    4    0    0  0.32149686827E-01 -0.39137443877E-01 -0.40340792403E-01  0.64753243386E-01  0.51100000000E-03 0. -1.
         11    1    4    4    0    0  0.13719806740E-01 -0.38187780477E-01 -0.48037817771E-01  0.62884280484E-01  0.51100000000E-03 0.  1.
</event>
<event>
 8    1  0.1162192E+005  0.1043930E+01  0.7957747E-01            NaN
         13   -1    0    0    0    0  0.00000000000E+00  0.00000000000E+00  0.74505805969E-08  0.10566000000E+00  0.10566000000E+00 0. -1.
     999900   -1    0    0    0    0 -0.00000000000E+00 -0.00000000000E+00 -0.74505805969E-08  0.93827000000E+00  0.93827000000E+00 0. -1.
     999902    2    1    2    0    0  0.21046136148E-01  0.10932358527E-01 -0.28023349602E-02  0.10200488486E+01  0.10197692603E+01 0.  0.
     999903    2    3    3    0    0 -0.78937304743E-01  0.82940553256E-01  0.57082837701E-01  0.12944899321E+00  0.19706801583E-01 0.  0.
         14    1    1    2    0    0 -0.21046136148E-01 -0.10932358527E-01  0.28023349602E-02  0.23881151374E-01  0.00000000000E+00 0. -1.
     999901    1    3    3    0    0  0.99983440891E-01 -0.72008194729E-01 -0.59885172661E-01  0.89059985542E+00  0.88000000000E+00 0.  1.
        -11    1    4    4    0    0 -0.13968091703E-01  0.25376847531E-01  0.19087145387E-01  0.34693979542E-01  0.51100000000E-03 0.  1.
         11    1    4    4    0    0 -0.64969213040E-01  0.57563705725E-01  0.37995692314E-01  0.94755013668E-01  0.51100000000E-03 0. -1.
</event>
<event>
 8    1  0.1162192E+005  0.1043930E+01  0.7957747E-01            NaN
         13   -1    0    0    0    0  0.00000000000E+00  0.00000000000E+00  0.74505805969E-08  0.10566000000E+00  0.10566000000E+00 0. -1.
     999900   -1    0    0    0    0 -0.00000000000E+00 -0.00000000000E+00 -0.74505805969E-08  0.93827000000E+00  0.93827000000E+00 0. -1.
     999902    2    1    2    0    0  0.14055506949E-01  0.17644977048E-01 -0.86323056207E-02  0.10197759281E+01  0.10194898353E+01 0.  0.
     999903    2    3    3    0    0 -0.43806371178E-01 -0.10651993406E-01 -0.12156757685E+00  0.13022374243E+00  0.12127828806E-01 0.  0.
         14    1    1    2    0    0 -0.14055506949E-01 -0.17644977048E-01  0.86323056207E-02  0.24154071933E-01  0.00000000000E+00 0. -1.
     999901    1    3    3    0    0  0.57861878127E-01  0.28296970454E-01  0.11293527123E+00  0.88955218563E+00  0.88000000000E+00 0. -1.
        -11    1    4    4    0    0 -0.37673145099E-01 -0.12949479218E-01 -0.10880814872E+00  0.11587246965E+00  0.51100000000E-03 0. -1.
         11    1    4    4    0    0 -0.61332260781E-02  0.22974858114E-02 -0.12759428132E-01  0.14351272781E-01  0.51100000000E-03 0.  1.
</event>
<event>
 8    1  0.1162192E+005  0.1043930E+01  0.7957747E-01            NaN
         13   -1    0    0    0    0  0.00000000000E+00  0.00000000000E+00  0.74505805969E-08  0.10566000000E+00  0.10566000000E+00 0. -1.
     999900   -1    0    0    0    0 -0.00000000000E+00 -0.00000000000E+00 -0.74505805969E-08  0.93827000000E+00  0.93827000000E+00 0.  1.
     999902    2    1    2    0    0 -0.94785516110E-02 -0.16366859770E-01  0.14051936160E-01  0.10203678704E+01  0.10200957882E+01 0.  0.
     999903    2    3    3    0    0  0.32738313940E-01  0.83103476132E-01  0.93263461911E-01  0.13022682697E+00  0.16821658377E-01 0.  0.
         14    1    1    2    0    0  0.94785516110E-02  0.16366859770E-01 -0.14051936160E-01  0.23562129556E-01  0.00000000000E+00 0.  1.
     999901    1    3    3    0    0 -0.42216865551E-01 -0.99470335902E-01 -0.79211525751E-01  0.89014104347E+00  0.88000000000E+00 0.  1.
        -11    1    4    4    0    0  0.74675021314E-02  0.41742679465E-01  0.42618386501E-01  0.60123230668E-01  0.51100000000E-03 0.  1.
         11    1    4    4    0    0  0.25270811809E-01  0.41360796667E-01  0.50645075410E-01  0.70103596304E-01  0.51100000000E-03 0. -1.
</event>
<event>
 8    1  0.1162192E+005  0.1043930E+01  0.7957747E-01            NaN
         13   -1    0    0    0    0  0.00000000000E+00  0.00000000000E+00  0.74505805969E-08  0.10566000000E+00  0.10566000000E+00 0. -1.
     999900   -1    0    0    0    0 -0.00000000000E+00 -0.00000000000E+00 -0.74505805969E-08  0.93827000000E+00  0.93827000000E+00 0. -1.
     999902    2    1    2    0    0  0.35980151388E-02  0.12569813743E-01 -0.20472482227E-01  0.10196386752E+01  0.10193492824E+01 0.  0.
     999903    2    3    3    0    0 -0.10569642800E-01  0.49120838491E-01  0.11600474932E+00  0.12825619017E+00  0.21632714330E-01 0.  0.
         14    1    1    2    0    0 -0.35980151388E-02 -0.12569813743E-01  0.20472482227E-01  0.24291324769E-01  0.00000000000E+00 0.  1.
     999901    1    3    3    0    0  0.14167657939E-01 -0.36551024748E-01 -0.13647723155E+00  0.89138248506E+00  0.88000000000E+00 0. -1.
        -11    1    4    4    0    0 -0.24111263284E-02  0.24886316578E-01  0.33031065244E-01  0.41430117971E-01  0.51100000000E-03 0. -1.
         11    1    4    4    0    0 -0.81585164713E-02  0.24234521914E-01  0.82973684077E-01  0.86826072200E-01  0.51100000000E-03 0.  1.
</event>
<event>
 8    1  0.1162192E+005  0.1043930E+01  0.7957747E-01            NaN
         13   -1    0    0    0    0  0.00000000000E+00  0.00000000000E+00  0.74505805969E-08  0.10566000000E+00  0.10566000000E+00 0. -1.
     999900   -1    0    0    0    0 -0.00000000000E+00 -0.00000000000E+00 -0.74505805969E-08  0.93827000000E+00  0.93827000000E+00 0.  1.
     999902    2    1    2    0    0 -0.14143192579E-01  0.58823052988E-02  0.18657700561E-01  0.10197899668E+01  0.10195042105E+01 0.  0.
     999903    2    3    3    0    0  0.65404137572E-01  0.10719739872E+00 -0.23964422021E-01  0.12939164515E+00  0.19973001997E-01 0.  0.
         14    1    1    2    0    0  0.14143192579E-01 -0.58823052988E-02 -0.18657700561E-01  0.24140033185E-01  0.00000000000E+00 0.  1.
     999901    1    3    3    0    0 -0.79547330151E-01 -0.10131509342E+00  0.42622122581E-01  0.89039832166E+00  0.88000000000E+00 0.  1.
        -11    1    4    4    0    0  0.15214364890E-01  0.21305880873E-01  0.29022383391E-02  0.26345807392E-01  0.51100000000E-03 0. -1.
         11    1    4    4    0    0  0.50189772682E-01  0.85891517845E-01 -0.26866660360E-01  0.10304583776E+00  0.51100000000E-03 0.  1.
</event>
<event>
 8    1  0.1162192E+005  0.1043930E+01  0.7957747E-01            NaN
         13   -1    0    0    0    0  0.00000000000E+00  0.00000000000E+00  0.74505805969E-08  0.10566000000E+00  0.10566000000E+00 0. -1.
     999900   -1    0    0    0    0 -0.00000000000E+00 -0.00000000000E+00 -0.74505805969E-08  0.93827000000E+00  0.93827000000E+00 0.  1.
     999902    2    1    2    0    0  0.17522673633E-01  0.83841168310E-02 -0.15070515579E-01  0.10193442735E+01  0.10190477369E+01 0.  0.
     999903    2    3    3    0    0 -0.99410224576E-01  0.70574113309E-01 -0.38000698364E-01  0.12913829083E+00  0.19223601736E-01 0.  0.
         14    1    1    2    0    0 -0.17522673633E-01 -0.83841168310E-02  0.15070515579E-01  0.24585726471E-01  0.00000000000E+00 0. -1.
     999901    1    3    3    0    0  0.11693289821E+00 -0.62189996478E-01  0.22930182784E-01  0.89020598270E+00  0.88000000000E+00 0. -1.
        -11    1    4    4    0    0 -0.52116558675E-01  0.45197934789E-01 -0.14247524972E-01  0.70443183390E-01  0.51100000000E-03 0.  1.
         11    1    4    4    0    0 -0.47293665901E-01  0.25376178519E-01 -0.23753173391E-01  0.58695107443E-01  0.51100000000E-03 0. -1.
</event>
<event>
 8    1  0.1162192E+005  0.1043930E+01  0.7957747E-01            NaN
         13   -1    0    0    0    0  0.00000000000E+00  0.00000000000E+00  0.74505805969E-08  0.10566000000E+00  0.10566000000E+00 0.  1.
     999900   -1    0    0    0    0 -0.00000000000E+00 -0.00000000000E+00 -0.74505805969E-08  0.93827000000E+00  0.93827000000E+00 0.  1.
     999902    2    1    2    0    0  0.22001982317E-01 -0.10787466989E-01  0.44923965361E-02  0.10190173868E+01  0.10187128135E+01 0.  0.
     999903    2    3    3    0    0 -0.78681155859E-01  0.82850018387E-01 -0.50725010925E-01  0.12663067966E+00  0.20185451819E-01 0.  0.
         14    1    1    2    0    0 -0.22001982317E-01  0.10787466989E-01 -0.44923965361E-02  0.24912613202E-01  0.00000000000E+00 0.  1.
     999901    1    3    3    0    0  0.10068313818E+00 -0.93637485376E-01  0.55217407461E-01  0.89238670713E+00  0.88000000000E+00 0.  1.
        -11    1    4    4    0    0 -0.63253164531E-01  0.72563610969E-01 -0.48954770924E-01  0.10799662577E+00  0.51100000000E-03 0.  1.
         11    1    4    4    0    0 -0.15427991327E-01  0.10286407418E-01 -0.17702400004E-02  0.18634053897E-01  0.51100000000E-03 0. -1.
</event>
<event>
 8    1  0.1162192E+005  0.1043930E+01  0.7957747E-01            NaN
         13   -1    0    0    0    0  0.00000000000E+00  0.00000000000E+00  0.74505805969E-08  0.10566000000E+00  0.10566000000E+00 0. -1.
     999900   -1    0    0    0    0 -0.00000000000E+00 -0.00000000000E+00 -0.74505805969E-08  0.93827000000E+00  0.93827000000E+00 0.  1.
     999902    2    1    2    0    0  0.13372991649E-01  0.97467903926E-02  0.15139198027E-01  0.10215016219E+01  0.10212553703E+01 0.  0.
     999903    2    3    3    0    0  0.82545597236E-01 -0.85928563962E-01  0.52433035439E-01  0.13283438769E+00  0.26424564716E-01 0.  0.
         14    1    1    2    0    0 -0.13372991649E-01 -0.97467903926E-02 -0.15139198027E-01  0.22428378129E-01  0.00000000000E+00 0.  1.
     999901    1    3    3    0    0 -0.69172605588E-01  0.95675354355E-01 -0.37293837412E-01  0.88866723418E+00  0.88000000000E+00 0.  1.
        -11    1    4    4    0    0  0.31788578498E-02 -0.11120387226E-01  0.11559755436E-01  0.16360232762E-01  0.51100000000E-03 0. -1.
         11    1    4    4    0    0  0.79366739387E-01 -0.74808176736E-01  0.40873280003E-01  0.11647415493E+00  0.51100000000E-03 0.  1.
</event>
<event>
 8    1  0.1162192E+005  0.1043930E+01  0.7957747E-01            NaN
         13   -1    0    0    0    0  0.00000000000E+00  0.00000000000E+00  0.74505805969E-08  0.10566000000E+00  0.10566000000E+00 0.  1.
     999900   -1    0    0    0    0 -0.00000000000E+00 -0.00000000000E+00 -0.74505805969E-08  0.93827000000E+00  0.93827000000E+00 0. -1.
     999902    2    1    2    0    0 -0.90801315434E-03 -0.23327948977E-01 -0.22420156877E-03  0.10205833095E+01  0.10203162371E+01 0.  0.
     999903    2    3    3    0    0  0.22411377007E-01 -0.86157372697E-01 -0.96441936308E-01  0.13280564424E+00  0.20271392984E-01 0.  0.
         14    1    1    2    0    0  0.90801315434E-03  0.23327948977E-01  0.22420156877E-03  0.23346690509E-01  0.00000000000E+00 0. -1.
     999901    1    3    3    0    0 -0.23319390161E-01  0.62829423720E-01  0.96217734739E-01  0.88777766525E+00  0.88000000000E+00 0.  1.
        -11    1    4    4    0    0  0.78451593007E-02 -0.45044303981E-01 -0.62982883233E-01  0.77830845729E-01  0.51100000000E-03 0. -1.
         11    1    4    4    0    0  0.14566217706E-01 -0.41113068716E-01 -0.33459053075E-01  0.54974798510E-01  0.51100000000E-03 0.  1.
</event>
<event>
 8    1  0.1162192E+005  0.1043930E+01  0.7957747E-01            NaN
         13   -1    0    0    0    0  0.00000000000E+00  0.00000000000E+00  0.74505805969E-08  0.10566000000E+00  0.10566000000E+00 0. -1.
     999900   -1    0    0    0    0 -0.00000000000E+00 -0.00000000000E+00 -0.74505805969E-08  0.93827000000E+00  0.93827000000E+00 0. -1.
     999902    2    1    2    0    0 -0.64863885919E-02 -0.21838367163E-01  0.65842105890E-02  0.10202163047E+01  0.10199406693E+01 0.  0.
     999903    2    3    3    0    0  0.16179803580E-01 -0.90466159870E-01  0.93947339583E-01  0.13294191277E+00  0.20038398937E-01 0.  0.
         14    1    1    2    0    0  0.64863885919E-02  0.21838367163E-01 -0.65842105890E-02  0.23713695334E-01  0.00000000000E+00 0. -1.
     999901    1    3    3    0    0 -0.22666192172E-01  0.68627792707E-01 -0.87363128994E-01  0.88727439189E+00  0.88000000000E+00 0. -1.
        -11    1    4    4    0    0  0.80219180102E-02 -0.63621525974E-01  0.76813565856E-01  0.10006315384E+00  0.51100000000E-03 0. -1.
         11    1    4    4    0    0  0.81578855698E-02 -0.26844633896E-01  0.17133773727E-01  0.32878758935E-01  0.51100000000E-03 0.  1.
</event>
<event>
 7    1  0.1162192E+005  0.1043930E+01  0.7957747E-01            NaN
         13   -1    0    0    0    0  0.00000000000E+00  0.00000000000E+00  0.74505805969E-08  0.10566000000E+00  0.10566000000E+00 0. -1.
     999900   -1    0    0    0    0 -0.00000000000E+00 -0.00000000000E+00 -0.74505805969E-08  0.93827000000E+00  0.93827000000E+00 0. -1.
     999903    2    1    2    0    0  0.38051372652E-02 -0.10951415695E+00 -0.20818291792E-01  0.11333276062E+00  0.20076944818E-01 0.  0.
         14    1    1    2    0    0 -0.26161413126E-01  0.33879194071E-01 -0.17490132107E-01  0.46239853468E-01  0.00000000000E+00 0.  1.
     999901    1    1    2    0    0  0.22356275861E-01  0.75634962882E-01  0.38308423899E-01  0.88435738591E+00  0.88000000000E+00 0.  1.
        -11    1    3    3    0    0  0.78794284707E-02 -0.98225882394E-01 -0.22832048564E-01  0.10115321511E+00  0.51100000000E-03 0. -1.
         11    1    3    3    0    0 -0.40742912055E-02 -0.11288274559E-01  0.20137567718E-02  0.12179545504E-01  0.51100000000E-03 0.  1.
</event>
<event>
 8    1  0.1162192E+005  0.1043930E+01  0.7957747E-01            NaN
         13   -1    0    0    0    0  0.00000000000E+00  0.00000000000E+00  0.74505805969E-08  0.10566000000E+00  0.10566000000E+00 0.  1.
     999900   -1    0    0    0    0 -0.00000000000E+00 -0.00000000000E+00 -0.74505805969E-08  0.93827000000E+00  0.93827000000E+00 0.  1.
     999902    2    1    2    0    0 -0.14794211329E-01 -0.17735500238E-01 -0.12947048123E-02  0.10207979245E+01  0.10205357954E+01 0.  0.
     999903    2    3    3    0    0  0.68467458091E-01 -0.40159015877E-01  0.10209209777E+00  0.13055966951E+00  0.17958048422E-01 0.  0.
         14    1    1    2    0    0  0.14794211329E-01  0.17735500238E-01  0.12947048123E-02  0.23132075524E-01  0.00000000000E+00 0. -1.
     999901    1    3    3    0    0 -0.83261669420E-01  0.22423515640E-01 -0.10338680258E+00  0.89023825496E+00  0.88000000000E+00 0.  1.
        -11    1    4    4    0    0  0.37186837238E-01 -0.17148468465E-01  0.39501305085E-01  0.56899429337E-01  0.51100000000E-03 0. -1.
         11    1    4    4    0    0  0.31280620853E-01 -0.23010547413E-01  0.62590792684E-01  0.73660240177E-01  0.51100000000E-03 0.  1.
</event>
<event>
 8    1  0.1162192E+005  0.1043930E+01  0.7957747E-01            NaN
         13   -1    0    0    0    0  0.00000000000E+00  0.00000000000E+00  0.74505805969E-08  0.10566000000E+00  0.10566000000E+00 0. -1.
     999900   -1    0    0    0    0 -0.00000000000E+00 -0.00000000000E+00 -0.74505805969E-08  0.93827000000E+00  0.93827000000E+00 0.  1.
     999902    2    1    2    0    0 -0.20190180994E-01 -0.11712070500E-01 -0.78622789357E-04  0.10205885736E+01  0.10203216230E+01 0.  0.
     999903    2    3    3    0    0 -0.59457033225E-03 -0.12858576193E+00 -0.23632226819E-01  0.13233285595E+00  0.20465848022E-01 0.  0.
         14    1    1    2    0    0  0.20190180994E-01  0.11712070500E-01  0.78622789357E-04  0.23341426381E-01  0.00000000000E+00 0.  1.
     999901    1    3    3    0    0 -0.19595610662E-01  0.11687369143E+00  0.23553604030E-01  0.88825571767E+00  0.88000000000E+00 0. -1.
        -11    1    4    4    0    0 -0.74399432931E-02 -0.11209164285E+00 -0.20243371984E-01  0.11414878179E+00  0.51100000000E-03 0. -1.
         11    1    4    4    0    0  0.68453729608E-02 -0.16494119076E-01 -0.33888548348E-02  0.18184074162E-01  0.51100000000E-03 0.  1.
</event>
<event>
 8    1  0.1162192E+005  0.1043930E+01  0.7957747E-01            NaN
         13   -1    0    0    0    0  0.00000000000E+00  0.00000000000E+00  0.74505805969E-08  0.10566000000E+00  0.10566000000E+00 0. -1.
     999900   -1    0    0    0    0 -0.00000000000E+00 -0.00000000000E+00 -0.74505805969E-08  0.93827000000E+00  0.93827000000E+00 0.  1.
     999902    2    1    2    0    0  0.12265412359E-01  0.61899308241E-02 -0.21527601075E-01  0.10183919266E+01  0.10180716689E+01 0.  0.
     999903    2    3    3    0    0  0.29074386156E-01 -0.23919237361E-01 -0.12447360098E+00  0.13172006933E+00  0.20953507553E-01 0.  0.
         14    1    1    2    0    0 -0.12265412359E-01 -0.61899308241E-02  0.21527601075E-01  0.25538073380E-01  0.00000000000E+00 0. -1.
     999901    1    3    3    0    0 -0.16808973798E-01  0.30109168185E-01  0.10294599990E+00  0.88667185729E+00  0.88000000000E+00 0. -1.
        -11    1    4    4    0    0  0.14793039041E-01  0.41963987528E-03 -0.39715061225E-01  0.42385814971E-01  0.51100000000E-03 0.  1.
         11    1    4    4    0    0  0.14281347116E-01 -0.24338877236E-01 -0.84758539752E-01  0.89334254362E-01  0.51100000000E-03 0. -1.
</event>
<event>
 8    1  0.1162192E+005  0.1043930E+01  0.7957747E-01            NaN
         13   -1    0    0    0    0  0.00000000000E+00  0.00000000000E+00  0.74505805969E-08  0.10566000000E+00  0.10566000000E+00 0. -1.
     999900   -1    0    0    0    0 -0.00000000000E+00 -0.00000000000E+00 -0.74505805969E-08  0.93827000000E+00  0.93827000000E+00 0.  1.
     999902    2    1    2    0    0 -0.23427153589E-01  0.28069578608E-02  0.98118138636E-03  0.10203148935E+01  0.10200415720E+01 0.  0.
     999903    2    3    3    0    0 -0.34096653507E-01  0.11530930760E+00  0.49663494164E-01  0.13175393077E+00  0.20828284129E-01 0.  0.
         14    1    1    2    0    0  0.23427153589E-01 -0.28069578608E-02 -0.98118138636E-03  0.23615106492E-01  0.00000000000E+00 0.  1.
     999901    1    3    3    0    0  0.10669499917E-01 -0.11250234974E+00 -0.48682312777E-01  0.88856096274E+00  0.88000000000E+00 0.  1.
        -11    1    4    4    0    0 -0.16856896068E-01  0.73031157841E-01  0.40455062245E-01  0.85173811368E-01  0.51100000000E-03 0. -1.
         11    1    4    4    0    0 -0.17239757438E-01  0.42278149764E-01  0.92084319183E-02  0.46580119401E-01  0.51100000000E-03 0.  1.
</event>
<event>
 8    1  0.1162192E+005  0.1043930E+01  0.7957747E-01            NaN
         13   -1    0    0    0    0  0.00000000000E+00  0.00000000000E+00  0.74505805969E-08  0.10566000000E+00  0.10566000000E+00 0. -1.
     999900   -1    0    0    0    0 -0.00000000000E+00 -0.00000000000E+00 -0.74505805969E-08  0.93827000000E+00  0.93827000000E+00 0.  1.
     999902    2    1    2    0    0  0.71279617578E-02 -0.98287623518E-02 -0.19518415669E-01  0.10209434614E+01  0.10206846576E+01 0.  0.
     999903    2    3    3    0    0  0.34305843216E-01 -0.87383685791E-01  0.88533181019E-01  0.13053425716E+00  0.19704535751E-01 0.  0.
         14    1    1    2    0    0 -0.71279617578E-02  0.98287623518E-02  0.19518415669E-01  0.22986538635E-01  0.00000000000E+00 0. -1.
     999901    1    3    3    0    0 -0.27177881459E-01  0.77554923439E-01 -0.10805159669E+00  0.89040920421E+00  0.88000000000E+00 0. -1.
        -11    1    4    4    0    0  0.28420040214E-01 -0.62363934819E-01  0.74561572949E-01  0.10127511211E+00  0.51100000000E-03 0. -1.
         11    1    4    4    0    0  0.58858030021E-02 -0.25019750972E-01  0.13971608070E-01  0.29259145044E-01  0.51100000000E-03 0.  1.
</event>
<event>
 8    1  0.1162192E+005  0.1043930E+01  0.7957747E-01            NaN
         13   -1    0    0    0    0  0.00000000000E+00  0.00000000000E+00  0.74505805969E-08  0.10566000000E+00  0.10566000000E+00 0.  1.
     999900   -1    0    0    0    0 -0.00000000000E+00 -0.00000000000E+00 -0.74505805969E-08  0.93827000000E+00  0.93827000000E+00 0. -1.
     999902    2    1    2    0    0 -0.17465024674E-01 -0.21928639819E-01  0.69346205673E-02  0.10150512657E+01  0.10146403751E+01 0.  0.
     999903    2    3    3    0    0  0.33392430943E-01 -0.10779118626E+00  0.57046133081E-01  0.12799432202E+00  0.19856759313E-01 0.  0.
         14    1    1    2    0    0  0.17465024674E-01  0.21928639819E-01 -0.69346205673E-02  0.28878734279E-01  0.00000000000E+00 0. -1.
     999901    1    3    3    0    0 -0.50857455618E-01  0.85862546445E-01 -0.50111512514E-01  0.88705694370E+00  0.88000000000E+00 0. -1.
        -11    1    4    4    0    0  0.14777688280E-01 -0.58712086878E-01  0.40932669795E-01  0.73083745074E-01  0.51100000000E-03 0.  1.
         11    1    4    4    0    0  0.18614742663E-01 -0.49079099386E-01  0.16113463286E-01  0.54910576950E-01  0.51100000000E-03 0. -1.
</event>
<event>
 8    1  0.1162192E+005  0.1043930E+01  0.7957747E-01            NaN
         13   -1    0    0    0    0  0.00000000000E+00  0.00000000000E+00  0.74505805969E-08  0.10566000000E+00  0.10566000000E+00 0. -1.
     999900   -1    0    0    0    0 -0.00000000000E+00 -0.00000000000E+00 -0.74505805969E-08  0.93827000000E+00  0.93827000000E+00 0. -1.
     999902    2    1    2    0    0 -0.17621189856E-01 -0.10357095297E-01  0.11277654959E-01  0.10205855948E+01  0.10203185752E+01 0.  0.
     999903    2    3    3    0    0 -0.50046889579E-01  0.78539715104E-01 -0.88394629296E-01  0.12991807365E+00  0.19796902973E-01 0.  0.
         14    1    1    2    0    0  0.17621189856E-01  0.10357095297E-01 -0.11277654959E-01  0.23344405246E-01  0.00000000000E+00 0.  1.
     999901    1    3    3    0    0  0.32425699723E-01 -0.88896810400E-01  0.99672284255E-01  0.89066752110E+00  0.88000000000E+00 0.  1.
        -11    1    4    4    0    0 -0.42516159323E-01  0.72814416097E-01 -0.71522170170E-01  0.11056782960E+00  0.51100000000E-03 0.  1.
         11    1    4    4    0    0 -0.75307302561E-02  0.57252990061E-02 -0.16872459125E-01  0.19350244051E-01  0.51100000000E-03 0. -1.
</event>
<event>
 8    1  0.1162192E+005  0.1043930E+01  0.7957747E-01            NaN
         13   -1    0    0    0    0  0.00000000000E+00  0.00000000000E+00  0.74505805969E-08  0.10566000000E+00  0.10566000000E+00 0. -1.
     999900   -1    0    0    0    0 -0.00000000000E+00 -0.00000000000E+00 -0.74505805969E-08  0.93827000000E+00  0.93827000000E+00 0.  1.
     999902    2    1    2    0    0  0.23010739097E-01 -0.44106268016E-02 -0.76073921169E-02  0.10192962801E+01  0.10189985704E+01 0.  0.
     999903    2    3    3    0    0 -0.11015432441E+00  0.40484509084E-01  0.42224917071E-01  0.12675397497E+00  0.22597696501E-01 0.  0.
         14    1    1    2    0    0 -0.23010739097E-01  0.44106268016E-02  0.76073921169E-02  0.24633719926E-01  0.00000000000E+00 0.  1.
     999901    1    3    3    0    0  0.13316506350E+00 -0.44895135885E-01 -0.49832309188E-01  0.89254230511E+00  0.88000000000E+00 0. -1.
        -11    1    4    4    0    0 -0.41394363223E-01  0.38094780803E-02  0.13884829721E-01  0.43829841972E-01  0.51100000000E-03 0. -1.
         11    1    4    4    0    0 -0.68759961184E-01  0.36675031004E-01  0.28340087350E-01  0.82924132996E-01  0.51100000000E-03 0.  1.
</event>
<event>
 8    1  0.1162192E+005  0.1043930E+01  0.7957747E-01            NaN
         13   -1    0    0    0    0  0.00000000000E+00  0.00000000000E+00  0.74505805969E-08  0.10566000000E+00  0.10566000000E+00 0. -1.
     999900   -1    0    0    0    0 -0.00000000000E+00 -0.00000000000E+00 -0.74505805969E-08  0.93827000000E+00  0.93827000000E+00 0. -1.
     999902    2    1    2    0    0 -0.53765193986E-02  0.21481139990E-01  0.73599450305E-02  0.10205951521E+01  0.10203283537E+01 0.  0.
     999903    2    3    3    0    0 -0.79690802497E-01  0.10396002401E+00 -0.14825193144E-01  0.13334233618E+00  0.20051974262E-01 0.  0.
         14    1    1    2    0    0  0.53765193986E-02 -0.21481139990E-01 -0.73599450305E-02  0.23334847909E-01  0.00000000000E+00 0.  1.
     999901    1    3    3    0    0  0.74314283098E-01 -0.82478884022E-01  0.22185138174E-01  0.88725281591E+00  0.88000000000E+00 0.  1.
        -11    1    4    4    0    0 -0.17131260479E-01  0.36052186005E-01 -0.62549756899E-03  0.39923584127E-01  0.51100000000E-03 0.  1.
         11    1    4    4    0    0 -0.62559542018E-01  0.67907838006E-01 -0.14199695575E-01  0.93418752055E-01  0.51100000000E-03 0. -1.
</event>
<event>
 8    1  0.1162192E+005  0.1043930E+01  0.7957747E-01            NaN
         13   -1    0    0    0    0  0.00000000000E+00  0.00000000000E+00  0.74505805969E-08  0.10566000000E+00  0.10566000000E+00 0. -1.
     999900   -1    0    0    0    0 -0.00000000000E+00 -0.00000000000E+00 -0.74505805969E-08  0.93827000000E+00  0.93827000000E+00 0.  1.
     999902    2    1    2    0    0 -0.23153139620E-01 -0.88561024538E-02 -0.13154045810E-01  0.10158670824E+01  0.10154793950E+01 0.  0.
     999903    2    3    3    0    0 -0.69796177535E-01  0.84211404223E-01  0.60595664561E-01  0.12666735589E+00  0.20241479322E-01 0.  0.
         14    1    1    2    0    0  0.23153139620E-01  0.88561024538E-02  0.13154045810E-01  0.28062917633E-01  0.00000000000E+00 0. -1.
     999901    1    3    3    0    0  0.46643037915E-01 -0.93067506677E-01 -0.73749710371E-01  0.88919972648E+00  0.88000000000E+00 0.  1.
        -11    1    4    4    0    0 -0.20992856577E-01  0.12340036612E-01  0.13335799761E-01  0.27768349017E-01  0.51100000000E-03 0. -1.
         11    1    4    4    0    0 -0.48803320957E-01  0.71871367611E-01  0.47259864800E-01  0.98899006874E-01  0.51100000000E-03 0.  1.
</event>
<event>
 8    1  0.1162192E+005  0.1043930E+01  0.7957747E-01            NaN
         13   -1    0    0    0    0  0.00000000000E+00  0.00000000000E+00  0.74505805969E-08  0.10566000000E+00  0.10566000000E+00 0. -1.
     999900   -1    0    0    0    0 -0.00000000000E+00 -0.00000000000E+00 -0.74505805969E-08  0.93827000000E+00  0.93827000000E+00 0. -1.
     999902    2    1    2    0    0  0.49058105673E-02 -0.58949693744E-02 -0.33092944913E-01  0.10099600038E+01  0.10093885518E+01 0.  0.
     999903    2    3    3    0    0  0.11477313567E+00 -0.33729760691E-02  0.31682125884E-01  0.12076205090E+00  0.19886331937E-01 0.  0.
         14    1    1    2    0    0 -0.49058105673E-02  0.58949693744E-02  0.33092944913E-01  0.33969996236E-01  0.00000000000E+00 0. -1.
     999901    1    3    3    0    0 -0.10986732511E+00 -0.25219933053E-02 -0.64775070797E-01  0.88919795286E+00  0.88000000000E+00 0. -1.
        -11    1    4    4    0    0  0.32715438845E-01 -0.92709004249E-02  0.12918086053E-01  0.36378394712E-01  0.51100000000E-03 0.  1.
         11    1    4    4    0    0  0.82057696828E-01  0.58979243558E-02  0.18764039831E-01  0.84383656191E-01  0.51100000000E-03 0. -1.
</event>
<event>
 8    1  0.1162192E+005  0.1043930E+01  0.7957747E-01            NaN
         13   -1    0    0    0    0  0.00000000000E+00  0.00000000000E+00  0.74505805969E-08  0.10566000000E+00  0.10566000000E+00 0.  1.
     999900   -1    0    0    0    0 -0.00000000000E+00 -0.00000000000E+00 -0.74505805969E-08  0.93827000000E+00  0.93827000000E+00 0. -1.
     999902    2    1    2    0    0  0.51886865926E-02 -0.22435135894E-01  0.46933237406E-02  0.10204292537E+01  0.10201586037E+01 0.  0.
     999903    2    3    3    0    0  0.71216968947E-01 -0.17062638558E-01 -0.10642818649E+00  0.13097066112E+00  0.21525912123E-01 0.  0.
         14    1    1    2    0    0 -0.51886865926E-02  0.22435135894E-01 -0.46933237406E-02  0.23500746347E-01  0.00000000000E+00 0.  1.
     999901    1    3    3    0    0 -0.66028282355E-01 -0.53724973362E-02  0.11112151023E+00  0.88945859254E+00  0.88000000000E+00 0.  1.
        -11    1    4    4    0    0  0.64488454273E-01 -0.10583850038E-01 -0.10055087594E+00  0.11992296856E+00  0.51100000000E-03 0. -1.
         11    1    4    4    0    0  0.67285146748E-02 -0.64787885196E-02 -0.58773105544E-02  0.11047692554E-01  0.51100000000E-03 0.  1.
</event>
<event>
 8    1  0.1162192E+005  0.1043930E+01  0.7957747E-01            NaN
         13   -1    0    0    0    0  0.00000000000E+00  0.00000000000E+00  0.74505805969E-08  0.10566000000E+00  0.10566000000E+00 0. -1.
     999900   -1    0    0    0    0 -0.00000000000E+00 -0.00000000000E+00 -0.74505805969E-08  0.93827000000E+00  0.93827000000E+00 0.  1.
     999902    2    1    2    0    0  0.18638014221E-01 -0.14048884762E-01 -0.13743255174E-02  0.10205497625E+01  0.10202819131E+01 0.  0.
     999903    2    3    3    0    0 -0.56621535000E-02  0.96551972794E-02  0.12827029017E+00  0.13040364634E+00  0.20653348884E-01 0.  0.
         14    1    1    2    0    0 -0.18638014221E-01  0.14048884762E-01  0.13743255174E-02  0.23380237548E-01  0.00000000000E+00 0. -1.
     999901    1    3    3    0    0  0.24300167721E-01 -0.23704082042E-01 -0.12964461569E+00  0.89014611611E+00  0.88000000000E+00 0.  1.
        -11    1    4    4    0    0  0.19772871353E-02  0.51845923038E-02  0.10953217540E+00  0.10967382655E+00  0.51100000000E-03 0. -1.
         11    1    4    4    0    0 -0.76394406353E-02  0.44706049757E-02  0.18738114777E-01  0.20729819789E-01  0.51100000000E-03 0.  1.
</event>
<event>
 8    1  0.1162192E+005  0.1043930E+01  0.7957747E-01            NaN
         13   -1    0    0    0    0  0.00000000000E+00  0.00000000000E+00  0.74505805969E-08  0.10566000000E+00  0.10566000000E+00 0.  1.
     999900   -1    0    0    0    0 -0.00000000000E+00 -0.00000000000E+00 -0.74505805969E-08  0.93827000000E+00  0.93827000000E+00 0.  1.
     999902    2    1    2    0    0 -0.28419087686E-02  0.15131961897E-01 -0.17951349366E-01  0.10202803983E+01  0.10200062684E+01 0.  0.
     999903    2    3    3    0    0  0.12158045364E+00 -0.29941388835E-01  0.25289727161E-01  0.12933577493E+00  0.20245466311E-01 0.  0.
         14    1    1    2    0    0  0.28419087686E-02 -0.15131961897E-01  0.17951349366E-01  0.23649601695E-01  0.00000000000E+00 0.  1.
     999901    1    3    3    0    0 -0.12442236241E+00  0.45073350732E-01 -0.43241076527E-01  0.89094462337E+00  0.88000000000E+00 0. -1.
        -11    1    4    4    0    0  0.57140133867E-01 -0.38736086846E-02  0.96083535830E-02  0.58073929798E-01  0.51100000000E-03 0. -1.
         11    1    4    4    0    0  0.64440319770E-01 -0.26067780150E-01  0.15681373578E-01  0.71261845137E-01  0.51100000000E-03 0.  1.
</event>
<event>
 8    1  0.1162192E+005  0.1043930E+01  0.7957747E-01            NaN
         13   -1    0    0    0    0  0.00000000000E+00  0.00000000000E+00  0.74505805969E-08  0.10566000000E+00  0.10566000000E+00 0. -1.
     999900   -1    0    0    0    0 -0.00000000000E+00 -0.00000000000E+00 -0.74505805969E-08  0.93827000000E+00  0.93827000000E+00 0.  1.
     999902    2    1    2    0    0 -0.13940249010E-01 -0.67390840301E-02  0.17177597078E-01  0.10208039187E+01  0.10205419270E+01 0.  0.
     999903    2    3    3    0    0  0.10234595718E+00 -0.74442105212E-01  0.23039951737E-01  0.13055645419E+00  0.22312023112E-01 0.  0.
         14    1    1    2    0    0  0.13940249010E-01  0.67390840301E-02 -0.17177597078E-01  0.23126081324E-01  0.00000000000E+00 0.  1.
     999901    1    3    3    0    0 -0.11628620619E+00  0.67703021182E-01 -0.58623546592E-02  0.89024746449E+00  0.88000000000E+00 0. -1.
        -11    1    4    4    0    0  0.76934793163E-01 -0.56132853381E-01  0.26980485227E-01  0.98985187437E-01  0.51100000000E-03 0.  1.
         11    1    4    4    0    0  0.25411164013E-01 -0.18309251831E-01 -0.39405334897E-02  0.31571266751E-01  0.51100000000E-03 0. -1.
</event>
<event>
 8    1  0.1162192E+005  0.1043930E+01  0.7957747E-01            NaN
         13   -1    0    0    0    0  0.00000000000E+00  0.00000000000E+00  0.74505805969E-08  0.10566000000E+00  0.10566000000E+00 0. -1.
     999900   -1    0    0    0    0 -0.00000000000E+00 -0.00000000000E+00 -0.74505805969E-08  0.93827000000E+00  0.93827000000E+00 0. -1.
     999902    2    1    2    0    0 -0.28846041289E-02 -0.27637155570E-02  0.23531620879E-01  0.10200616895E+01  0.10197824053E+01 0.  0.
     999903    2    3    3    0    0  0.26064951435E-02  0.87613062293E-01  0.97930487404E-01  0.13229296653E+00  0.15106492969E-01 0.  0.
         14    1    1    2    0    0  0.28846041289E-02  0.27637155570E-02 -0.23531620879E-01  0.23868310495E-01  0.00000000000E+00 0.  1.
     999901    1    3    3    0    0 -0.54910992724E-02 -0.90376777850E-01 -0.74398866525E-01  0.88776872297E+00  0.88000000000E+00 0. -1.
        -11    1    4    4    0    0 -0.47452812132E-02  0.63947956245E-01  0.69017490224E-01  0.94210051903E-01  0.51100000000E-03 0. -1.
         11    1    4    4    0    0  0.73517763567E-02  0.23665106048E-01  0.28912997180E-01  0.38082914631E-01  0.51100000000E-03 0.  1.
</event>
<event>
 8    1  0.1162192E+005  0.1043930E+01  0.7957747E-01            NaN
         13   -1    0    0    0    0  0.00000000000E+00  0.00000000000E+00  0.74505805969E-08  0.10566000000E+00  0.10566000000E+00 0.  1.
     999900   -1    0    0    0    0 -0.00000000000E+00 -0.00000000000E+00 -0.74505805969E-08  0.93827000000E+00  0.93827000000E+00 0. -1.
     999902    2    1    2    0    0  0.13857378166E-01 -0.12457073050E-02 -0.12653177837E-01  0.10251235749E+01  0.10249510535E+01 0.  0.
     999903    2    3    3    0    0  0.99512671325E-01  0.10099548452E-01 -0.91848622163E-01  0.13735251066E+00  0.20609952866E-01 0.  0.
         14    1    1    2    0    0 -0.13857378166E-01  0.12457073050E-02  0.12653177837E-01  0.18806425118E-01  0.00000000000E+00 0.  1.
     999901    1    3    3    0    0 -0.85655293159E-01 -0.11345255757E-01  0.79195444326E-01  0.88777106423E+00  0.88000000000E+00 0.  1.
        -11    1    4    4    0    0 -0.79841577342E-03  0.10151095122E-02 -0.10032665214E-02  0.17133533733E-02  0.51100000000E-03 0. -1.
         11    1    4    4    0    0  0.10031108710E+00  0.90844389398E-02 -0.90845355642E-01  0.13563915728E+00  0.51100000000E-03 0.  1.
</event>
<event>
 8    1  0.1162192E+005  0.1043930E+01  0.7957747E-01            NaN
         13   -1    0    0    0    0  0.00000000000E+00  0.00000000000E+00  0.74505805969E-08  0.10566000000E+00  0.10566000000E+00 0. -1.
     999900   -1    0    0    0    0 -0.00000000000E+00 -0.00000000000E+00 -0.74505805969E-08  0.93827000000E+00  0.93827000000E+00 0. -1.
     999902    2    1    2    0    0  0.14708090390E-01  0.58087546729E-02  0.16893600014E-01  0.10207899206E+01  0.10205276080E+01 0.  0.
     999903    2    3    3    0    0  0.83080827572E-01 -0.97474209508E-01  0.25204654658E-01  0.13207665102E+00  0.20132602872E-01 0.  0.
         14    1    1    2    0    0 -0.14708090390E-01 -0.58087546729E-02 -0.16893600014E-01  0.23140079412E-01  0.00000000000E+00 0. -1.
     999901    1    3    3    0    0 -0.68372737182E-01  0.10328296418E+00 -0.83110546438E-02  0.88871326957E+00  0.88000000000E+00 0.  1.
        -11    1    4    4    0    0  0.34978627371E-01 -0.26775166255E-01  0.63293957365E-02  0.44505463397E-01  0.51100000000E-03 0.  1.
         11    1    4    4    0    0  0.48102200201E-01 -0.70699043253E-01  0.18875258922E-01  0.87571187621E-01  0.51100000000E-03 0. -1.
</event>
<event>
 8    1  0.1162192E+005  0.1043930E+01  0.7957747E-01            NaN
         13   -1    0    0    0    0  0.00000000000E+00  0.00000000000E+00  0.74505805969E-08  0.10566000000E+00  0.10566000000E+00 0.  1.
     999900   -1    0    0    0    0 -0.00000000000E+00 -0.00000000000E+00 -0.74505805969E-08  0.93827000000E+00  0.93827000000E+00 0. -1.
     999902    2    1    2    0    0 -0.10475708761E-01  0.21137404469E-01  0.28376236818E-02  0.10201690562E+01  0.10198923084E+01 0.  0.
     999903    2    3    3    0    0 -0.12137837421E+00  0.39016888867E-01 -0.28811218588E-01  0.13246374115E+00  0.21483227397E-01 0.  0.
         14    1    1    2    0    0  0.10475708761E-01 -0.21137404469E-01 -0.28376236818E-02  0.23760943792E-01  0.00000000000E+00 0.  1.
     999901    1    3    3    0    0  0.11090266545E+00 -0.17879484398E-01  0.31648842270E-01  0.88770531506E+00  0.88000000000E+00 0. -1.
        -11    1    4    4    0    0 -0.62384673788E-01  0.31164577876E-01 -0.13929091799E-01  0.71115112017E-01  0.51100000000E-03 0.  1.
         11    1    4    4    0    0 -0.58993700424E-01  0.78523109913E-02 -0.14882126789E-01  0.61348629132E-01  0.51100000000E-03 0. -1.
</event>
<event>
 8    1  0.1162192E+005  0.1043930E+01  0.7957747E-01            NaN
         13   -1    0    0    0    0  0.00000000000E+00  0.00000000000E+00  0.74505805969E-08  0.10566000000E+00  0.10566000000E+00 0.  1.
     999900   -1    0    0    0    0 -0.00000000000E+00 -0.00000000000E+00 -0.74505805969E-08  0.93827000000E+00  0.93827000000E+00 0.  1.
     999902    2    1    2    0    0 -0.20986140975E-01 -0.67696053915E-02  0.12952806241E-02  0.10218410113E+01  0.10216022362E+01 0.  0.
     999903    2    3    3    0    0  0.26315493961E-01  0.77634276716E-01 -0.99905883741E-01  0.13077247540E+00  0.20016707369E-01 0.  0.
         14    1    1    2    0    0  0.20986140975E-01  0.67696053915E-02 -0.12952806241E-02  0.22088988706E-01  0.00000000000E+00 0.  1.
     999901    1    3    3    0    0 -0.47301634936E-01 -0.84403882108E-01  0.10120116436E+00  0.89106853589E+00  0.88000000000E+00 0. -1.
        -11    1    4    4    0    0  0.19146469941E-01  0.26743226778E-01 -0.36049509539E-01  0.48801800671E-01  0.51100000000E-03 0. -1.
         11    1    4    4    0    0  0.71690240202E-02  0.50891049938E-01 -0.63856374201E-01  0.81970674734E-01  0.51100000000E-03 0.  1.
</event>
<event>
 8    1  0.1162192E+005  0.1043930E+01  0.7957747E-01            NaN
         13   -1    0    0    0    0  0.00000000000E+00  0.00000000000E+00  0.74505805969E-08  0.10566000000E+00  0.10566000000E+00 0. -1.
     999900   -1    0    0    0    0 -0.00000000000E+00 -0.00000000000E+00 -0.74505805969E-08  0.93827000000E+00  0.93827000000E+00 0. -1.
     999902    2    1    2    0    0 -0.23834937080E-01 -0.15625911995E-02  0.70063076859E-03  0.10200336237E+01  0.10197536745E+01 0.  0.
     999903    2    3    3    0    0  0.55249214529E-01 -0.47532434797E-01  0.10473924326E+00  0.12919606138E+00  0.20236233157E-01 0.  0.
         14    1    1    2    0    0  0.23834937080E-01  0.15625911995E-02 -0.70063076859E-03  0.23896376301E-01  0.00000000000E+00 0. -1.
     999901    1    3    3    0    0 -0.79084151609E-01  0.45969843598E-01 -0.10403861249E+00  0.89083756232E+00  0.88000000000E+00 0.  1.
        -11    1    4    4    0    0  0.62650210205E-02  0.92615661492E-03  0.12916734579E-01  0.14394839619E-01  0.51100000000E-03 0.  1.
         11    1    4    4    0    0  0.48984193509E-01 -0.48458591412E-01  0.91822508682E-01  0.11480122176E+00  0.51100000000E-03 0. -1.
</event>
<event>
 8    1  0.1162192E+005  0.1043930E+01  0.7957747E-01            NaN
         13   -1    0    0    0    0  0.00000000000E+00  0.00000000000E+00  0.74505805969E-08  0.10566000000E+00  0.10566000000E+00 0.  1.
     999900   -1    0    0    0    0 -0.00000000000E+00 -0.00000000000E+00 -0.74505805969E-08  0.93827000000E+00  0.93827000000E+00 0. -1.
     999902    2    1    2    0    0  0.16614595888E-01 -0.98913747580E-02 -0.12817729402E-01  0.10207313303E+01  0.10204676723E+01 0.  0.
     999903    2    3    3    0    0 -0.78978572903E-01 -0.57115047455E-01 -0.86596300444E-01  0.13123068004E+00  0.14927441478E-01 0.  0.
         14    1    1    2    0    0 -0.16614595888E-01  0.98913747580E-02  0.12817729402E-01  0.23198669749E-01  0.00000000000E+00 0.  1.
     999901    1    3    3    0    0  0.95593168791E-01  0.47223672697E-01  0.73778571042E-01  0.88950065021E+00  0.88000000000E+00 0.  1.
        -11    1    4    4    0    0 -0.23844830108E-01 -0.19352805423E-01 -0.36542742853E-01  0.47736151676E-01  0.51100000000E-03 0.  1.
         11    1    4    4    0    0 -0.55133742796E-01 -0.37762242032E-01 -0.50053557592E-01  0.83494528363E-01  0.51100000000E-03 0. -1.
</event>
<event>
 8    1  0.1162192E+005  0.1043930E+01  0.7957747E-01            NaN
         13   -1    0    0    0    0  0.00000000000E+00  0.00000000000E+00  0.74505805969E-08  0.10566000000E+00  0.10566000000E+00 0. -1.
     999900   -1    0    0    0    0 -0.00000000000E+00 -0.00000000000E+00 -0.74505805969E-08  0.93827000000E+00  0.93827000000E+00 0. -1.
     999902    2    1    2    0    0  0.15487470787E-01 -0.94550534980E-02 -0.13475526987E-01  0.10213280174E+01  0.10210778959E+01 0.  0.
     999903    2    3    3    0    0  0.12837307761E+00 -0.26868200015E-01 -0.18940524967E-01  0.13392943501E+00  0.19411410258E-01 0.  0.
         14    1    1    2    0    0 -0.15487470787E-01  0.94550534980E-02  0.13475526987E-01  0.22601982559E-01  0.00000000000E+00 0. -1.
     999901    1    3    3    0    0 -0.11288560682E+00  0.17413146517E-01  0.54649979800E-02  0.88739858243E+00  0.88000000000E+00 0. -1.
        -11    1    4    4    0    0  0.52721447580E-01 -0.20742386817E-01 -0.93833224117E-02  0.57429134647E-01  0.51100000000E-03 0. -1.
         11    1    4    4    0    0  0.75651630031E-01 -0.61258131974E-02 -0.95572025555E-02  0.76500300362E-01  0.51100000000E-03 0.  1.
</event>
<event>
 8    1  0.1162192E+005  0.1043930E+01  0.7957747E-01            NaN
         13   -1    0    0    0    0  0.00000000000E+00  0.00000000000E+00  0.74505805969E-08  0.10566000000E+00  0.10566000000E+00 0. -1.
     999900   -1    0    0    0    0 -0.00000000000E+00 -0.00000000000E+00 -0.74505805969E-08  0.93827000000E+00  0.93827000000E+00 0. -1.
     999902    2    1    2    0    0 -0.18886533749E-01  0.41467001308E-02 -0.12109710152E-01  0.10211146245E+01  0.10208597039E+01 0.  0.
     999903    2    3    3    0    0  0.87427771496E-01 -0.87676285300E-01 -0.34004198274E-01  0.12970363020E+00  0.18330301539E-01 0.  0.
         14    1    1    2    0    0  0.18886533749E-01 -0.41467001308E-02  0.12109710152E-01  0.22815375496E-01  0.00000000000E+00 0. -1.
     999901    1    3    3    0    0 -0.10631430525E+00  0.91822985431E-01  0.21894488121E-01  0.89141099430E+00  0.88000000000E+00 0. -1.
        -11    1    4    4    0    0  0.74673158917E-01 -0.72697958233E-01 -0.21574927770E-01  0.10642749844E+00  0.51100000000E-03 0. -1.
         11    1    4    4    0    0  0.12754612579E-01 -0.14978327067E-01 -0.12429270503E-01  0.23276131767E-01  0.51100000000E-03 0.  1.
</event>
<event>
 8    1  0.1162192E+005  0.1043930E+01  0.7957747E-01            NaN
         13   -1    0    0    0    0  0.00000000000E+00  0.00000000000E+00  0.74505805969E-08  0.10566000000E+00  0.10566000000E+00 0. -1.
     999900   -1    0    0    0    0 -0.00000000000E+00 -0.00000000000E+00 -0.74505805969E-08  0.93827000000E+00  0.93827000000E+00 0.  1.
     999902    2    1    2    0    0  0.14453454384E-01 -0.10775127957E-02 -0.18719367848E-01  0.10202555811E+01  0.10199808688E+01 0.  0.
     999903    2    3    3    0    0 -0.26595534296E-01 -0.10074352907E+00 -0.78377277759E-01  0.13167390197E+00  0.18396676257E-01 0.  0.
         14    1    1    2    0    0 -0.14453454384E-01  0.10775127957E-02  0.18719367848E-01  0.23674418897E-01  0.00000000000E+00 0. -1.
     999901    1    3    3    0    0  0.41048988680E-01  0.99666016277E-01  0.59657909910E-01  0.88858167913E+00  0.88000000000E+00 0. -1.
        -11    1    4    4    0    0 -0.27545267820E-01 -0.76782285618E-01 -0.64231367546E-01  0.10382769795E+00  0.51100000000E-03 0. -1.
         11    1    4    4    0    0  0.94973352380E-03 -0.23961243455E-01 -0.14145910213E-01  0.27846204022E-01  0.51100000000E-03 0.  1.
</event>
<event>
 8    1  0.1162192E+005  0.1043930E+01  0.7957747E-01            NaN
         13   -1    0    0    0    0  0.00000000000E+00  0.00000000000E+00  0.74505805969E-08  0.10566000000E+00  0.10566000000E+00 0. -1.
     999900   -1    0    0    0    0 -0.00000000000E+00 -0.00000000000E+00 -0.74505805969E-08  0.93827000000E+00  0.93827000000E+00 0. -1.
     999902    2    1    2    0    0 -0.23412333090E-01  0.26710803314E-02  0.51573705755E-02  0.10198080083E+01  0.10195226841E+01 0.  0.
     999903    2    3    3    0    0 -0.92324404651E-01 -0.43122645053E-01  0.82450134059E-01  0.13255375493E+00  0.19726001344E-01 0.  0.
         14    1    1    2    0    0  0.23412333090E-01 -0.26710803314E-02 -0.51573705755E-02  0.24121991669E-01  0.00000000000E+00 0. -1.
     999901    1    3    3    0    0  0.68912071561E-01  0.45793725384E-01 -0.77292763483E-01  0.88725425340E+00  0.88000000000E+00 0. -1.
        -11    1    4    4    0    0 -0.30535684822E-01 -0.15093577834E-01  0.16194987134E-01  0.37719794122E-01  0.51100000000E-03 0. -1.
         11    1    4    4    0    0 -0.61788719830E-01 -0.28029067219E-01  0.66255146925E-01  0.94833960807E-01  0.51100000000E-03 0.  1.
</event>
<event>
 8    1  0.1162192E+005  0.1043930E+01  0.7957747E-01            NaN
         13   -1    0    0    0    0  0.00000000000E+00  0.00000000000E+00  0.74505805969E-08  0.10566000000E+00  0.10566000000E+00 0. -1.
     999900   -1    0    0    0    0 -0.00000000000E+00 -0.00000000000E+00 -0.74505805969E-08  0.93827000000E+00  0.93827000000E+00 0. -1.
     999902    2    1    2    0    0 -0.12538489922E-01  0.13482381672E-01  0.15188918489E-01  0.10200617870E+01  0.10197825051E+01 0.  0.
     999903    2    3    3    0    0  0.11804638016E+00 -0.44379454324E-01  0.15258434047E-01  0.12854599627E+00  0.19666456546E-01 0.  0.
         14    1    1    2    0    0  0.12538489922E-01 -0.13482381672E-01 -0.15188918489E-01  0.23868212961E-01  0.00000000000E+00 0.  1.
     999901    1    3    3    0    0 -0.13058487008E+00  0.57861835997E-01 -0.69515558612E-04  0.89151579077E+00  0.88000000000E+00 0. -1.
        -11    1    4    4    0    0  0.53351005277E-01 -0.27325934429E-01  0.10490050727E-03  0.59944212244E-01  0.51100000000E-03 0. -1.
         11    1    4    4    0    0  0.64695374881E-01 -0.17053519895E-01  0.15153533540E-01  0.68601784026E-01  0.51100000000E-03 0.  1.
</event>
<event>
 8    1  0.1162192E+005  0.1043930E+01  0.7957747E-01            NaN
         13   -1    0    0    0    0  0.00000000000E+00  0.00000000000E+00  0.74505805969E-08  0.10566000000E+00  0.10566000000E+00 0. -1.
     999900   -1    0    0    0    0 -0.00000000000E+00 -0.00000000000E+00 -0.74505805969E-08  0.93827000000E+00  0.93827000000E+00 0. -1.
     999902    2    1    2    0    0  0.17621802272E-01 -0.59116522079E-02 -0.14906379247E-01  0.10201040543E+01  0.10198257723E+01 0.  0.
     999903    2    3    3    0    0 -0.69593458441E-01  0.82881600860E-01  0.64584450960E-01  0.12779831319E+00  0.21181320318E-01 0.  0.
         14    1    1    2    0    0 -0.17621802272E-01  0.59116522079E-02  0.14906379247E-01  0.23825945719E-01  0.00000000000E+00 0. -1.
     999901    1    3    3    0    0  0.87215260713E-01 -0.88793253068E-01 -0.79490830207E-01  0.89230574109E+00  0.88000000000E+00 0. -1.
        -11    1    4    4    0    0 -0.32350827358E-01  0.29908072340E-01  0.16130894110E-01  0.46920525228E-01  0.51100000000E-03 0.  1.
         11    1    4    4    0    0 -0.37242631083E-01  0.52973528519E-01  0.48453556850E-01  0.80877787966E-01  0.51100000000E-03 0. -1.
</event>
<event>
 8    1  0.1162192E+005  0.1043930E+01  0.7957747E-01            NaN
         13   -1    0    0    0    0  0.00000000000E+00  0.00000000000E+00  0.74505805969E-08  0.10566000000E+00  0.10566000000E+00 0. -1.
     999900   -1    0    0    0    0 -0.00000000000E+00 -0.00000000000E+00 -0.74505805969E-08  0.93827000000E+00  0.93827000000E+00 0. -1.
     999902    2    1    2    0    0 -0.72008940898E-02 -0.15783776437E-01 -0.15840903697E-01  0.10204371350E+01  0.10201666687E+01 0.  0.
     999903    2    3    3    0    0 -0.89044972154E-01 -0.93170151224E-01 -0.26791729028E-01  0.13319025581E+00  0.20301806665E-01 0.  0.
         14    1    1    2    0    0  0.72008940898E-02  0.15783776437E-01  0.15840903697E-01  0.23492864964E-01  0.00000000000E+00 0. -1.
     999901    1    3    3    0    0  0.81844078064E-01  0.77386374787E-01  0.10950825331E-01  0.88724687922E+00  0.88000000000E+00 0.  1.
        -11    1    4    4    0    0 -0.17451188615E-01 -0.81938940900E-02 -0.24748262352E-02  0.19444016312E-01  0.51100000000E-03 0.  1.
         11    1    4    4    0    0 -0.71593783538E-01 -0.84976257135E-01 -0.24316902793E-01  0.11374623950E+00  0.51100000000E-03 0. -1.
</event>
<event>
 8    1  0.1162192E+005  0.1043930E+01  0.7957747E-01            NaN
         13   -1    0    0    0    0  0.00000000000E+00  0.00000000000E+00  0.74505805969E-08  0.10566000000E+00  0.10566000000E+00 0. -1.
     999900   -1    0    0    0    0 -0.00000000000E+00 -0.00000000000E+00 -0.74505805969E-08  0.93827000000E+00  0.93827000000E+00 0. -1.
     999902    2    1    2    0    0  0.56998620587E-02  0.28553399928E-01  0.10400897950E-01  0.10130113365E+01  0.10125393840E+01 0.  0.
     999903    2    3    3    0    0 -0.28487739512E-01 -0.11455251947E+00 -0.12749781390E-01  0.12049576227E+00  0.20563092688E-01 0.  0.
         14    1    1    2    0    0 -0.56998620587E-02 -0.28553399928E-01 -0.10400897950E-01  0.30918663508E-01  0.00000000000E+00 0.  1.
     999901    1    3    3    0    0  0.34187601571E-01  0.14310591940E+00  0.23150679341E-01  0.89251557422E+00  0.88000000000E+00 0.  1.
        -11    1    4    4    0    0 -0.13278410124E-01 -0.89664932116E-01 -0.92452081232E-02  0.91114495120E-01  0.51100000000E-03 0. -1.
         11    1    4    4    0    0 -0.15209329388E-01 -0.24887587355E-01 -0.35045732672E-02  0.29381267154E-01  0.51100000000E-03 0.  1.
</event>
<event>
 8    1  0.1377749E+005  0.1043930E+01  0.7957747E-01            NaN
         13   -1    0    0    0    0  0.00000000000E+00  0.00000000000E+00  0.74505805969E-08  0.10566000000E+00  0.10566000000E+00 0. -1.
     999900   -1    0    0    0    0 -0.00000000000E+00 -0.00000000000E+00 -0.74505805969E-08  0.93827000000E+00  0.93827000000E+00 0.  1.
     999902    2    1    2    0    0 -0.80164907812E-02  0.66352784834E-02  0.20580566691E-01  0.10208681100E+01  0.10206075873E+01 0.  0.
     999903    2    3    3    0    0 -0.12905469462E+00 -0.15313810203E-01  0.14506838965E-01  0.13229121437E+00  0.20022238570E-01 0.  0.
         14    1    1    2    0    0  0.80164907812E-02 -0.66352784834E-02 -0.20580566691E-01  0.23061889999E-01  0.00000000000E+00 0.  1.
     999901    1    3    3    0    0  0.12103820383E+00  0.21949088686E-01  0.60737277268E-02  0.88857689563E+00  0.88000000000E+00 0.  1.
        -11    1    4    4    0    0 -0.76219145566E-01 -0.81331289842E-02  0.18382238242E-01  0.78826859265E-01  0.51100000000E-03 0. -1.
         11    1    4    4    0    0 -0.52835549050E-01 -0.71806812185E-02 -0.38753992769E-02  0.53464355104E-01  0.51100000000E-03 0.  1.
</event>
<event>
 8    1  0.1162192E+005  0.1043930E+01  0.7957747E-01            NaN
         13   -1    0    0    0    0  0.00000000000E+00  0.00000000000E+00  0.74505805969E-08  0.10566000000E+00  0.10566000000E+00 0.  1.
     999900   -1    0    0    0    0 -0.00000000000E+00 -0.00000000000E+00 -0.74505805969E-08  0.93827000000E+00  0.93827000000E+00 0. -1.
     999902    2    1    2    0    0 -0.14113731449E-02 -0.73185290191E-02  0.22601938902E-01  0.10201308302E+01  0.10198531807E+01 0.  0.
     999903    2    3    3    0    0 -0.58401838790E-01  0.52687222541E-01  0.10463440533E+00  0.13244962112E+00  0.20194681575E-01 0.  0.
         14    1    1    2    0    0  0.14113731449E-02  0.73185290191E-02 -0.22601938902E-01  0.23799169803E-01  0.00000000000E+00 0. -1.
     999901    1    3    3    0    0  0.56990465645E-01 -0.60005751560E-01 -0.82032466428E-01  0.88768120907E+00  0.88000000000E+00 0. -1.
        -11    1    4    4    0    0 -0.13889398231E-01  0.12514796514E-01  0.40727975278E-01  0.44817012465E-01  0.51100000000E-03 0.  1.
         11    1    4    4    0    0 -0.44512440559E-01  0.40172426027E-01  0.63906430052E-01  0.87632608659E-01  0.51100000000E-03 0. -1.
</event>
<event>
 8    1  0.1162192E+005  0.1043930E+01  0.7957747E-01            NaN
         13   -1    0    0    0    0  0.00000000000E+00  0.00000000000E+00  0.74505805969E-08  0.10566000000E+00  0.10566000000E+00 0. -1.
     999900   -1    0    0    0    0 -0.00000000000E+00 -0.00000000000E+00 -0.74505805969E-08  0.93827000000E+00  0.93827000000E+00 0.  1.
     999902    2    1    2    0    0 -0.96729010977E-02  0.22407055171E-02  0.21474504969E-01  0.10202711720E+01  0.10199968257E+01 0.  0.
     999903    2    3    3    0    0  0.53908019699E-01 -0.54865135901E-01  0.10564223406E+00  0.13213389817E+00  0.19565983305E-01 0.  0.
         14    1    1    2    0    0  0.96729010977E-02 -0.22407055171E-02 -0.21474504969E-01  0.23658827962E-01  0.00000000000E+00 0.  1.
     999901    1    3    3    0    0 -0.63580920797E-01  0.57105841419E-01 -0.84167729093E-01  0.88813727387E+00  0.88000000000E+00 0.  1.
        -11    1    4    4    0    0  0.14565032343E-01 -0.65159671660E-02  0.31134229633E-01  0.34988560575E-01  0.51100000000E-03 0. -1.
         11    1    4    4    0    0  0.39342987356E-01 -0.48349168735E-01  0.74508004429E-01  0.97145337595E-01  0.51100000000E-03 0.  1.
</event>
<event>
 8    1  0.1162192E+005  0.1043930E+01  0.7957747E-01            NaN
         13   -1    0    0    0    0  0.00000000000E+00  0.00000000000E+00  0.74505805969E-08  0.10566000000E+00  0.10566000000E+00 0.  1.
     999900   -1    0    0    0    0 -0.00000000000E+00 -0.00000000000E+00 -0.74505805969E-08  0.93827000000E+00  0.93827000000E+00 0.  1.
     999902    2    1    2    0    0 -0.15057171381E-01  0.19645706776E-01 -0.96450544105E-03  0.10191589993E+01  0.10188579211E+01 0.  0.
     999903    2    3    3    0    0 -0.37960937618E-01  0.12535509283E+00 -0.22507512556E-02  0.13253579228E+00  0.20142945900E-01 0.  0.
         14    1    1    2    0    0  0.15057171381E-01 -0.19645706776E-01  0.96450544105E-03  0.24771000695E-01  0.00000000000E+00 0. -1.
     999901    1    3    3    0    0  0.22903766238E-01 -0.10570938606E+00  0.12862458146E-02  0.88662320703E+00  0.88000000000E+00 0. -1.
        -11    1    4    4    0    0 -0.29090675166E-01  0.11407519973E+00  0.13397602341E-02  0.11773476400E+00  0.51100000000E-03 0. -1.
         11    1    4    4    0    0 -0.88702624527E-02  0.11279893101E-01 -0.35905114898E-02  0.14801028279E-01  0.51100000000E-03 0.  1.
</event>
<event>
 8    1  0.1162192E+005  0.1043930E+01  0.7957747E-01            NaN
         13   -1    0    0    0    0  0.00000000000E+00  0.00000000000E+00  0.74505805969E-08  0.10566000000E+00  0.10566000000E+00 0.  1.
     999900   -1    0    0    0    0 -0.00000000000E+00 -0.00000000000E+00 -0.74505805969E-08  0.93827000000E+00  0.93827000000E+00 0. -1.
     999902    2    1    2    0    0  0.84165678239E-02  0.19153414555E-01  0.13077837015E-02  0.10229680773E+01  0.10227532865E+01 0.  0.
     999903    2    3    3    0    0 -0.80877681393E-01  0.75050770756E-01  0.73012836828E-01  0.13378890979E+00  0.19869084094E-01 0.  0.
         14    1    1    2    0    0 -0.84165678239E-02 -0.19153414555E-01 -0.13077837015E-02  0.20961922652E-01  0.00000000000E+00 0. -1.
     999901    1    3    3    0    0  0.89294249217E-01 -0.55897356200E-01 -0.71705053127E-01  0.88917916756E+00  0.88000000000E+00 0.  1.
        -11    1    4    4    0    0 -0.39570895968E-01  0.23585351893E-01  0.31915922850E-01  0.56044731099E-01  0.51100000000E-03 0. -1.
         11    1    4    4    0    0 -0.41306785426E-01  0.51465418863E-01  0.41096913978E-01  0.77744178691E-01  0.51100000000E-03 0.  1.
</event>
<event>
 8    1  0.1162192E+005  0.1043930E+01  0.7957747E-01            NaN
         13   -1    0    0    0    0  0.00000000000E+00  0.00000000000E+00  0.74505805969E-08  0.10566000000E+00  0.10566000000E+00 0. -1.
     999900   -1    0    0    0    0 -0.00000000000E+00 -0.00000000000E+00 -0.74505805969E-08  0.93827000000E+00  0.93827000000E+00 0.  1.
     999902    2    1    2    0    0  0.43763854525E-02 -0.36901228437E-02 -0.24211984298E-01  0.10190504916E+01  0.10187467371E+01 0.  0.
     999903    2    3    3    0    0  0.69023851146E-01 -0.82647236807E-01  0.67161345661E-01  0.12845372193E+00  0.19870947304E-01 0.  0.
         14    1    1    2    0    0 -0.43763854525E-02  0.36901228437E-02  0.24211984298E-01  0.24879508434E-01  0.00000000000E+00 0. -1.
     999901    1    3    3    0    0 -0.64647465693E-01  0.78957113963E-01 -0.91373329959E-01  0.89059676964E+00  0.88000000000E+00 0.  1.
        -11    1    4    4    0    0  0.43919477622E-01 -0.48628416512E-01  0.51576538066E-01  0.83390909618E-01  0.51100000000E-03 0.  1.
         11    1    4    4    0    0  0.25104373524E-01 -0.34018820296E-01  0.15584807595E-01  0.45062812308E-01  0.51100000000E-03 0. -1.
</event>
<event>
 8    1  0.1162192E+005  0.1043930E+01  0.7957747E-01            NaN
         13   -1    0    0    0    0  0.00000000000E+00  0.00000000000E+00  0.74505805969E-08  0.10566000000E+00  0.10566000000E+00 0.  1.
     999900   -1    0    0    0    0 -0.00000000000E+00 -0.00000000000E+00 -0.74505805969E-08  0.93827000000E+00  0.93827000000E+00 0. -1.
     999902    2    1    2    0    0  0.15485066526E-01 -0.12924062113E-01 -0.10997494955E-01  0.10209568948E+01  0.10206983969E+01 0.  0.
     999903    2    3    3    0    0 -0.47545559308E-01  0.35818767455E-01 -0.11538442616E+00  0.13121235022E+00  0.18961823117E-01 0.  0.
         14    1    1    2    0    0 -0.15485066526E-01  0.12924062113E-01  0.10997494955E-01  0.22973105191E-01  0.00000000000E+00 0.  1.
     999901    1    3    3    0    0  0.63030625834E-01 -0.48742829567E-01  0.10438693121E+00  0.88974454459E+00  0.88000000000E+00 0.  1.
        -11    1    4    4    0    0 -0.46917937186E-01  0.28625983104E-01 -0.10552576855E+00  0.11898188387E+00  0.51100000000E-03 0.  1.
         11    1    4    4    0    0 -0.62762212159E-03  0.71927843505E-02 -0.98586576117E-02  0.12230466350E-01  0.51100000000E-03 0. -1.
</event>
<event>
 8    1  0.1162192E+005  0.1043930E+01  0.7957747E-01            NaN
         13   -1    0    0    0    0  0.00000000000E+00  0.00000000000E+00  0.74505805969E-08  0.10566000000E+00  0.10566000000E+00 0.  1.
     999900   -1    0    0    0    0 -0.00000000000E+00 -0.00000000000E+00 -0.74505805969E-08  0.93827000000E+00  0.93827000000E+00 0. -1.
     999902    2    1    2    0    0  0.35515550386E-02  0.18198577636E-01  0.11275956762E-01  0.10222286412E+01  0.10219982612E+01 0.  0.
     999903    2    3    3    0    0 -0.12187027059E+00  0.39449922456E-01  0.28973467584E-01  0.13290560888E+00  0.20390679555E-01 0.  0.
         14    1    1    2    0    0 -0.35515550386E-02 -0.18198577636E-01 -0.11275956762E-01  0.21701358761E-01  0.00000000000E+00 0. -1.
     999901    1    3    3    0    0  0.12542182562E+00 -0.21251344820E-01 -0.17697510822E-01  0.88932303236E+00  0.88000000000E+00 0. -1.
        -11    1    4    4    0    0 -0.66365762138E-01  0.22598551109E-01  0.26152436577E-01  0.74828603864E-01  0.51100000000E-03 0. -1.
         11    1    4    4    0    0 -0.55504508448E-01  0.16851371347E-01  0.28210310074E-02  0.58077005013E-01  0.51100000000E-03 0.  1.
</event>
<event>
 8    1  0.1162192E+005  0.1043930E+01  0.7957747E-01            NaN
         13   -1    0    0    0    0  0.00000000000E+00  0.00000000000E+00  0.74505805969E-08  0.10566000000E+00  0.10566000000E+00 0.  1.
     999900   -1    0    0    0    0 -0.00000000000E+00 -0.00000000000E+00 -0.74505805969E-08  0.93827000000E+00  0.93827000000E+00 0.  1.
     999902    2    1    2    0    0  0.26317571494E-01 -0.65795269374E-02 -0.29593654726E-02  0.10166414935E+01  0.10162751909E+01 0.  0.
     999903    2    3    3    0    0  0.24244851063E-01  0.67364166953E-01 -0.10309879416E+00  0.12787838038E+00  0.24449438012E-01 0.  0.
         14    1    1    2    0    0 -0.26317571494E-01  0.65795269374E-02  0.29593654726E-02  0.27288506520E-01  0.00000000000E+00 0. -1.
     999901    1    3    3    0    0  0.20727204312E-02 -0.73943693891E-01  0.10013942868E+00  0.88876311310E+00  0.88000000000E+00 0. -1.
        -11    1    4    4    0    0 -0.11509248810E-02  0.27891867641E-01 -0.29780238153E-01  0.40821619444E-01  0.51100000000E-03 0.  1.
         11    1    4    4    0    0  0.25395775944E-01  0.39472299312E-01 -0.73318556003E-01  0.87056760933E-01  0.51100000000E-03 0. -1.
</event>
<event>
 8    1  0.1162192E+005  0.1043930E+01  0.7957747E-01            NaN
         13   -1    0    0    0    0  0.00000000000E+00  0.00000000000E+00  0.74505805969E-08  0.10566000000E+00  0.10566000000E+00 0.  1.
     999900   -1    0    0    0    0 -0.00000000000E+00 -0.00000000000E+00 -0.74505805969E-08  0.93827000000E+00  0.93827000000E+00 0. -1.
     999902    2    1    2    0    0 -0.43582920492E-02 -0.88328482873E-03 -0.23446095619E-01  0.10200659203E+01  0.10197867362E+01 0.  0.
     999903    2    3    3    0    0  0.69300913195E-02  0.74114211633E-03  0.12567758281E+00  0.12744733552E+00  0.19984820564E-01 0.  0.
         14    1    1    2    0    0  0.43582920492E-02  0.88328482873E-03  0.23446095619E-01  0.23864079732E-01  0.00000000000E+00 0.  1.
     999901    1    3    3    0    0 -0.11288383369E-01 -0.16244269451E-02 -0.14912367843E+00  0.89261858474E+00  0.88000000000E+00 0. -1.
        -11    1    4    4    0    0  0.13151662290E-01  0.18550022123E-02  0.10446670098E+00  0.10530887896E+00  0.51100000000E-03 0.  1.
         11    1    4    4    0    0 -0.62215709710E-02 -0.11138600959E-02  0.21210881836E-01  0.22138456561E-01  0.51100000000E-03 0. -1.
</event>
<event>
 8    1  0.1162192E+005  0.1043930E+01  0.7957747E-01            NaN
         13   -1    0    0    0    0  0.00000000000E+00  0.00000000000E+00  0.74505805969E-08  0.10566000000E+00  0.10566000000E+00 0.  1.
     999900   -1    0    0    0    0 -0.00000000000E+00 -0.00000000000E+00 -0.74505805969E-08  0.93827000000E+00  0.93827000000E+00 0. -1.
     999902    2    1    2    0    0  0.50818842455E-02 -0.13146063463E-01 -0.18600026814E-01  0.10205932151E+01  0.10203263719E+01 0.  0.
     999903    2    3    3    0    0 -0.81856922830E-01 -0.94543191401E-01  0.33895573830E-01  0.13102048806E+00  0.19454755447E-01 0.  0.
         14    1    1    2    0    0 -0.50818842455E-02  0.13146063463E-01  0.18600026814E-01  0.23336784902E-01  0.00000000000E+00 0.  1.
     999901    1    3    3    0    0  0.86938807075E-01  0.81397127938E-01 -0.52495600644E-01  0.88957272704E+00  0.88000000000E+00 0. -1.
        -11    1    4    4    0    0 -0.70752024221E-01 -0.86387407699E-01  0.35424111734E-01  0.11714846117E+00  0.51100000000E-03 0. -1.
         11    1    4    4    0    0 -0.11104898608E-01 -0.81557837027E-02 -0.15285379040E-02  0.13872026890E-01  0.51100000000E-03 0.  1.
</event>
<event>
 8    1  0.1162192E+005  0.1043930E+01  0.7957747E-01            NaN
         13   -1    0    0    0    0  0.00000000000E+00  0.00000000000E+00  0.74505805969E-08  0.10566000000E+00  0.10566000000E+00 0.  1.
     999900   -1    0    0    0    0 -0.00000000000E+00 -0.00000000000E+00 -0.74505805969E-08  0.93827000000E+00  0.93827000000E+00 0. -1.
     999902    2    1    2    0    0 -0.21601617460E-02 -0.12572795467E-01  0.20153128671E-01  0.10200785833E+01  0.10197996989E+01 0.  0.
     999903    2    3    3    0    0 -0.40270934682E-01  0.11431072865E+00 -0.36500149772E-01  0.12836032414E+00  0.21340595491E-01 0.  0.
         14    1    1    2    0    0  0.21601617460E-02  0.12572795467E-01 -0.20153128671E-01  0.23851416727E-01  0.00000000000E+00 0. -1.
     999901    1    3    3    0    0  0.38110772936E-01 -0.12688352412E+00  0.56653278444E-01  0.89171825913E+00  0.88000000000E+00 0.  1.
        -11    1    4    4    0    0 -0.14142525960E-02  0.21497012600E-01 -0.70037620215E-03  0.21560920874E-01  0.51100000000E-03 0. -1.
         11    1    4    4    0    0 -0.38856682086E-01  0.92813716052E-01 -0.35799773570E-01  0.10679940327E+00  0.51100000000E-03 0.  1.
</event>
<event>
 8    1  0.1162192E+005  0.1043930E+01  0.7957747E-01            NaN
         13   -1    0    0    0    0  0.00000000000E+00  0.00000000000E+00  0.74505805969E-08  0.10566000000E+00  0.10566000000E+00 0.  1.
     999900   -1    0    0    0    0 -0.00000000000E+00 -0.00000000000E+00 -0.74505805969E-08  0.93827000000E+00  0.93827000000E+00 0. -1.
     999902    2    1    2    0    0 -0.18585582180E-01 -0.10620478721E-02  0.15830051592E-01  0.10194935039E+01  0.10192005995E+01 0.  0.
     999903    2    3    3    0    0  0.59867439418E-01 -0.71138197111E-01 -0.85013251641E-01  0.12750980720E+00  0.19665822791E-01 0.  0.
         14    1    1    2    0    0  0.18585582180E-01  0.10620478721E-02 -0.15830051592E-01  0.24436496149E-01  0.00000000000E+00 0. -1.
     999901    1    3    3    0    0 -0.78453021598E-01  0.70076149238E-01  0.10084330323E+00  0.89198369665E+00  0.88000000000E+00 0.  1.
        -11    1    4    4    0    0  0.18142741928E-01 -0.13038465131E-01 -0.12296886515E-01  0.25507551756E-01  0.51100000000E-03 0.  1.
         11    1    4    4    0    0  0.41724697491E-01 -0.58099731980E-01 -0.72716365126E-01  0.10200225544E+00  0.51100000000E-03 0. -1.
</event>
<event>
 8    1  0.1162192E+005  0.1043930E+01  0.7957747E-01            NaN
         13   -1    0    0    0    0  0.00000000000E+00  0.00000000000E+00  0.74505805969E-08  0.10566000000E+00  0.10566000000E+00 0.  1.
     999900   -1    0    0    0    0 -0.00000000000E+00 -0.00000000000E+00 -0.74505805969E-08  0.93827000000E+00  0.93827000000E+00 0. -1.
     999902    2    1    2    0    0 -0.26149703247E-01 -0.11511269809E-01 -0.16757283919E-01  0.10108071548E+01  0.10102643126E+01 0.  0.
     999903    2    3    3    0    0 -0.62316081741E-01  0.90832276417E-01  0.47836853322E-01  0.12178825116E+00  0.20253816989E-01 0.  0.
         14    1    1    2    0    0  0.26149703247E-01  0.11511269809E-01  0.16757283919E-01  0.33122845241E-01  0.00000000000E+00 0. -1.
     999901    1    3    3    0    0  0.36166378493E-01 -0.10234354623E+00 -0.64594137240E-01  0.88901890360E+00  0.88000000000E+00 0.  1.
        -11    1    4    4    0    0 -0.27170605390E-01  0.54321580097E-01  0.19892450076E-01  0.63914368905E-01  0.51100000000E-03 0.  1.
         11    1    4    4    0    0 -0.35145476350E-01  0.36510696320E-01  0.27944403246E-01  0.57873882256E-01  0.51100000000E-03 0. -1.
</event>
<event>
 8    1  0.1162192E+005  0.1043930E+01  0.7957747E-01            NaN
         13   -1    0    0    0    0  0.00000000000E+00  0.00000000000E+00  0.74505805969E-08  0.10566000000E+00  0.10566000000E+00 0.  1.
     999900   -1    0    0    0    0 -0.00000000000E+00 -0.00000000000E+00 -0.74505805969E-08  0.93827000000E+00  0.93827000000E+00 0.  1.
     999902    2    1    2    0    0 -0.12880278126E-01 -0.19558369227E-01  0.46822500253E-02  0.10200478971E+01  0.10197682862E+01 0.  0.
     999903    2    3    3    0    0  0.80855933317E-01 -0.88849362856E-01  0.48791329009E-01  0.13126596102E+00  0.20451589271E-01 0.  0.
         14    1    1    2    0    0  0.12880278126E-01  0.19558369227E-01 -0.46822500253E-02  0.23882102854E-01  0.00000000000E+00 0. -1.
     999901    1    3    3    0    0 -0.93736211443E-01  0.69290993630E-01 -0.44109078984E-01  0.88878193613E+00  0.88000000000E+00 0.  1.
        -11    1    4    4    0    0  0.60858874298E-01 -0.53459998135E-01  0.28885473886E-01  0.86002358712E-01  0.51100000000E-03 0.  1.
         11    1    4    4    0    0  0.19997059019E-01 -0.35389364721E-01  0.19905855124E-01  0.45263602309E-01  0.51100000000E-03 0. -1.
</event>
<event>
 8    1  0.1162192E+005  0.1043930E+01  0.7957747E-01            NaN
         13   -1    0    0    0    0  0.00000000000E+00  0.00000000000E+00  0.74505805969E-08  0.10566000000E+00  0.10566000000E+00 0. -1.
     999900   -1    0    0    0    0 -0.00000000000E+00 -0.00000000000E+00 -0.74505805969E-08  0.93827000000E+00  0.93827000000E+00 0.  1.
     999902    2    1    2    0    0 -0.12076888375E-01  0.11401437190E-01  0.11697569228E-01  0.10236155438E+01  0.10234139458E+01 0.  0.
     999903    2    3    3    0    0 -0.76091807026E-01 -0.10711129878E+00 -0.56691714775E-02  0.13319722526E+00  0.21132152942E-01 0.  0.
         14    1    1    2    0    0  0.12076888375E-01 -0.11401437190E-01 -0.11697569228E-01  0.20314456150E-01  0.00000000000E+00 0.  1.
     999901    1    3    3    0    0  0.64014918650E-01  0.11851273597E+00  0.17366740706E-01  0.89041831859E+00  0.88000000000E+00 0.  1.
        -11    1    4    4    0    0 -0.56264002222E-01 -0.88738435939E-01 -0.10975605697E-01  0.10564503301E+00  0.51100000000E-03 0.  1.
         11    1    4    4    0    0 -0.19827804803E-01 -0.18372862845E-01  0.53064342195E-02  0.27552192246E-01  0.51100000000E-03 0. -1.
</event>
<event>
 8    1  0.1162192E+005  0.1043930E+01  0.7957747E-01            NaN
         13   -1    0    0    0    0  0.00000000000E+00  0.00000000000E+00  0.74505805969E-08  0.10566000000E+00  0.10566000000E+00 0.  1.
     999900   -1    0    0    0    0 -0.00000000000E+00 -0.00000000000E+00 -0.74505805969E-08  0.93827000000E+00  0.93827000000E+00 0. -1.
     999902    2    1    2    0    0  0.22752544793E-01 -0.39958492200E-02 -0.48930551842E-02  0.10203167178E+01  0.10200434391E+01 0.  0.
     999903    2    3    3    0    0 -0.48476002057E-01 -0.42374357159E-02  0.11785461090E+00  0.12894667471E+00  0.19226465384E-01 0.  0.
         14    1    1    2    0    0 -0.22752544793E-01  0.39958492200E-02  0.48930551842E-02  0.23613282164E-01  0.00000000000E+00 0.  1.
     999901    1    3    3    0    0  0.71228546849E-01  0.24158649584E-03 -0.12274766609E+00  0.89137004312E+00  0.88000000000E+00 0. -1.
        -11    1    4    4    0    0 -0.46315128120E-01 -0.87874987840E-02  0.10368638344E+00  0.11390100289E+00  0.51100000000E-03 0.  1.
         11    1    4    4    0    0 -0.21608739368E-02  0.45500630681E-02  0.14168227460E-01  0.15045671818E-01  0.51100000000E-03 0. -1.
</event>
<event>
 8    1  0.1162192E+005  0.1043930E+01  0.7957747E-01            NaN
         13   -1    0    0    0    0  0.00000000000E+00  0.00000000000E+00  0.74505805969E-08  0.10566000000E+00  0.10566000000E+00 0. -1.
     999900   -1    0    0    0    0 -0.00000000000E+00 -0.00000000000E+00 -0.74505805969E-08  0.93827000000E+00  0.93827000000E+00 0.  1.
     999902    2    1    2    0    0 -0.11109334513E-01 -0.73052271104E-02  0.19654022997E-01  0.10202010245E+01  0.10199250297E+01 0.  0.
     999903    2    3    3    0    0 -0.10175091929E+00  0.77574305315E-01  0.22822055023E-01  0.13147695693E+00  0.19857532270E-01 0.  0.
         14    1    1    2    0    0  0.11109334513E-01  0.73052271104E-02 -0.19654022997E-01  0.23728975461E-01  0.00000000000E+00 0.  1.
     999901    1    3    3    0    0  0.90641584775E-01 -0.84879532426E-01 -0.31680320266E-02  0.88872406761E+00  0.88000000000E+00 0.  1.
        -11    1    4    4    0    0 -0.60198725409E-01  0.56105287192E-01  0.94699292304E-02  0.82834959241E-01  0.51100000000E-03 0. -1.
         11    1    4    4    0    0 -0.41552193879E-01  0.21469018123E-01  0.13352125793E-01  0.48641997693E-01  0.51100000000E-03 0.  1.
</event>
<event>
 8    1  0.1162192E+005  0.1043930E+01  0.7957747E-01            NaN
         13   -1    0    0    0    0  0.00000000000E+00  0.00000000000E+00  0.74505805969E-08  0.10566000000E+00  0.10566000000E+00 0.  1.
     999900   -1    0    0    0    0 -0.00000000000E+00 -0.00000000000E+00 -0.74505805969E-08  0.93827000000E+00  0.93827000000E+00 0. -1.
     999902    2    1    2    0    0  0.15482485275E-01  0.18319121352E-01 -0.36307263092E-02  0.10196713988E+01  0.10193827946E+01 0.  0.
     999903    2    3    3    0    0 -0.29302374821E-01  0.91645514317E-02  0.12389714880E+00  0.12930470539E+00  0.20653938675E-01 0.  0.
         14    1    1    2    0    0 -0.15482485275E-01 -0.18319121352E-01  0.36307263092E-02  0.24258601174E-01  0.00000000000E+00 0.  1.
     999901    1    3    3    0    0  0.44784860096E-01  0.91545699206E-02 -0.12752787511E+00  0.89036669343E+00  0.88000000000E+00 0. -1.
        -11    1    4    4    0    0 -0.19848292048E-01  0.47902073795E-02  0.11026385907E+00  0.11213955824E+00  0.51100000000E-03 0.  1.
         11    1    4    4    0    0 -0.94540827733E-02  0.43743440522E-02  0.13633289733E-01  0.17165147157E-01  0.51100000000E-03 0. -1.
</event>
<event>
 8    1  0.1162192E+005  0.1043930E+01  0.7957747E-01            NaN
         13   -1    0    0    0    0  0.00000000000E+00  0.00000000000E+00  0.74505805969E-08  0.10566000000E+00  0.10566000000E+00 0.  1.
     999900   -1    0    0    0    0 -0.00000000000E+00 -0.00000000000E+00 -0.74505805969E-08  0.93827000000E+00  0.93827000000E+00 0.  1.
     999902    2    1    2    0    0  0.19388317611E-01 -0.12962326231E-01 -0.44528707077E-02  0.10201864363E+01  0.10199100980E+01 0.  0.
     999903    2    3    3    0    0 -0.44045198176E-01  0.11579392198E+00  0.25721024561E-01  0.12804718350E+00  0.19654471416E-01 0.  0.
         14    1    1    2    0    0 -0.19388317611E-01  0.12962326231E-01  0.44528707077E-02  0.23743563731E-01  0.00000000000E+00 0.  1.
     999901    1    3    3    0    0  0.63433515787E-01 -0.12875624821E+00 -0.30173895269E-01  0.89213925277E+00  0.88000000000E+00 0.  1.
        -11    1    4    4    0    0 -0.96764316414E-02  0.12428965848E-01  0.80370462578E-02  0.17690894689E-01  0.51100000000E-03 0. -1.
         11    1    4    4    0    0 -0.34368766535E-01  0.10336495614E+00  0.17683978303E-01  0.11035628881E+00  0.51100000000E-03 0.  1.
</event>
<event>
 8    1  0.1162192E+005  0.1043930E+01  0.7957747E-01            NaN
         13   -1    0    0    0    0  0.00000000000E+00  0.00000000000E+00  0.74505805969E-08  0.10566000000E+00  0.10566000000E+00 0.  1.
     999900   -1    0    0    0    0 -0.00000000000E+00 -0.00000000000E+00 -0.74505805969E-08  0.93827000000E+00  0.93827000000E+00 0. -1.
     999902    2    1    2    0    0  0.12105165588E-01  0.14970362328E-01  0.13268945518E-01  0.10205481332E+01  0.10202802460E+01 0.  0.
     999903    2    3    3    0    0 -0.12559851785E+00  0.13706212720E-01  0.23998020941E-01  0.12977374221E+00  0.17391699292E-01 0.  0.
         14    1    1    2    0    0 -0.12105165588E-01 -0.14970362328E-01 -0.13268945518E-01  0.23381866848E-01  0.00000000000E+00 0. -1.
     999901    1    3    3    0    0  0.13770368344E+00  0.12641496080E-02 -0.10729075424E-01  0.89077439095E+00  0.88000000000E+00 0.  1.
        -11    1    4    4    0    0 -0.39652595545E-01 -0.16598021693E-02  0.13043861290E-01  0.41779022428E-01  0.51100000000E-03 0. -1.
         11    1    4    4    0    0 -0.85945922303E-01  0.15366014890E-01  0.10954159651E-01  0.87994719778E-01  0.51100000000E-03 0.  1.
</event>
<event>
 8    1  0.1162192E+005  0.1043930E+01  0.7957747E-01            NaN
         13   -1    0    0    0    0  0.00000000000E+00  0.00000000000E+00  0.74505805969E-08  0.10566000000E+00  0.10566000000E+00 0.  1.
     999900   -1    0    0    0    0 -0.00000000000E+00 -0.00000000000E+00 -0.74505805969E-08  0.93827000000E+00  0.93827000000E+00 0. -1.
     999902    2    1    2    0    0  0.15093263737E-01 -0.17188311565E-01 -0.43970741305E-03  0.10210512324E+01  0.10207948771E+01 0.  0.
     999903    2    3    3    0    0  0.60420991034E-01  0.63934497753E-01 -0.96308296239E-01  0.13098028051E+00  0.11926013515E-01 0.  0.
         14    1    1    2    0    0 -0.15093263737E-01  0.17188311565E-01  0.43970741305E-03  0.22878767609E-01  0.00000000000E+00 0.  1.
     999901    1    3    3    0    0 -0.45327727298E-01 -0.81122809318E-01  0.95868588826E-01  0.89007095188E+00  0.88000000000E+00 0. -1.
        -11    1    4    4    0    0  0.47909683655E-01  0.42998712488E-01 -0.69902831356E-01  0.95031016074E-01  0.51100000000E-03 0.  1.
         11    1    4    4    0    0  0.12511307379E-01  0.20935785265E-01 -0.26405464883E-01  0.35949264439E-01  0.51100000000E-03 0. -1.
</event>
<event>
 8    1  0.1162192E+005  0.1043930E+01  0.7957747E-01            NaN
         13   -1    0    0    0    0  0.00000000000E+00  0.00000000000E+00  0.74505805969E-08  0.10566000000E+00  0.10566000000E+00 0. -1.
     999900   -1    0    0    0    0 -0.00000000000E+00 -0.00000000000E+00 -0.74505805969E-08  0.93827000000E+00  0.93827000000E+00 0. -1.
     999902    2    1    2    0    0 -0.36984210656E-02 -0.65009577628E-02  0.22338054136E-01  0.10203730598E+01  0.10201010988E+01 0.  0.
     999903    2    3    3    0    0 -0.11177718856E+00 -0.63164917649E-01 -0.18946031774E-01  0.13099338827E+00  0.17786763226E-01 0.  0.
         14    1    1    2    0    0  0.36984210656E-02  0.65009577628E-02 -0.22338054136E-01  0.23556940225E-01  0.00000000000E+00 0.  1.
     999901    1    3    3    0    0  0.10807876750E+00  0.56663959886E-01  0.41284085910E-01  0.88937967150E+00  0.88000000000E+00 0. -1.
        -11    1    4    4    0    0 -0.49863026508E-01 -0.33963726064E-01 -0.15158342730E-02  0.60352423110E-01  0.51100000000E-03 0. -1.
         11    1    4    4    0    0 -0.61914162056E-01 -0.29201191585E-01 -0.17430197501E-01  0.70640965162E-01  0.51100000000E-03 0.  1.
</event>
<event>
 8    1  0.1162192E+005  0.1043930E+01  0.7957747E-01            NaN
         13   -1    0    0    0    0  0.00000000000E+00  0.00000000000E+00  0.74505805969E-08  0.10566000000E+00  0.10566000000E+00 0. -1.
     999900   -1    0    0    0    0 -0.00000000000E+00 -0.00000000000E+00 -0.74505805969E-08  0.93827000000E+00  0.93827000000E+00 0. -1.
     999902    2    1    2    0    0 -0.22573920503E-01  0.63818823736E-02 -0.62312124766E-02  0.10196578283E+01  0.10193688972E+01 0.  0.
     999903    2    3    3    0    0  0.86089102253E-01 -0.36613960726E-01 -0.85471823306E-01  0.12840288754E+00  0.20735315375E-01 0.  0.
         14    1    1    2    0    0  0.22573920503E-01 -0.63818823736E-02  0.62312124766E-02  0.24272171688E-01  0.00000000000E+00 0.  1.
     999901    1    3    3    0    0 -0.10866302276E+00  0.42995843100E-01  0.79240610829E-01  0.89125494077E+00  0.88000000000E+00 0. -1.
        -11    1    4    4    0    0  0.39701488310E-01 -0.26538842998E-01 -0.35732966520E-01  0.59645824489E-01  0.51100000000E-03 0.  1.
         11    1    4    4    0    0  0.46387613944E-01 -0.10075117728E-01 -0.49738856786E-01  0.68757063055E-01  0.51100000000E-03 0. -1.
</event>
<event>
 8    1  0.1162192E+005  0.1043930E+01  0.7957747E-01            NaN
         13   -1    0    0    0    0  0.00000000000E+00  0.00000000000E+00  0.74505805969E-08  0.10566000000E+00  0.10566000000E+00 0. -1.
     999900   -1    0    0    0    0 -0.00000000000E+00 -0.00000000000E+00 -0.74505805969E-08  0.93827000000E+00  0.93827000000E+00 0.  1.
     999902    2    1    2    0    0 -0.43970468249E-02 -0.15608090039E-01 -0.16323781385E-01  0.10209210380E+01  0.10206617233E+01 0.  0.
     999903    2    3    3    0    0  0.93433802812E-01 -0.66644222937E-01 -0.63602262956E-01  0.13277081597E+00  0.20285801962E-01 0.  0.
         14    1    1    2    0    0  0.43970468249E-02  0.15608090039E-01  0.16323781385E-01  0.23008962040E-01  0.00000000000E+00 0. -1.
     999901    1    3    3    0    0 -0.97830849637E-01  0.51036132898E-01  0.47278481571E-01  0.88815022199E+00  0.88000000000E+00 0.  1.
        -11    1    4    4    0    0  0.43186167060E-01 -0.18883935489E-01 -0.28195834123E-01  0.54926443793E-01  0.51100000000E-03 0.  1.
         11    1    4    4    0    0  0.50247635753E-01 -0.47760287448E-01 -0.35406428833E-01  0.77844372177E-01  0.51100000000E-03 0. -1.
</event>
<event>
 7    1  0.1162192E+005  0.1043930E+01  0.7957747E-01            NaN
         13   -1    0    0    0    0  0.00000000000E+00  0.00000000000E+00  0.74505805969E-08  0.10566000000E+00  0.10566000000E+00 0.  1.
     999900   -1    0    0    0    0 -0.00000000000E+00 -0.00000000000E+00 -0.74505805969E-08  0.93827000000E+00  0.93827000000E+00 0.  1.
     999903    2    1    2    0    0 -0.90481437129E-01  0.32596158092E-02 -0.17920561914E-01  0.93327897792E-01  0.13835982319E-01 0.  0.
         14    1    1    2    0    0 -0.37955946444E-01  0.41545728944E-01 -0.18975545831E-01  0.59386638258E-01  0.00000000000E+00 0. -1.
     999901    1    1    2    0    0  0.12843738357E+00 -0.44805344753E-01  0.36896107744E-01  0.89121546395E+00  0.88000000000E+00 0.  1.
        -11    1    3    3    0    0 -0.64141851676E-01  0.95447572621E-03 -0.18860363625E-01  0.66866004796E-01  0.51100000000E-03 0. -1.
         11    1    3    3    0    0 -0.26339585454E-01  0.23051400830E-02  0.93980171118E-03  0.26461892996E-01  0.51100000000E-03 0.  1.
</event>
<event>
 8    1  0.1162192E+005  0.1043930E+01  0.7957747E-01            NaN
         13   -1    0    0    0    0  0.00000000000E+00  0.00000000000E+00  0.74505805969E-08  0.10566000000E+00  0.10566000000E+00 0. -1.
     999900   -1    0    0    0    0 -0.00000000000E+00 -0.00000000000E+00 -0.74505805969E-08  0.93827000000E+00  0.93827000000E+00 0. -1.
     999902    2    1    2    0    0  0.12135610623E-01 -0.20315553898E-01 -0.20478187040E-02  0.10201773510E+01  0.10199007986E+01 0.  0.
     999903    2    3    3    0    0  0.83028068209E-01 -0.10116276805E+00  0.16903827475E-01  0.13342982348E+00  0.19753801214E-01 0.  0.
         14    1    1    2    0    0 -0.12135610623E-01  0.20315553898E-01  0.20478187040E-02  0.23752649048E-01  0.00000000000E+00 0.  1.
     999901    1    3    3    0    0 -0.70892457586E-01  0.80847214148E-01 -0.18951646179E-01  0.88674752747E+00  0.88000000000E+00 0. -1.
        -11    1    4    4    0    0  0.54914232483E-01 -0.80551548549E-01  0.12260699094E-01  0.98258387765E-01  0.51100000000E-03 0.  1.
         11    1    4    4    0    0  0.28113835726E-01 -0.20611219496E-01  0.46431283813E-02  0.35171435719E-01  0.51100000000E-03 0. -1.
</event>
<event>
 8    1  0.1162192E+005  0.1043930E+01  0.7957747E-01            NaN
         13   -1    0    0    0    0  0.00000000000E+00  0.00000000000E+00  0.74505805969E-08  0.10566000000E+00  0.10566000000E+00 0.  1.
     999900   -1    0    0    0    0 -0.00000000000E+00 -0.00000000000E+00 -0.74505805969E-08  0.93827000000E+00  0.93827000000E+00 0.  1.
     999902    2    1    2    0    0  0.18422879947E-01  0.14642824724E-01  0.61117534338E-02  0.10196160462E+01  0.10193261074E+01 0.  0.
     999903    2    3    3    0    0 -0.97661661918E-01 -0.63162848595E-01 -0.47056759589E-01  0.12700401709E+00  0.19706244757E-01 0.  0.
         14    1    1    2    0    0 -0.18422879947E-01 -0.14642824724E-01 -0.61117534338E-02  0.24313953843E-01  0.00000000000E+00 0.  1.
     999901    1    3    3    0    0  0.11608454186E+00  0.77805673319E-01  0.53168513023E-01  0.89261202907E+00  0.88000000000E+00 0.  1.
        -11    1    4    4    0    0 -0.67392380160E-01 -0.46455632147E-01 -0.23487171234E-01  0.85157307352E-01  0.51100000000E-03 0. -1.
         11    1    4    4    0    0 -0.30269281758E-01 -0.16707216448E-01 -0.23569588356E-01  0.41846709737E-01  0.51100000000E-03 0.  1.
</event>
<event>
 8    1  0.1162192E+005  0.1043930E+01  0.7957747E-01            NaN
         13   -1    0    0    0    0  0.00000000000E+00  0.00000000000E+00  0.74505805969E-08  0.10566000000E+00  0.10566000000E+00 0. -1.
     999900   -1    0    0    0    0 -0.00000000000E+00 -0.00000000000E+00 -0.74505805969E-08  0.93827000000E+00  0.93827000000E+00 0.  1.
     999902    2    1    2    0    0  0.89152258019E-02 -0.20455244085E-01 -0.62315501728E-02  0.10207625556E+01  0.10204996151E+01 0.  0.
     999903    2    3    3    0    0  0.97402280558E-01 -0.68874204415E-01  0.55116439101E-01  0.13287859340E+00  0.19698691130E-01 0.  0.
         14    1    1    2    0    0 -0.89152258019E-02  0.20455244085E-01  0.62315501728E-02  0.23167444383E-01  0.00000000000E+00 0.  1.
     999901    1    3    3    0    0 -0.88487054757E-01  0.48418960330E-01 -0.61347989274E-01  0.88788396222E+00  0.88000000000E+00 0.  1.
        -11    1    4    4    0    0  0.87832699476E-01 -0.58347014378E-01  0.41944449915E-01  0.11348372211E+00  0.51100000000E-03 0. -1.
         11    1    4    4    0    0  0.95695810829E-02 -0.10527190037E-01  0.13171989186E-01  0.19394871288E-01  0.51100000000E-03 0.  1.
</event>
<event>
 8    1  0.1162192E+005  0.1043930E+01  0.7957747E-01            NaN
         13   -1    0    0    0    0  0.00000000000E+00  0.00000000000E+00  0.74505805969E-08  0.10566000000E+00  0.10566000000E+00 0.  1.
     999900   -1    0    0    0    0 -0.00000000000E+00 -0.00000000000E+00 -0.74505805969E-08  0.93827000000E+00  0.93827000000E+00 0.  1.
     999902    2    1    2    0    0 -0.20953037503E-01 -0.41983301649E-02  0.90643299970E-02  0.10207175500E+01  0.10204535752E+01 0.  0.
     999903    2    3    3    0    0 -0.78762970186E-01 -0.71347104432E-01 -0.76006775458E-01  0.13218615540E+00  0.20053303491E-01 0.  0.
         14    1    1    2    0    0  0.20953037503E-01  0.41983301649E-02 -0.90643299970E-02  0.23212450001E-01  0.00000000000E+00 0.  1.
     999901    1    3    3    0    0  0.57809932683E-01  0.67148774267E-01  0.85071105455E-01  0.88853139460E+00  0.88000000000E+00 0. -1.
        -11    1    4    4    0    0 -0.23264858004E-01 -0.97919022583E-02 -0.16664859563E-01  0.30250845162E-01  0.51100000000E-03 0. -1.
         11    1    4    4    0    0 -0.55498112182E-01 -0.61555202174E-01 -0.59341915895E-01  0.10193531024E+00  0.51100000000E-03 0.  1.
</event>
<event>
 8    1  0.1162192E+005  0.1043930E+01  0.7957747E-01            NaN
         13   -1    0    0    0    0  0.00000000000E+00  0.00000000000E+00  0.74505805969E-08  0.10566000000E+00  0.10566000000E+00 0. -1.
     999900   -1    0    0    0    0 -0.00000000000E+00 -0.00000000000E+00 -0.74505805969E-08  0.93827000000E+00  0.93827000000E+00 0.  1.
     999902    2    1    2    0    0  0.66350263916E-02 -0.18952107077E-01 -0.13564031914E-01  0.10196980191E+01  0.10194100555E+01 0.  0.
     999903    2    3    3    0    0  0.12033507434E+00 -0.38381354326E-01  0.29099611004E-01  0.13114561039E+00  0.19968106738E-01 0.  0.
         14    1    1    2    0    0 -0.66350263916E-02  0.18952107077E-01  0.13564031914E-01  0.24231980927E-01  0.00000000000E+00 0. -1.
     999901    1    3    3    0    0 -0.11370004795E+00  0.19429247250E-01 -0.42663642919E-01  0.88855240868E+00  0.88000000000E+00 0.  1.
        -11    1    4    4    0    0  0.80789959662E-01 -0.25793527880E-01  0.29036805624E-01  0.89642182395E-01  0.51100000000E-03 0.  1.
         11    1    4    4    0    0  0.39545114680E-01 -0.12587826447E-01  0.62805380736E-04  0.41503427993E-01  0.51100000000E-03 0. -1.
</event>
<event>
 8    1  0.1162192E+005  0.1043930E+01  0.7957747E-01            NaN
         13   -1    0    0    0    0  0.00000000000E+00  0.00000000000E+00  0.74505805969E-08  0.10566000000E+00  0.10566000000E+00 0. -1.
     999900   -1    0    0    0    0 -0.00000000000E+00 -0.00000000000E+00 -0.74505805969E-08  0.93827000000E+00  0.93827000000E+00 0.  1.
     999902    2    1    2    0    0  0.22856979236E-01  0.21557187469E-02  0.30989497679E-02  0.10207633837E+01  0.10205004622E+01 0.  0.
     999903    2    3    3    0    0  0.57507563227E-01 -0.39281257811E-01 -0.11021972114E+00  0.13185461040E+00  0.19675220760E-01 0.  0.
         14    1    1    2    0    0 -0.22856979236E-01 -0.21557187469E-02 -0.30989497679E-02  0.23166616343E-01  0.00000000000E+00 0. -1.
     999901    1    3    3    0    0 -0.34650583991E-01  0.41436976558E-01  0.11331867091E+00  0.88890877326E+00  0.88000000000E+00 0. -1.
        -11    1    4    4    0    0  0.30388047904E-01 -0.13017593350E-01 -0.65156017602E-01  0.73064758555E-01  0.51100000000E-03 0.  1.
         11    1    4    4    0    0  0.27119515323E-01 -0.26263664461E-01 -0.45063703538E-01  0.58789851845E-01  0.51100000000E-03 0. -1.
</event>
<event>
 8    1  0.1162192E+005  0.1043930E+01  0.7957747E-01            NaN
         13   -1    0    0    0    0  0.00000000000E+00  0.00000000000E+00  0.74505805969E-08  0.10566000000E+00  0.10566000000E+00 0. -1.
     999900   -1    0    0    0    0 -0.00000000000E+00 -0.00000000000E+00 -0.74505805969E-08  0.93827000000E+00  0.93827000000E+00 0.  1.
     999902    2    1    2    0    0 -0.30563971898E-02 -0.17562491810E-01 -0.14990964454E-01  0.10206381195E+01  0.10203723140E+01 0.  0.
     999903    2    3    3    0    0 -0.41605813388E-01  0.10797282078E+00 -0.55661911434E-01  0.12996461134E+00  0.20084274464E-01 0.  0.
         14    1    1    2    0    0  0.30563971898E-02  0.17562491810E-01  0.14990964454E-01  0.23291880509E-01  0.00000000000E+00 0.  1.
     999901    1    3    3    0    0  0.38549416198E-01 -0.12553531259E+00  0.40670946980E-01  0.89067350815E+00  0.88000000000E+00 0. -1.
        -11    1    4    4    0    0 -0.25804242239E-01  0.72668130332E-01 -0.26574703075E-01  0.81565875512E-01  0.51100000000E-03 0. -1.
         11    1    4    4    0    0 -0.15801571150E-01  0.35304690449E-01 -0.29087208359E-01  0.48398735827E-01  0.51100000000E-03 0.  1.
</event>
<event>
 8    1  0.1162192E+005  0.1043930E+01  0.7957747E-01            NaN
         13   -1    0    0    0    0  0.00000000000E+00  0.00000000000E+00  0.74505805969E-08  0.10566000000E+00  0.10566000000E+00 0.  1.
     999900   -1    0    0    0    0 -0.00000000000E+00 -0.00000000000E+00 -0.74505805969E-08  0.93827000000E+00  0.93827000000E+00 0.  1.
     999902    2    1    2    0    0 -0.12142542303E-01 -0.17801361292E-01  0.10043489172E-01  0.10201560337E+01  0.10198789789E+01 0.  0.
     999903    2    3    3    0    0 -0.32335436812E-01 -0.38310467101E-01  0.12113115513E+00  0.13270527682E+00  0.20607313983E-01 0.  0.
         14    1    1    2    0    0  0.12142542303E-01  0.17801361292E-01 -0.10043489172E-01  0.23773966269E-01  0.00000000000E+00 0. -1.
     999901    1    3    3    0    0  0.20192894509E-01  0.20509105810E-01 -0.11108766596E+00  0.88745075691E+00  0.88000000000E+00 0.  1.
        -11    1    4    4    0    0 -0.19422119709E-01 -0.23669934674E-01  0.47397038227E-01  0.56428936683E-01  0.51100000000E-03 0. -1.
         11    1    4    4    0    0 -0.12913317103E-01 -0.14640532427E-01  0.73734116904E-01  0.76276340139E-01  0.51100000000E-03 0.  1.
</event>
<event>
 8    1  0.1162192E+005  0.1043930E+01  0.7957747E-01            NaN
         13   -1    0    0    0    0  0.00000000000E+00  0.00000000000E+00  0.74505805969E-08  0.10566000000E+00  0.10566000000E+00 0.  1.
     999900   -1    0    0    0    0 -0.00000000000E+00 -0.00000000000E+00 -0.74505805969E-08  0.93827000000E+00  0.93827000000E+00 0. -1.
     999902    2    1    2    0    0  0.11714713830E-01  0.17351761133E-01 -0.11635571388E-01  0.10199778674E+01  0.10196965947E+01 0.  0.
     999903    2    3    3    0    0 -0.11918539394E+00  0.39912985256E-01 -0.25711619640E-01  0.12989810570E+00  0.20352541872E-01 0.  0.
         14    1    1    2    0    0 -0.11714713830E-01 -0.17351761133E-01  0.11635571388E-01  0.23952132599E-01  0.00000000000E+00 0.  1.
     999901    1    3    3    0    0  0.13090010777E+00 -0.22561224123E-01  0.14076048251E-01  0.89007976170E+00  0.88000000000E+00 0.  1.
        -11    1    4    4    0    0 -0.23186780943E-01  0.14313064474E-01 -0.11301696042E-01  0.29503899396E-01  0.51100000000E-03 0.  1.
         11    1    4    4    0    0 -0.95998612996E-01  0.25599920781E-01 -0.14409923598E-01  0.10039420631E+00  0.51100000000E-03 0. -1.
</event>
<event>
 8    1  0.1162192E+005  0.1043930E+01  0.7957747E-01            NaN
         13   -1    0    0    0    0  0.00000000000E+00  0.00000000000E+00  0.74505805969E-08  0.10566000000E+00  0.10566000000E+00 0.  1.
     999900   -1    0    0    0    0 -0.00000000000E+00 -0.00000000000E+00 -0.74505805969E-08  0.93827000000E+00  0.93827000000E+00 0.  1.
     999902    2    1    2    0    0 -0.21383576060E-01  0.27642692244E-02  0.72286902149E-02  0.10211890134E+01  0.10209357711E+01 0.  0.
     999903    2    3    3    0    0 -0.13070036315E+00  0.21303328848E-01 -0.60346974253E-02  0.13413220906E+00  0.20460087672E-01 0.  0.
         14    1    1    2    0    0  0.21383576060E-01 -0.27642692244E-02 -0.72286902149E-02  0.22740986603E-01  0.00000000000E+00 0.  1.
     999901    1    3    3    0    0  0.10931678709E+00 -0.18539059623E-01  0.13263387640E-01  0.88705680434E+00  0.88000000000E+00 0. -1.
        -11    1    4    4    0    0 -0.11121823948E+00  0.10647555876E-01 -0.64846818399E-02  0.11191594818E+00  0.51100000000E-03 0. -1.
         11    1    4    4    0    0 -0.19482123670E-01  0.10655772971E-01  0.44998441465E-03  0.22216260875E-01  0.51100000000E-03 0.  1.
</event>
<event>
 8    1  0.1162192E+005  0.1043930E+01  0.7957747E-01            NaN
         13   -1    0    0    0    0  0.00000000000E+00  0.00000000000E+00  0.74505805969E-08  0.10566000000E+00  0.10566000000E+00 0. -1.
     999900   -1    0    0    0    0 -0.00000000000E+00 -0.00000000000E+00 -0.74505805969E-08  0.93827000000E+00  0.93827000000E+00 0. -1.
     999902    2    1    2    0    0 -0.50741846744E-02 -0.12914428653E-01 -0.18148883442E-01  0.10210846112E+01  0.10208290119E+01 0.  0.
     999903    2    3    3    0    0 -0.74405199638E-01 -0.42382117654E-02 -0.10907950427E+00  0.13364422215E+00  0.20207515707E-01 0.  0.
         14    1    1    2    0    0  0.50741846744E-02  0.12914428653E-01  0.18148883442E-01  0.22845388763E-01  0.00000000000E+00 0. -1.
     999901    1    3    3    0    0  0.69331014963E-01 -0.86762168874E-02  0.90930620827E-01  0.88744038908E+00  0.88000000000E+00 0.  1.
        -11    1    4    4    0    0 -0.44065152677E-01 -0.11600492806E-01 -0.71477183775E-01  0.84767670932E-01  0.51100000000E-03 0. -1.
         11    1    4    4    0    0 -0.30340046961E-01  0.73622810404E-02 -0.37602320494E-01  0.48876551220E-01  0.51100000000E-03 0.  1.
</event>
<event>
 8    1  0.1162192E+005  0.1043930E+01  0.7957747E-01            NaN
         13   -1    0    0    0    0  0.00000000000E+00  0.00000000000E+00  0.74505805969E-08  0.10566000000E+00  0.10566000000E+00 0. -1.
     999900   -1    0    0    0    0 -0.00000000000E+00 -0.00000000000E+00 -0.74505805969E-08  0.93827000000E+00  0.93827000000E+00 0.  1.
     999902    2    1    2    0    0  0.10742121912E-01 -0.73144547176E-02 -0.19102512311E-01  0.10208258790E+01  0.10205643903E+01 0.  0.
     999903    2    3    3    0    0 -0.52905013716E-01 -0.80040085073E-01 -0.89570185385E-01  0.13273485430E+00  0.19757726138E-01 0.  0.
         14    1    1    2    0    0 -0.10742121912E-01  0.73144547176E-02  0.19102512311E-01  0.23104121008E-01  0.00000000000E+00 0. -1.
     999901    1    3    3    0    0  0.63647135628E-01  0.72725630355E-01  0.70467673075E-01  0.88809102469E+00  0.88000000000E+00 0. -1.
        -11    1    4    4    0    0 -0.26568797105E-01 -0.31978785282E-01 -0.50569870257E-01  0.65468439622E-01  0.51100000000E-03 0.  1.
         11    1    4    4    0    0 -0.26336216611E-01 -0.48061299791E-01 -0.39000315129E-01  0.67266414681E-01  0.51100000000E-03 0. -1.
</event>
<event>
 8    1  0.1162192E+005  0.1043930E+01  0.7957747E-01            NaN
         13   -1    0    0    0    0  0.00000000000E+00  0.00000000000E+00  0.74505805969E-08  0.10566000000E+00  0.10566000000E+00 0. -1.
     999900   -1    0    0    0    0 -0.00000000000E+00 -0.00000000000E+00 -0.74505805969E-08  0.93827000000E+00  0.93827000000E+00 0.  1.
     999902    2    1    2    0    0 -0.42876001751E-02  0.23158209154E-01 -0.23459403000E-02  0.10202616751E+01  0.10199871059E+01 0.  0.
     999903    2    3    3    0    0  0.98597950094E-01  0.85183265736E-01 -0.70659075472E-02  0.13208667987E+00  0.20474848632E-01 0.  0.
         14    1    1    2    0    0  0.42876001751E-02 -0.23158209154E-01  0.23459403000E-02  0.23668324875E-01  0.00000000000E+00 0.  1.
     999901    1    3    3    0    0 -0.10288555027E+00 -0.62025056582E-01  0.47199672472E-02  0.88817499525E+00  0.88000000000E+00 0. -1.
        -11    1    4    4    0    0  0.61601818342E-01  0.64607819133E-01 -0.88866883986E-02  0.89711697497E-01  0.51100000000E-03 0. -1.
         11    1    4    4    0    0  0.36996131752E-01  0.20575446603E-01  0.18207808514E-02  0.42374982377E-01  0.51100000000E-03 0.  1.
</event>
<event>
 8    1  0.1162192E+005  0.1043930E+01  0.7957747E-01            NaN
         13   -1    0    0    0    0  0.00000000000E+00  0.00000000000E+00  0.74505805969E-08  0.10566000000E+00  0.10566000000E+00 0.  1.
     999900   -1    0    0    0    0 -0.00000000000E+00 -0.00000000000E+00 -0.74505805969E-08  0.93827000000E+00  0.93827000000E+00 0.  1.
     999902    2    1    2    0    0 -0.11077451244E-01  0.20181067982E-01 -0.25303633918E-02  0.10207699445E+01  0.10205071736E+01 0.  0.
     999903    2    3    3    0    0 -0.11599246850E+00  0.15708738115E-02 -0.59538937956E-01  0.13251126725E+00  0.23614199570E-01 0.  0.
         14    1    1    2    0    0  0.11077451244E-01 -0.20181067982E-01  0.25303633918E-02  0.23160055480E-01  0.00000000000E+00 0.  1.
     999901    1    3    3    0    0  0.10491501726E+00  0.18610194170E-01  0.57008574564E-01  0.88825867727E+00  0.88000000000E+00 0. -1.
        -11    1    4    4    0    0 -0.36622734902E-01 -0.78754587242E-02 -0.27149699628E-01  0.46266779364E-01  0.51100000000E-03 0.  1.
         11    1    4    4    0    0 -0.79369733600E-01  0.94463325357E-02 -0.32389238327E-01  0.86244487885E-01  0.51100000000E-03 0. -1.
</event>
<event>
 8    1  0.1162192E+005  0.1043930E+01  0.7957747E-01            NaN
         13   -1    0    0    0    0  0.00000000000E+00  0.00000000000E+00  0.74505805969E-08  0.10566000000E+00  0.10566000000E+00 0. -1.
     999900   -1    0    0    0    0 -0.00000000000E+00 -0.00000000000E+00 -0.74505805969E-08  0.93827000000E+00  0.93827000000E+00 0. -1.
     999902    2    1    2    0    0  0.38159595243E-03 -0.13064111894E-01 -0.20642591397E-01  0.10194977833E+01  0.10192049828E+01 0.  0.
     999903    2    3    3    0    0 -0.68612154968E-01  0.43614986684E-01 -0.10042497648E+00  0.13138861945E+00  0.23830622066E-01 0.  0.
         14    1    1    2    0    0 -0.38159595243E-03  0.13064111894E-01  0.20642591397E-01  0.24432216736E-01  0.00000000000E+00 0. -1.
     999901    1    3    3    0    0  0.68993750920E-01 -0.56679098578E-01  0.79782385078E-01  0.88810916381E+00  0.88000000000E+00 0.  1.
        -11    1    4    4    0    0 -0.36921562848E-01  0.26789063552E-01 -0.73579630494E-01  0.86574123581E-01  0.51100000000E-03 0.  1.
         11    1    4    4    0    0 -0.31690592119E-01  0.16825923131E-01 -0.26845345981E-01  0.44814495869E-01  0.51100000000E-03 0. -1.
</event>
<event>
 8    1  0.1162192E+005  0.1043930E+01  0.7957747E-01            NaN
         13   -1    0    0    0    0  0.00000000000E+00  0.00000000000E+00  0.74505805969E-08  0.10566000000E+00  0.10566000000E+00 0.  1.
     999900   -1    0    0    0    0 -0.00000000000E+00 -0.00000000000E+00 -0.74505805969E-08  0.93827000000E+00  0.93827000000E+00 0.  1.
     999902    2    1    2    0    0  0.20337261236E-01  0.27223296348E-02 -0.21027726715E-01  0.10145500653E+01  0.10141245754E+01 0.  0.
     999903    2    3    3    0    0 -0.10071052975E+00 -0.57270300613E-01  0.34561069862E-01  0.12250645778E+00  0.19770344273E-01 0.  0.
         14    1    1    2    0    0 -0.20337261236E-01 -0.27223296348E-02  0.21027726715E-01  0.29379934718E-01  0.00000000000E+00 0.  1.
     999901    1    3    3    0    0  0.12104779098E+00  0.59992630248E-01 -0.55588796577E-01  0.89204360751E+00  0.88000000000E+00 0.  1.
        -11    1    4    4    0    0 -0.40782931020E-01 -0.26142436472E-01  0.24305663404E-01  0.54200561269E-01  0.51100000000E-03 0. -1.
         11    1    4    4    0    0 -0.59927598727E-01 -0.31127864141E-01  0.10255406458E-01  0.68305896508E-01  0.51100000000E-03 0.  1.
</event>
<event>
 8    1  0.1162192E+005  0.1043930E+01  0.7957747E-01            NaN
         13   -1    0    0    0    0  0.00000000000E+00  0.00000000000E+00  0.74505805969E-08  0.10566000000E+00  0.10566000000E+00 0.  1.
     999900   -1    0    0    0    0 -0.00000000000E+00 -0.00000000000E+00 -0.74505805969E-08  0.93827000000E+00  0.93827000000E+00 0. -1.
     999902    2    1    2    0    0 -0.11323419336E-01  0.70963676061E-02 -0.20528165400E-01  0.10194354326E+01  0.10191411175E+01 0.  0.
     999903    2    3    3    0    0  0.93289707572E-01  0.83555930325E-01 -0.29676464233E-01  0.12989978831E+00  0.17569844654E-01 0.  0.
         14    1    1    2    0    0  0.11323419336E-01 -0.70963676061E-02  0.20528165400E-01  0.24494567426E-01  0.00000000000E+00 0.  1.
     999901    1    3    3    0    0 -0.10461312691E+00 -0.76459562719E-01  0.91482988324E-02  0.88953564427E+00  0.88000000000E+00 0.  1.
        -11    1    4    4    0    0  0.68103337786E-01  0.60191703533E-01 -0.13376898527E-01  0.91871150678E-01  0.51100000000E-03 0.  1.
         11    1    4    4    0    0  0.25186369787E-01  0.23364226793E-01 -0.16299565706E-01  0.38028637628E-01  0.51100000000E-03 0. -1.
</event>
<event>
 8    1  0.1162192E+005  0.1043930E+01  0.7957747E-01            NaN
         13   -1    0    0    0    0  0.00000000000E+00  0.00000000000E+00  0.74505805969E-08  0.10566000000E+00  0.10566000000E+00 0. -1.
     999900   -1    0    0    0    0 -0.00000000000E+00 -0.00000000000E+00 -0.74505805969E-08  0.93827000000E+00  0.93827000000E+00 0. -1.
     999902    2    1    2    0    0 -0.71177870969E-02 -0.21455881819E-01 -0.22192116105E-01  0.10122518092E+01  0.10117560068E+01 0.  0.
     999903    2    3    3    0    0 -0.82549370464E-02 -0.12151563255E+00 -0.28032391020E-01  0.12656148199E+00  0.19944945167E-01 0.  0.
         14    1    1    2    0    0  0.71177870969E-02  0.21455881819E-01  0.22192116105E-01  0.31678190842E-01  0.00000000000E+00 0. -1.
     999901    1    3    3    0    0  0.11371499495E-02  0.10005975073E+00  0.58402749147E-02  0.88569032717E+00  0.88000000000E+00 0.  1.
        -11    1    4    4    0    0  0.49281284464E-02 -0.71106371347E-01 -0.14767051383E-01  0.72792372016E-01  0.51100000000E-03 0.  1.
         11    1    4    4    0    0 -0.13183065493E-01 -0.50409261203E-01 -0.13265339637E-01  0.53769109975E-01  0.51100000000E-03 0. -1.
</event>
<event>
 8    1  0.1162192E+005  0.1043930E+01  0.7957747E-01            NaN
         13   -1    0    0    0    0  0.00000000000E+00  0.00000000000E+00  0.74505805969E-08  0.10566000000E+00  0.10566000000E+00 0.  1.
     999900   -1    0    0    0    0 -0.00000000000E+00 -0.00000000000E+00 -0.74505805969E-08  0.93827000000E+00  0.93827000000E+00 0. -1.
     999902    2    1    2    0    0  0.56951025768E-02  0.65955732978E-02 -0.22023626192E-01  0.10202450704E+01  0.10199701112E+01 0.  0.
     999903    2    3    3    0    0 -0.97101720331E-01 -0.73660535503E-01  0.35520128724E-01  0.12877464825E+00  0.21601201490E-01 0.  0.
         14    1    1    2    0    0 -0.56951025768E-02 -0.65955732978E-02  0.22023626192E-01  0.23684929620E-01  0.00000000000E+00 0.  1.
     999901    1    3    3    0    0  0.10279682291E+00  0.80256108801E-01 -0.57543754916E-01  0.89147042213E+00  0.88000000000E+00 0.  1.
        -11    1    4    4    0    0 -0.87931516989E-01 -0.58768059167E-01  0.26243506616E-01  0.10897072643E+00  0.51100000000E-03 0.  1.
         11    1    4    4    0    0 -0.91702033424E-02 -0.14892476336E-01  0.92766221085E-02  0.19803921821E-01  0.51100000000E-03 0. -1.
</event>
<event>
 8    1  0.1162192E+005  0.1043930E+01  0.7957747E-01            NaN
         13   -1    0    0    0    0  0.00000000000E+00  0.00000000000E+00  0.74505805969E-08  0.10566000000E+00  0.10566000000E+00 0.  1.
     999900   -1    0    0    0    0 -0.00000000000E+00 -0.00000000000E+00 -0.74505805969E-08  0.93827000000E+00  0.93827000000E+00 0. -1.
     999902    2    1    2    0    0 -0.20627162260E-01  0.92759206429E-02  0.69835834921E-02  0.10202594917E+01  0.10199848711E+01 0.  0.
     999903    2    3    3    0    0 -0.84777019518E-01  0.99018954880E-01 -0.78298854262E-02  0.13324852485E+00  0.26494637288E-01 0.  0.
         14    1    1    2    0    0  0.20627162260E-01 -0.92759206429E-02 -0.69835834921E-02  0.23670508339E-01  0.00000000000E+00 0. -1.
     999901    1    3    3    0    0  0.64149857258E-01 -0.89743034237E-01  0.14813468918E-01  0.88701096681E+00  0.88000000000E+00 0. -1.
        -11    1    4    4    0    0 -0.59828555045E-01  0.51027031586E-01 -0.89683808868E-02  0.79144847767E-01  0.51100000000E-03 0.  1.
         11    1    4    4    0    0 -0.24948464473E-01  0.47991923294E-01  0.11384954605E-02  0.54103677084E-01  0.51100000000E-03 0. -1.
</event>
<event>
 8    1  0.1162192E+005  0.1043930E+01  0.7957747E-01            NaN
         13   -1    0    0    0    0  0.00000000000E+00  0.00000000000E+00  0.74505805969E-08  0.10566000000E+00  0.10566000000E+00 0.  1.
     999900   -1    0    0    0    0 -0.00000000000E+00 -0.00000000000E+00 -0.74505805969E-08  0.93827000000E+00  0.93827000000E+00 0. -1.
     999902    2    1    2    0    0  0.87839417499E-03 -0.18268052698E-01  0.15865191103E-01  0.10197184818E+01  0.10194310102E+01 0.  0.
     999903    2    3    3    0    0  0.12111471943E+00  0.67436984089E-02 -0.37702191567E-01  0.12957701769E+00  0.25583110338E-01 0.  0.
         14    1    1    2    0    0 -0.87839417499E-03  0.18268052698E-01 -0.15865191103E-01  0.24211518219E-01  0.00000000000E+00 0. -1.
     999901    1    3    3    0    0 -0.12023632525E+00 -0.25011751107E-01  0.53567382671E-01  0.89014146409E+00  0.88000000000E+00 0.  1.
        -11    1    4    4    0    0  0.38961071836E-01 -0.39569329536E-02 -0.15829911467E-02  0.39196803683E-01  0.51100000000E-03 0. -1.
         11    1    4    4    0    0  0.82153647593E-01  0.10700631362E-01 -0.36119200421E-01  0.90380214009E-01  0.51100000000E-03 0.  1.
</event>
<event>
 8    1  0.1162192E+005  0.1043930E+01  0.7957747E-01            NaN
         13   -1    0    0    0    0  0.00000000000E+00  0.00000000000E+00  0.74505805969E-08  0.10566000000E+00  0.10566000000E+00 0. -1.
     999900   -1    0    0    0    0 -0.00000000000E+00 -0.00000000000E+00 -0.74505805969E-08  0.93827000000E+00  0.93827000000E+00 0. -1.
     999902    2    1    2    0    0  0.52049472855E-02  0.12973616597E-01  0.19211376210E-01  0.10201711452E+01  0.10198944467E+01 0.  0.
     999903    2    3    3    0    0  0.76869559731E-01 -0.96561610558E-01  0.38604799066E-01  0.13027795641E+00  0.15777882275E-01 0.  0.
         14    1    1    2    0    0 -0.52049472855E-02 -0.12973616597E-01 -0.19211376210E-01  0.23758854765E-01  0.00000000000E+00 0.  1.
     999901    1    3    3    0    0 -0.71664612445E-01  0.10953522716E+00 -0.19393422857E-01  0.88989318882E+00  0.88000000000E+00 0. -1.
        -11    1    4    4    0    0  0.51172879605E-01 -0.75306658281E-01  0.29413861640E-01  0.95682771522E-01  0.51100000000E-03 0. -1.
         11    1    4    4    0    0  0.25696680126E-01 -0.21254952276E-01  0.91909374269E-02  0.34595184889E-01  0.51100000000E-03 0.  1.
</event>
<event>
 8    1  0.1162192E+005  0.1043930E+01  0.7957747E-01            NaN
         13   -1    0    0    0    0  0.00000000000E+00  0.00000000000E+00  0.74505805969E-08  0.10566000000E+00  0.10566000000E+00 0.  1.
     999900   -1    0    0    0    0 -0.00000000000E+00 -0.00000000000E+00 -0.74505805969E-08  0.93827000000E+00  0.93827000000E+00 0. -1.
     999902    2    1    2    0    0 -0.61228658166E-02 -0.87229038083E-03 -0.21594694411E-01  0.10214671150E+01  0.10212200966E+01 0.  0.
     999903    2    3    3    0    0  0.77677982584E-02  0.81051804697E-01  0.95877583951E-01  0.12978093472E+00  0.31950683524E-01 0.  0.
         14    1    1    2    0    0  0.61228658166E-02  0.87229038083E-03  0.21594694411E-01  0.22462885011E-01  0.00000000000E+00 0.  1.
     999901    1    3    3    0    0 -0.13890664075E-01 -0.81924095078E-01 -0.11747227836E+00  0.89168618027E+00  0.88000000000E+00 0. -1.
        -11    1    4    4    0    0 -0.10387645450E-01  0.35966843978E-01  0.30363290770E-01  0.48204850286E-01  0.51100000000E-03 0.  1.
         11    1    4    4    0    0  0.18155443708E-01  0.45084960719E-01  0.65514293180E-01  0.81576084431E-01  0.51100000000E-03 0. -1.
</event>
<event>
 8    1  0.1162192E+005  0.1043930E+01  0.7957747E-01            NaN
         13   -1    0    0    0    0  0.00000000000E+00  0.00000000000E+00  0.74505805969E-08  0.10566000000E+00  0.10566000000E+00 0. -1.
     999900   -1    0    0    0    0 -0.00000000000E+00 -0.00000000000E+00 -0.74505805969E-08  0.93827000000E+00  0.93827000000E+00 0. -1.
     999902    2    1    2    0    0 -0.18557759210E-01  0.87178516652E-02  0.11992394766E-01  0.10201769182E+01  0.10199003557E+01 0.  0.
     999903    2    3    3    0    0 -0.65218313461E-01 -0.86177987672E-01 -0.67842633706E-01  0.13025778733E+00  0.26160929698E-01 0.  0.
         14    1    1    2    0    0  0.18557759210E-01 -0.87178516652E-02 -0.11992394766E-01  0.23753081837E-01  0.00000000000E+00 0.  1.
     999901    1    3    3    0    0  0.46660554252E-01  0.94895839337E-01  0.79835028472E-01  0.88991913083E+00  0.88000000000E+00 0.  1.
        -11    1    4    4    0    0  0.16531538002E-02 -0.74593943056E-02 -0.25909014553E-02  0.80838958581E-02  0.51100000000E-03 0.  1.
         11    1    4    4    0    0 -0.66871467262E-01 -0.78718593366E-01 -0.65251732251E-01  0.12217389147E+00  0.51100000000E-03 0. -1.
</event>
<event>
 8    1  0.1162192E+005  0.1043930E+01  0.7957747E-01            NaN
         13   -1    0    0    0    0  0.00000000000E+00  0.00000000000E+00  0.74505805969E-08  0.10566000000E+00  0.10566000000E+00 0. -1.
     999900   -1    0    0    0    0 -0.00000000000E+00 -0.00000000000E+00 -0.74505805969E-08  0.93827000000E+00  0.93827000000E+00 0.  1.
     999902    2    1    2    0    0 -0.71899619780E-02  0.10792457031E-01 -0.20297662717E-01  0.10198433275E+01  0.10195588481E+01 0.  0.
     999903    2    3    3    0    0  0.79940165665E-01  0.10100836993E+00 -0.10443454746E-01  0.13089581749E+00  0.20773261793E-01 0.  0.
         14    1    1    2    0    0  0.71899619780E-02 -0.10792457031E-01  0.20297662717E-01  0.24086672534E-01  0.00000000000E+00 0. -1.
     999901    1    3    3    0    0 -0.87130127643E-01 -0.90215912901E-01 -0.98542079711E-02  0.88894750998E+00  0.88000000000E+00 0.  1.
        -11    1    4    4    0    0  0.56780360680E-01  0.60433049320E-01  0.42740126480E-03  0.82925307367E-01  0.51100000000E-03 0. -1.
         11    1    4    4    0    0  0.23159804985E-01  0.40575320612E-01 -0.10870856010E-01  0.47970510119E-01  0.51100000000E-03 0.  1.
</event>
<event>
 8    1  0.1162192E+005  0.1043930E+01  0.7957747E-01            NaN
         13   -1    0    0    0    0  0.00000000000E+00  0.00000000000E+00  0.74505805969E-08  0.10566000000E+00  0.10566000000E+00 0.  1.
     999900   -1    0    0    0    0 -0.00000000000E+00 -0.00000000000E+00 -0.74505805969E-08  0.93827000000E+00  0.93827000000E+00 0.  1.
     999902    2    1    2    0    0  0.19364682314E-01  0.24904167974E-02 -0.13185584474E-01  0.10203704428E+01  0.10200984207E+01 0.  0.
     999903    2    3    3    0    0 -0.25715575508E-01 -0.11087814166E+00 -0.61046568197E-01  0.13066524813E+00  0.19785612404E-01 0.  0.
         14    1    1    2    0    0 -0.19364682314E-01 -0.24904167974E-02  0.13185584474E-01  0.23559557187E-01  0.00000000000E+00 0.  1.
     999901    1    3    3    0    0  0.45080257822E-01  0.11336855845E+00  0.47860983724E-01  0.88970519469E+00  0.88000000000E+00 0. -1.
        -11    1    4    4    0    0  0.24918002205E-02 -0.24838405614E-01 -0.12400056712E-01  0.27877912211E-01  0.51100000000E-03 0.  1.
         11    1    4    4    0    0 -0.28207375729E-01 -0.86039736042E-01 -0.48646511486E-01  0.10278733591E+00  0.51100000000E-03 0. -1.
</event>
<event>
 8    1  0.1162192E+005  0.1043930E+01  0.7957747E-01            NaN
         13   -1    0    0    0    0  0.00000000000E+00  0.00000000000E+00  0.74505805969E-08  0.10566000000E+00  0.10566000000E+00 0.  1.
     999900   -1    0    0    0    0 -0.00000000000E+00 -0.00000000000E+00 -0.74505805969E-08  0.93827000000E+00  0.93827000000E+00 0.  1.
     999902    2    1    2    0    0 -0.13142610505E-02  0.18386616344E-01  0.15084184581E-01  0.10201113609E+01  0.10198332516E+01 0.  0.
     999903    2    3    3    0    0 -0.59408432298E-01 -0.10483436772E+00 -0.38280015715E-01  0.12803172238E+00  0.20178103173E-01 0.  0.
         14    1    1    2    0    0  0.13142610505E-02 -0.18386616344E-01 -0.15084184581E-01  0.23818639070E-01  0.00000000000E+00 0. -1.
     999901    1    3    3    0    0  0.58094171248E-01  0.12322098407E+00  0.53364200296E-01  0.89207963855E+00  0.88000000000E+00 0. -1.
        -11    1    4    4    0    0 -0.25617062128E-01 -0.30412429595E-01 -0.63026688594E-02  0.40263314589E-01  0.51100000000E-03 0. -1.
         11    1    4    4    0    0 -0.33791370170E-01 -0.74421938128E-01 -0.31977346855E-01  0.87768407788E-01  0.51100000000E-03 0.  1.
</event>
<event>
 8    1  0.1162192E+005  0.1043930E+01  0.7957747E-01            NaN
         13   -1    0    0    0    0  0.00000000000E+00  0.00000000000E+00  0.74505805969E-08  0.10566000000E+00  0.10566000000E+00 0. -1.
     999900   -1    0    0    0    0 -0.00000000000E+00 -0.00000000000E+00 -0.74505805969E-08  0.93827000000E+00  0.93827000000E+00 0.  1.
     999902    2    1    2    0    0 -0.15354012136E-01 -0.19492201206E-01 -0.18517171518E-02  0.10190478688E+01  0.10187440495E+01 0.  0.
     999903    2    3    3    0    0  0.39776505648E-01 -0.91393031435E-01  0.81543248715E-01  0.13047382928E+00  0.20958581056E-01 0.  0.
         14    1    1    2    0    0  0.15354012136E-01  0.19492201206E-01  0.18517171518E-02  0.24882131198E-01  0.00000000000E+00 0. -1.
     999901    1    3    3    0    0 -0.55130517784E-01  0.71900830229E-01 -0.83394965866E-01  0.88857403952E+00  0.88000000000E+00 0.  1.
        -11    1    4    4    0    0  0.41321479849E-01 -0.78211204006E-01  0.72913243936E-01  0.11463445988E+00  0.51100000000E-03 0. -1.
         11    1    4    4    0    0 -0.15449742006E-02 -0.13181827430E-01  0.86300047790E-02  0.15839369405E-01  0.51100000000E-03 0.  1.
</event>
<event>
 8    1  0.1162192E+005  0.1043930E+01  0.7957747E-01            NaN
         13   -1    0    0    0    0  0.00000000000E+00  0.00000000000E+00  0.74505805969E-08  0.10566000000E+00  0.10566000000E+00 0.  1.
     999900   -1    0    0    0    0 -0.00000000000E+00 -0.00000000000E+00 -0.74505805969E-08  0.93827000000E+00  0.93827000000E+00 0.  1.
     999902    2    1    2    0    0 -0.23158763012E-01 -0.81696237737E-03  0.21919689428E-02  0.10206533924E+01  0.10203879395E+01 0.  0.
     999903    2    3    3    0    0 -0.58085514157E-01  0.24985660692E-01  0.11462655795E+00  0.13243765845E+00  0.20056804168E-01 0.  0.
         14    1    1    2    0    0  0.23158763012E-01  0.81696237737E-03 -0.21919689428E-02  0.23276607562E-01  0.00000000000E+00 0. -1.
     999901    1    3    3    0    0  0.34926751145E-01 -0.25802623069E-01 -0.11243458900E+00  0.88821573399E+00  0.88000000000E+00 0.  1.
        -11    1    4    4    0    0 -0.43373192125E-01  0.27539211650E-01  0.89971085906E-01  0.10360839442E+00  0.51100000000E-03 0.  1.
         11    1    4    4    0    0 -0.14712322032E-01 -0.25535509580E-02  0.24655472040E-01  0.28829264031E-01  0.51100000000E-03 0. -1.
</event>
<event>
 8    1  0.1162192E+005  0.1043930E+01  0.7957747E-01            NaN
         13   -1    0    0    0    0  0.00000000000E+00  0.00000000000E+00  0.74505805969E-08  0.10566000000E+00  0.10566000000E+00 0. -1.
     999900   -1    0    0    0    0 -0.00000000000E+00 -0.00000000000E+00 -0.74505805969E-08  0.93827000000E+00  0.93827000000E+00 0. -1.
     999902    2    1    2    0    0  0.16558921722E-01  0.14567529270E-01  0.94283564345E-02  0.10199444897E+01  0.10196624233E+01 0.  0.
     999903    2    3    3    0    0  0.10281345559E+00  0.45722878732E-01  0.68653405381E-01  0.13319869367E+00  0.19168036819E-01 0.  0.
         14    1    1    2    0    0 -0.16558921722E-01 -0.14567529270E-01 -0.94283564345E-02  0.23985510265E-01  0.00000000000E+00 0. -1.
     999901    1    3    3    0    0 -0.86254533868E-01 -0.31155349462E-01 -0.59225048947E-01  0.88674579606E+00  0.88000000000E+00 0. -1.
        -11    1    4    4    0    0  0.35710787870E-01  0.25295943520E-01  0.22273599575E-01  0.49107224396E-01  0.51100000000E-03 0. -1.
         11    1    4    4    0    0  0.67102667720E-01  0.20426935212E-01  0.46379805807E-01  0.84091469276E-01  0.51100000000E-03 0.  1.
</event>
<event>
 8    1  0.1162192E+005  0.1043930E+01  0.7957747E-01            NaN
         13   -1    0    0    0    0  0.00000000000E+00  0.00000000000E+00  0.74505805969E-08  0.10566000000E+00  0.10566000000E+00 0. -1.
     999900   -1    0    0    0    0 -0.00000000000E+00 -0.00000000000E+00 -0.74505805969E-08  0.93827000000E+00  0.93827000000E+00 0.  1.
     999902    2    1    2    0    0 -0.18138523548E-01 -0.93588884006E-02 -0.12640724815E-01  0.10199220273E+01  0.10196394260E+01 0.  0.
     999903    2    3    3    0    0 -0.12725374149E+00  0.15331770444E-01 -0.27362025721E-01  0.13271716026E+00  0.20894646875E-01 0.  0.
         14    1    1    2    0    0  0.18138523548E-01  0.93588884006E-02  0.12640724815E-01  0.24007972685E-01  0.00000000000E+00 0. -1.
     999901    1    3    3    0    0  0.10911521794E+00 -0.24690658845E-01  0.14721300906E-01  0.88720486705E+00  0.88000000000E+00 0.  1.
        -11    1    4    4    0    0 -0.93352356912E-01  0.18709611537E-02 -0.18801654596E-01  0.95246660694E-01  0.51100000000E-03 0.  1.
         11    1    4    4    0    0 -0.33901384579E-01  0.13460809291E-01 -0.85603711256E-02  0.37470499569E-01  0.51100000000E-03 0. -1.
</event>
<event>
 8    1  0.1162192E+005  0.1043930E+01  0.7957747E-01            NaN
         13   -1    0    0    0    0  0.00000000000E+00  0.00000000000E+00  0.74505805969E-08  0.10566000000E+00  0.10566000000E+00 0. -1.
     999900   -1    0    0    0    0 -0.00000000000E+00 -0.00000000000E+00 -0.74505805969E-08  0.93827000000E+00  0.93827000000E+00 0.  1.
     999902    2    1    2    0    0 -0.25236264426E-01 -0.68501542851E-02  0.94894218630E-02  0.10161119702E+01  0.10157311126E+01 0.  0.
     999903    2    3    3    0    0 -0.74650536204E-01 -0.10139514619E-01 -0.10126614069E+00  0.12778805134E+00  0.19986057688E-01 0.  0.
         14    1    1    2    0    0  0.25236264426E-01  0.68501542851E-02 -0.94894218630E-02  0.27818029823E-01  0.00000000000E+00 0.  1.
     999901    1    3    3    0    0  0.49414271777E-01  0.32893603337E-02  0.11075556255E+00  0.88832391884E+00  0.88000000000E+00 0. -1.
        -11    1    4    4    0    0 -0.38970203182E-01 -0.11578605617E-01 -0.66521659073E-01  0.77962382537E-01  0.51100000000E-03 0. -1.
         11    1    4    4    0    0 -0.35680333022E-01  0.14390909986E-02 -0.34744481618E-01  0.49825668800E-01  0.51100000000E-03 0.  1.
</event>
<event>
 8    1  0.1162192E+005  0.1043930E+01  0.7957747E-01            NaN
         13   -1    0    0    0    0  0.00000000000E+00  0.00000000000E+00  0.74505805969E-08  0.10566000000E+00  0.10566000000E+00 0.  1.
     999900   -1    0    0    0    0 -0.00000000000E+00 -0.00000000000E+00 -0.74505805969E-08  0.93827000000E+00  0.93827000000E+00 0. -1.
     999902    2    1    2    0    0 -0.12045584361E-01  0.12842928292E-01 -0.14783694890E-01  0.10209388159E+01  0.10206799064E+01 0.  0.
     999903    2    3    3    0    0  0.23397639158E-01  0.35036953422E-01  0.12071647501E+00  0.12958642049E+00  0.21098232418E-01 0.  0.
         14    1    1    2    0    0  0.12045584361E-01 -0.12842928292E-01  0.14783694890E-01  0.22991184056E-01  0.00000000000E+00 0.  1.
     999901    1    3    3    0    0 -0.35443223518E-01 -0.22194025131E-01 -0.13550016990E+00  0.89135239546E+00  0.88000000000E+00 0. -1.
        -11    1    4    4    0    0  0.70150541059E-02  0.27478988266E-01  0.84267566590E-01  0.88913383021E-01  0.51100000000E-03 0. -1.
         11    1    4    4    0    0  0.16382585052E-01  0.75579651558E-02  0.36448908424E-01  0.40673037465E-01  0.51100000000E-03 0.  1.
</event>
<event>
 8    1  0.1162192E+005  0.1043930E+01  0.7957747E-01            NaN
         13   -1    0    0    0    0  0.00000000000E+00  0.00000000000E+00  0.74505805969E-08  0.10566000000E+00  0.10566000000E+00 0. -1.
     999900   -1    0    0    0    0 -0.00000000000E+00 -0.00000000000E+00 -0.74505805969E-08  0.93827000000E+00  0.93827000000E+00 0.  1.
     999902    2    1    2    0    0 -0.21308956340E-01 -0.79441651782E-02 -0.58891956129E-02  0.10204382141E+01  0.10201677728E+01 0.  0.
     999903    2    3    3    0    0 -0.17352761358E-01 -0.12931669200E+00  0.26359828908E-02  0.13205787863E+00  0.20209150063E-01 0.  0.
         14    1    1    2    0    0  0.21308956340E-01  0.79441651782E-02  0.58891956129E-02  0.23491785919E-01  0.00000000000E+00 0.  1.
     999901    1    3    3    0    0 -0.39561949822E-02  0.12137252682E+00 -0.85251785037E-02  0.88838033545E+00  0.88000000000E+00 0.  1.
        -11    1    4    4    0    0 -0.12505869194E-02 -0.73405554181E-01  0.67445315249E-02  0.73727126478E-01  0.51100000000E-03 0. -1.
         11    1    4    4    0    0 -0.16102174439E-01 -0.55911137818E-01 -0.41085486341E-02  0.58330752153E-01  0.51100000000E-03 0.  1.
</event>
<event>
 8    1  0.1162192E+005  0.1043930E+01  0.7957747E-01            NaN
         13   -1    0    0    0    0  0.00000000000E+00  0.00000000000E+00  0.74505805969E-08  0.10566000000E+00  0.10566000000E+00 0.  1.
     999900   -1    0    0    0    0 -0.00000000000E+00 -0.00000000000E+00 -0.74505805969E-08  0.93827000000E+00  0.93827000000E+00 0.  1.
     999902    2    1    2    0    0 -0.31671112648E-02  0.20580728496E-01 -0.85392894343E-02  0.10214240798E+01  0.10211761035E+01 0.  0.
     999903    2    3    3    0    0 -0.15222092781E-01  0.12124276535E+00 -0.52486718739E-01  0.13451396894E+00  0.20189896871E-01 0.  0.
         14    1    1    2    0    0  0.31671112648E-02 -0.20580728496E-01  0.85392894343E-02  0.22505920182E-01  0.00000000000E+00 0.  1.
     999901    1    3    3    0    0  0.12054981516E-01 -0.10066203686E+00  0.43947429305E-01  0.88691011088E+00  0.88000000000E+00 0. -1.
        -11    1    4    4    0    0 -0.14699469518E-01  0.10775252998E+00 -0.39299374301E-01  0.11563470095E+00  0.51100000000E-03 0. -1.
         11    1    4    4    0    0 -0.52262326275E-03  0.13490235370E-01 -0.13187344438E-01  0.18879267987E-01  0.51100000000E-03 0.  1.
</event>
<event>
 8    1  0.1162192E+005  0.1043930E+01  0.7957747E-01            NaN
         13   -1    0    0    0    0  0.00000000000E+00  0.00000000000E+00  0.74505805969E-08  0.10566000000E+00  0.10566000000E+00 0. -1.
     999900   -1    0    0    0    0 -0.00000000000E+00 -0.00000000000E+00 -0.74505805969E-08  0.93827000000E+00  0.93827000000E+00 0. -1.
     999902    2    1    2    0    0 -0.15078001927E-01  0.14650059242E-01 -0.10003204424E-01  0.10206483661E+01  0.10203827972E+01 0.  0.
     999903    2    3    3    0    0  0.54215354729E-02 -0.11831007218E-01 -0.12973270821E+00  0.13190957884E+00  0.20004890175E-01 0.  0.
         14    1    1    2    0    0  0.15078001927E-01 -0.14650059242E-01  0.10003204424E-01  0.23281633892E-01  0.00000000000E+00 0.  1.
     999901    1    3    3    0    0 -0.20499537400E-01  0.26481066460E-01  0.11972950379E+00  0.88873878727E+00  0.88000000000E+00 0. -1.
        -11    1    4    4    0    0  0.58161893135E-02  0.27448462295E-02 -0.74618067219E-01  0.74896457295E-01  0.51100000000E-03 0.  1.
         11    1    4    4    0    0 -0.39465384061E-03 -0.14575853447E-01 -0.55114640996E-01  0.57013121546E-01  0.51100000000E-03 0. -1.
</event>
<event>
 8    1  0.1162192E+005  0.1043930E+01  0.7957747E-01            NaN
         13   -1    0    0    0    0  0.00000000000E+00  0.00000000000E+00  0.74505805969E-08  0.10566000000E+00  0.10566000000E+00 0. -1.
     999900   -1    0    0    0    0 -0.00000000000E+00 -0.00000000000E+00 -0.74505805969E-08  0.93827000000E+00  0.93827000000E+00 0. -1.
     999902    2    1    2    0    0  0.57746674655E-02 -0.20595662138E-01  0.99080411134E-02  0.10203567660E+01  0.10200844242E+01 0.  0.
     999903    2    3    3    0    0  0.78092608860E-01 -0.14615951830E-01 -0.10146678395E+00  0.13037362387E+00  0.19740616758E-01 0.  0.
         14    1    1    2    0    0 -0.57746674655E-02  0.20595662138E-01 -0.99080411134E-02  0.23573234015E-01  0.00000000000E+00 0.  1.
     999901    1    3    3    0    0 -0.72317941395E-01 -0.59797103077E-02  0.11137482507E+00  0.88998314211E+00  0.88000000000E+00 0.  1.
        -11    1    4    4    0    0  0.42366611659E-01 -0.28217643084E-02 -0.40189647730E-01  0.58466751602E-01  0.51100000000E-03 0.  1.
         11    1    4    4    0    0  0.35725997202E-01 -0.11794187521E-01 -0.61277136222E-01  0.71906872272E-01  0.51100000000E-03 0. -1.
</event>
<event>
 8    1  0.1162192E+005  0.1043930E+01  0.7957747E-01            NaN
         13   -1    0    0    0    0  0.00000000000E+00  0.00000000000E+00  0.74505805969E-08  0.10566000000E+00  0.10566000000E+00 0. -1.
     999900   -1    0    0    0    0 -0.00000000000E+00 -0.00000000000E+00 -0.74505805969E-08  0.93827000000E+00  0.93827000000E+00 0.  1.
     999902    2    1    2    0    0 -0.10433760004E-01  0.21502336507E-01 -0.31088780540E-02  0.10198285696E+01  0.10195437374E+01 0.  0.
     999903    2    3    3    0    0  0.65153736356E-01  0.89446066981E-01 -0.69844115351E-01  0.13146861330E+00  0.12656522992E-01 0.  0.
         14    1    1    2    0    0  0.10433760004E-01 -0.21502336507E-01  0.31088780540E-02  0.24101430369E-01  0.00000000000E+00 0. -1.
     999901    1    3    3    0    0 -0.75587496361E-01 -0.67943730474E-01  0.66735237297E-01  0.88835995633E+00  0.88000000000E+00 0.  1.
        -11    1    4    4    0    0  0.30021994392E-01  0.31360913042E-01 -0.24847015270E-01  0.50024616969E-01  0.51100000000E-03 0. -1.
         11    1    4    4    0    0  0.35131741964E-01  0.58085153939E-01 -0.44997100081E-01  0.81443996330E-01  0.51100000000E-03 0.  1.
</event>
<event>
 8    1  0.1162192E+005  0.1043930E+01  0.7957747E-01            NaN
         13   -1    0    0    0    0  0.00000000000E+00  0.00000000000E+00  0.74505805969E-08  0.10566000000E+00  0.10566000000E+00 0. -1.
     999900   -1    0    0    0    0 -0.00000000000E+00 -0.00000000000E+00 -0.74505805969E-08  0.93827000000E+00  0.93827000000E+00 0. -1.
     999902    2    1    2    0    0  0.17654918630E-01  0.10455646551E-01  0.11074680329E-01  0.10206133699E+01  0.10203469927E+01 0.  0.
     999903    2    3    3    0    0  0.61295438948E-01 -0.22247523305E-01  0.11412994350E+00  0.13292289475E+00  0.19767873351E-01 0.  0.
         14    1    1    2    0    0 -0.17654918630E-01 -0.10455646551E-01 -0.11074680329E-01  0.23316630138E-01  0.00000000000E+00 0.  1.
     999901    1    3    3    0    0 -0.43640520319E-01  0.32703169855E-01 -0.10305526317E+00  0.88769047511E+00  0.88000000000E+00 0. -1.
        -11    1    4    4    0    0  0.13824965155E-01 -0.13418576013E-01  0.25154601547E-01  0.31689161298E-01  0.51100000000E-03 0. -1.
         11    1    4    4    0    0  0.47470473793E-01 -0.88289472917E-02  0.88975341954E-01  0.10123373346E+00  0.51100000000E-03 0.  1.
</event>
<event>
 8    1  0.1162192E+005  0.1043930E+01  0.7957747E-01            NaN
         13   -1    0    0    0    0  0.00000000000E+00  0.00000000000E+00  0.74505805969E-08  0.10566000000E+00  0.10566000000E+00 0.  1.
     999900   -1    0    0    0    0 -0.00000000000E+00 -0.00000000000E+00 -0.74505805969E-08  0.93827000000E+00  0.93827000000E+00 0. -1.
     999902    2    1    2    0    0  0.21903551594E-01  0.31488512466E-02  0.86807781630E-02  0.10201594984E+01  0.10198825253E+01 0.  0.
     999903    2    3    3    0    0 -0.85708236059E-01  0.22595511861E-01  0.92305622710E-01  0.12945663882E+00  0.19550817514E-01 0.  0.
         14    1    1    2    0    0 -0.21903551594E-01 -0.31488512466E-02 -0.86807781630E-02  0.23770501596E-01  0.00000000000E+00 0.  1.
     999901    1    3    3    0    0  0.10761178765E+00 -0.19446660614E-01 -0.83624844547E-01  0.89070285959E+00  0.88000000000E+00 0. -1.
        -11    1    4    4    0    0 -0.67608769905E-01  0.10752337295E-01  0.63055927048E-01  0.93074537776E-01  0.51100000000E-03 0.  1.
         11    1    4    4    0    0 -0.18099466154E-01  0.11843174565E-01  0.29249695663E-01  0.36382101041E-01  0.51100000000E-03 0. -1.
</event>
<event>
 8    1  0.1162192E+005  0.1043930E+01  0.7957747E-01            NaN
         13   -1    0    0    0    0  0.00000000000E+00  0.00000000000E+00  0.74505805969E-08  0.10566000000E+00  0.10566000000E+00 0. -1.
     999900   -1    0    0    0    0 -0.00000000000E+00 -0.00000000000E+00 -0.74505805969E-08  0.93827000000E+00  0.93827000000E+00 0.  1.
     999902    2    1    2    0    0  0.97810521487E-03  0.61169552138E-02  0.23096292093E-01  0.10200173979E+01  0.10197370639E+01 0.  0.
     999903    2    3    3    0    0 -0.85359693474E-01  0.96003478129E-01 -0.12400017382E-01  0.13052665007E+00  0.19506431354E-01 0.  0.
         14    1    1    2    0    0 -0.97810521487E-03 -0.61169552138E-02 -0.23096292093E-01  0.23912602104E-01  0.00000000000E+00 0.  1.
     999901    1    3    3    0    0  0.86337798689E-01 -0.89886522916E-01  0.35496309475E-01  0.88949074783E+00  0.88000000000E+00 0. -1.
        -11    1    4    4    0    0 -0.82286574133E-01  0.94063160849E-01 -0.15217252954E-01  0.12589989841E+00  0.51100000000E-03 0.  1.
         11    1    4    4    0    0 -0.30731193417E-02  0.19403172804E-02  0.28172355722E-02  0.46267516581E-02  0.51100000000E-03 0. -1.
</event>
<event>
 8    1  0.1162192E+005  0.1043930E+01  0.7957747E-01            NaN
         13   -1    0    0    0    0  0.00000000000E+00  0.00000000000E+00  0.74505805969E-08  0.10566000000E+00  0.10566000000E+00 0. -1.
     999900   -1    0    0    0    0 -0.00000000000E+00 -0.00000000000E+00 -0.74505805969E-08  0.93827000000E+00  0.93827000000E+00 0. -1.
     999902    2    1    2    0    0  0.16070915387E-01  0.28025388249E-03  0.17237295427E-01  0.10203614358E+01  0.10200892032E+01 0.  0.
     999903    2    3    3    0    0  0.34367181361E-01  0.12348175147E+00 -0.17293678926E-01  0.13092017832E+00  0.20302109742E-01 0.  0.
         14    1    1    2    0    0 -0.16070915387E-01 -0.28025388249E-03 -0.17237295427E-01  0.23568564175E-01  0.00000000000E+00 0.  1.
     999901    1    3    3    0    0 -0.18296265974E-01 -0.12320149759E+00  0.34530974353E-01  0.88944125750E+00  0.88000000000E+00 0. -1.
        -11    1    4    4    0    0  0.11480546124E-02  0.92061934467E-02 -0.66743530085E-02  0.11440285672E-01  0.51100000000E-03 0. -1.
         11    1    4    4    0    0  0.33219126748E-01  0.11427555803E+00 -0.10619325917E-01  0.11947989265E+00  0.51100000000E-03 0.  1.
</event>
<event>
 8    1  0.1162192E+005  0.1043930E+01  0.7957747E-01            NaN
         13   -1    0    0    0    0  0.00000000000E+00  0.00000000000E+00  0.74505805969E-08  0.10566000000E+00  0.10566000000E+00 0. -1.
     999900   -1    0    0    0    0 -0.00000000000E+00 -0.00000000000E+00 -0.74505805969E-08  0.93827000000E+00  0.93827000000E+00 0. -1.
     999902    2    1    2    0    0  0.16575739754E-01  0.86486561930E-02  0.24424067471E-01  0.10131714325E+01  0.10127044298E+01 0.  0.
     999903    2    3    3    0    0 -0.59392119058E-03  0.88613573273E-01  0.88635432344E-01  0.12704938414E+00  0.20798750770E-01 0.  0.
         14    1    1    2    0    0 -0.16575739754E-01 -0.86486561930E-02 -0.24424067471E-01  0.30758567492E-01  0.00000000000E+00 0.  1.
     999901    1    3    3    0    0  0.17169660945E-01 -0.79964917080E-01 -0.64211364873E-01  0.88612204837E+00  0.88000000000E+00 0. -1.
        -11    1    4    4    0    0 -0.67945048081E-03  0.22533225976E-01  0.36384782031E-01  0.42805623582E-01  0.51100000000E-03 0. -1.
         11    1    4    4    0    0  0.85529290230E-04  0.66080347297E-01  0.52250650313E-01  0.84243760560E-01  0.51100000000E-03 0.  1.
</event>
<event>
 8    1  0.1162192E+005  0.1043930E+01  0.7957747E-01            NaN
         13   -1    0    0    0    0  0.00000000000E+00  0.00000000000E+00  0.74505805969E-08  0.10566000000E+00  0.10566000000E+00 0.  1.
     999900   -1    0    0    0    0 -0.00000000000E+00 -0.00000000000E+00 -0.74505805969E-08  0.93827000000E+00  0.93827000000E+00 0.  1.
     999902    2    1    2    0    0  0.84015770951E-02  0.14466733619E-01  0.18045637181E-01  0.10193227267E+01  0.10190256637E+01 0.  0.
     999903    2    3    3    0    0  0.86038189984E-02  0.10101643012E+00 -0.78171267620E-01  0.12985739085E+00  0.21768096393E-01 0.  0.
         14    1    1    2    0    0 -0.84015770951E-02 -0.14466733619E-01 -0.18045637181E-01  0.24607273326E-01  0.00000000000E+00 0. -1.
     999901    1    3    3    0    0 -0.20224190335E-03 -0.86549696502E-01  0.96216904801E-01  0.88946533583E+00  0.88000000000E+00 0. -1.
        -11    1    4    4    0    0  0.15540449805E-01  0.80080339984E-01 -0.63248750204E-01  0.10322321423E+00  0.51100000000E-03 0.  1.
         11    1    4    4    0    0 -0.69366308069E-02  0.20936090138E-01 -0.14922517416E-01  0.26634176620E-01  0.51100000000E-03 0. -1.
</event>
<event>
 8    1  0.1162192E+005  0.1043930E+01  0.7957747E-01            NaN
         13   -1    0    0    0    0  0.00000000000E+00  0.00000000000E+00  0.74505805969E-08  0.10566000000E+00  0.10566000000E+00 0.  1.
     999900   -1    0    0    0    0 -0.00000000000E+00 -0.00000000000E+00 -0.74505805969E-08  0.93827000000E+00  0.93827000000E+00 0.  1.
     999902    2    1    2    0    0 -0.13344922721E-01  0.55673514660E-02  0.21435952833E-01  0.10180730389E+01  0.10177446291E+01 0.  0.
     999903    2    3    3    0    0 -0.39596464090E-01 -0.12019635409E+00  0.11307987737E-01  0.12868660501E+00  0.20428612710E-01 0.  0.
         14    1    1    2    0    0  0.13344922721E-01 -0.55673514660E-02 -0.21435952833E-01  0.25856961125E-01  0.00000000000E+00 0. -1.
     999901    1    3    3    0    0  0.26251541369E-01  0.12576370556E+00  0.10127965096E-01  0.88938643386E+00  0.88000000000E+00 0.  1.
        -11    1    4    4    0    0 -0.16566462689E-01 -0.45604247963E-01 -0.54882278123E-02  0.48832129626E-01  0.51100000000E-03 0.  1.
         11    1    4    4    0    0 -0.23030001401E-01 -0.74592106131E-01  0.16796215550E-01  0.79854475387E-01  0.51100000000E-03 0. -1.
</event>
<event>
 8    1  0.1162192E+005  0.1043930E+01  0.7957747E-01            NaN
         13   -1    0    0    0    0  0.00000000000E+00  0.00000000000E+00  0.74505805969E-08  0.10566000000E+00  0.10566000000E+00 0.  1.
     999900   -1    0    0    0    0 -0.00000000000E+00 -0.00000000000E+00 -0.74505805969E-08  0.93827000000E+00  0.93827000000E+00 0.  1.
     999902    2    1    2    0    0  0.77408543072E-02  0.20240057205E-01  0.11195131876E-01  0.10195391878E+01  0.10192473909E+01 0.  0.
     999903    2    3    3    0    0  0.33718702450E-01  0.12171963521E+00 -0.33258178895E-01  0.13221227502E+00  0.20527023946E-01 0.  0.
         14    1    1    2    0    0 -0.77408543072E-02 -0.20240057205E-01 -0.11195131876E-01  0.24390812180E-01  0.00000000000E+00 0.  1.
     999901    1    3    3    0    0 -0.25977848143E-01 -0.10147957800E+00  0.44453310771E-01  0.88732691280E+00  0.88000000000E+00 0. -1.
        -11    1    4    4    0    0  0.15885034934E-01  0.91442563401E-01 -0.24634484375E-01  0.96027057008E-01  0.51100000000E-03 0.  1.
         11    1    4    4    0    0  0.17833667516E-01  0.30277071805E-01 -0.86236945203E-02  0.36185218009E-01  0.51100000000E-03 0. -1.
</event>
<event>
 8    1  0.1162192E+005  0.1043930E+01  0.7957747E-01            NaN
         13   -1    0    0    0    0  0.00000000000E+00  0.00000000000E+00  0.74505805969E-08  0.10566000000E+00  0.10566000000E+00 0.  1.
     999900   -1    0    0    0    0 -0.00000000000E+00 -0.00000000000E+00 -0.74505805969E-08  0.93827000000E+00  0.93827000000E+00 0. -1.
     999902    2    1    2    0    0 -0.42649656453E-02 -0.12261222066E-01 -0.19408523562E-01  0.10205800902E+01  0.10203129433E+01 0.  0.
     999903    2    3    3    0    0 -0.97396592006E-01 -0.42736236650E-01  0.72100354314E-01  0.13042499080E+00  0.22354755112E-01 0.  0.
         14    1    1    2    0    0  0.42649656453E-02  0.12261222066E-01  0.19408523562E-01  0.23349909750E-01  0.00000000000E+00 0.  1.
     999901    1    3    3    0    0  0.93131626360E-01  0.30475014584E-01 -0.91508877876E-01  0.89015509945E+00  0.88000000000E+00 0. -1.
        -11    1    4    4    0    0 -0.43075921828E-01 -0.86372176157E-02  0.36162092570E-01  0.56904258448E-01  0.51100000000E-03 0.  1.
         11    1    4    4    0    0 -0.54320670178E-01 -0.34099019035E-01  0.35938261744E-01  0.73520732354E-01  0.51100000000E-03 0. -1.
</event>
<event>
 8    1  0.1162192E+005  0.1043930E+01  0.7957747E-01            NaN
         13   -1    0    0    0    0  0.00000000000E+00  0.00000000000E+00  0.74505805969E-08  0.10566000000E+00  0.10566000000E+00 0. -1.
     999900   -1    0    0    0    0 -0.00000000000E+00 -0.00000000000E+00 -0.74505805969E-08  0.93827000000E+00  0.93827000000E+00 0.  1.
     999902    2    1    2    0    0  0.78794771734E-02  0.16844729793E-01 -0.16041097636E-01  0.10193709305E+01  0.10190750443E+01 0.  0.
     999903    2    3    3    0    0  0.26512434548E-01 -0.12349573687E+00 -0.46117769358E-04  0.12791230942E+00  0.20185404675E-01 0.  0.
         14    1    1    2    0    0 -0.78794771734E-02 -0.16844729793E-01  0.16041097636E-01  0.24559069520E-01  0.00000000000E+00 0. -1.
     999901    1    3    3    0    0 -0.18632957374E-01  0.14034046667E+00 -0.15994979867E-01  0.89145862106E+00  0.88000000000E+00 0. -1.
        -11    1    4    4    0    0  0.24429485442E-01 -0.70364415530E-01  0.39248515594E-02  0.74589652853E-01  0.51100000000E-03 0. -1.
         11    1    4    4    0    0  0.20829491053E-02 -0.53131321344E-01 -0.39709693287E-02  0.53322656565E-01  0.51100000000E-03 0.  1.
</event>
<event>
 7    1  0.1162192E+005  0.1043930E+01  0.7957747E-01            NaN
         13   -1    0    0    0    0  0.00000000000E+00  0.00000000000E+00  0.74505805969E-08  0.10566000000E+00  0.10566000000E+00 0.  1.
     999900   -1    0    0    0    0 -0.00000000000E+00 -0.00000000000E+00 -0.74505805969E-08  0.93827000000E+00  0.93827000000E+00 0.  1.
     999903    2    1    2    0    0 -0.55119277005E-01 -0.36389190321E-01 -0.82225859162E-02  0.69613685062E-01  0.20399665657E-01 0.  0.
         14    1    1    2    0    0  0.17872939852E-01 -0.56442368661E-01  0.63636206216E-01  0.86918063143E-01  0.00000000000E+00 0.  1.
     999901    1    1    2    0    0  0.37246337154E-01  0.92831558982E-01 -0.55413620299E-01  0.88739825180E+00  0.88000000000E+00 0.  1.
        -11    1    3    3    0    0 -0.34106831174E-01 -0.26395972493E-01 -0.14509478000E-01  0.45506146502E-01  0.51100000000E-03 0. -1.
         11    1    3    3    0    0 -0.21012445831E-01 -0.99932178277E-02  0.62868920835E-02  0.24107538560E-01  0.51100000000E-03 0.  1.
</event>
<event>
 8    1  0.1162192E+005  0.1043930E+01  0.7957747E-01            NaN
         13   -1    0    0    0    0  0.00000000000E+00  0.00000000000E+00  0.74505805969E-08  0.10566000000E+00  0.10566000000E+00 0.  1.
     999900   -1    0    0    0    0 -0.00000000000E+00 -0.00000000000E+00 -0.74505805969E-08  0.93827000000E+00  0.93827000000E+00 0.  1.
     999902    2    1    2    0    0  0.98495872855E-02  0.22164818018E-01 -0.37164175357E-02  0.10193921662E+01  0.10190967978E+01 0.  0.
     999903    2    3    3    0    0  0.53638798799E-01  0.98435862742E-01 -0.68036858125E-01  0.13267243237E+00  0.20154911020E-01 0.  0.
         14    1    1    2    0    0 -0.98495872855E-02 -0.22164818018E-01  0.37164175357E-02  0.24537833783E-01  0.00000000000E+00 0. -1.
     999901    1    3    3    0    0 -0.43789211514E-01 -0.76271044725E-01  0.64320440589E-01  0.88671973384E+00  0.88000000000E+00 0. -1.
        -11    1    4    4    0    0  0.45165605508E-01  0.64353649371E-01 -0.50164054615E-01  0.93263163171E-01  0.51100000000E-03 0. -1.
         11    1    4    4    0    0  0.84731932911E-02  0.34082213372E-01 -0.17872803510E-01  0.39409269204E-01  0.51100000000E-03 0.  1.
</event>
<event>
 8    1  0.1162192E+005  0.1043930E+01  0.7957747E-01            NaN
         13   -1    0    0    0    0  0.00000000000E+00  0.00000000000E+00  0.74505805969E-08  0.10566000000E+00  0.10566000000E+00 0. -1.
     999900   -1    0    0    0    0 -0.00000000000E+00 -0.00000000000E+00 -0.74505805969E-08  0.93827000000E+00  0.93827000000E+00 0.  1.
     999902    2    1    2    0    0 -0.13443178230E-01 -0.18802585600E-01  0.21659381235E-02  0.10207147560E+01  0.10204507169E+01 0.  0.
     999903    2    3    3    0    0  0.31127827442E-01 -0.10631923248E+00 -0.69604553502E-01  0.13234729740E+00  0.19957264961E-01 0.  0.
         14    1    1    2    0    0  0.13443178230E-01  0.18802585600E-01 -0.21659381235E-02  0.23215244003E-01  0.00000000000E+00 0.  1.
     999901    1    3    3    0    0 -0.44571005672E-01  0.87516646877E-01  0.71770491626E-01  0.88836745860E+00  0.88000000000E+00 0. -1.
        -11    1    4    4    0    0  0.80786857136E-02 -0.40447601333E-01 -0.36603431053E-01  0.55148398910E-01  0.51100000000E-03 0. -1.
         11    1    4    4    0    0  0.23049141729E-01 -0.65871631144E-01 -0.33001122449E-01  0.77198898489E-01  0.51100000000E-03 0.  1.
</event>
<event>
 8    1  0.1162192E+005  0.1043930E+01  0.7957747E-01            NaN
         13   -1    0    0    0    0  0.00000000000E+00  0.00000000000E+00  0.74505805969E-08  0.10566000000E+00  0.10566000000E+00 0.  1.
     999900   -1    0    0    0    0 -0.00000000000E+00 -0.00000000000E+00 -0.74505805969E-08  0.93827000000E+00  0.93827000000E+00 0. -1.
     999902    2    1    2    0    0 -0.94229704302E-02 -0.17224267765E-01 -0.13653159186E-01  0.10200160600E+01  0.10197356942E+01 0.  0.
     999903    2    3    3    0    0  0.72077459326E-01  0.43544011035E-01  0.94858849993E-01  0.12754199318E+00  0.13323571712E-01 0.  0.
         14    1    1    2    0    0  0.94229704302E-02  0.17224267765E-01  0.13653159186E-01  0.23913940025E-01  0.00000000000E+00 0.  1.
     999901    1    3    3    0    0 -0.81500429757E-01 -0.60768278800E-01 -0.10851200918E+00  0.89247406679E+00  0.88000000000E+00 0. -1.
        -11    1    4    4    0    0  0.16514179637E-01  0.16558790446E-01  0.23434049285E-01  0.33110835945E-01  0.51100000000E-03 0.  1.
         11    1    4    4    0    0  0.55563279689E-01  0.26985220590E-01  0.71424800709E-01  0.94431157238E-01  0.51100000000E-03 0. -1.
</event>
<event>
 8    1  0.1162192E+005  0.1043930E+01  0.7957747E-01            NaN
         13   -1    0    0    0    0  0.00000000000E+00  0.00000000000E+00  0.74505805969E-08  0.10566000000E+00  0.10566000000E+00 0.  1.
     999900   -1    0    0    0    0 -0.00000000000E+00 -0.00000000000E+00 -0.74505805969E-08  0.93827000000E+00  0.93827000000E+00 0.  1.
     999902    2    1    2    0    0 -0.18236405886E-01  0.29826717161E-02 -0.16116283344E-01  0.10194106725E+01  0.10191157549E+01 0.  0.
     999903    2    3    3    0    0 -0.71664999133E-01  0.44874112459E-01  0.96341572395E-01  0.12965999021E+00  0.19505292132E-01 0.  0.
         14    1    1    2    0    0  0.18236405886E-01 -0.29826717161E-02  0.16116283344E-01  0.24519327459E-01  0.00000000000E+00 0.  1.
     999901    1    3    3    0    0  0.53428593247E-01 -0.41891440743E-01 -0.11245785574E+00  0.88975068233E+00  0.88000000000E+00 0.  1.
        -11    1    4    4    0    0 -0.47065055841E-01  0.18567129629E-01  0.52398787898E-01  0.72840592242E-01  0.51100000000E-03 0. -1.
         11    1    4    4    0    0 -0.24599943292E-01  0.26306982830E-01  0.43942784497E-01  0.56819397972E-01  0.51100000000E-03 0.  1.
</event>
<event>
 8    1  0.1162192E+005  0.1043930E+01  0.7957747E-01            NaN
         13   -1    0    0    0    0  0.00000000000E+00  0.00000000000E+00  0.74505805969E-08  0.10566000000E+00  0.10566000000E+00 0.  1.
     999900   -1    0    0    0    0 -0.00000000000E+00 -0.00000000000E+00 -0.74505805969E-08  0.93827000000E+00  0.93827000000E+00 0.  1.
     999902    2    1    2    0    0 -0.17496341838E-01  0.92045852132E-02 -0.13778520029E-01  0.10198324072E+01  0.10195476667E+01 0.  0.
     999903    2    3    3    0    0  0.95960842689E-01  0.50926599481E-01  0.64686988947E-01  0.12810930255E+00  0.20629711480E-01 0.  0.
         14    1    1    2    0    0  0.17496341838E-01 -0.92045852132E-02  0.13778520029E-01  0.24097592844E-01  0.00000000000E+00 0. -1.
     999901    1    3    3    0    0 -0.11345718453E+00 -0.41722014267E-01 -0.78465508976E-01  0.89172310461E+00  0.88000000000E+00 0.  1.
        -11    1    4    4    0    0  0.61771105879E-01  0.26499024236E-01  0.49299110918E-01  0.83357850652E-01  0.51100000000E-03 0.  1.
         11    1    4    4    0    0  0.34189736810E-01  0.24427575245E-01  0.15387878029E-01  0.44751451895E-01  0.51100000000E-03 0. -1.
</event>
<event>
 8    1  0.1162192E+005  0.1043930E+01  0.7957747E-01            NaN
         13   -1    0    0    0    0  0.00000000000E+00  0.00000000000E+00  0.74505805969E-08  0.10566000000E+00  0.10566000000E+00 0. -1.
     999900   -1    0    0    0    0 -0.00000000000E+00 -0.00000000000E+00 -0.74505805969E-08  0.93827000000E+00  0.93827000000E+00 0.  1.
     999902    2    1    2    0    0 -0.11880756686E-01  0.11452883967E-01 -0.16955582135E-01  0.10202696387E+01  0.10199952564E+01 0.  0.
     999903    2    3    3    0    0 -0.22806077995E-01 -0.27467703250E-01 -0.12610744748E+00  0.13260511624E+00  0.20160273518E-01 0.  0.
         14    1    1    2    0    0  0.11880756686E-01 -0.11452883967E-01  0.16955582135E-01  0.23660361285E-01  0.00000000000E+00 0. -1.
     999901    1    3    3    0    0  0.10925321309E-01  0.38920587217E-01  0.10915186534E+00  0.88766452248E+00  0.88000000000E+00 0. -1.
        -11    1    4    4    0    0 -0.26471079315E-02 -0.14433889315E-01 -0.70863008521E-01  0.72368304103E-01  0.51100000000E-03 0.  1.
         11    1    4    4    0    0 -0.20158970064E-01 -0.13033813935E-01 -0.55244438956E-01  0.60236812136E-01  0.51100000000E-03 0. -1.
</event>
<event>
 8    1  0.1162192E+005  0.1043930E+01  0.7957747E-01            NaN
         13   -1    0    0    0    0  0.00000000000E+00  0.00000000000E+00  0.74505805969E-08  0.10566000000E+00  0.10566000000E+00 0.  1.
     999900   -1    0    0    0    0 -0.00000000000E+00 -0.00000000000E+00 -0.74505805969E-08  0.93827000000E+00  0.93827000000E+00 0. -1.
     999902    2    1    2    0    0  0.21633466438E-01 -0.10838372146E-01 -0.38903736660E-02  0.10194226095E+01  0.10191279824E+01 0.  0.
     999903    2    3    3    0    0 -0.38284653632E-01  0.85663332797E-02 -0.12164281441E+00  0.12934825251E+00  0.19872074886E-01 0.  0.
         14    1    1    2    0    0 -0.21633466438E-01  0.10838372146E-01  0.38903736660E-02  0.24507390481E-01  0.00000000000E+00 0.  1.
     999901    1    3    3    0    0  0.59918120070E-01 -0.19404705426E-01  0.11775244074E+00  0.89007435701E+00  0.88000000000E+00 0.  1.
        -11    1    4    4    0    0 -0.17177104105E-01  0.13780035115E-01 -0.55015114506E-01  0.59261000821E-01  0.51100000000E-03 0. -1.
         11    1    4    4    0    0 -0.21107549527E-01 -0.52137018348E-02 -0.66627699903E-01  0.70087251688E-01  0.51100000000E-03 0.  1.
</event>
<event>
 8    1  0.1162192E+005  0.1043930E+01  0.7957747E-01            NaN
         13   -1    0    0    0    0  0.00000000000E+00  0.00000000000E+00  0.74505805969E-08  0.10566000000E+00  0.10566000000E+00 0.  1.
     999900   -1    0    0    0    0 -0.00000000000E+00 -0.00000000000E+00 -0.74505805969E-08  0.93827000000E+00  0.93827000000E+00 0. -1.
     999902    2    1    2    0    0 -0.53683940905E-02 -0.14404243276E-01 -0.17066832600E-01  0.10209609196E+01  0.10207025133E+01 0.  0.
     999903    2    3    3    0    0 -0.11709069279E+00  0.54517477695E-01  0.33877825677E-02  0.13098874760E+00  0.21545050848E-01 0.  0.
         14    1    1    2    0    0  0.53683940905E-02  0.14404243276E-01  0.17066832600E-01  0.22969080401E-01  0.00000000000E+00 0.  1.
     999901    1    3    3    0    0  0.11172229870E+00 -0.68921720971E-01 -0.20454615168E-01  0.88997217200E+00  0.88000000000E+00 0. -1.
        -11    1    4    4    0    0 -0.17746835236E-01  0.17215514987E-01  0.26193534643E-02  0.24868579588E-01  0.51100000000E-03 0.  1.
         11    1    4    4    0    0 -0.99343857552E-01  0.37301962708E-01  0.76842910343E-03  0.10612016801E+00  0.51100000000E-03 0. -1.
</event>
<event>
 8    1  0.1162192E+005  0.1043930E+01  0.7957747E-01            NaN
         13   -1    0    0    0    0  0.00000000000E+00  0.00000000000E+00  0.74505805969E-08  0.10566000000E+00  0.10566000000E+00 0. -1.
     999900   -1    0    0    0    0 -0.00000000000E+00 -0.00000000000E+00 -0.74505805969E-08  0.93827000000E+00  0.93827000000E+00 0.  1.
     999902    2    1    2    0    0 -0.84986424257E-02  0.17401011919E-01 -0.14732296854E-01  0.10195976612E+01  0.10193072785E+01 0.  0.
     999903    2    3    3    0    0 -0.26566942403E-01  0.12749549251E+00 -0.13917970121E-01  0.13255317462E+00  0.20389486772E-01 0.  0.
         14    1    1    2    0    0  0.84986424257E-02 -0.17401011919E-01  0.14732296854E-01  0.24332338759E-01  0.00000000000E+00 0. -1.
     999901    1    3    3    0    0  0.18068299977E-01 -0.11009448059E+00 -0.81432673221E-03  0.88704448662E+00  0.88000000000E+00 0. -1.
        -11    1    4    4    0    0 -0.59950925783E-02  0.60333797688E-01  0.14405740680E-02  0.60650182630E-01  0.51100000000E-03 0.  1.
         11    1    4    4    0    0 -0.20571849824E-01  0.67161694820E-01 -0.15358544189E-01  0.71902991988E-01  0.51100000000E-03 0. -1.
</event>
<event>
 8    1  0.1162192E+005  0.1043930E+01  0.7957747E-01            NaN
         13   -1    0    0    0    0  0.00000000000E+00  0.00000000000E+00  0.74505805969E-08  0.10566000000E+00  0.10566000000E+00 0. -1.
     999900   -1    0    0    0    0 -0.00000000000E+00 -0.00000000000E+00 -0.74505805969E-08  0.93827000000E+00  0.93827000000E+00 0. -1.
     999902    2    1    2    0    0  0.19950989974E-01  0.11793340191E-01  0.59528090486E-02  0.10200017571E+01  0.10197210519E+01 0.  0.
     999903    2    3    3    0    0  0.10065528326E+00  0.27013472460E-01 -0.79098392733E-01  0.13209492508E+00  0.18201641569E-01 0.  0.
         14    1    1    2    0    0 -0.19950989974E-01 -0.11793340191E-01 -0.59528090486E-02  0.23928242923E-01  0.00000000000E+00 0. -1.
     999901    1    3    3    0    0 -0.80704293290E-01 -0.15220132269E-01  0.85051201782E-01  0.88790683200E+00  0.88000000000E+00 0.  1.
        -11    1    4    4    0    0  0.49726403886E-01  0.41933556581E-02 -0.34794939619E-01  0.60837886380E-01  0.51100000000E-03 0. -1.
         11    1    4    4    0    0  0.50928879378E-01  0.22820116802E-01 -0.44303453114E-01  0.71257038701E-01  0.51100000000E-03 0.  1.
</event>
<event>
 8    1  0.1162192E+005  0.1043930E+01  0.7957747E-01            NaN
         13   -1    0    0    0    0  0.00000000000E+00  0.00000000000E+00  0.74505805969E-08  0.10566000000E+00  0.10566000000E+00 0. -1.
     999900   -1    0    0    0    0 -0.00000000000E+00 -0.00000000000E+00 -0.74505805969E-08  0.93827000000E+00  0.93827000000E+00 0.  1.
     999902    2    1    2    0    0 -0.27207009025E-02  0.65660145409E-02 -0.22875112089E-01  0.10199761796E+01  0.10196948668E+01 0.  0.
     999903    2    3    3    0    0  0.87082494865E-01 -0.43819732383E-01  0.80650967914E-01  0.12794423692E+00  0.19016289775E-01 0.  0.
         14    1    1    2    0    0  0.27207009025E-02 -0.65660145409E-02  0.22875112089E-01  0.23953820435E-01  0.00000000000E+00 0. -1.
     999901    1    3    3    0    0 -0.89803195768E-01  0.50385746924E-01 -0.10352608000E+00  0.89203194265E+00  0.88000000000E+00 0.  1.
        -11    1    4    4    0    0  0.22754805478E-01 -0.16399891030E-01  0.14055663534E-01  0.31377705405E-01  0.51100000000E-03 0. -1.
         11    1    4    4    0    0  0.64327689388E-01 -0.27419841353E-01  0.66595304380E-01  0.96566531512E-01  0.51100000000E-03 0.  1.
</event>
<event>
 8    1  0.1162192E+005  0.1043930E+01  0.7957747E-01            NaN
         13   -1    0    0    0    0  0.00000000000E+00  0.00000000000E+00  0.74505805969E-08  0.10566000000E+00  0.10566000000E+00 0. -1.
     999900   -1    0    0    0    0 -0.00000000000E+00 -0.00000000000E+00 -0.74505805969E-08  0.93827000000E+00  0.93827000000E+00 0.  1.
     999902    2    1    2    0    0  0.46725346353E-02 -0.22812461350E-01 -0.48322438091E-02  0.10201478312E+01  0.10198705829E+01 0.  0.
     999903    2    3    3    0    0 -0.47758536843E-01  0.72946870019E-01 -0.92968083247E-01  0.12903235440E+00  0.20103738243E-01 0.  0.
         14    1    1    2    0    0 -0.46725346353E-02  0.22812461350E-01  0.48322438091E-02  0.23782168803E-01  0.00000000000E+00 0. -1.
     999901    1    3    3    0    0  0.52431071478E-01 -0.95759331369E-01  0.88135839438E-01  0.89111547680E+00  0.88000000000E+00 0.  1.
        -11    1    4    4    0    0 -0.13042328589E-01  0.66736828812E-02 -0.14991881619E-01  0.20968023600E-01  0.51100000000E-03 0. -1.
         11    1    4    4    0    0 -0.34716208254E-01  0.66273187138E-01 -0.77976201628E-01  0.10806433080E+00  0.51100000000E-03 0.  1.
</event>
<event>
 8    1  0.1162192E+005  0.1043930E+01  0.7957747E-01            NaN
         13   -1    0    0    0    0  0.00000000000E+00  0.00000000000E+00  0.74505805969E-08  0.10566000000E+00  0.10566000000E+00 0.  1.
     999900   -1    0    0    0    0 -0.00000000000E+00 -0.00000000000E+00 -0.74505805969E-08  0.93827000000E+00  0.93827000000E+00 0. -1.
     999902    2    1    2    0    0  0.21942706521E-01 -0.89711238737E-02  0.46445396470E-02  0.10197735271E+01  0.10194873768E+01 0.  0.
     999903    2    3    3    0    0  0.11738372929E+00 -0.58727486537E-01  0.10578722053E-01  0.13319589433E+00  0.20034453603E-01 0.  0.
         14    1    1    2    0    0 -0.21942706521E-01  0.89711238737E-02 -0.46445396470E-02  0.24156472871E-01  0.00000000000E+00 0. -1.
     999901    1    3    3    0    0 -0.95441022764E-01  0.49756362663E-01 -0.59341824065E-02  0.88657763280E+00  0.88000000000E+00 0. -1.
        -11    1    4    4    0    0  0.42224510756E-01 -0.28300329563E-01 -0.32554568934E-02  0.50937972894E-01  0.51100000000E-03 0. -1.
         11    1    4    4    0    0  0.75159218529E-01 -0.30427156974E-01  0.13834178947E-01  0.82257921440E-01  0.51100000000E-03 0.  1.
</event>
<event>
 8    1  0.1162192E+005  0.1043930E+01  0.7957747E-01            NaN
         13   -1    0    0    0    0  0.00000000000E+00  0.00000000000E+00  0.74505805969E-08  0.10566000000E+00  0.10566000000E+00 0.  1.
     999900   -1    0    0    0    0 -0.00000000000E+00 -0.00000000000E+00 -0.74505805969E-08  0.93827000000E+00  0.93827000000E+00 0. -1.
     999902    2    1    2    0    0 -0.68608654581E-02  0.20044891552E-01 -0.10322980220E-01  0.10203623724E+01  0.10200901616E+01 0.  0.
     999903    2    3    3    0    0 -0.11108402676E+00  0.31091035282E-01  0.58679272633E-01  0.13146091801E+00  0.23073847774E-01 0.  0.
         14    1    1    2    0    0  0.68608654581E-02 -0.20044891552E-01  0.10322980220E-01  0.23567627645E-01  0.00000000000E+00 0. -1.
     999901    1    3    3    0    0  0.10422316130E+00 -0.11046143729E-01 -0.69002252853E-01  0.88890145435E+00  0.88000000000E+00 0.  1.
        -11    1    4    4    0    0 -0.27040434026E-01  0.12118061212E-01  0.25624047678E-01  0.39177613764E-01  0.51100000000E-03 0.  1.
         11    1    4    4    0    0 -0.84043592731E-01  0.18972974070E-01  0.33055224955E-01  0.92283304243E-01  0.51100000000E-03 0. -1.
</event>
<event>
 8    1  0.1162192E+005  0.1043930E+01  0.7957747E-01            NaN
         13   -1    0    0    0    0  0.00000000000E+00  0.00000000000E+00  0.74505805969E-08  0.10566000000E+00  0.10566000000E+00 0. -1.
     999900   -1    0    0    0    0 -0.00000000000E+00 -0.00000000000E+00 -0.74505805969E-08  0.93827000000E+00  0.93827000000E+00 0.  1.
     999902    2    1    2    0    0 -0.15429417276E-01  0.31606416144E-02 -0.18567358732E-01  0.10195824461E+01  0.10192916957E+01 0.  0.
     999903    2    3    3    0    0  0.23826504490E-02 -0.99072291273E-01 -0.83287359017E-01  0.13112450064E+00  0.20877130456E-01 0.  0.
         14    1    1    2    0    0  0.15429417276E-01 -0.31606416144E-02  0.18567358732E-01  0.24347553947E-01  0.00000000000E+00 0.  1.
     999901    1    3    3    0    0 -0.17812067725E-01  0.10223293289E+00  0.64720000284E-01  0.88845794541E+00  0.88000000000E+00 0. -1.
        -11    1    4    4    0    0 -0.85248640058E-02 -0.33514568690E-01 -0.32755134047E-01  0.47634646511E-01  0.51100000000E-03 0.  1.
         11    1    4    4    0    0  0.10907514455E-01 -0.65557722583E-01 -0.50532224970E-01  0.83489854133E-01  0.51100000000E-03 0. -1.
</event>
<event>
 8    1  0.1162192E+005  0.1043930E+01  0.7957747E-01            NaN
         13   -1    0    0    0    0  0.00000000000E+00  0.00000000000E+00  0.74505805969E-08  0.10566000000E+00  0.10566000000E+00 0. -1.
     999900   -1    0    0    0    0 -0.00000000000E+00 -0.00000000000E+00 -0.74505805969E-08  0.93827000000E+00  0.93827000000E+00 0.  1.
     999902    2    1    2    0    0 -0.77512008937E-02  0.15422920720E-01  0.18645828397E-01  0.10185210544E+01  0.10182040678E+01 0.  0.
     999903    2    3    3    0    0 -0.12520770896E+00 -0.26714729634E-01  0.23423110823E-02  0.12956806492E+00  0.19792671975E-01 0.  0.
         14    1    1    2    0    0  0.77512008937E-02 -0.15422920720E-01 -0.18645828397E-01  0.25408945579E-01  0.00000000000E+00 0.  1.
     999901    1    3    3    0    0  0.11745650807E+00  0.42137650354E-01  0.16303517315E-01  0.88895298950E+00  0.88000000000E+00 0. -1.
        -11    1    4    4    0    0 -0.34021006315E-01 -0.37382216387E-02  0.86911530793E-02  0.35315725033E-01  0.51100000000E-03 0.  1.
         11    1    4    4    0    0 -0.91186702644E-01 -0.22976507995E-01 -0.63488419971E-02  0.94252339888E-01  0.51100000000E-03 0. -1.
</event>
<event>
 8    1  0.1162192E+005  0.1043930E+01  0.7957747E-01            NaN
         13   -1    0    0    0    0  0.00000000000E+00  0.00000000000E+00  0.74505805969E-08  0.10566000000E+00  0.10566000000E+00 0. -1.
     999900   -1    0    0    0    0 -0.00000000000E+00 -0.00000000000E+00 -0.74505805969E-08  0.93827000000E+00  0.93827000000E+00 0.  1.
     999902    2    1    2    0    0  0.10758557893E-01  0.19384577626E-01  0.96527478912E-02  0.10197497610E+01  0.10194630405E+01 0.  0.
     999903    2    3    3    0    0 -0.83249259048E-01  0.15614142932E-01 -0.94752100069E-01  0.12859766503E+00  0.19625452654E-01 0.  0.
         14    1    1    2    0    0 -0.10758557893E-01 -0.19384577626E-01 -0.96527478912E-02  0.24180239030E-01  0.00000000000E+00 0.  1.
     999901    1    3    3    0    0  0.94007816941E-01  0.37704346939E-02  0.10440484796E+00  0.89115209594E+00  0.88000000000E+00 0. -1.
        -11    1    4    4    0    0 -0.54024534053E-01  0.15602242188E-01 -0.73073076691E-01  0.92206376672E-01  0.51100000000E-03 0.  1.
         11    1    4    4    0    0 -0.29224724994E-01  0.11900744359E-04 -0.21679023378E-01  0.36391288356E-01  0.51100000000E-03 0. -1.
</event>
<event>
 8    1  0.1162192E+005  0.1043930E+01  0.7957747E-01            NaN
         13   -1    0    0    0    0  0.00000000000E+00  0.00000000000E+00  0.74505805969E-08  0.10566000000E+00  0.10566000000E+00 0. -1.
     999900   -1    0    0    0    0 -0.00000000000E+00 -0.00000000000E+00 -0.74505805969E-08  0.93827000000E+00  0.93827000000E+00 0. -1.
     999902    2    1    2    0    0 -0.82331966596E-02 -0.14271889481E-01 -0.16633938759E-01  0.10205171771E+01  0.10202485719E+01 0.  0.
     999903    2    3    3    0    0  0.15214136031E-01  0.80839268654E-01  0.95931397114E-01  0.12795521028E+00  0.20080975903E-01 0.  0.
         14    1    1    2    0    0  0.82331966596E-02  0.14271889481E-01  0.16633938759E-01  0.23412822881E-01  0.00000000000E+00 0. -1.
     999901    1    3    3    0    0 -0.23447332691E-01 -0.95111158135E-01 -0.11256533587E+00  0.89256196684E+00  0.88000000000E+00 0. -1.
        -11    1    4    4    0    0  0.74153589850E-02  0.48268386728E-01  0.41722639818E-01  0.64232892669E-01  0.51100000000E-03 0. -1.
         11    1    4    4    0    0  0.77987770465E-02  0.32570881926E-01  0.54208757296E-01  0.63722317609E-01  0.51100000000E-03 0.  1.
</event>
<event>
 8    1  0.1162192E+005  0.1043930E+01  0.7957747E-01            NaN
         13   -1    0    0    0    0  0.00000000000E+00  0.00000000000E+00  0.74505805969E-08  0.10566000000E+00  0.10566000000E+00 0.  1.
     999900   -1    0    0    0    0 -0.00000000000E+00 -0.00000000000E+00 -0.74505805969E-08  0.93827000000E+00  0.93827000000E+00 0.  1.
     999902    2    1    2    0    0  0.14794713335E-01 -0.54916758156E-02  0.20402217539E-01  0.10181367349E+01  0.10178099618E+01 0.  0.
     999903    2    3    3    0    0  0.61134208465E-01 -0.69722224370E-01  0.91287589712E-01  0.13174085933E+00  0.20582758934E-01 0.  0.
         14    1    1    2    0    0 -0.14794713335E-01  0.54916758156E-02 -0.20402217539E-01  0.25793265137E-01  0.00000000000E+00 0. -1.
     999901    1    3    3    0    0 -0.46339495130E-01  0.64230548555E-01 -0.70885372172E-01  0.88639587553E+00  0.88000000000E+00 0.  1.
        -11    1    4    4    0    0  0.38484203044E-01 -0.36184653389E-01  0.63726248641E-01  0.82774748031E-01  0.51100000000E-03 0. -1.
         11    1    4    4    0    0  0.22650005421E-01 -0.33537570981E-01  0.27561341071E-01  0.48966111297E-01  0.51100000000E-03 0.  1.
</event>
<event>
 8    1  0.1162192E+005  0.1043930E+01  0.7957747E-01            NaN
         13   -1    0    0    0    0  0.00000000000E+00  0.00000000000E+00  0.74505805969E-08  0.10566000000E+00  0.10566000000E+00 0.  1.
     999900   -1    0    0    0    0 -0.00000000000E+00 -0.00000000000E+00 -0.74505805969E-08  0.93827000000E+00  0.93827000000E+00 0.  1.
     999902    2    1    2    0    0  0.94404204959E-02 -0.24284926693E-01  0.52745685029E-02  0.10173461651E+01  0.10169987804E+01 0.  0.
     999903    2    3    3    0    0 -0.53531419041E-01  0.11080024137E+00  0.20725255928E-03  0.12479973334E+00  0.20799619624E-01 0.  0.
         14    1    1    2    0    0 -0.94404204959E-02  0.24284926693E-01 -0.52745685029E-02  0.26583834872E-01  0.00000000000E+00 0.  1.
     999901    1    3    3    0    0  0.62971839537E-01 -0.13508516806E+00  0.50673159436E-02  0.89254643179E+00  0.88000000000E+00 0. -1.
        -11    1    4    4    0    0 -0.14701714215E-01  0.45931678500E-01  0.76407342341E-02  0.48831357050E-01  0.51100000000E-03 0. -1.
         11    1    4    4    0    0 -0.38829704826E-01  0.64868562869E-01 -0.74334816748E-02  0.75968376291E-01  0.51100000000E-03 0.  1.
</event>
<event>
 8    1  0.1162192E+005  0.1043930E+01  0.7957747E-01            NaN
         13   -1    0    0    0    0  0.00000000000E+00  0.00000000000E+00  0.74505805969E-08  0.10566000000E+00  0.10566000000E+00 0. -1.
     999900   -1    0    0    0    0 -0.00000000000E+00 -0.00000000000E+00 -0.74505805969E-08  0.93827000000E+00  0.93827000000E+00 0.  1.
     999902    2    1    2    0    0 -0.15973550583E-01  0.16550153204E-01 -0.16956416732E-02  0.10208662386E+01  0.10206056731E+01 0.  0.
     999903    2    3    3    0    0  0.80396493407E-01 -0.93495720504E-01  0.29193087290E-01  0.12825692133E+00  0.19813016395E-01 0.  0.
         14    1    1    2    0    0  0.15973550583E-01 -0.16550153204E-01  0.16956416732E-02  0.23063761402E-01  0.00000000000E+00 0. -1.
     999901    1    3    3    0    0 -0.96370043990E-01  0.11004587371E+00 -0.30888728964E-01  0.89260931727E+00  0.88000000000E+00 0. -1.
        -11    1    4    4    0    0  0.63960014240E-02 -0.11226309120E-02  0.10642349993E-02  0.66002160203E-02  0.51100000000E-03 0.  1.
         11    1    4    4    0    0  0.74000491983E-01 -0.92373089592E-01  0.28128852291E-01  0.12165670531E+00  0.51100000000E-03 0. -1.
</event>
<event>
 8    1  0.1162192E+005  0.1043930E+01  0.7957747E-01            NaN
         13   -1    0    0    0    0  0.00000000000E+00  0.00000000000E+00  0.74505805969E-08  0.10566000000E+00  0.10566000000E+00 0.  1.
     999900   -1    0    0    0    0 -0.00000000000E+00 -0.00000000000E+00 -0.74505805969E-08  0.93827000000E+00  0.93827000000E+00 0. -1.
     999902    2    1    2    0    0 -0.23470146943E-02 -0.22868424175E-01  0.10889850829E-01  0.10184925836E+01  0.10181748773E+01 0.  0.
     999903    2    3    3    0    0 -0.65224837354E-01 -0.10737037439E+00  0.34557181547E-01  0.13189552590E+00  0.20483023474E-01 0.  0.
         14    1    1    2    0    0  0.23470146943E-02  0.22868424175E-01 -0.10889850829E-01  0.25437416404E-01  0.00000000000E+00 0. -1.
     999901    1    3    3    0    0  0.62877822660E-01  0.84501950217E-01 -0.23667330718E-01  0.88659705770E+00  0.88000000000E+00 0. -1.
        -11    1    4    4    0    0 -0.90609189854E-02 -0.29473777132E-01  0.13025806097E-01  0.33477403376E-01  0.51100000000E-03 0. -1.
         11    1    4    4    0    0 -0.56163918369E-01 -0.77896597260E-01  0.21531375450E-01  0.98418122523E-01  0.51100000000E-03 0.  1.
</event>
<event>
 8    1  0.1162192E+005  0.1043930E+01  0.7957747E-01            NaN
         13   -1    0    0    0    0  0.00000000000E+00  0.00000000000E+00  0.74505805969E-08  0.10566000000E+00  0.10566000000E+00 0.  1.
     999900   -1    0    0    0    0 -0.00000000000E+00 -0.00000000000E+00 -0.74505805969E-08  0.93827000000E+00  0.93827000000E+00 0.  1.
     999902    2    1    2    0    0 -0.53727161757E-02 -0.18513104676E-01  0.12457083961E-01  0.10209783102E+01  0.10207202995E+01 0.  0.
     999903    2    3    3    0    0 -0.47395704172E-01  0.85328668472E-01 -0.81675581286E-01  0.12889647313E+00  0.20397690279E-01 0.  0.
         14    1    1    2    0    0  0.53727161757E-02  0.18513104676E-01 -0.12457083961E-01  0.22951689800E-01  0.00000000000E+00 0. -1.
     999901    1    3    3    0    0  0.42022987997E-01 -0.10384177315E+00  0.94132665248E-01  0.89208183707E+00  0.88000000000E+00 0. -1.
        -11    1    4    4    0    0 -0.24047697250E-01  0.38714456969E-01 -0.25385756223E-01  0.52170860271E-01  0.51100000000E-03 0. -1.
         11    1    4    4    0    0 -0.23348006923E-01  0.46614211503E-01 -0.56289825064E-01  0.76725612855E-01  0.51100000000E-03 0.  1.
</event>
<event>
 7    1  0.1162192E+005  0.1043930E+01  0.7957747E-01            NaN
         13   -1    0    0    0    0  0.00000000000E+00  0.00000000000E+00  0.74505805969E-08  0.10566000000E+00  0.10566000000E+00 0.  1.
     999900   -1    0    0    0    0 -0.00000000000E+00 -0.00000000000E+00 -0.74505805969E-08  0.93827000000E+00  0.93827000000E+00 0. -1.
     999903    2    1    2    0    0 -0.11112475452E+00  0.14236809026E-02 -0.39009827420E-01  0.11940938071E+00  0.19649316318E-01 0.  0.
         14    1    1    2    0    0  0.10978016818E-01 -0.23489140062E-01  0.28464258051E-01  0.38502864055E-01  0.00000000000E+00 0.  1.
     999901    1    1    2    0    0  0.10014673770E+00  0.22065459159E-01  0.10545569370E-01  0.88601775524E+00  0.88000000000E+00 0. -1.
        -11    1    3    3    0    0 -0.92517418199E-01  0.24187579602E-02 -0.24365328091E-01  0.95703988392E-01  0.51100000000E-03 0. -1.
         11    1    3    3    0    0 -0.18607336320E-01 -0.99507705760E-03 -0.14644499329E-01  0.23705392317E-01  0.51100000000E-03 0.  1.
</event>
<event>
 8    1  0.1162192E+005  0.1043930E+01  0.7957747E-01            NaN
         13   -1    0    0    0    0  0.00000000000E+00  0.00000000000E+00  0.74505805969E-08  0.10566000000E+00  0.10566000000E+00 0.  1.
     999900   -1    0    0    0    0 -0.00000000000E+00 -0.00000000000E+00 -0.74505805969E-08  0.93827000000E+00  0.93827000000E+00 0.  1.
     999902    2    1    2    0    0  0.10244139684E-01  0.17014775752E-01 -0.12931746164E-01  0.10202303154E+01  0.10199550095E+01 0.  0.
     999903    2    3    3    0    0 -0.12047530165E+00  0.44219677395E-01 -0.78620626581E-02  0.13014415062E+00  0.20149683272E-01 0.  0.
         14    1    1    2    0    0 -0.10244139684E-01 -0.17014775752E-01  0.12931746164E-01  0.23699684610E-01  0.00000000000E+00 0.  1.
     999901    1    3    3    0    0  0.13071944133E+00 -0.27204901643E-01 -0.50696835063E-02  0.89008616477E+00  0.88000000000E+00 0.  1.
        -11    1    4    4    0    0 -0.16575938032E-01  0.47088289517E-02 -0.79509570694E-02  0.18984562967E-01  0.51100000000E-03 0. -1.
         11    1    4    4    0    0 -0.10389936362E+00  0.39510848443E-01  0.88894411301E-04  0.11115958766E+00  0.51100000000E-03 0.  1.
</event>
<event>
 8    1  0.1162192E+005  0.1043930E+01  0.7957747E-01            NaN
         13   -1    0    0    0    0  0.00000000000E+00  0.00000000000E+00  0.74505805969E-08  0.10566000000E+00  0.10566000000E+00 0. -1.
     999900   -1    0    0    0    0 -0.00000000000E+00 -0.00000000000E+00 -0.74505805969E-08  0.93827000000E+00  0.93827000000E+00 0.  1.
     999902    2    1    2    0    0 -0.14968095650E-01 -0.73146990885E-02  0.11597338149E-01  0.10236310601E+01  0.10234297730E+01 0.  0.
     999903    2    3    3    0    0 -0.76369247746E-01 -0.11043624733E-01 -0.10725405820E+00  0.13351328091E+00  0.19186962502E-01 0.  0.
         14    1    1    2    0    0  0.14968095650E-01  0.73146990885E-02 -0.11597338149E-01  0.20298939930E-01  0.00000000000E+00 0.  1.
     999901    1    3    3    0    0  0.61401152095E-01  0.37289256441E-02  0.11885139635E+00  0.89011777916E+00  0.88000000000E+00 0. -1.
        -11    1    4    4    0    0 -0.59929690757E-01 -0.46800275420E-02 -0.69822466719E-01  0.92135272680E-01  0.51100000000E-03 0.  1.
         11    1    4    4    0    0 -0.16439556989E-01 -0.63635971906E-02 -0.37431591481E-01  0.41378008229E-01  0.51100000000E-03 0. -1.
</event>
<event>
 8    1  0.1162192E+005  0.1043930E+01  0.7957747E-01            NaN
         13   -1    0    0    0    0  0.00000000000E+00  0.00000000000E+00  0.74505805969E-08  0.10566000000E+00  0.10566000000E+00 0. -1.
     999900   -1    0    0    0    0 -0.00000000000E+00 -0.00000000000E+00 -0.74505805969E-08  0.93827000000E+00  0.93827000000E+00 0. -1.
     999902    2    1    2    0    0  0.21538361147E-01 -0.67856304502E-02 -0.83689696836E-02  0.10198471132E+01  0.10195627244E+01 0.  0.
     999903    2    3    3    0    0 -0.46532395859E-01  0.10407046155E+00  0.54524322135E-01  0.12806335735E+00  0.20770097741E-01 0.  0.
         14    1    1    2    0    0 -0.21538361147E-01  0.67856304502E-02  0.83689696836E-02  0.24082886768E-01  0.00000000000E+00 0.  1.
     999901    1    3    3    0    0  0.68070757006E-01 -0.11085609200E+00 -0.62893291818E-01  0.89178375588E+00  0.88000000000E+00 0. -1.
        -11    1    4    4    0    0 -0.16480699149E-01  0.60697262016E-01  0.25801953946E-01  0.67983623095E-01  0.51100000000E-03 0.  1.
         11    1    4    4    0    0 -0.30051696710E-01  0.43373199537E-01  0.28722368188E-01  0.60079734258E-01  0.51100000000E-03 0. -1.
</event>
<event>
 8    1  0.1162192E+005  0.1043930E+01  0.7957747E-01            NaN
         13   -1    0    0    0    0  0.00000000000E+00  0.00000000000E+00  0.74505805969E-08  0.10566000000E+00  0.10566000000E+00 0. -1.
     999900   -1    0    0    0    0 -0.00000000000E+00 -0.00000000000E+00 -0.74505805969E-08  0.93827000000E+00  0.93827000000E+00 0.  1.
     999902    2    1    2    0    0  0.98140156942E-02 -0.21211741967E-01 -0.56231540796E-03  0.10205511827E+01  0.10202833662E+01 0.  0.
     999903    2    3    3    0    0 -0.11316038437E+00 -0.55940842279E-01  0.28325650840E-01  0.13085273483E+00  0.19632760679E-01 0.  0.
         14    1    1    2    0    0 -0.98140156942E-02  0.21211741967E-01  0.56231540796E-03  0.23378817334E-01  0.00000000000E+00 0. -1.
     999901    1    3    3    0    0  0.12297440007E+00  0.34729100312E-01 -0.28887966248E-01  0.88969844783E+00  0.88000000000E+00 0. -1.
        -11    1    4    4    0    0 -0.41532327572E-01 -0.27942263386E-01  0.18275965538E-01  0.53291428523E-01  0.51100000000E-03 0. -1.
         11    1    4    4    0    0 -0.71628056801E-01 -0.27998578893E-01  0.10049685302E-01  0.77561306312E-01  0.51100000000E-03 0.  1.
</event>
<event>
 8    1  0.1162192E+005  0.1043930E+01  0.7957747E-01            NaN
         13   -1    0    0    0    0  0.00000000000E+00  0.00000000000E+00  0.74505805969E-08  0.10566000000E+00  0.10566000000E+00 0. -1.
     999900   -1    0    0    0    0 -0.00000000000E+00 -0.00000000000E+00 -0.74505805969E-08  0.93827000000E+00  0.93827000000E+00 0.  1.
     999902    2    1    2    0    0 -0.90552169940E-02  0.11913591663E-01 -0.17264164910E-01  0.10210830744E+01  0.10208274402E+01 0.  0.
     999903    2    3    3    0    0  0.59476025705E-01  0.84069664705E-01 -0.82317569660E-01  0.13308815570E+00  0.18198042612E-01 0.  0.
         14    1    1    2    0    0  0.90552169940E-02 -0.11913591663E-01  0.17264164910E-01  0.22846925639E-01  0.00000000000E+00 0. -1.
     999901    1    3    3    0    0 -0.68531242699E-01 -0.72156073043E-01  0.65053404750E-01  0.88799491866E+00  0.88000000000E+00 0.  1.
        -11    1    4    4    0    0  0.48295677097E-02  0.97985337942E-02 -0.27062688335E-02  0.11265922101E-01  0.51100000000E-03 0.  1.
         11    1    4    4    0    0  0.54646457995E-01  0.74271130911E-01 -0.79611300827E-01  0.12182223360E+00  0.51100000000E-03 0. -1.
</event>
<event>
 8    1  0.1162192E+005  0.1043930E+01  0.7957747E-01            NaN
         13   -1    0    0    0    0  0.00000000000E+00  0.00000000000E+00  0.74505805969E-08  0.10566000000E+00  0.10566000000E+00 0.  1.
     999900   -1    0    0    0    0 -0.00000000000E+00 -0.00000000000E+00 -0.74505805969E-08  0.93827000000E+00  0.93827000000E+00 0.  1.
     999902    2    1    2    0    0  0.18801397510E-02 -0.22467860835E-01  0.25450950652E-02  0.10212404164E+01  0.10209883304E+01 0.  0.
     999903    2    3    3    0    0 -0.84959764460E-01  0.36162697318E-01  0.90884217912E-01  0.13063247124E+00  0.16703269850E-01 0.  0.
         14    1    1    2    0    0 -0.18801397510E-02  0.22467860835E-01 -0.25450950652E-02  0.22689583621E-01  0.00000000000E+00 0.  1.
     999901    1    3    3    0    0  0.86839904211E-01 -0.58630558153E-01 -0.88339122846E-01  0.89060794514E+00  0.88000000000E+00 0.  1.
        -11    1    4    4    0    0 -0.17319210916E-01  0.38069688357E-02  0.25992297307E-01  0.31469170926E-01  0.51100000000E-03 0.  1.
         11    1    4    4    0    0 -0.67640553544E-01  0.32355728482E-01  0.64891920604E-01  0.99163300318E-01  0.51100000000E-03 0. -1.
</event>
<event>
 8    1  0.1162192E+005  0.1043930E+01  0.7957747E-01            NaN
         13   -1    0    0    0    0  0.00000000000E+00  0.00000000000E+00  0.74505805969E-08  0.10566000000E+00  0.10566000000E+00 0. -1.
     999900   -1    0    0    0    0 -0.00000000000E+00 -0.00000000000E+00 -0.74505805969E-08  0.93827000000E+00  0.93827000000E+00 0.  1.
     999902    2    1    2    0    0 -0.12739334508E-01 -0.11392437642E-01 -0.16248511904E-01  0.10203483881E+01  0.10200758505E+01 0.  0.
     999903    2    3    3    0    0 -0.55886825322E-01 -0.10557236348E+00  0.53368811682E-01  0.13154124587E+00  0.13638479701E-01 0.  0.
         14    1    1    2    0    0  0.12739334508E-01  0.11392437642E-01  0.16248511904E-01  0.23581611867E-01  0.00000000000E+00 0.  1.
     999901    1    3    3    0    0  0.43147490814E-01  0.94179925841E-01 -0.69617323586E-01  0.88880714226E+00  0.88000000000E+00 0. -1.
        -11    1    4    4    0    0 -0.17986502293E-01 -0.25390486985E-01  0.91355370787E-02  0.32433165939E-01  0.51100000000E-03 0.  1.
         11    1    4    4    0    0 -0.37900323028E-01 -0.80181876498E-01  0.44233274603E-01  0.99108079931E-01  0.51100000000E-03 0. -1.
</event>
<event>
 8    1  0.1162192E+005  0.1043930E+01  0.7957747E-01            NaN
         13   -1    0    0    0    0  0.00000000000E+00  0.00000000000E+00  0.74505805969E-08  0.10566000000E+00  0.10566000000E+00 0. -1.
     999900   -1    0    0    0    0 -0.00000000000E+00 -0.00000000000E+00 -0.74505805969E-08  0.93827000000E+00  0.93827000000E+00 0. -1.
     999902    2    1    2    0    0 -0.15604908075E-01 -0.39141011196E-03 -0.15100019231E-01  0.10222118753E+01  0.10219811354E+01 0.  0.
     999903    2    3    3    0    0  0.99165493498E-01  0.30196980203E-01 -0.78995558080E-01  0.13193633677E+00  0.20524279498E-01 0.  0.
         14    1    1    2    0    0  0.15604908075E-01  0.39141011196E-03  0.15100019231E-01  0.21718124659E-01  0.00000000000E+00 0. -1.
     999901    1    3    3    0    0 -0.11477040157E+00 -0.30588390315E-01  0.63895538849E-01  0.89027553857E+00  0.88000000000E+00 0. -1.
        -11    1    4    4    0    0  0.37246105683E-01  0.21841057900E-01 -0.31383086295E-01  0.53380365540E-01  0.51100000000E-03 0. -1.
         11    1    4    4    0    0  0.61919387815E-01  0.83559223028E-02 -0.47612471785E-01  0.78555971227E-01  0.51100000000E-03 0.  1.
</event>
<event>
 8    1  0.1162192E+005  0.1043930E+01  0.7957747E-01            NaN
         13   -1    0    0    0    0  0.00000000000E+00  0.00000000000E+00  0.74505805969E-08  0.10566000000E+00  0.10566000000E+00 0. -1.
     999900   -1    0    0    0    0 -0.00000000000E+00 -0.00000000000E+00 -0.74505805969E-08  0.93827000000E+00  0.93827000000E+00 0.  1.
     999902    2    1    2    0    0  0.81517453969E-02  0.20006279199E-01 -0.84739080928E-02  0.10207241973E+01  0.10204603754E+01 0.  0.
     999903    2    3    3    0    0  0.26945964145E-01 -0.12372032949E+00  0.22825060666E-02  0.12880140852E+00  0.23490170057E-01 0.  0.
         14    1    1    2    0    0 -0.81517453969E-02 -0.20006279199E-01  0.84739080928E-02  0.23205802696E-01  0.00000000000E+00 0.  1.
     999901    1    3    3    0    0 -0.18794218749E-01  0.14372660869E+00 -0.10756414159E-01  0.89192278878E+00  0.88000000000E+00 0.  1.
        -11    1    4    4    0    0  0.20266163930E-02 -0.31523059332E-01  0.95888828609E-02  0.33015424262E-01  0.51100000000E-03 0. -1.
         11    1    4    4    0    0  0.24919347753E-01 -0.92197270162E-01 -0.73063767943E-02  0.95785984259E-01  0.51100000000E-03 0.  1.
</event>
<event>
 8    1  0.1162192E+005  0.1043930E+01  0.7957747E-01            NaN
         13   -1    0    0    0    0  0.00000000000E+00  0.00000000000E+00  0.74505805969E-08  0.10566000000E+00  0.10566000000E+00 0. -1.
     999900   -1    0    0    0    0 -0.00000000000E+00 -0.00000000000E+00 -0.74505805969E-08  0.93827000000E+00  0.93827000000E+00 0. -1.
     999902    2    1    2    0    0 -0.80668471681E-02 -0.16121763164E-01 -0.18015364563E-01  0.10184439522E+01  0.10181250145E+01 0.  0.
     999903    2    3    3    0    0 -0.10747280929E+00  0.13554805336E-01 -0.70535459219E-01  0.13079503268E+00  0.19948736375E-01 0.  0.
         14    1    1    2    0    0  0.80668471681E-02  0.16121763164E-01  0.18015364563E-01  0.25486047773E-01  0.00000000000E+00 0. -1.
     999901    1    3    3    0    0  0.99405962123E-01 -0.29676568500E-01  0.52520094656E-01  0.88764891954E+00  0.88000000000E+00 0.  1.
        -11    1    4    4    0    0 -0.49909019678E-01  0.54986534175E-02 -0.44536182945E-01  0.67118389037E-01  0.51100000000E-03 0. -1.
         11    1    4    4    0    0 -0.57563789613E-01  0.80561519189E-02 -0.25999276274E-01  0.63676643647E-01  0.51100000000E-03 0.  1.
</event>
<event>
 8    1  0.1162192E+005  0.1043930E+01  0.7957747E-01            NaN
         13   -1    0    0    0    0  0.00000000000E+00  0.00000000000E+00  0.74505805969E-08  0.10566000000E+00  0.10566000000E+00 0.  1.
     999900   -1    0    0    0    0 -0.00000000000E+00 -0.00000000000E+00 -0.74505805969E-08  0.93827000000E+00  0.93827000000E+00 0.  1.
     999902    2    1    2    0    0  0.16875532154E-01 -0.62072769688E-02  0.14874942163E-01  0.10205938097E+01  0.10203269803E+01 0.  0.
     999903    2    3    3    0    0 -0.11059709290E-01 -0.81822123022E-01 -0.98057457616E-01  0.12972248927E+00  0.19886735378E-01 0.  0.
         14    1    1    2    0    0 -0.16875532154E-01  0.62072769688E-02 -0.14874942163E-01  0.23336190289E-01  0.00000000000E+00 0. -1.
     999901    1    3    3    0    0  0.27935241444E-01  0.75614846053E-01  0.11293239978E+00  0.89087132044E+00  0.88000000000E+00 0. -1.
        -11    1    4    4    0    0 -0.35404826892E-03 -0.37487705904E-01 -0.31136943779E-01  0.48736268148E-01  0.51100000000E-03 0. -1.
         11    1    4    4    0    0 -0.10705661021E-01 -0.44334417118E-01 -0.66920513837E-01  0.80986221126E-01  0.51100000000E-03 0.  1.
</event>
<event>
 8    1  0.1162192E+005  0.1043930E+01  0.7957747E-01            NaN
         13   -1    0    0    0    0  0.00000000000E+00  0.00000000000E+00  0.74505805969E-08  0.10566000000E+00  0.10566000000E+00 0. -1.
     999900   -1    0    0    0    0 -0.00000000000E+00 -0.00000000000E+00 -0.74505805969E-08  0.93827000000E+00  0.93827000000E+00 0.  1.
     999902    2    1    2    0    0  0.10198693535E-01 -0.19181537762E-01 -0.68498728356E-02  0.10211513807E+01  0.10208972900E+01 0.  0.
     999903    2    3    3    0    0 -0.20207498071E-01  0.58421830785E-01  0.11147308903E+00  0.12932900900E+00  0.21869835443E-01 0.  0.
         14    1    1    2    0    0 -0.10198693535E-01  0.19181537762E-01  0.68498728356E-02  0.22778619331E-01  0.00000000000E+00 0.  1.
     999901    1    3    3    0    0  0.30406191606E-01 -0.77603368547E-01 -0.11832296186E+00  0.89182237166E+00  0.88000000000E+00 0.  1.
        -11    1    4    4    0    0 -0.69249974725E-02  0.32157473608E-01  0.78573478282E-01  0.85182811113E-01  0.51100000000E-03 0. -1.
         11    1    4    4    0    0 -0.13282500598E-01  0.26264357177E-01  0.32899610745E-01  0.44146197891E-01  0.51100000000E-03 0.  1.
</event>
<event>
 8    1  0.1162192E+005  0.1043930E+01  0.7957747E-01            NaN
         13   -1    0    0    0    0  0.00000000000E+00  0.00000000000E+00  0.74505805969E-08  0.10566000000E+00  0.10566000000E+00 0. -1.
     999900   -1    0    0    0    0 -0.00000000000E+00 -0.00000000000E+00 -0.74505805969E-08  0.93827000000E+00  0.93827000000E+00 0. -1.
     999902    2    1    2    0    0  0.89540382313E-02 -0.10043211089E-02  0.22845003270E-01  0.10193723609E+01  0.10190765097E+01 0.  0.
     999903    2    3    3    0    0 -0.12399555779E+00  0.15621393552E-01 -0.20199294236E-01  0.12819066173E+00  0.20147158094E-01 0.  0.
         14    1    1    2    0    0 -0.89540382313E-02  0.10043211089E-02 -0.22845003270E-01  0.24557639055E-01  0.00000000000E+00 0.  1.
     999901    1    3    3    0    0  0.13294959602E+00 -0.16625714661E-01  0.43044297506E-01  0.89118169922E+00  0.88000000000E+00 0.  1.
        -11    1    4    4    0    0 -0.75191711282E-01  0.19199447030E-01 -0.14066158530E-01  0.78870337571E-01  0.51100000000E-03 0.  1.
         11    1    4    4    0    0 -0.48803846506E-01 -0.35780534781E-02 -0.61331357061E-02  0.49320324158E-01  0.51100000000E-03 0. -1.
</event>
<event>
 8    1  0.1162192E+005  0.1043930E+01  0.7957747E-01            NaN
         13   -1    0    0    0    0  0.00000000000E+00  0.00000000000E+00  0.74505805969E-08  0.10566000000E+00  0.10566000000E+00 0.  1.
     999900   -1    0    0    0    0 -0.00000000000E+00 -0.00000000000E+00 -0.74505805969E-08  0.93827000000E+00  0.93827000000E+00 0.  1.
     999902    2    1    2    0    0  0.70523749809E-02 -0.22257085935E-02  0.22010701890E-01  0.10207101643E+01  0.10204460195E+01 0.  0.
     999903    2    3    3    0    0  0.89160287898E-01  0.80686922595E-01 -0.46208265216E-01  0.13038997402E+00  0.20159492416E-01 0.  0.
         14    1    1    2    0    0 -0.70523749809E-02  0.22257085935E-02 -0.22010701890E-01  0.23219835686E-01  0.00000000000E+00 0. -1.
     999901    1    3    3    0    0 -0.82107912917E-01 -0.82912631188E-01  0.68218967106E-01  0.89032019030E+00  0.88000000000E+00 0.  1.
        -11    1    4    4    0    0  0.11404808264E-01  0.11944643439E-01 -0.14181162518E-01  0.21774082065E-01  0.51100000000E-03 0.  1.
         11    1    4    4    0    0  0.77755479634E-01  0.68742279156E-01 -0.32027102698E-01  0.10861589195E+00  0.51100000000E-03 0. -1.
</event>
<event>
 8    1  0.1162192E+005  0.1043930E+01  0.7957747E-01            NaN
         13   -1    0    0    0    0  0.00000000000E+00  0.00000000000E+00  0.74505805969E-08  0.10566000000E+00  0.10566000000E+00 0.  1.
     999900   -1    0    0    0    0 -0.00000000000E+00 -0.00000000000E+00 -0.74505805969E-08  0.93827000000E+00  0.93827000000E+00 0. -1.
     999902    2    1    2    0    0 -0.91754142626E-02  0.11854591199E-01  0.15619280022E-01  0.10222809476E+01  0.10220516887E+01 0.  0.
     999903    2    3    3    0    0  0.85899299201E-01  0.15263246181E-01  0.98797310882E-01  0.13325372372E+00  0.19595661764E-01 0.  0.
         14    1    1    2    0    0  0.91754142626E-02 -0.11854591199E-01 -0.15619280022E-01  0.21649052353E-01  0.00000000000E+00 0. -1.
     999901    1    3    3    0    0 -0.95074713464E-01 -0.34086549819E-02 -0.83178030860E-01  0.88902722393E+00  0.88000000000E+00 0. -1.
        -11    1    4    4    0    0  0.48566322168E-01 -0.12675923545E-02  0.53898720029E-01  0.72564644153E-01  0.51100000000E-03 0. -1.
         11    1    4    4    0    0  0.37332977033E-01  0.16530838536E-01  0.44898590853E-01  0.60689079565E-01  0.51100000000E-03 0.  1.
</event>
<event>
 8    1  0.1162192E+005  0.1043930E+01  0.7957747E-01            NaN
         13   -1    0    0    0    0  0.00000000000E+00  0.00000000000E+00  0.74505805969E-08  0.10566000000E+00  0.10566000000E+00 0. -1.
     999900   -1    0    0    0    0 -0.00000000000E+00 -0.00000000000E+00 -0.74505805969E-08  0.93827000000E+00  0.93827000000E+00 0. -1.
     999902    2    1    2    0    0  0.14248100785E-01 -0.17098282797E-01  0.25584192948E-02  0.10215267601E+01  0.10212810663E+01 0.  0.
     999903    2    3    3    0    0 -0.51098377050E-01 -0.40164638443E-01 -0.11235675456E+00  0.13135390263E+00  0.20138647429E-01 0.  0.
         14    1    1    2    0    0 -0.14248100785E-01  0.17098282797E-01 -0.25584192948E-02  0.22403239941E-01  0.00000000000E+00 0. -1.
     999901    1    3    3    0    0  0.65346477835E-01  0.23066355646E-01  0.11491517386E+00  0.89017285743E+00  0.88000000000E+00 0.  1.
        -11    1    4    4    0    0 -0.50100516103E-01 -0.39390582000E-01 -0.97801690868E-01  0.11673521971E+00  0.51100000000E-03 0. -1.
         11    1    4    4    0    0 -0.99786094725E-03 -0.77405644240E-03 -0.14555063696E-01  0.14618682911E-01  0.51100000000E-03 0.  1.
</event>
<event>
 8    1  0.1162192E+005  0.1043930E+01  0.7957747E-01            NaN
         13   -1    0    0    0    0  0.00000000000E+00  0.00000000000E+00  0.74505805969E-08  0.10566000000E+00  0.10566000000E+00 0.  1.
     999900   -1    0    0    0    0 -0.00000000000E+00 -0.00000000000E+00 -0.74505805969E-08  0.93827000000E+00  0.93827000000E+00 0. -1.
     999902    2    1    2    0    0 -0.34934870114E-02  0.22325841992E-01 -0.10059346195E-01  0.10191946383E+01  0.10188944365E+01 0.  0.
     999903    2    3    3    0    0  0.11333559336E+00 -0.20680796455E-01 -0.54998817442E-01  0.12929680089E+00  0.20497334842E-01 0.  0.
         14    1    1    2    0    0  0.34934870114E-02 -0.22325841992E-01  0.10059346195E-01  0.24735361691E-01  0.00000000000E+00 0.  1.
     999901    1    3    3    0    0 -0.11682908037E+00  0.43006638446E-01  0.44939471247E-01  0.88989783742E+00  0.88000000000E+00 0.  1.
        -11    1    4    4    0    0  0.10304741337E+00 -0.24029750662E-01 -0.52755419027E-01  0.11823533176E+00  0.51100000000E-03 0. -1.
         11    1    4    4    0    0  0.10288179990E-01  0.33489542068E-02 -0.22433984148E-02  0.11061469127E-01  0.51100000000E-03 0.  1.
</event>
<event>
 8    1  0.1162192E+005  0.1043930E+01  0.7957747E-01            NaN
         13   -1    0    0    0    0  0.00000000000E+00  0.00000000000E+00  0.74505805969E-08  0.10566000000E+00  0.10566000000E+00 0. -1.
     999900   -1    0    0    0    0 -0.00000000000E+00 -0.00000000000E+00 -0.74505805969E-08  0.93827000000E+00  0.93827000000E+00 0. -1.
     999902    2    1    2    0    0 -0.17911780469E-01  0.13861893195E-01 -0.72108668664E-02  0.10201606802E+01  0.10198837350E+01 0.  0.
     999903    2    3    3    0    0  0.44650110463E-01 -0.71490268468E-01 -0.95866937656E-01  0.12939759128E+00  0.21184334884E-01 0.  0.
         14    1    1    2    0    0  0.17911780469E-01 -0.13861893195E-01  0.72108668664E-02  0.23769319795E-01  0.00000000000E+00 0.  1.
     999901    1    3    3    0    0 -0.62561890932E-01  0.85352161663E-01  0.88656070790E-01  0.89076308892E+00  0.88000000000E+00 0.  1.
        -11    1    4    4    0    0  0.24581944468E-01 -0.41447690286E-01 -0.38874797930E-01  0.61916831791E-01  0.51100000000E-03 0. -1.
         11    1    4    4    0    0  0.20068165995E-01 -0.30042578182E-01 -0.56992139726E-01  0.67480759493E-01  0.51100000000E-03 0.  1.
</event>
<event>
 8    1  0.1162192E+005  0.1043930E+01  0.7957747E-01            NaN
         13   -1    0    0    0    0  0.00000000000E+00  0.00000000000E+00  0.74505805969E-08  0.10566000000E+00  0.10566000000E+00 0.  1.
     999900   -1    0    0    0    0 -0.00000000000E+00 -0.00000000000E+00 -0.74505805969E-08  0.93827000000E+00  0.93827000000E+00 0. -1.
     999902    2    1    2    0    0  0.14674736241E-01 -0.47701166411E-04 -0.15707166579E-01  0.10224342971E+01  0.10222083089E+01 0.  0.
     999903    2    3    3    0    0 -0.45310487871E-01 -0.80396437646E-01  0.90053118788E-01  0.13044809517E+00  0.19761422816E-01 0.  0.
         14    1    1    2    0    0 -0.14674736241E-01  0.47701166411E-04  0.15707166579E-01  0.21495702852E-01  0.00000000000E+00 0.  1.
     999901    1    3    3    0    0  0.59985224112E-01  0.80348736480E-01 -0.10576028537E+00  0.89198620198E+00  0.88000000000E+00 0. -1.
        -11    1    4    4    0    0 -0.22117013059E-01 -0.36825703835E-01  0.28530749061E-01  0.51570917120E-01  0.51100000000E-03 0. -1.
         11    1    4    4    0    0 -0.23193474811E-01 -0.43570733812E-01  0.61522369727E-01  0.78877178046E-01  0.51100000000E-03 0.  1.
</event>
<event>
 8    1  0.1162192E+005  0.1043930E+01  0.7957747E-01            NaN
         13   -1    0    0    0    0  0.00000000000E+00  0.00000000000E+00  0.74505805969E-08  0.10566000000E+00  0.10566000000E+00 0. -1.
     999900   -1    0    0    0    0 -0.00000000000E+00 -0.00000000000E+00 -0.74505805969E-08  0.93827000000E+00  0.93827000000E+00 0.  1.
     999902    2    1    2    0    0  0.57024902466E-03  0.18347905586E-01 -0.15042707205E-01  0.10201970300E+01  0.10199209412E+01 0.  0.
     999903    2    3    3    0    0  0.46779237161E-01  0.86651724079E-01  0.83735676313E-01  0.13083891810E+00  0.20256867674E-01 0.  0.
         14    1    1    2    0    0 -0.57024902466E-03 -0.18347905586E-01  0.15042707205E-01  0.23732969966E-01  0.00000000000E+00 0. -1.
     999901    1    3    3    0    0 -0.46208988136E-01 -0.68303818493E-01 -0.98778383518E-01  0.88935811193E+00  0.88000000000E+00 0.  1.
        -11    1    4    4    0    0  0.19037315228E-01  0.28004340794E-01  0.40866879968E-01  0.53075658015E-01  0.51100000000E-03 0. -1.
         11    1    4    4    0    0  0.27741921933E-01  0.58647383284E-01  0.42868796345E-01  0.77763260089E-01  0.51100000000E-03 0.  1.
</event>
<event>
 8    1  0.1162192E+005  0.1043930E+01  0.7957747E-01            NaN
         13   -1    0    0    0    0  0.00000000000E+00  0.00000000000E+00  0.74505805969E-08  0.10566000000E+00  0.10566000000E+00 0. -1.
     999900   -1    0    0    0    0 -0.00000000000E+00 -0.00000000000E+00 -0.74505805969E-08  0.93827000000E+00  0.93827000000E+00 0.  1.
     999902    2    1    2    0    0 -0.11345817969E-01  0.66265512266E-02 -0.19700315369E-01  0.10202500255E+01  0.10199751827E+01 0.  0.
     999903    2    3    3    0    0  0.20740306777E-01  0.87023827693E-01  0.90776832657E-01  0.12912801270E+00  0.20743755812E-01 0.  0.
         14    1    1    2    0    0  0.11345817969E-01 -0.66265512266E-02  0.19700315369E-01  0.23679974497E-01  0.00000000000E+00 0. -1.
     999901    1    3    3    0    0 -0.32086124746E-01 -0.80397276466E-01 -0.11047714803E+00  0.89112201280E+00  0.88000000000E+00 0.  1.
        -11    1    4    4    0    0  0.20579231500E-01  0.74874683028E-01  0.67602572029E-01  0.10295674720E+00  0.51100000000E-03 0. -1.
         11    1    4    4    0    0  0.16107527710E-03  0.12149144664E-01  0.23174260628E-01  0.26171265502E-01  0.51100000000E-03 0.  1.
</event>
<event>
 8    1  0.1162192E+005  0.1043930E+01  0.7957747E-01            NaN
         13   -1    0    0    0    0  0.00000000000E+00  0.00000000000E+00  0.74505805969E-08  0.10566000000E+00  0.10566000000E+00 0. -1.
     999900   -1    0    0    0    0 -0.00000000000E+00 -0.00000000000E+00 -0.74505805969E-08  0.93827000000E+00  0.93827000000E+00 0.  1.
     999902    2    1    2    0    0  0.20934913361E-01  0.36359867996E-02 -0.12440631250E-01  0.10193076463E+01  0.10190102146E+01 0.  0.
     999903    2    3    3    0    0 -0.81383276567E-01 -0.95877159874E-01  0.59437873378E-02  0.12761831405E+00  0.20867150777E-01 0.  0.
         14    1    1    2    0    0 -0.20934913361E-01 -0.36359867996E-02  0.12440631250E-01  0.24622353733E-01  0.00000000000E+00 0. -1.
     999901    1    3    3    0    0  0.10231818993E+00  0.99513146674E-01 -0.18384418588E-01  0.89168933222E+00  0.88000000000E+00 0.  1.
        -11    1    4    4    0    0 -0.26767033512E-01 -0.26071142978E-01  0.10656146264E-01  0.38858630360E-01  0.51100000000E-03 0. -1.
         11    1    4    4    0    0 -0.54616243055E-01 -0.69806016897E-01 -0.47123589265E-02  0.88759683686E-01  0.51100000000E-03 0.  1.
</event>
<event>
 8    1  0.1162192E+005  0.1043930E+01  0.7957747E-01            NaN
         13   -1    0    0    0    0  0.00000000000E+00  0.00000000000E+00  0.74505805969E-08  0.10566000000E+00  0.10566000000E+00 0. -1.
     999900   -1    0    0    0    0 -0.00000000000E+00 -0.00000000000E+00 -0.74505805969E-08  0.93827000000E+00  0.93827000000E+00 0. -1.
     999902    2    1    2    0    0 -0.77497354710E-03  0.18138621210E-01 -0.14383252226E-01  0.10207677871E+01  0.10205049667E+01 0.  0.
     999903    2    3    3    0    0 -0.60946523306E-01 -0.37654333290E-01 -0.10932601190E+00  0.13186531953E+00  0.17434394133E-01 0.  0.
         14    1    1    2    0    0  0.77497354710E-03 -0.18138621210E-01  0.14383252226E-01  0.23162212934E-01  0.00000000000E+00 0. -1.
     999901    1    3    3    0    0  0.60171549759E-01  0.55792954500E-01  0.94942759675E-01  0.88890246753E+00  0.88000000000E+00 0.  1.
        -11    1    4    4    0    0 -0.21692807916E-01 -0.13962555141E-01 -0.55167974697E-01  0.60904001630E-01  0.51100000000E-03 0. -1.
         11    1    4    4    0    0 -0.39253715390E-01 -0.23691778149E-01 -0.54158037204E-01  0.70961317903E-01  0.51100000000E-03 0.  1.
</event>
<event>
 8    1  0.1162192E+005  0.1043930E+01  0.7957747E-01            NaN
         13   -1    0    0    0    0  0.00000000000E+00  0.00000000000E+00  0.74505805969E-08  0.10566000000E+00  0.10566000000E+00 0.  1.
     999900   -1    0    0    0    0 -0.00000000000E+00 -0.00000000000E+00 -0.74505805969E-08  0.93827000000E+00  0.93827000000E+00 0.  1.
     999902    2    1    2    0    0  0.52917263800E-02  0.17129244156E-01  0.12349173890E-01  0.10221604003E+01  0.10219285536E+01 0.  0.
     999903    2    3    3    0    0 -0.12179593615E+00  0.47454207755E-01 -0.55402487678E-02  0.13233406401E+00  0.19886131969E-01 0.  0.
         14    1    1    2    0    0 -0.52917263800E-02 -0.17129244156E-01 -0.12349173890E-01  0.21769599656E-01  0.00000000000E+00 0. -1.
     999901    1    3    3    0    0  0.12708766253E+00 -0.30324963599E-01  0.17889422658E-01  0.88982633633E+00  0.88000000000E+00 0.  1.
        -11    1    4    4    0    0 -0.21105928380E-01  0.68053070709E-02  0.64160334667E-02  0.23091102693E-01  0.51100000000E-03 0.  1.
         11    1    4    4    0    0 -0.10069000777E+00  0.40648900684E-01 -0.11956282234E-01  0.10924296132E+00  0.51100000000E-03 0. -1.
</event>
<event>
 8    1  0.1162192E+005  0.1043930E+01  0.7957747E-01            NaN
         13   -1    0    0    0    0  0.00000000000E+00  0.00000000000E+00  0.74505805969E-08  0.10566000000E+00  0.10566000000E+00 0.  1.
     999900   -1    0    0    0    0 -0.00000000000E+00 -0.00000000000E+00 -0.74505805969E-08  0.93827000000E+00  0.93827000000E+00 0.  1.
     999902    2    1    2    0    0  0.16947468670E-01  0.17405628549E-03 -0.17761552191E-01  0.10193796492E+01  0.10190839756E+01 0.  0.
     999903    2    3    3    0    0  0.61332990356E-01 -0.38317292298E-01 -0.10948259989E+00  0.13266413163E+00  0.19580131396E-01 0.  0.
         14    1    1    2    0    0 -0.16947468670E-01 -0.17405628549E-03  0.17761552191E-01  0.24550350835E-01  0.00000000000E+00 0.  1.
     999901    1    3    3    0    0 -0.44385521686E-01  0.38491348584E-01  0.91721047704E-01  0.88671551754E+00  0.88000000000E+00 0. -1.
        -11    1    4    4    0    0  0.56980744998E-01 -0.40446724221E-01 -0.10435936491E+00  0.12559411199E+00  0.51100000000E-03 0.  1.
         11    1    4    4    0    0  0.43522453582E-02  0.21294319229E-02 -0.51232349811E-02  0.70700196353E-02  0.51100000000E-03 0. -1.
</event>
<event>
 8    1  0.1162192E+005  0.1043930E+01  0.7957747E-01            NaN
         13   -1    0    0    0    0  0.00000000000E+00  0.00000000000E+00  0.74505805969E-08  0.10566000000E+00  0.10566000000E+00 0. -1.
     999900   -1    0    0    0    0 -0.00000000000E+00 -0.00000000000E+00 -0.74505805969E-08  0.93827000000E+00  0.93827000000E+00 0. -1.
     999902    2    1    2    0    0  0.85238419508E-02  0.94741083816E-02 -0.19530181214E-01  0.10206095671E+01  0.10203431021E+01 0.  0.
     999903    2    3    3    0    0  0.10888033750E-01 -0.98384516518E-01  0.80052161789E-01  0.12844606451E+00  0.17087437211E-01 0.  0.
         14    1    1    2    0    0 -0.85238419508E-02 -0.94741083816E-02  0.19530181214E-01  0.23320432875E-01  0.00000000000E+00 0. -1.
     999901    1    3    3    0    0 -0.23641917988E-02  0.10785862490E+00 -0.99582343003E-01  0.89216350262E+00  0.88000000000E+00 0. -1.
        -11    1    4    4    0    0 -0.23262641532E-02 -0.39708033989E-01  0.38352338586E-01  0.55256696103E-01  0.51100000000E-03 0.  1.
         11    1    4    4    0    0  0.13214297903E-01 -0.58676482529E-01  0.41699823203E-01  0.73189368403E-01  0.51100000000E-03 0. -1.
</event>
<event>
 8    1  0.1162192E+005  0.1043930E+01  0.7957747E-01            NaN
         13   -1    0    0    0    0  0.00000000000E+00  0.00000000000E+00  0.74505805969E-08  0.10566000000E+00  0.10566000000E+00 0. -1.
     999900   -1    0    0    0    0 -0.00000000000E+00 -0.00000000000E+00 -0.74505805969E-08  0.93827000000E+00  0.93827000000E+00 0.  1.
     999902    2    1    2    0    0  0.17177987641E-01 -0.15561588062E-01 -0.12308718449E-02  0.10207187672E+01  0.10204548204E+01 0.  0.
     999903    2    3    3    0    0 -0.46040088801E-01  0.60751247603E-01  0.10274245119E+00  0.12907386817E+00  0.17136169476E-01 0.  0.
         14    1    1    2    0    0 -0.17177987641E-01  0.15561588062E-01  0.12308718449E-02  0.23211232795E-01  0.00000000000E+00 0.  1.
     999901    1    3    3    0    0  0.63218076441E-01 -0.76312835664E-01 -0.10397332304E+00  0.89164489904E+00  0.88000000000E+00 0.  1.
        -11    1    4    4    0    0 -0.39345378175E-01  0.46849236140E-01  0.91099020113E-01  0.10973696869E+00  0.51100000000E-03 0.  1.
         11    1    4    4    0    0 -0.66947106251E-02  0.13902011463E-01  0.11643431080E-01  0.19336899477E-01  0.51100000000E-03 0. -1.
</event>
<event>
 8    1  0.1162192E+005  0.1043930E+01  0.7957747E-01            NaN
         13   -1    0    0    0    0  0.00000000000E+00  0.00000000000E+00  0.74505805969E-08  0.10566000000E+00  0.10566000000E+00 0. -1.
     999900   -1    0    0    0    0 -0.00000000000E+00 -0.00000000000E+00 -0.74505805969E-08  0.93827000000E+00  0.93827000000E+00 0.  1.
     999902    2    1    2    0    0  0.21328711490E-01 -0.10695521132E-01 -0.82220973683E-02  0.10186929045E+01  0.10183802446E+01 0.  0.
     999903    2    3    3    0    0  0.65514652696E-01 -0.97500378335E-01  0.54741251972E-01  0.13108270624E+00  0.19686993504E-01 0.  0.
         14    1    1    2    0    0 -0.21328711490E-01  0.10695521132E-01  0.82220973683E-02  0.25237095539E-01  0.00000000000E+00 0.  1.
     999901    1    3    3    0    0 -0.44185941206E-01  0.86804857202E-01 -0.62963349340E-01  0.88761019823E+00  0.88000000000E+00 0.  1.
        -11    1    4    4    0    0  0.51759905032E-01 -0.63383662930E-01  0.43135672417E-01  0.92506885426E-01  0.51100000000E-03 0. -1.
         11    1    4    4    0    0  0.13754747664E-01 -0.34116715405E-01  0.11605579554E-01  0.38575820810E-01  0.51100000000E-03 0.  1.
</event>
<event>
 8    1  0.1162192E+005  0.1043930E+01  0.7957747E-01            NaN
         13   -1    0    0    0    0  0.00000000000E+00  0.00000000000E+00  0.74505805969E-08  0.10566000000E+00  0.10566000000E+00 0. -1.
     999900   -1    0    0    0    0 -0.00000000000E+00 -0.00000000000E+00 -0.74505805969E-08  0.93827000000E+00  0.93827000000E+00 0. -1.
     999902    2    1    2    0    0 -0.12229730979E-02  0.14680914444E-01  0.20049499650E-01  0.10190501417E+01  0.10187463786E+01 0.  0.
     999903    2    3    3    0    0  0.30625193341E-01 -0.12113118450E+00 -0.14661353665E-01  0.12738648581E+00  0.20042333952E-01 0.  0.
         14    1    1    2    0    0  0.12229730979E-02 -0.14680914444E-01 -0.20049499650E-01  0.24879858285E-01  0.00000000000E+00 0.  1.
     999901    1    3    3    0    0 -0.31848166438E-01  0.13581209894E+00  0.34710853314E-01  0.89166365591E+00  0.88000000000E+00 0. -1.
        -11    1    4    4    0    0  0.16937921306E-01 -0.54714211724E-01  0.28444736388E-02  0.57348847364E-01  0.51100000000E-03 0.  1.
         11    1    4    4    0    0  0.13687272035E-01 -0.66416972775E-01 -0.17505827303E-01  0.70037638445E-01  0.51100000000E-03 0. -1.
</event>
<event>
 8    1  0.1162192E+005  0.1043930E+01  0.7957747E-01            NaN
         13   -1    0    0    0    0  0.00000000000E+00  0.00000000000E+00  0.74505805969E-08  0.10566000000E+00  0.10566000000E+00 0. -1.
     999900   -1    0    0    0    0 -0.00000000000E+00 -0.00000000000E+00 -0.74505805969E-08  0.93827000000E+00  0.93827000000E+00 0.  1.
     999902    2    1    2    0    0  0.38785234847E-02  0.11069240234E-01  0.19050478749E-01  0.10215583267E+01  0.10213133325E+01 0.  0.
     999903    2    3    3    0    0  0.92956654355E-01 -0.42705692687E-01 -0.77713508494E-01  0.13016058946E+00  0.20920656503E-01 0.  0.
         14    1    1    2    0    0 -0.38785234847E-02 -0.11069240234E-01 -0.19050478749E-01  0.22371673258E-01  0.00000000000E+00 0.  1.
     999901    1    3    3    0    0 -0.89078130870E-01  0.53774932921E-01  0.96763987243E-01  0.89139773729E+00  0.88000000000E+00 0. -1.
        -11    1    4    4    0    0  0.46135673568E-01 -0.27337281253E-01 -0.29454891074E-01  0.61185611471E-01  0.51100000000E-03 0.  1.
         11    1    4    4    0    0  0.46820980787E-01 -0.15368411434E-01 -0.48258617420E-01  0.68974977986E-01  0.51100000000E-03 0. -1.
</event>
<event>
 8    1  0.1162192E+005  0.1043930E+01  0.7957747E-01            NaN
         13   -1    0    0    0    0  0.00000000000E+00  0.00000000000E+00  0.74505805969E-08  0.10566000000E+00  0.10566000000E+00 0.  1.
     999900   -1    0    0    0    0 -0.00000000000E+00 -0.00000000000E+00 -0.74505805969E-08  0.93827000000E+00  0.93827000000E+00 0.  1.
     999902    2    1    2    0    0  0.71512778182E-02 -0.18758805940E-01  0.16557658882E-01  0.10179071323E+01  0.10175744397E+01 0.  0.
     999903    2    3    3    0    0 -0.54301864609E-01  0.67511991466E-01 -0.88686470909E-01  0.12532914354E+00  0.18317822091E-01 0.  0.
         14    1    1    2    0    0 -0.71512778182E-02  0.18758805940E-01 -0.16557658882E-01  0.26022867682E-01  0.00000000000E+00 0. -1.
     999901    1    3    3    0    0  0.61453142427E-01 -0.86270797406E-01  0.10524412979E+00  0.89257798878E+00  0.88000000000E+00 0. -1.
        -11    1    4    4    0    0 -0.17329512653E-01  0.29299447849E-01 -0.45503888803E-01  0.56829874804E-01  0.51100000000E-03 0.  1.
         11    1    4    4    0    0 -0.36972351956E-01  0.38212543616E-01 -0.43182582105E-01  0.68499268734E-01  0.51100000000E-03 0. -1.
</event>
<event>
 8    1  0.1162192E+005  0.1043930E+01  0.7957747E-01            NaN
         13   -1    0    0    0    0  0.00000000000E+00  0.00000000000E+00  0.74505805969E-08  0.10566000000E+00  0.10566000000E+00 0.  1.
     999900   -1    0    0    0    0 -0.00000000000E+00 -0.00000000000E+00 -0.74505805969E-08  0.93827000000E+00  0.93827000000E+00 0.  1.
     999902    2    1    2    0    0 -0.14295645682E-01  0.15189139592E-01  0.88161743454E-02  0.10212849039E+01  0.10210338166E+01 0.  0.
     999903    2    3    3    0    0  0.56232415808E-02  0.68651623776E-01 -0.11029736975E+00  0.13142927760E+00  0.19065123723E-01 0.  0.
         14    1    1    2    0    0  0.14295645682E-01 -0.15189139592E-01 -0.88161743454E-02  0.22645096094E-01  0.00000000000E+00 0. -1.
     999901    1    3    3    0    0 -0.19918887263E-01 -0.53462484184E-01  0.11911354410E+00  0.88985562631E+00  0.88000000000E+00 0. -1.
        -11    1    4    4    0    0  0.13584882944E-02  0.42477888773E-01 -0.83665807997E-01  0.93842661268E-01  0.51100000000E-03 0.  1.
         11    1    4    4    0    0  0.42647532864E-02  0.26173735002E-01 -0.26631561756E-01  0.37586616330E-01  0.51100000000E-03 0. -1.
</event>
<event>
 8    1  0.1162192E+005  0.1043930E+01  0.7957747E-01            NaN
         13   -1    0    0    0    0  0.00000000000E+00  0.00000000000E+00  0.74505805969E-08  0.10566000000E+00  0.10566000000E+00 0. -1.
     999900   -1    0    0    0    0 -0.00000000000E+00 -0.00000000000E+00 -0.74505805969E-08  0.93827000000E+00  0.93827000000E+00 0.  1.
     999902    2    1    2    0    0 -0.13551928368E-01 -0.13709710262E-01 -0.13699341230E-01  0.10202808379E+01  0.10200067183E+01 0.  0.
     999903    2    3    3    0    0 -0.50532209785E-01 -0.54518590047E-01 -0.10913545630E+00  0.13340939403E+00  0.19019403495E-01 0.  0.
         14    1    1    2    0    0  0.13551928368E-01  0.13709710262E-01  0.13699341230E-01  0.23649162101E-01  0.00000000000E+00 0. -1.
     999901    1    3    3    0    0  0.36980281417E-01  0.40808879786E-01  0.95436115066E-01  0.88687144386E+00  0.88000000000E+00 0. -1.
        -11    1    4    4    0    0 -0.46187225780E-01 -0.50062424536E-01 -0.87480680074E-01  0.11087216370E+00  0.51100000000E-03 0.  1.
         11    1    4    4    0    0 -0.43449840054E-02 -0.44561655110E-02 -0.21654776222E-01  0.22537230338E-01  0.51100000000E-03 0. -1.
</event>
<event>
 8    1  0.1162192E+005  0.1043930E+01  0.7957747E-01            NaN
         13   -1    0    0    0    0  0.00000000000E+00  0.00000000000E+00  0.74505805969E-08  0.10566000000E+00  0.10566000000E+00 0.  1.
     999900   -1    0    0    0    0 -0.00000000000E+00 -0.00000000000E+00 -0.74505805969E-08  0.93827000000E+00  0.93827000000E+00 0. -1.
     999902    2    1    2    0    0 -0.20698528346E-01  0.17403291672E-03 -0.11598191841E-01  0.10202028548E+01  0.10199269031E+01 0.  0.
     999903    2    3    3    0    0 -0.15553072221E-01  0.61757386375E-01 -0.11399430624E+00  0.13211279782E+00  0.20080255631E-01 0.  0.
         14    1    1    2    0    0  0.20698528346E-01 -0.17403291672E-03  0.11598191841E-01  0.23727145153E-01  0.00000000000E+00 0.  1.
     999901    1    3    3    0    0 -0.51454561249E-02 -0.61583353458E-01  0.10239611440E+00  0.88809005702E+00  0.88000000000E+00 0.  1.
        -11    1    4    4    0    0 -0.75768959445E-02  0.96566632660E-02 -0.35474994390E-01  0.37541934494E-01  0.51100000000E-03 0. -1.
         11    1    4    4    0    0 -0.79761762766E-02  0.52100723109E-01 -0.78519311849E-01  0.94570863328E-01  0.51100000000E-03 0.  1.
</event>
<event>
 8    1  0.1162192E+005  0.1043930E+01  0.7957747E-01            NaN
         13   -1    0    0    0    0  0.00000000000E+00  0.00000000000E+00  0.74505805969E-08  0.10566000000E+00  0.10566000000E+00 0. -1.
     999900   -1    0    0    0    0 -0.00000000000E+00 -0.00000000000E+00 -0.74505805969E-08  0.93827000000E+00  0.93827000000E+00 0.  1.
     999902    2    1    2    0    0  0.95839270258E-02 -0.61190396261E-02  0.20633717805E-01  0.10203706152E+01  0.10200985970E+01 0.  0.
     999903    2    3    3    0    0  0.81264900202E-01 -0.66259262869E-01  0.80031466226E-01  0.13341903764E+00  0.20033224828E-01 0.  0.
         14    1    1    2    0    0 -0.95839270258E-02  0.61190396261E-02 -0.20633717805E-01  0.23559384831E-01  0.00000000000E+00 0.  1.
     999901    1    3    3    0    0 -0.71680973176E-01  0.60140223243E-01 -0.59397748422E-01  0.88695157753E+00  0.88000000000E+00 0.  1.
        -11    1    4    4    0    0  0.20325779774E-01 -0.12399456451E-01  0.90726167892E-02  0.25484452910E-01  0.51100000000E-03 0. -1.
         11    1    4    4    0    0  0.60939120428E-01 -0.53859806418E-01  0.70958849437E-01  0.10793458473E+00  0.51100000000E-03 0.  1.
</event>
<event>
 8    1  0.1162192E+005  0.1043930E+01  0.7957747E-01            NaN
         13   -1    0    0    0    0  0.00000000000E+00  0.00000000000E+00  0.74505805969E-08  0.10566000000E+00  0.10566000000E+00 0. -1.
     999900   -1    0    0    0    0 -0.00000000000E+00 -0.00000000000E+00 -0.74505805969E-08  0.93827000000E+00  0.93827000000E+00 0. -1.
     999902    2    1    2    0    0 -0.31721882560E-02  0.11622119317E-01 -0.21016136927E-01  0.10197057467E+01  0.10194179690E+01 0.  0.
     999903    2    3    3    0    0  0.12402707674E+00  0.33634924149E-01 -0.53128241011E-02  0.13014922202E+00  0.19914065561E-01 0.  0.
         14    1    1    2    0    0  0.31721882560E-02 -0.11622119317E-01  0.21016136927E-01  0.24224253282E-01  0.00000000000E+00 0. -1.
     999901    1    3    3    0    0 -0.12719926499E+00 -0.22012804832E-01 -0.15703312826E-01  0.88955652469E+00  0.88000000000E+00 0.  1.
        -11    1    4    4    0    0  0.81032822731E-01  0.14794410774E-01  0.32169321317E-02  0.82436658855E-01  0.51100000000E-03 0.  1.
         11    1    4    4    0    0  0.42994254006E-01  0.18840513375E-01 -0.85297562328E-02  0.47712563169E-01  0.51100000000E-03 0. -1.
</event>
<event>
 8    1  0.1162192E+005  0.1043930E+01  0.7957747E-01            NaN
         13   -1    0    0    0    0  0.00000000000E+00  0.00000000000E+00  0.74505805969E-08  0.10566000000E+00  0.10566000000E+00 0.  1.
     999900   -1    0    0    0    0 -0.00000000000E+00 -0.00000000000E+00 -0.74505805969E-08  0.93827000000E+00  0.93827000000E+00 0.  1.
     999902    2    1    2    0    0  0.21578671437E-01  0.34341055525E-02  0.10738314370E-02  0.10220534085E+01  0.10218192524E+01 0.  0.
     999903    2    3    3    0    0  0.10679625123E-01  0.12959576749E+00  0.17176996925E-01  0.13284315996E+00  0.21050857040E-01 0.  0.
         14    1    1    2    0    0 -0.21578671437E-01 -0.34341055525E-02 -0.10738314370E-02  0.21876591506E-01  0.00000000000E+00 0. -1.
     999901    1    3    3    0    0  0.10899046315E-01 -0.12616166194E+00 -0.16103165488E-01  0.88921024853E+00  0.88000000000E+00 0. -1.
        -11    1    4    4    0    0 -0.31001095379E-02  0.79659293873E-01  0.68177688595E-02  0.80012229520E-01  0.51100000000E-03 0.  1.
         11    1    4    4    0    0  0.13779734661E-01  0.49936473615E-01  0.10359228066E-01  0.52830930444E-01  0.51100000000E-03 0. -1.
</event>
<event>
 8    1  0.1329141E+005  0.1043930E+01  0.7957747E-01            NaN
         13   -1    0    0    0    0  0.00000000000E+00  0.00000000000E+00  0.74505805969E-08  0.10566000000E+00  0.10566000000E+00 0.  1.
     999900   -1    0    0    0    0 -0.00000000000E+00 -0.00000000000E+00 -0.74505805969E-08  0.93827000000E+00  0.93827000000E+00 0.  1.
     999902    2    1    2    0    0  0.31898250434E-02  0.11307847375E-01  0.19938380847E-01  0.10207873678E+01  0.10205249966E+01 0.  0.
     999903    2    3    3    0    0  0.10607111100E-01  0.83328311639E-01 -0.96988879887E-01  0.13010563577E+00  0.21552617252E-01 0.  0.
         14    1    1    2    0    0 -0.31898250434E-02 -0.11307847375E-01 -0.19938380847E-01  0.23142632237E-01  0.00000000000E+00 0. -1.
     999901    1    3    3    0    0 -0.74172860564E-02 -0.72020464264E-01  0.11692726073E+00  0.89068173199E+00  0.88000000000E+00 0. -1.
        -11    1    4    4    0    0 -0.35648677370E-02  0.27108326099E-01 -0.42507702917E-01  0.50544391916E-01  0.51100000000E-03 0.  1.
         11    1    4    4    0    0  0.14171978837E-01  0.56219985540E-01 -0.54481176970E-01  0.79561243852E-01  0.51100000000E-03 0. -1.
</event>
<event>
 8    1  0.1162192E+005  0.1043930E+01  0.7957747E-01            NaN
         13   -1    0    0    0    0  0.00000000000E+00  0.00000000000E+00  0.74505805969E-08  0.10566000000E+00  0.10566000000E+00 0.  1.
     999900   -1    0    0    0    0 -0.00000000000E+00 -0.00000000000E+00 -0.74505805969E-08  0.93827000000E+00  0.93827000000E+00 0. -1.
     999902    2    1    2    0    0 -0.17554000601E-01 -0.14937871349E-01 -0.58555754842E-02  0.10201482696E+01  0.10198710317E+01 0.  0.
     999903    2    3    3    0    0 -0.28397034999E-01  0.45092261990E-01  0.11647789936E+00  0.12959413458E+00  0.19693526604E-01 0.  0.
         14    1    1    2    0    0  0.17554000601E-01  0.14937871349E-01  0.58555754842E-02  0.23781730420E-01  0.00000000000E+00 0. -1.
     999901    1    3    3    0    0  0.10843034398E-01 -0.60030133339E-01 -0.12233347484E+00  0.89055413500E+00  0.88000000000E+00 0. -1.
        -11    1    4    4    0    0 -0.15069702246E-01  0.13758956404E-01  0.62718859151E-01  0.65956964919E-01  0.51100000000E-03 0.  1.
         11    1    4    4    0    0 -0.13327332753E-01  0.31333305586E-01  0.53759040205E-01  0.63637169658E-01  0.51100000000E-03 0. -1.
</event>
<event>
 8    1  0.1162192E+005  0.1043930E+01  0.7957747E-01            NaN
         13   -1    0    0    0    0  0.00000000000E+00  0.00000000000E+00  0.74505805969E-08  0.10566000000E+00  0.10566000000E+00 0.  1.
     999900   -1    0    0    0    0 -0.00000000000E+00 -0.00000000000E+00 -0.74505805969E-08  0.93827000000E+00  0.93827000000E+00 0. -1.
     999902    2    1    2    0    0  0.96862987660E-02  0.16889312821E-01  0.16061829218E-01  0.10186900390E+01  0.10183773073E+01 0.  0.
     999903    2    3    3    0    0  0.37326627586E-01  0.54102263421E-01  0.11285876234E+00  0.13216962882E+00  0.20282468125E-01 0.  0.
         14    1    1    2    0    0 -0.96862987660E-02 -0.16889312821E-01 -0.16061829218E-01  0.25239960959E-01  0.00000000000E+00 0. -1.
     999901    1    3    3    0    0 -0.27640328820E-01 -0.37212950599E-01 -0.96796933119E-01  0.88652041022E+00  0.88000000000E+00 0. -1.
        -11    1    4    4    0    0  0.21522469266E-01  0.15370549139E-01  0.36151023842E-01  0.44795402777E-01  0.51100000000E-03 0. -1.
         11    1    4    4    0    0  0.15804158320E-01  0.38731714281E-01  0.76707738496E-01  0.87374226048E-01  0.51100000000E-03 0.  1.
</event>
<event>
 8    1  0.1162192E+005  0.1043930E+01  0.7957747E-01            NaN
         13   -1    0    0    0    0  0.00000000000E+00  0.00000000000E+00  0.74505805969E-08  0.10566000000E+00  0.10566000000E+00 0.  1.
     999900   -1    0    0    0    0 -0.00000000000E+00 -0.00000000000E+00 -0.74505805969E-08  0.93827000000E+00  0.93827000000E+00 0. -1.
     999902    2    1    2    0    0 -0.87301275708E-02  0.16643497145E-01 -0.11531306967E-01  0.10218802344E+01  0.10216423157E+01 0.  0.
     999903    2    3    3    0    0 -0.10416786707E+00 -0.22525712947E-01  0.74848332408E-01  0.13165327945E+00  0.19286286635E-01 0.  0.
         14    1    1    2    0    0  0.87301275708E-02 -0.16643497145E-01  0.11531306967E-01  0.22049765645E-01  0.00000000000E+00 0.  1.
     999901    1    3    3    0    0  0.95437739499E-01  0.39169210092E-01 -0.86379639375E-01  0.89022695490E+00  0.88000000000E+00 0. -1.
        -11    1    4    4    0    0 -0.47207610491E-01 -0.13536120345E-01  0.45488068386E-01  0.66941844378E-01  0.51100000000E-03 0. -1.
         11    1    4    4    0    0 -0.56960256579E-01 -0.89895926014E-02  0.29360264023E-01  0.64711435073E-01  0.51100000000E-03 0.  1.
</event>
<event>
 8    1  0.1162192E+005  0.1043930E+01  0.7957747E-01            NaN
         13   -1    0    0    0    0  0.00000000000E+00  0.00000000000E+00  0.74505805969E-08  0.10566000000E+00  0.10566000000E+00 0. -1.
     999900   -1    0    0    0    0 -0.00000000000E+00 -0.00000000000E+00 -0.74505805969E-08  0.93827000000E+00  0.93827000000E+00 0. -1.
     999902    2    1    2    0    0  0.15865179891E-01 -0.15788192597E-02 -0.18218152029E-01  0.10197205459E+01  0.10194331239E+01 0.  0.
     999903    2    3    3    0    0  0.10069470005E+00  0.54560166826E-01  0.59599853718E-01  0.13044934136E+00  0.18672270264E-01 0.  0.
         14    1    1    2    0    0 -0.15865179891E-01  0.15788192597E-02  0.18218152029E-01  0.24209454075E-01  0.00000000000E+00 0. -1.
     999901    1    3    3    0    0 -0.84829520156E-01 -0.56138986086E-01 -0.77818005747E-01  0.88927120456E+00  0.88000000000E+00 0. -1.
        -11    1    4    4    0    0  0.64616914699E-01  0.36190992347E-01  0.28349886506E-01  0.79303914016E-01  0.51100000000E-03 0.  1.
         11    1    4    4    0    0  0.36077785348E-01  0.18369174479E-01  0.31249967211E-01  0.51145427346E-01  0.51100000000E-03 0. -1.
</event>
<event>
 8    1  0.1162192E+005  0.1043930E+01  0.7957747E-01            NaN
         13   -1    0    0    0    0  0.00000000000E+00  0.00000000000E+00  0.74505805969E-08  0.10566000000E+00  0.10566000000E+00 0. -1.
     999900   -1    0    0    0    0 -0.00000000000E+00 -0.00000000000E+00 -0.74505805969E-08  0.93827000000E+00  0.93827000000E+00 0.  1.
     999902    2    1    2    0    0 -0.87808394141E-02  0.70639995531E-02 -0.20520288770E-01  0.10205187745E+01  0.10202502063E+01 0.  0.
     999903    2    3    3    0    0 -0.87673853900E-01  0.84963799089E-01  0.40438414171E-01  0.13146959135E+00  0.27266028253E-01 0.  0.
         14    1    1    2    0    0  0.87808394141E-02 -0.70639995531E-02  0.20520288770E-01  0.23411225549E-01  0.00000000000E+00 0. -1.
     999901    1    3    3    0    0  0.78893014486E-01 -0.77899799535E-01 -0.60958702941E-01  0.88904918310E+00  0.88000000000E+00 0.  1.
        -11    1    4    4    0    0 -0.30746358470E-01  0.30009980113E-01  0.81065795790E-03  0.42975059661E-01  0.51100000000E-03 0.  1.
         11    1    4    4    0    0 -0.56927495430E-01  0.54953818976E-01  0.39627756213E-01  0.88494531692E-01  0.51100000000E-03 0. -1.
</event>
<event>
 8    1  0.1162192E+005  0.1043930E+01  0.7957747E-01            NaN
         13   -1    0    0    0    0  0.00000000000E+00  0.00000000000E+00  0.74505805969E-08  0.10566000000E+00  0.10566000000E+00 0. -1.
     999900   -1    0    0    0    0 -0.00000000000E+00 -0.00000000000E+00 -0.74505805969E-08  0.93827000000E+00  0.93827000000E+00 0.  1.
     999902    2    1    2    0    0  0.12569741730E-01  0.15976664406E-02  0.19475695840E-01  0.10206952486E+01  0.10204307604E+01 0.  0.
     999903    2    3    3    0    0 -0.74212108763E-02  0.12138483353E+00 -0.42064277753E-01  0.13022583757E+00  0.20000328135E-01 0.  0.
         14    1    1    2    0    0 -0.12569741730E-01 -0.15976664406E-02 -0.19475695840E-01  0.23234751422E-01  0.00000000000E+00 0.  1.
     999901    1    3    3    0    0  0.19990952606E-01 -0.11978716709E+00  0.61539973593E-01  0.89046941101E+00  0.88000000000E+00 0. -1.
        -11    1    4    4    0    0 -0.73033413333E-02  0.46900681059E-01 -0.73004620682E-02  0.48026769055E-01  0.51100000000E-03 0.  1.
         11    1    4    4    0    0 -0.11786954297E-03  0.74484152476E-01 -0.34763815685E-01  0.82199068518E-01  0.51100000000E-03 0. -1.
</event>
<event>
 8    1  0.1162192E+005  0.1043930E+01  0.7957747E-01            NaN
         13   -1    0    0    0    0  0.00000000000E+00  0.00000000000E+00  0.74505805969E-08  0.10566000000E+00  0.10566000000E+00 0.  1.
     999900   -1    0    0    0    0 -0.00000000000E+00 -0.00000000000E+00 -0.74505805969E-08  0.93827000000E+00  0.93827000000E+00 0.  1.
     999902    2    1    2    0    0  0.17717937278E-01  0.15273759093E-01 -0.30123558906E-02  0.10203442563E+01  0.10200716220E+01 0.  0.
     999903    2    3    3    0    0  0.66498647043E-01 -0.94190270679E-01  0.57193724701E-01  0.13018320143E+00  0.19561866974E-01 0.  0.
         14    1    1    2    0    0 -0.17717937278E-01 -0.15273759093E-01  0.30123558906E-02  0.23585743707E-01  0.00000000000E+00 0.  1.
     999901    1    3    3    0    0 -0.48780709765E-01  0.10946402977E+00 -0.60206080592E-01  0.89016105487E+00  0.88000000000E+00 0.  1.
        -11    1    4    4    0    0  0.31074324881E-01 -0.55258028090E-01  0.39275676408E-01  0.74578168478E-01  0.51100000000E-03 0. -1.
         11    1    4    4    0    0  0.35424322162E-01 -0.38932242589E-01  0.17918048293E-01  0.55605032949E-01  0.51100000000E-03 0.  1.
</event>
<event>
 8    1  0.1162192E+005  0.1043930E+01  0.7957747E-01            NaN
         13   -1    0    0    0    0  0.00000000000E+00  0.00000000000E+00  0.74505805969E-08  0.10566000000E+00  0.10566000000E+00 0.  1.
     999900   -1    0    0    0    0 -0.00000000000E+00 -0.00000000000E+00 -0.74505805969E-08  0.93827000000E+00  0.93827000000E+00 0. -1.
     999902    2    1    2    0    0 -0.16871939858E-01 -0.37405073854E-02  0.18688856753E-01  0.10184755875E+01  0.10181574511E+01 0.  0.
     999903    2    3    3    0    0 -0.90536470704E-01 -0.73361611770E-01  0.57824864319E-01  0.13179346385E+00  0.21142931920E-01 0.  0.
         14    1    1    2    0    0  0.16871939858E-01  0.37405073854E-02 -0.18688856753E-01  0.25454412521E-01  0.00000000000E+00 0. -1.
     999901    1    3    3    0    0  0.73664530846E-01  0.69621104384E-01 -0.39136007566E-01  0.88668212363E+00  0.88000000000E+00 0.  1.
        -11    1    4    4    0    0 -0.51608497037E-01 -0.54632833519E-01  0.34489997979E-01  0.82692227847E-01  0.51100000000E-03 0.  1.
         11    1    4    4    0    0 -0.38927973667E-01 -0.18728778251E-01  0.23334866340E-01  0.49101235999E-01  0.51100000000E-03 0. -1.
</event>
<event>
 8    1  0.1162192E+005  0.1043930E+01  0.7957747E-01            NaN
         13   -1    0    0    0    0  0.00000000000E+00  0.00000000000E+00  0.74505805969E-08  0.10566000000E+00  0.10566000000E+00 0.  1.
     999900   -1    0    0    0    0 -0.00000000000E+00 -0.00000000000E+00 -0.74505805969E-08  0.93827000000E+00  0.93827000000E+00 0. -1.
     999902    2    1    2    0    0 -0.52090118465E-02  0.20216286750E-01  0.12030586556E-01  0.10198350406E+01  0.10195503632E+01 0.  0.
     999903    2    3    3    0    0  0.30846548285E-02 -0.65973289898E-01 -0.10712471046E+00  0.12759325006E+00  0.21031970760E-01 0.  0.
         14    1    1    2    0    0  0.52090118465E-02 -0.20216286750E-01 -0.12030586556E-01  0.24094959375E-01  0.00000000000E+00 0. -1.
     999901    1    3    3    0    0 -0.82936666750E-02  0.86189576648E-01  0.11915529701E+00  0.89224179057E+00  0.88000000000E+00 0.  1.
        -11    1    4    4    0    0  0.11141123880E-01 -0.43914181578E-01 -0.62928243493E-01  0.77542278372E-01  0.51100000000E-03 0.  1.
         11    1    4    4    0    0 -0.80564690517E-02 -0.22059108319E-01 -0.44196466965E-01  0.50050971685E-01  0.51100000000E-03 0. -1.
</event>
<event>
 8    1  0.1162192E+005  0.1043930E+01  0.7957747E-01            NaN
         13   -1    0    0    0    0  0.00000000000E+00  0.00000000000E+00  0.74505805969E-08  0.10566000000E+00  0.10566000000E+00 0. -1.
     999900   -1    0    0    0    0 -0.00000000000E+00 -0.00000000000E+00 -0.74505805969E-08  0.93827000000E+00  0.93827000000E+00 0.  1.
     999902    2    1    2    0    0 -0.15100763361E-01 -0.69445927272E-02  0.16968220844E-01  0.10201775066E+01  0.10199009580E+01 0.  0.
     999903    2    3    3    0    0 -0.10218489885E+00  0.80777338797E-01 -0.85184133442E-02  0.13117337141E+00  0.12928959175E-01 0.  0.
         14    1    1    2    0    0  0.15100763361E-01  0.69445927272E-02 -0.16968220844E-01  0.23752493361E-01  0.00000000000E+00 0.  1.
     999901    1    3    3    0    0  0.87084135493E-01 -0.87721931524E-01  0.25486634188E-01  0.88900413522E+00  0.88000000000E+00 0.  1.
        -11    1    4    4    0    0 -0.28096572544E-01  0.15992313689E-01 -0.47624992426E-02  0.32682013493E-01  0.51100000000E-03 0. -1.
         11    1    4    4    0    0 -0.74088326310E-01  0.64785025108E-01 -0.37559141016E-02  0.98491357922E-01  0.51100000000E-03 0.  1.
</event>
<event>
 8    1  0.1162192E+005  0.1043930E+01  0.7957747E-01            NaN
         13   -1    0    0    0    0  0.00000000000E+00  0.00000000000E+00  0.74505805969E-08  0.10566000000E+00  0.10566000000E+00 0. -1.
     999900   -1    0    0    0    0 -0.00000000000E+00 -0.00000000000E+00 -0.74505805969E-08  0.93827000000E+00  0.93827000000E+00 0.  1.
     999902    2    1    2    0    0  0.24115577341E-02 -0.13091133266E-01 -0.18100017295E-01  0.10214621562E+01  0.10212150275E+01 0.  0.
     999903    2    3    3    0    0  0.94660594355E-01  0.63492724356E-01 -0.63708242016E-01  0.13216182322E+00  0.20397383295E-01 0.  0.
         14    1    1    2    0    0 -0.24115577341E-02  0.13091133266E-01  0.18100017295E-01  0.22467843844E-01  0.00000000000E+00 0. -1.
     999901    1    3    3    0    0 -0.92249036621E-01 -0.76583857622E-01  0.45608224721E-01  0.88930033294E+00  0.88000000000E+00 0.  1.
        -11    1    4    4    0    0  0.37233912172E-01  0.13462603097E-01 -0.20329743426E-01  0.44510285177E-01  0.51100000000E-03 0.  1.
         11    1    4    4    0    0  0.57426682183E-01  0.50030121259E-01 -0.43378498590E-01  0.87651538039E-01  0.51100000000E-03 0. -1.
</event>
<event>
 8    1  0.1162192E+005  0.1043930E+01  0.7957747E-01            NaN
         13   -1    0    0    0    0  0.00000000000E+00  0.00000000000E+00  0.74505805969E-08  0.10566000000E+00  0.10566000000E+00 0. -1.
     999900   -1    0    0    0    0 -0.00000000000E+00 -0.00000000000E+00 -0.74505805969E-08  0.93827000000E+00  0.93827000000E+00 0.  1.
     999902    2    1    2    0    0  0.85926721357E-02  0.19145556283E-01  0.11022136705E-01  0.10202261219E+01  0.10199507174E+01 0.  0.
     999903    2    3    3    0    0  0.10378609715E+00  0.58142128390E-01  0.56211924244E-01  0.13308203117E+00  0.19974622373E-01 0.  0.
         14    1    1    2    0    0 -0.85926721357E-02 -0.19145556283E-01 -0.11022136705E-01  0.23703878108E-01  0.00000000000E+00 0.  1.
     999901    1    3    3    0    0 -0.95193425012E-01 -0.38996572108E-01 -0.45189787539E-01  0.88714409072E+00  0.88000000000E+00 0.  1.
        -11    1    4    4    0    0  0.76263832637E-01  0.49169621225E-01  0.49487128265E-01  0.10335889321E+00  0.51100000000E-03 0.  1.
         11    1    4    4    0    0  0.27522264510E-01  0.89725071655E-02  0.67247959791E-02  0.29723137966E-01  0.51100000000E-03 0. -1.
</event>
<event>
 8    1  0.1162192E+005  0.1043930E+01  0.7957747E-01            NaN
         13   -1    0    0    0    0  0.00000000000E+00  0.00000000000E+00  0.74505805969E-08  0.10566000000E+00  0.10566000000E+00 0.  1.
     999900   -1    0    0    0    0 -0.00000000000E+00 -0.00000000000E+00 -0.74505805969E-08  0.93827000000E+00  0.93827000000E+00 0. -1.
     999902    2    1    2    0    0 -0.25676114164E-03 -0.24539982775E-01  0.42648579749E-02  0.10190208512E+01  0.10187163636E+01 0.  0.
     999903    2    3    3    0    0 -0.11147002057E+00  0.51958577188E-01  0.30782232676E-01  0.12833370639E+00  0.19918210753E-01 0.  0.
         14    1    1    2    0    0  0.25676114164E-03  0.24539982775E-01 -0.42648579749E-02  0.24909148809E-01  0.00000000000E+00 0.  1.
     999901    1    3    3    0    0  0.11121325942E+00 -0.76498559963E-01 -0.26517374701E-01  0.89068714480E+00  0.88000000000E+00 0. -1.
        -11    1    4    4    0    0 -0.47911579704E-01  0.11682458309E-01  0.10998375221E-01  0.50529443697E-01  0.51100000000E-03 0. -1.
         11    1    4    4    0    0 -0.63558440862E-01  0.40276118879E-01  0.19783857455E-01  0.77804262695E-01  0.51100000000E-03 0.  1.
</event>
<event>
 8    1  0.1162192E+005  0.1043930E+01  0.7957747E-01            NaN
         13   -1    0    0    0    0  0.00000000000E+00  0.00000000000E+00  0.74505805969E-08  0.10566000000E+00  0.10566000000E+00 0. -1.
     999900   -1    0    0    0    0 -0.00000000000E+00 -0.00000000000E+00 -0.74505805969E-08  0.93827000000E+00  0.93827000000E+00 0.  1.
     999902    2    1    2    0    0  0.69224921941E-02  0.87251601892E-02  0.13674650079E-01  0.10262935215E+01  0.10261419721E+01 0.  0.
     999903    2    3    3    0    0  0.18521117858E-01 -0.13144290581E+00  0.15296390436E-01  0.13512336667E+00  0.20101625960E-01 0.  0.
         14    1    1    2    0    0 -0.69224921941E-02 -0.87251601892E-02 -0.13674650079E-01  0.17636478483E-01  0.00000000000E+00 0.  1.
     999901    1    3    3    0    0 -0.11598625664E-01  0.14016806600E+00 -0.16217403572E-02  0.89117015484E+00  0.88000000000E+00 0. -1.
        -11    1    4    4    0    0  0.21499721372E-01 -0.11025009974E+00  0.17176803125E-01  0.11363373706E+00  0.51100000000E-03 0.  1.
         11    1    4    4    0    0 -0.29786035137E-02 -0.21192806070E-01 -0.18804126889E-02  0.21489629612E-01  0.51100000000E-03 0. -1.
</event>
<event>
 8    1  0.1162192E+005  0.1043930E+01  0.7957747E-01            NaN
         13   -1    0    0    0    0  0.00000000000E+00  0.00000000000E+00  0.74505805969E-08  0.10566000000E+00  0.10566000000E+00 0.  1.
     999900   -1    0    0    0    0 -0.00000000000E+00 -0.00000000000E+00 -0.74505805969E-08  0.93827000000E+00  0.93827000000E+00 0. -1.
     999902    2    1    2    0    0 -0.48238218755E-02  0.19181330129E-01  0.18114460176E-01  0.10171097399E+01  0.10167560655E+01 0.  0.
     999903    2    3    3    0    0  0.71833637203E-01 -0.94098266871E-01  0.39963974267E-01  0.12627528033E+00  0.18269425891E-01 0.  0.
         14    1    1    2    0    0  0.48238218755E-02 -0.19181330129E-01 -0.18114460176E-01  0.26820260074E-01  0.00000000000E+00 0. -1.
     999901    1    3    3    0    0 -0.76657459079E-01  0.11327959700E+00 -0.21849514091E-01  0.89083445959E+00  0.88000000000E+00 0. -1.
        -11    1    4    4    0    0  0.44297494411E-01 -0.67315998496E-01  0.20223276772E-01  0.83084015966E-01  0.51100000000E-03 0. -1.
         11    1    4    4    0    0  0.27536142792E-01 -0.26782268375E-01  0.19740697495E-01  0.43191264369E-01  0.51100000000E-03 0.  1.
</event>
<event>
 8    1  0.1162192E+005  0.1043930E+01  0.7957747E-01            NaN
         13   -1    0    0    0    0  0.00000000000E+00  0.00000000000E+00  0.74505805969E-08  0.10566000000E+00  0.10566000000E+00 0.  1.
     999900   -1    0    0    0    0 -0.00000000000E+00 -0.00000000000E+00 -0.74505805969E-08  0.93827000000E+00  0.93827000000E+00 0.  1.
     999902    2    1    2    0    0  0.14344660230E-02 -0.18569401547E-01  0.14956063947E-01  0.10200435140E+01  0.10197637992E+01 0.  0.
     999903    2    3    3    0    0 -0.52339801033E-01  0.11187688842E+00 -0.23419272470E-01  0.12797817285E+00  0.23959496404E-01 0.  0.
         14    1    1    2    0    0 -0.14344660230E-02  0.18569401547E-01 -0.14956063947E-01  0.23886486041E-01  0.00000000000E+00 0. -1.
     999901    1    3    3    0    0  0.53774267056E-01 -0.13044628997E+00  0.38375336417E-01  0.89206534111E+00  0.88000000000E+00 0. -1.
        -11    1    4    4    0    0 -0.20704052205E-01  0.60263353502E-01 -0.19767822178E-02  0.63753418277E-01  0.51100000000E-03 0. -1.
         11    1    4    4    0    0 -0.31635748828E-01  0.51613534919E-01 -0.21442490252E-01  0.64224754573E-01  0.51100000000E-03 0.  1.
</event>
<event>
 8    1  0.1162192E+005  0.1043930E+01  0.7957747E-01            NaN
         13   -1    0    0    0    0  0.00000000000E+00  0.00000000000E+00  0.74505805969E-08  0.10566000000E+00  0.10566000000E+00 0.  1.
     999900   -1    0    0    0    0 -0.00000000000E+00 -0.00000000000E+00 -0.74505805969E-08  0.93827000000E+00  0.93827000000E+00 0.  1.
     999902    2    1    2    0    0 -0.19991432646E-01 -0.11952477442E-02  0.51176869036E-02  0.10232593272E+01  0.10230505236E+01 0.  0.
     999903    2    3    3    0    0 -0.82339418856E-01  0.80599821921E-01 -0.66803591908E-01  0.13435529682E+00  0.17678085330E-01 0.  0.
         14    1    1    2    0    0  0.19991432646E-01  0.11952477442E-02 -0.51176869036E-02  0.20670672840E-01  0.00000000000E+00 0.  1.
     999901    1    3    3    0    0  0.62347986210E-01 -0.81795069665E-01  0.71921278812E-01  0.88890403034E+00  0.88000000000E+00 0. -1.
        -11    1    4    4    0    0 -0.64776943451E-01  0.71342818925E-01 -0.59163040364E-01  0.11307686183E+00  0.51100000000E-03 0. -1.
         11    1    4    4    0    0 -0.17562475405E-01  0.92570029958E-02 -0.76405515436E-02  0.21278434992E-01  0.51100000000E-03 0.  1.
</event>
<event>
 8    1  0.1162192E+005  0.1043930E+01  0.7957747E-01            NaN
         13   -1    0    0    0    0  0.00000000000E+00  0.00000000000E+00  0.74505805969E-08  0.10566000000E+00  0.10566000000E+00 0. -1.
     999900   -1    0    0    0    0 -0.00000000000E+00 -0.00000000000E+00 -0.74505805969E-08  0.93827000000E+00  0.93827000000E+00 0. -1.
     999902    2    1    2    0    0  0.12839727018E-01 -0.10726576067E-01 -0.17283560021E-01  0.10198750739E+01  0.10195913529E+01 0.  0.
     999903    2    3    3    0    0 -0.77614369023E-01  0.95971802102E-01  0.27601779197E-01  0.12769729951E+00  0.17611502179E-01 0.  0.
         14    1    1    2    0    0 -0.12839727018E-01  0.10726576067E-01  0.17283560021E-01  0.24054926128E-01  0.00000000000E+00 0. -1.
     999901    1    3    3    0    0  0.90454096041E-01 -0.10669837817E+00 -0.44885339217E-01  0.89217777437E+00  0.88000000000E+00 0. -1.
        -11    1    4    4    0    0 -0.51090365011E-01  0.74812856374E-01  0.22854685535E-01  0.93433327286E-01  0.51100000000E-03 0.  1.
         11    1    4    4    0    0 -0.26524004012E-01  0.21158945728E-01  0.47470936622E-02  0.34263972221E-01  0.51100000000E-03 0. -1.
</event>
<event>
 8    1  0.1162192E+005  0.1043930E+01  0.7957747E-01            NaN
         13   -1    0    0    0    0  0.00000000000E+00  0.00000000000E+00  0.74505805969E-08  0.10566000000E+00  0.10566000000E+00 0. -1.
     999900   -1    0    0    0    0 -0.00000000000E+00 -0.00000000000E+00 -0.74505805969E-08  0.93827000000E+00  0.93827000000E+00 0.  1.
     999902    2    1    2    0    0  0.19218106732E-01 -0.18206015919E-01  0.22578715227E-02  0.10173613601E+01  0.10170143777E+01 0.  0.
     999903    2    3    3    0    0 -0.29565864648E-03 -0.12151849642E+00  0.42012757458E-01  0.13021159449E+00  0.20570735630E-01 0.  0.
         14    1    1    2    0    0 -0.19218106732E-01  0.18206015919E-01 -0.22578715227E-02  0.26568639894E-01  0.00000000000E+00 0.  1.
     999901    1    3    3    0    0  0.19513765379E-01  0.10331248051E+00 -0.39754885935E-01  0.88714976561E+00  0.88000000000E+00 0.  1.
        -11    1    4    4    0    0  0.21605414048E-02 -0.63891325553E-01  0.11497869815E-01  0.64955612162E-01  0.51100000000E-03 0. -1.
         11    1    4    4    0    0 -0.24562000513E-02 -0.57627170872E-01  0.30514887643E-01  0.65255982333E-01  0.51100000000E-03 0.  1.
</event>
<event>
 8    1  0.1162192E+005  0.1043930E+01  0.7957747E-01            NaN
         13   -1    0    0    0    0  0.00000000000E+00  0.00000000000E+00  0.74505805969E-08  0.10566000000E+00  0.10566000000E+00 0.  1.
     999900   -1    0    0    0    0 -0.00000000000E+00 -0.00000000000E+00 -0.74505805969E-08  0.93827000000E+00  0.93827000000E+00 0.  1.
     999902    2    1    2    0    0 -0.22152963647E-02 -0.73450425997E-02  0.22294945757E-01  0.10203520061E+01  0.10200795531E+01 0.  0.
     999903    2    3    3    0    0 -0.46625435217E-01  0.11952466767E+00  0.14873934895E-02  0.12990204232E+00  0.20303961871E-01 0.  0.
         14    1    1    2    0    0  0.22152963647E-02  0.73450425997E-02 -0.22294945757E-01  0.23577993873E-01  0.00000000000E+00 0. -1.
     999901    1    3    3    0    0  0.44410138852E-01 -0.12686971027E+00  0.20807552268E-01  0.89044996381E+00  0.88000000000E+00 0. -1.
        -11    1    4    4    0    0 -0.35667441994E-01  0.10730254940E+00 -0.20819105027E-02  0.11309553041E+00  0.51100000000E-03 0.  1.
         11    1    4    4    0    0 -0.10957993223E-01  0.12222118269E-01  0.35693039922E-02  0.16806511906E-01  0.51100000000E-03 0. -1.
</event>
<event>
 8    1  0.1162192E+005  0.1043930E+01  0.7957747E-01            NaN
         13   -1    0    0    0    0  0.00000000000E+00  0.00000000000E+00  0.74505805969E-08  0.10566000000E+00  0.10566000000E+00 0.  1.
     999900   -1    0    0    0    0 -0.00000000000E+00 -0.00000000000E+00 -0.74505805969E-08  0.93827000000E+00  0.93827000000E+00 0.  1.
     999902    2    1    2    0    0 -0.13113125601E-01  0.11773288593E-01 -0.16137293136E-01  0.10200348830E+01  0.10197549637E+01 0.  0.
     999903    2    3    3    0    0 -0.66726226535E-01 -0.99128143380E-01 -0.49295776565E-01  0.13083694258E+00  0.20234965734E-01 0.  0.
         14    1    1    2    0    0  0.13113125601E-01 -0.11773288593E-01  0.16137293136E-01  0.23895117013E-01  0.00000000000E+00 0.  1.
     999901    1    3    3    0    0  0.53613100934E-01  0.11090143197E+00  0.33158483429E-01  0.88919794041E+00  0.88000000000E+00 0. -1.
        -11    1    4    4    0    0 -0.17628596223E-01 -0.34448158487E-01 -0.71830599822E-02  0.39361154705E-01  0.51100000000E-03 0. -1.
         11    1    4    4    0    0 -0.49097630311E-01 -0.64679984893E-01 -0.42112716583E-01  0.91475787873E-01  0.51100000000E-03 0.  1.
</event>
<event>
 8    1  0.1162192E+005  0.1043930E+01  0.7957747E-01            NaN
         13   -1    0    0    0    0  0.00000000000E+00  0.00000000000E+00  0.74505805969E-08  0.10566000000E+00  0.10566000000E+00 0.  1.
     999900   -1    0    0    0    0 -0.00000000000E+00 -0.00000000000E+00 -0.74505805969E-08  0.93827000000E+00  0.93827000000E+00 0.  1.
     999902    2    1    2    0    0 -0.97207080758E-02  0.71807462473E-02  0.17173824225E-01  0.10229301067E+01  0.10227145289E+01 0.  0.
     999903    2    3    3    0    0 -0.66471136224E-01 -0.10056194373E-02  0.11551572759E+00  0.13559772381E+00  0.24968703653E-01 0.  0.
         14    1    1    2    0    0  0.97207080758E-02 -0.71807462473E-02 -0.17173824225E-01  0.20999893349E-01  0.00000000000E+00 0. -1.
     999901    1    3    3    0    0  0.56750428149E-01  0.81863656846E-02 -0.98341903360E-01  0.88733238284E+00  0.88000000000E+00 0. -1.
        -11    1    4    4    0    0 -0.38899434042E-01 -0.11585612256E-01  0.56094223991E-01  0.69240273442E-01  0.51100000000E-03 0. -1.
         11    1    4    4    0    0 -0.27571702182E-01  0.10579992819E-01  0.59421503594E-01  0.66357450370E-01  0.51100000000E-03 0.  1.
</event>
<event>
 8    1  0.1162192E+005  0.1043930E+01  0.7957747E-01            NaN
         13   -1    0    0    0    0  0.00000000000E+00  0.00000000000E+00  0.74505805969E-08  0.10566000000E+00  0.10566000000E+00 0.  1.
     999900   -1    0    0    0    0 -0.00000000000E+00 -0.00000000000E+00 -0.74505805969E-08  0.93827000000E+00  0.93827000000E+00 0.  1.
     999902    2    1    2    0    0 -0.22928439473E-01 -0.39551829742E-02 -0.33945660681E-02  0.10204166020E+01  0.10201456571E+01 0.  0.
     999903    2    3    3    0    0  0.35310186135E-01  0.12188640605E+00 -0.16291089969E-01  0.12946533315E+00  0.19818366557E-01 0.  0.
         14    1    1    2    0    0  0.22928439473E-01  0.39551829742E-02  0.33945660681E-02  0.23513398050E-01  0.00000000000E+00 0. -1.
     999901    1    3    3    0    0 -0.58238625608E-01 -0.12584158902E+00  0.12896523901E-01  0.89095126880E+00  0.88000000000E+00 0.  1.
        -11    1    4    4    0    0  0.19039992293E-01  0.95807204875E-01 -0.13131297535E-01  0.98560813250E-01  0.51100000000E-03 0. -1.
         11    1    4    4    0    0  0.16270193842E-01  0.26079201170E-01 -0.31597924343E-02  0.30904519905E-01  0.51100000000E-03 0.  1.
</event>
<event>
 8    1  0.1162192E+005  0.1043930E+01  0.7957747E-01            NaN
         13   -1    0    0    0    0  0.00000000000E+00  0.00000000000E+00  0.74505805969E-08  0.10566000000E+00  0.10566000000E+00 0.  1.
     999900   -1    0    0    0    0 -0.00000000000E+00 -0.00000000000E+00 -0.74505805969E-08  0.93827000000E+00  0.93827000000E+00 0. -1.
     999902    2    1    2    0    0  0.92722331071E-02  0.14522866389E-01 -0.80836107130E-02  0.10248975877E+01  0.10247208559E+01 0.  0.
     999903    2    3    3    0    0 -0.10557838691E+00 -0.31286299444E-02  0.78755696580E-01  0.13302130396E+00  0.18320028830E-01 0.  0.
         14    1    1    2    0    0 -0.92722331071E-02 -0.14522866389E-01  0.80836107130E-02  0.19032412278E-01  0.00000000000E+00 0.  1.
     999901    1    3    3    0    0  0.11485062002E+00  0.17651496333E-01 -0.86839307293E-01  0.89187628376E+00  0.88000000000E+00 0. -1.
        -11    1    4    4    0    0 -0.64883708732E-01  0.13417561386E-02  0.58357783565E-01  0.87278794630E-01  0.51100000000E-03 0. -1.
         11    1    4    4    0    0 -0.40694678178E-01 -0.44703860830E-02  0.20397913015E-01  0.45742509333E-01  0.51100000000E-03 0.  1.
</event>
<event>
 8    1  0.1162192E+005  0.1043930E+01  0.7957747E-01            NaN
         13   -1    0    0    0    0  0.00000000000E+00  0.00000000000E+00  0.74505805969E-08  0.10566000000E+00  0.10566000000E+00 0.  1.
     999900   -1    0    0    0    0 -0.00000000000E+00 -0.00000000000E+00 -0.74505805969E-08  0.93827000000E+00  0.93827000000E+00 0.  1.
     999902    2    1    2    0    0  0.36420431527E-02 -0.21803084805E-01 -0.90819309603E-02  0.10200318734E+01  0.10197518827E+01 0.  0.
     999903    2    3    3    0    0  0.57110626548E-01  0.16815848873E-01  0.11257460946E+00  0.12921728815E+00  0.21901333854E-01 0.  0.
         14    1    1    2    0    0 -0.36420431527E-02  0.21803084805E-01  0.90819309603E-02  0.23898126607E-01  0.00000000000E+00 0.  1.
     999901    1    3    3    0    0 -0.53468583395E-01 -0.38618933679E-01 -0.12165654042E+00  0.89081458524E+00  0.88000000000E+00 0.  1.
        -11    1    4    4    0    0  0.24515426894E-01  0.18537832664E-01  0.57195818874E-01  0.64932890074E-01  0.51100000000E-03 0. -1.
         11    1    4    4    0    0  0.32595199654E-01 -0.17219837910E-02  0.55378790586E-01  0.64284398079E-01  0.51100000000E-03 0.  1.
</event>
<event>
 8    1  0.1162192E+005  0.1043930E+01  0.7957747E-01            NaN
         13   -1    0    0    0    0  0.00000000000E+00  0.00000000000E+00  0.74505805969E-08  0.10566000000E+00  0.10566000000E+00 0.  1.
     999900   -1    0    0    0    0 -0.00000000000E+00 -0.00000000000E+00 -0.74505805969E-08  0.93827000000E+00  0.93827000000E+00 0.  1.
     999902    2    1    2    0    0 -0.17900434215E-01  0.15909001297E-01  0.76189549662E-02  0.10187989367E+01  0.10184889313E+01 0.  0.
     999903    2    3    3    0    0 -0.85492408280E-01  0.98621817108E-01  0.84982141201E-02  0.13233920386E+00  0.20155161946E-01 0.  0.
         14    1    1    2    0    0  0.17900434215E-01 -0.15909001297E-01 -0.76189549662E-02  0.25131063291E-01  0.00000000000E+00 0.  1.
     999901    1    3    3    0    0  0.67591974065E-01 -0.82712815811E-01 -0.87925915394E-03  0.88645973284E+00  0.88000000000E+00 0. -1.
        -11    1    4    4    0    0 -0.71103229678E-01  0.88100068671E-01  0.16215482342E-02  0.11322624214E+00  0.51100000000E-03 0.  1.
         11    1    4    4    0    0 -0.14389178602E-01  0.10521748438E-01  0.68766658860E-02  0.19112961720E-01  0.51100000000E-03 0. -1.
</event>
<event>
 8    1  0.1162192E+005  0.1043930E+01  0.7957747E-01            NaN
         13   -1    0    0    0    0  0.00000000000E+00  0.00000000000E+00  0.74505805969E-08  0.10566000000E+00  0.10566000000E+00 0.  1.
     999900   -1    0    0    0    0 -0.00000000000E+00 -0.00000000000E+00 -0.74505805969E-08  0.93827000000E+00  0.93827000000E+00 0. -1.
     999902    2    1    2    0    0 -0.12909870120E-01 -0.19541596739E-01  0.85782543291E-03  0.10204933916E+01  0.10202242340E+01 0.  0.
     999903    2    3    3    0    0 -0.44213950781E-01 -0.28002748380E-01 -0.11920257978E+00  0.13174931287E+00  0.20238553665E-01 0.  0.
         14    1    1    2    0    0  0.12909870120E-01  0.19541596739E-01 -0.85782543291E-03  0.23436608418E-01  0.00000000000E+00 0.  1.
     999901    1    3    3    0    0  0.31304080661E-01  0.84611516407E-02  0.12006040521E+00  0.88874407872E+00  0.88000000000E+00 0.  1.
        -11    1    4    4    0    0 -0.36810886191E-01 -0.14644374105E-01 -0.97161797296E-01  0.10492938106E+00  0.51100000000E-03 0.  1.
         11    1    4    4    0    0 -0.74030645897E-02 -0.13358374275E-01 -0.22040782482E-01  0.26819931805E-01  0.51100000000E-03 0. -1.
</event>
<event>
 8    1  0.1162192E+005  0.1043930E+01  0.7957747E-01            NaN
         13   -1    0    0    0    0  0.00000000000E+00  0.00000000000E+00  0.74505805969E-08  0.10566000000E+00  0.10566000000E+00 0. -1.
     999900   -1    0    0    0    0 -0.00000000000E+00 -0.00000000000E+00 -0.74505805969E-08  0.93827000000E+00  0.93827000000E+00 0.  1.
     999902    2    1    2    0    0  0.18817609163E-01  0.12972068583E-01  0.52321081512E-02  0.10204832106E+01  0.10202138164E+01 0.  0.
     999903    2    3    3    0    0  0.23987001699E-01 -0.12068136010E+00 -0.34993022521E-01  0.12946804643E+00  0.19952355670E-01 0.  0.
         14    1    1    2    0    0 -0.18817609163E-01 -0.12972068583E-01 -0.52321081512E-02  0.23446789410E-01  0.00000000000E+00 0.  1.
     999901    1    3    3    0    0 -0.51693925364E-02  0.13365342868E+00  0.40225130672E-01  0.89101516416E+00  0.88000000000E+00 0. -1.
        -11    1    4    4    0    0  0.25390462540E-01 -0.81885637008E-01 -0.21776910007E-01  0.88455797248E-01  0.51100000000E-03 0. -1.
         11    1    4    4    0    0 -0.14034608408E-02 -0.38795723090E-01 -0.13216112514E-01  0.41012249187E-01  0.51100000000E-03 0.  1.
</event>
<event>
 8    1  0.1162192E+005  0.1043930E+01  0.7957747E-01            NaN
         13   -1    0    0    0    0  0.00000000000E+00  0.00000000000E+00  0.74505805969E-08  0.10566000000E+00  0.10566000000E+00 0. -1.
     999900   -1    0    0    0    0 -0.00000000000E+00 -0.00000000000E+00 -0.74505805969E-08  0.93827000000E+00  0.93827000000E+00 0. -1.
     999902    2    1    2    0    0 -0.10138802551E-01  0.77781536118E-02 -0.19622091117E-01  0.10205137353E+01  0.10202450503E+01 0.  0.
     999903    2    3    3    0    0  0.91085090823E-01 -0.63911546581E-01  0.61027418159E-01  0.12816288895E+00  0.17894154934E-01 0.  0.
         14    1    1    2    0    0  0.10138802551E-01 -0.77781536118E-02  0.19622091117E-01  0.23416264659E-01  0.00000000000E+00 0. -1.
     999901    1    3    3    0    0 -0.10122389337E+00  0.71689700193E-01 -0.80649509276E-01  0.89235084639E+00  0.88000000000E+00 0.  1.
        -11    1    4    4    0    0  0.83753981161E-01 -0.52077767839E-01  0.55555404817E-01  0.11319667570E+00  0.51100000000E-03 0. -1.
         11    1    4    4    0    0  0.73311096620E-02 -0.11833778742E-01  0.54720133416E-02  0.14966213255E-01  0.51100000000E-03 0.  1.
</event>
<event>
 8    1  0.1162192E+005  0.1043930E+01  0.7957747E-01            NaN
         13   -1    0    0    0    0  0.00000000000E+00  0.00000000000E+00  0.74505805969E-08  0.10566000000E+00  0.10566000000E+00 0.  1.
     999900   -1    0    0    0    0 -0.00000000000E+00 -0.00000000000E+00 -0.74505805969E-08  0.93827000000E+00  0.93827000000E+00 0. -1.
     999902    2    1    2    0    0 -0.18268988099E-01 -0.12107412112E-01 -0.79303759305E-02  0.10206225716E+01  0.10203564071E+01 0.  0.
     999903    2    3    3    0    0  0.10618060203E+00 -0.49546761287E-01 -0.52795983514E-01  0.12994736255E+00  0.19227567644E-01 0.  0.
         14    1    1    2    0    0  0.18268988099E-01  0.12107412112E-01  0.79303759305E-02  0.23307428357E-01  0.00000000000E+00 0. -1.
     999901    1    3    3    0    0 -0.12444959013E+00  0.37439349175E-01  0.44865607584E-01  0.89067520909E+00  0.88000000000E+00 0.  1.
        -11    1    4    4    0    0  0.30599114246E-01 -0.17988255043E-01 -0.25133331236E-01  0.43495155732E-01  0.51100000000E-03 0.  1.
         11    1    4    4    0    0  0.75581487782E-01 -0.31558506244E-01 -0.27662652278E-01  0.86452206818E-01  0.51100000000E-03 0. -1.
</event>
<event>
 8    1  0.1162192E+005  0.1043930E+01  0.7957747E-01            NaN
         13   -1    0    0    0    0  0.00000000000E+00  0.00000000000E+00  0.74505805969E-08  0.10566000000E+00  0.10566000000E+00 0.  1.
     999900   -1    0    0    0    0 -0.00000000000E+00 -0.00000000000E+00 -0.74505805969E-08  0.93827000000E+00  0.93827000000E+00 0.  1.
     999902    2    1    2    0    0 -0.13699097379E-01  0.14894281598E-02  0.17779199815E-01  0.10214359205E+01  0.10211882080E+01 0.  0.
     999903    2    3    3    0    0  0.34090210085E-01 -0.42606327088E-01 -0.11523661783E+00  0.12906746452E+00  0.20037234789E-01 0.  0.
         14    1    1    2    0    0  0.13699097379E-01 -0.14894281598E-02 -0.17779199815E-01  0.22494079472E-01  0.00000000000E+00 0. -1.
     999901    1    3    3    0    0 -0.47789307463E-01  0.44095755247E-01  0.13301581764E+00  0.89236845601E+00  0.88000000000E+00 0. -1.
        -11    1    4    4    0    0  0.12515309004E-01 -0.22917145214E-01 -0.34942061274E-01  0.43623815414E-01  0.51100000000E-03 0.  1.
         11    1    4    4    0    0  0.21574901080E-01 -0.19689181873E-01 -0.80294556551E-01  0.85443649104E-01  0.51100000000E-03 0. -1.
</event>
<event>
 8    1  0.1162192E+005  0.1043930E+01  0.7957747E-01            NaN
         13   -1    0    0    0    0  0.00000000000E+00  0.00000000000E+00  0.74505805969E-08  0.10566000000E+00  0.10566000000E+00 0.  1.
     999900   -1    0    0    0    0 -0.00000000000E+00 -0.00000000000E+00 -0.74505805969E-08  0.93827000000E+00  0.93827000000E+00 0. -1.
     999902    2    1    2    0    0  0.18855514747E-01  0.93270014671E-02  0.14862027211E-01  0.10181733844E+01  0.10178475512E+01 0.  0.
     999903    2    3    3    0    0 -0.45796832366E-01 -0.93392979114E-01 -0.68151695469E-01  0.12597239892E+00  0.20119475426E-01 0.  0.
         14    1    1    2    0    0 -0.18855514747E-01 -0.93270014671E-02 -0.14862027211E-01  0.25756615569E-01  0.00000000000E+00 0. -1.
     999901    1    3    3    0    0  0.64652347113E-01  0.10271998058E+00  0.83013722680E-01  0.89220098551E+00  0.88000000000E+00 0.  1.
        -11    1    4    4    0    0 -0.31635932710E-02 -0.24524674352E-01 -0.19405483519E-01  0.31437269062E-01  0.51100000000E-03 0. -1.
         11    1    4    4    0    0 -0.42633239095E-01 -0.68868304761E-01 -0.48746211949E-01  0.94535129856E-01  0.51100000000E-03 0.  1.
</event>
<event>
 8    1  0.1162192E+005  0.1043930E+01  0.7957747E-01            NaN
         13   -1    0    0    0    0  0.00000000000E+00  0.00000000000E+00  0.74505805969E-08  0.10566000000E+00  0.10566000000E+00 0.  1.
     999900   -1    0    0    0    0 -0.00000000000E+00 -0.00000000000E+00 -0.74505805969E-08  0.93827000000E+00  0.93827000000E+00 0.  1.
     999902    2    1    2    0    0  0.16868309114E-01  0.49214007274E-02  0.13560762992E-01  0.10217341821E+01  0.10214930664E+01 0.  0.
     999903    2    3    3    0    0  0.63875309852E-01  0.70009706160E-02 -0.11292862627E+00  0.13144571859E+00  0.19900590605E-01 0.  0.
         14    1    1    2    0    0 -0.16868309114E-01 -0.49214007274E-02 -0.13560762992E-01  0.22195817859E-01  0.00000000000E+00 0. -1.
     999901    1    3    3    0    0 -0.47007000738E-01 -0.20795698886E-02  0.12648938927E+00  0.89028846355E+00  0.88000000000E+00 0. -1.
        -11    1    4    4    0    0  0.21178080674E-01  0.29220151026E-02 -0.57569262677E-01  0.61412786938E-01  0.51100000000E-03 0.  1.
         11    1    4    4    0    0  0.42697229178E-01  0.40789555135E-02 -0.55359363596E-01  0.70032931656E-01  0.51100000000E-03 0. -1.
</event>
<event>
 8    1  0.1162192E+005  0.1043930E+01  0.7957747E-01            NaN
         13   -1    0    0    0    0  0.00000000000E+00  0.00000000000E+00  0.74505805969E-08  0.10566000000E+00  0.10566000000E+00 0.  1.
     999900   -1    0    0    0    0 -0.00000000000E+00 -0.00000000000E+00 -0.74505805969E-08  0.93827000000E+00  0.93827000000E+00 0.  1.
     999902    2    1    2    0    0 -0.15352105730E-01 -0.17831979300E-01 -0.76402154108E-02  0.10191905674E+01  0.10188902655E+01 0.  0.
     999903    2    3    3    0    0  0.36775586045E-01 -0.12437619925E+00 -0.77326401580E-03  0.13120626452E+00  0.19814218226E-01 0.  0.
         14    1    1    2    0    0  0.15352105730E-01  0.17831979300E-01  0.76402154108E-02  0.24739432645E-01  0.00000000000E+00 0.  1.
     999901    1    3    3    0    0 -0.52127691775E-01  0.10654421995E+00 -0.68669513950E-02  0.88798430283E+00  0.88000000000E+00 0.  1.
        -11    1    4    4    0    0  0.26003809966E-01 -0.10126307814E+00  0.62971473343E-02  0.10473931598E+00  0.51100000000E-03 0. -1.
         11    1    4    4    0    0  0.10771776078E-01 -0.23113121114E-01 -0.70704113501E-02  0.26466948543E-01  0.51100000000E-03 0.  1.
</event>
<event>
 8    1  0.1162192E+005  0.1043930E+01  0.7957747E-01            NaN
         13   -1    0    0    0    0  0.00000000000E+00  0.00000000000E+00  0.74505805969E-08  0.10566000000E+00  0.10566000000E+00 0.  1.
     999900   -1    0    0    0    0 -0.00000000000E+00 -0.00000000000E+00 -0.74505805969E-08  0.93827000000E+00  0.93827000000E+00 0.  1.
     999902    2    1    2    0    0  0.13575062198E-01  0.18661183217E-01 -0.59375750015E-04  0.10208534838E+01  0.10205926268E+01 0.  0.
     999903    2    3    3    0    0 -0.74810503711E-03  0.91937975959E-01 -0.93551519437E-01  0.13275696746E+00  0.20478636065E-01 0.  0.
         14    1    1    2    0    0 -0.13575062198E-01 -0.18661183217E-01  0.59375750015E-04  0.23076516163E-01  0.00000000000E+00 0. -1.
     999901    1    3    3    0    0  0.14323167235E-01 -0.73276792742E-01  0.93492143687E-01  0.88809651638E+00  0.88000000000E+00 0. -1.
        -11    1    4    4    0    0  0.96243593257E-02  0.35284280369E-01 -0.35021959930E-01  0.50639979581E-01  0.51100000000E-03 0.  1.
         11    1    4    4    0    0 -0.10372464363E-01  0.56653695590E-01 -0.58529559506E-01  0.82116987877E-01  0.51100000000E-03 0. -1.
</event>
<event>
 8    1  0.1162192E+005  0.1043930E+01  0.7957747E-01            NaN
         13   -1    0    0    0    0  0.00000000000E+00  0.00000000000E+00  0.74505805969E-08  0.10566000000E+00  0.10566000000E+00 0.  1.
     999900   -1    0    0    0    0 -0.00000000000E+00 -0.00000000000E+00 -0.74505805969E-08  0.93827000000E+00  0.93827000000E+00 0.  1.
     999902    2    1    2    0    0 -0.76185688779E-02  0.13019677230E-01  0.17746996266E-01  0.10206381460E+01  0.10203723411E+01 0.  0.
     999903    2    3    3    0    0 -0.91895275900E-01  0.93081701715E-01 -0.76108925065E-02  0.13263166311E+00  0.20598238930E-01 0.  0.
         14    1    1    2    0    0  0.76185688779E-02 -0.13019677230E-01 -0.17746996266E-01  0.23291854014E-01  0.00000000000E+00 0. -1.
     999901    1    3    3    0    0  0.84276707023E-01 -0.80062024485E-01  0.25357888773E-01  0.88800648288E+00  0.88000000000E+00 0. -1.
        -11    1    4    4    0    0 -0.70189766856E-01  0.78870171963E-01 -0.12186949441E-01  0.10628212575E+00  0.51100000000E-03 0. -1.
         11    1    4    4    0    0 -0.21705509044E-01  0.14211529752E-01  0.45760569347E-02  0.26349537355E-01  0.51100000000E-03 0.  1.
</event>
<event>
 8    1  0.1162192E+005  0.1043930E+01  0.7957747E-01            NaN
         13   -1    0    0    0    0  0.00000000000E+00  0.00000000000E+00  0.74505805969E-08  0.10566000000E+00  0.10566000000E+00 0.  1.
     999900   -1    0    0    0    0 -0.00000000000E+00 -0.00000000000E+00 -0.74505805969E-08  0.93827000000E+00  0.93827000000E+00 0. -1.
     999902    2    1    2    0    0  0.12426178096E-01  0.19981156168E-01  0.14430961324E-02  0.10203558822E+01  0.10200835198E+01 0.  0.
     999903    2    3    3    0    0  0.65122238844E-01 -0.72078451478E-01 -0.83870091189E-01  0.12988960764E+00  0.20022707569E-01 0.  0.
         14    1    1    2    0    0 -0.12426178096E-01 -0.19981156168E-01 -0.14430961324E-02  0.23574117807E-01  0.00000000000E+00 0. -1.
     999901    1    3    3    0    0 -0.52696060747E-01  0.92059607646E-01  0.85313187322E-01  0.89046627455E+00  0.88000000000E+00 0.  1.
        -11    1    4    4    0    0  0.47544753054E-01 -0.41323367137E-01 -0.61208206744E-01  0.87834104472E-01  0.51100000000E-03 0.  1.
         11    1    4    4    0    0  0.17577485789E-01 -0.30755084341E-01 -0.22661884445E-01  0.42055503172E-01  0.51100000000E-03 0. -1.
</event>
<event>
 8    1  0.1162192E+005  0.1043930E+01  0.7957747E-01            NaN
         13   -1    0    0    0    0  0.00000000000E+00  0.00000000000E+00  0.74505805969E-08  0.10566000000E+00  0.10566000000E+00 0. -1.
     999900   -1    0    0    0    0 -0.00000000000E+00 -0.00000000000E+00 -0.74505805969E-08  0.93827000000E+00  0.93827000000E+00 0. -1.
     999902    2    1    2    0    0 -0.30288323277E-02  0.22755272850E-01 -0.10955209884E-01  0.10184939451E+01  0.10181762732E+01 0.  0.
     999903    2    3    3    0    0  0.14084493079E-01  0.86570716850E-01 -0.96477248675E-01  0.13188281501E+00  0.19807963579E-01 0.  0.
         14    1    1    2    0    0  0.30288323277E-02 -0.22755272850E-01  0.10955209884E-01  0.25436054949E-01  0.00000000000E+00 0.  1.
     999901    1    3    3    0    0 -0.17113325406E-01 -0.63815444000E-01  0.85522038791E-01  0.88661113004E+00  0.88000000000E+00 0.  1.
        -11    1    4    4    0    0  0.84703228114E-02  0.51396909494E-01 -0.71117806984E-01  0.88155500482E-01  0.51100000000E-03 0. -1.
         11    1    4    4    0    0  0.56141702671E-02  0.35173807356E-01 -0.25359441691E-01  0.43727314525E-01  0.51100000000E-03 0.  1.
</event>
<event>
 8    1  0.1162192E+005  0.1043930E+01  0.7957747E-01            NaN
         13   -1    0    0    0    0  0.00000000000E+00  0.00000000000E+00  0.74505805969E-08  0.10566000000E+00  0.10566000000E+00 0.  1.
     999900   -1    0    0    0    0 -0.00000000000E+00 -0.00000000000E+00 -0.74505805969E-08  0.93827000000E+00  0.93827000000E+00 0. -1.
     999902    2    1    2    0    0  0.42032841828E-02  0.22431777629E-01  0.56939570446E-02  0.10204082358E+01  0.10201370958E+01 0.  0.
     999903    2    3    3    0    0  0.12019207797E+00 -0.39026482121E-01 -0.23028063246E-01  0.13020855456E+00  0.21325432506E-01 0.  0.
         14    1    1    2    0    0 -0.42032841828E-02 -0.22431777629E-01 -0.56939570446E-02  0.23521764227E-01  0.00000000000E+00 0. -1.
     999901    1    3    3    0    0 -0.11598879379E+00  0.61458259750E-01  0.28722020291E-01  0.89019968121E+00  0.88000000000E+00 0. -1.
        -11    1    4    4    0    0  0.11002678340E+00 -0.28948077450E-01 -0.19188144250E-01  0.11537907200E+00  0.51100000000E-03 0.  1.
         11    1    4    4    0    0  0.10165294566E-01 -0.10078404671E-01 -0.38399189965E-02  0.14829482568E-01  0.51100000000E-03 0. -1.
</event>
<event>
 8    1  0.1162192E+005  0.1043930E+01  0.7957747E-01            NaN
         13   -1    0    0    0    0  0.00000000000E+00  0.00000000000E+00  0.74505805969E-08  0.10566000000E+00  0.10566000000E+00 0.  1.
     999900   -1    0    0    0    0 -0.00000000000E+00 -0.00000000000E+00 -0.74505805969E-08  0.93827000000E+00  0.93827000000E+00 0. -1.
     999902    2    1    2    0    0 -0.17859033162E-01  0.14898146360E-01 -0.53247443445E-02  0.10200709822E+01  0.10197919179E+01 0.  0.
     999903    2    3    3    0    0  0.64438534005E-01 -0.77580480611E-01  0.76062371297E-01  0.12768706892E+00  0.18639946472E-01 0.  0.
         14    1    1    2    0    0  0.17859033162E-01 -0.14898146360E-01  0.53247443445E-02  0.23859017850E-01  0.00000000000E+00 0. -1.
     999901    1    3    3    0    0 -0.82297567166E-01  0.92478626970E-01 -0.81387115641E-01  0.89238391323E+00  0.88000000000E+00 0. -1.
        -11    1    4    4    0    0  0.53381220616E-01 -0.69084018747E-01  0.57807205965E-01  0.10470955326E+00  0.51100000000E-03 0.  1.
         11    1    4    4    0    0  0.11057313389E-01 -0.84964618639E-02  0.18255165331E-01  0.22977515659E-01  0.51100000000E-03 0. -1.
</event>
<event>
 8    1  0.1162192E+005  0.1043930E+01  0.7957747E-01            NaN
         13   -1    0    0    0    0  0.00000000000E+00  0.00000000000E+00  0.74505805969E-08  0.10566000000E+00  0.10566000000E+00 0.  1.
     999900   -1    0    0    0    0 -0.00000000000E+00 -0.00000000000E+00 -0.74505805969E-08  0.93827000000E+00  0.93827000000E+00 0. -1.
     999902    2    1    2    0    0  0.18697961291E-01  0.10170312019E-01 -0.99264639853E-02  0.10204441811E+01  0.10201738788E+01 0.  0.
     999903    2    3    3    0    0 -0.11629290012E+00 -0.40047878766E-01 -0.29100608241E-01  0.12852936051E+00  0.23346946288E-01 0.  0.
         14    1    1    2    0    0 -0.18697961291E-01 -0.10170312019E-01  0.99264639853E-02  0.23485818919E-01  0.00000000000E+00 0.  1.
     999901    1    3    3    0    0  0.13499086141E+00  0.50218190785E-01  0.19174144256E-01  0.89191482057E+00  0.88000000000E+00 0. -1.
        -11    1    4    4    0    0 -0.76591414663E-01 -0.25053754848E-01 -0.30237063781E-01  0.86072507685E-01  0.51100000000E-03 0.  1.
         11    1    4    4    0    0 -0.39701485456E-01 -0.14994123918E-01  0.11364555402E-02  0.42456852823E-01  0.51100000000E-03 0. -1.
</event>
<event>
 8    1  0.1162192E+005  0.1043930E+01  0.7957747E-01            NaN
         13   -1    0    0    0    0  0.00000000000E+00  0.00000000000E+00  0.74505805969E-08  0.10566000000E+00  0.10566000000E+00 0.  1.
     999900   -1    0    0    0    0 -0.00000000000E+00 -0.00000000000E+00 -0.74505805969E-08  0.93827000000E+00  0.93827000000E+00 0.  1.
     999902    2    1    2    0    0 -0.14402197937E-01 -0.14022956301E-01  0.13131708099E-01  0.10199194114E+01  0.10196367477E+01 0.  0.
     999903    2    3    3    0    0 -0.10240076393E+00 -0.22498366686E-01  0.79257868611E-01  0.13302130600E+00  0.20512560964E-01 0.  0.
         14    1    1    2    0    0  0.14402197937E-01  0.14022956301E-01 -0.13131708099E-01  0.24010588632E-01  0.00000000000E+00 0. -1.
     999901    1    3    3    0    0  0.87998565990E-01  0.84754103852E-02 -0.66126160512E-01  0.88689810537E+00  0.88000000000E+00 0.  1.
        -11    1    4    4    0    0 -0.75482794230E-01 -0.11383343975E-01  0.66428401490E-01  0.10119400373E+00  0.51100000000E-03 0. -1.
         11    1    4    4    0    0 -0.26917969697E-01 -0.11115022711E-01  0.12829467121E-01  0.31827302275E-01  0.51100000000E-03 0.  1.
</event>
<event>
 8    1  0.1162192E+005  0.1043930E+01  0.7957747E-01            NaN
         13   -1    0    0    0    0  0.00000000000E+00  0.00000000000E+00  0.74505805969E-08  0.10566000000E+00  0.10566000000E+00 0.  1.
     999900   -1    0    0    0    0 -0.00000000000E+00 -0.00000000000E+00 -0.74505805969E-08  0.93827000000E+00  0.93827000000E+00 0. -1.
     999902    2    1    2    0    0  0.20793177314E-01  0.85871032041E-02  0.78056485829E-02  0.10201177613E+01  0.10198398032E+01 0.  0.
     999903    2    3    3    0    0 -0.14210654364E-01  0.12877223164E+00 -0.77619380634E-02  0.13112277641E+00  0.18673630376E-01 0.  0.
         14    1    1    2    0    0 -0.20793177314E-01 -0.85871032041E-02 -0.78056485829E-02  0.23812238745E-01  0.00000000000E+00 0. -1.
     999901    1    3    3    0    0  0.35003831678E-01 -0.12018512844E+00  0.15567586646E-01  0.88899498485E+00  0.88000000000E+00 0.  1.
        -11    1    4    4    0    0 -0.32886116396E-03  0.40008165985E-01 -0.10026148428E-01  0.41249803253E-01  0.51100000000E-03 0.  1.
         11    1    4    4    0    0 -0.13881793200E-01  0.88764065656E-01  0.22642103642E-02  0.89872973155E-01  0.51100000000E-03 0. -1.
</event>
<event>
 8    1  0.1162192E+005  0.1043930E+01  0.7957747E-01            NaN
         13   -1    0    0    0    0  0.00000000000E+00  0.00000000000E+00  0.74505805969E-08  0.10566000000E+00  0.10566000000E+00 0. -1.
     999900   -1    0    0    0    0 -0.00000000000E+00 -0.00000000000E+00 -0.74505805969E-08  0.93827000000E+00  0.93827000000E+00 0.  1.
     999902    2    1    2    0    0 -0.13825431992E-01  0.15717238486E-01 -0.10243031543E-01  0.10206256259E+01  0.10203595320E+01 0.  0.
     999903    2    3    3    0    0 -0.39079241161E-01 -0.56383413093E-01  0.10802073127E+00  0.12943396505E+00  0.19452417930E-01 0.  0.
         14    1    1    2    0    0  0.13825431992E-01 -0.15717238486E-01  0.10243031543E-01  0.23304374065E-01  0.00000000000E+00 0. -1.
     999901    1    3    3    0    0  0.25253809170E-01  0.72100651579E-01 -0.11826376281E+00  0.89119166088E+00  0.88000000000E+00 0.  1.
        -11    1    4    4    0    0 -0.39457089851E-01 -0.52382737825E-01  0.92479096947E-01  0.11337309052E+00  0.51100000000E-03 0.  1.
         11    1    4    4    0    0  0.37784868982E-03 -0.40006752677E-02  0.15541634321E-01  0.16060874528E-01  0.51100000000E-03 0. -1.
</event>
<event>
 8    1  0.1162192E+005  0.1043930E+01  0.7957747E-01            NaN
         13   -1    0    0    0    0  0.00000000000E+00  0.00000000000E+00  0.74505805969E-08  0.10566000000E+00  0.10566000000E+00 0. -1.
     999900   -1    0    0    0    0 -0.00000000000E+00 -0.00000000000E+00 -0.74505805969E-08  0.93827000000E+00  0.93827000000E+00 0.  1.
     999902    2    1    2    0    0  0.96374283726E-02  0.12492175377E-01 -0.17137104815E-01  0.10206359056E+01  0.10203700491E+01 0.  0.
     999903    2    3    3    0    0 -0.28045443722E-01  0.56122935876E-01 -0.11583086477E+00  0.13324416554E+00  0.20022177041E-01 0.  0.
         14    1    1    2    0    0 -0.96374283726E-02 -0.12492175377E-01  0.17137104815E-01  0.23294094374E-01  0.00000000000E+00 0.  1.
     999901    1    3    3    0    0  0.37682872095E-01 -0.43630760499E-01  0.98693759954E-01  0.88739174008E+00  0.88000000000E+00 0.  1.
        -11    1    4    4    0    0 -0.25400456053E-01  0.28808521691E-01 -0.67596923488E-01  0.77747792739E-01  0.51100000000E-03 0. -1.
         11    1    4    4    0    0 -0.26449876693E-02  0.27314414185E-01 -0.48233941281E-01  0.55496372805E-01  0.51100000000E-03 0.  1.
</event>
<event>
 8    1  0.1162192E+005  0.1043930E+01  0.7957747E-01            NaN
         13   -1    0    0    0    0  0.00000000000E+00  0.00000000000E+00  0.74505805969E-08  0.10566000000E+00  0.10566000000E+00 0.  1.
     999900   -1    0    0    0    0 -0.00000000000E+00 -0.00000000000E+00 -0.74505805969E-08  0.93827000000E+00  0.93827000000E+00 0. -1.
     999902    2    1    2    0    0 -0.71800004928E-02 -0.87324637006E-02 -0.10137851466E-01  0.10287449955E+01  0.10286329187E+01 0.  0.
     999903    2    3    3    0    0  0.19974619611E-02  0.90192308910E-01 -0.10324201295E+00  0.13827392840E+00  0.17947802019E-01 0.  0.
         14    1    1    2    0    0  0.71800004928E-02  0.87324637006E-02  0.10137851466E-01  0.15185004502E-01  0.00000000000E+00 0.  1.
     999901    1    3    3    0    0 -0.91774624539E-02 -0.98924772610E-01  0.93104161480E-01  0.89047106710E+00  0.88000000000E+00 0.  1.
        -11    1    4    4    0    0  0.43920955969E-02  0.11620812644E-01 -0.21706302340E-01  0.25015164851E-01  0.51100000000E-03 0. -1.
         11    1    4    4    0    0 -0.23946336358E-02  0.78571496266E-01 -0.81535710607E-01  0.11325876355E+00  0.51100000000E-03 0.  1.
</event>
<event>
 8    1  0.1162192E+005  0.1043930E+01  0.7957747E-01            NaN
         13   -1    0    0    0    0  0.00000000000E+00  0.00000000000E+00  0.74505805969E-08  0.10566000000E+00  0.10566000000E+00 0. -1.
     999900   -1    0    0    0    0 -0.00000000000E+00 -0.00000000000E+00 -0.74505805969E-08  0.93827000000E+00  0.93827000000E+00 0. -1.
     999902    2    1    2    0    0 -0.12401237035E-01  0.18889390034E-01 -0.65814610222E-02  0.10203945934E+01  0.10201231351E+01 0.  0.
     999903    2    3    3    0    0  0.16870229510E-01  0.13025107760E+00  0.16119738637E-02  0.13285564967E+00  0.19951875352E-01 0.  0.
         14    1    1    2    0    0  0.12401237035E-01 -0.18889390034E-01  0.65814610222E-02  0.23535406626E-01  0.00000000000E+00 0.  1.
     999901    1    3    3    0    0 -0.29271466546E-01 -0.11136168757E+00 -0.81934348859E-02  0.88753894370E+00  0.88000000000E+00 0. -1.
        -11    1    4    4    0    0  0.82055194780E-02  0.85579406684E-01  0.10096928293E-01  0.86564279471E-01  0.51100000000E-03 0. -1.
         11    1    4    4    0    0  0.86647100322E-02  0.44671670917E-01 -0.84849544294E-02  0.46291370202E-01  0.51100000000E-03 0.  1.
</event>
<event>
 8    1  0.1162192E+005  0.1043930E+01  0.7957747E-01            NaN
         13   -1    0    0    0    0  0.00000000000E+00  0.00000000000E+00  0.74505805969E-08  0.10566000000E+00  0.10566000000E+00 0. -1.
     999900   -1    0    0    0    0 -0.00000000000E+00 -0.00000000000E+00 -0.74505805969E-08  0.93827000000E+00  0.93827000000E+00 0.  1.
     999902    2    1    2    0    0  0.11613213135E-01  0.20734642661E-01 -0.47737257990E-03  0.10201598504E+01  0.10198828856E+01 0.  0.
     999903    2    3    3    0    0 -0.63447519644E-01  0.10423560528E+00 -0.45753121238E-01  0.13187137377E+00  0.20150979149E-01 0.  0.
         14    1    1    2    0    0 -0.11613213135E-01 -0.20734642661E-01  0.47737257990E-03  0.23770149561E-01  0.00000000000E+00 0.  1.
     999901    1    3    3    0    0  0.75060732779E-01 -0.83500962617E-01  0.45275748658E-01  0.88828847667E+00  0.88000000000E+00 0. -1.
        -11    1    4    4    0    0 -0.40531368679E-01  0.79063744978E-01 -0.39603984096E-01  0.97275918368E-01  0.51100000000E-03 0. -1.
         11    1    4    4    0    0 -0.22916150965E-01  0.25171860300E-01 -0.61491371422E-02  0.34595455404E-01  0.51100000000E-03 0.  1.
</event>
<event>
 8    1  0.1162192E+005  0.1043930E+01  0.7957747E-01            NaN
         13   -1    0    0    0    0  0.00000000000E+00  0.00000000000E+00  0.74505805969E-08  0.10566000000E+00  0.10566000000E+00 0.  1.
     999900   -1    0    0    0    0 -0.00000000000E+00 -0.00000000000E+00 -0.74505805969E-08  0.93827000000E+00  0.93827000000E+00 0. -1.
     999902    2    1    2    0    0  0.14299129895E-01  0.15383707942E-01  0.11679890071E-01  0.10198978670E+01  0.10196146898E+01 0.  0.
     999903    2    3    3    0    0  0.93968408001E-01 -0.39242096768E-01 -0.75631576251E-01  0.13031680570E+00  0.29871904223E-01 0.  0.
         14    1    1    2    0    0 -0.14299129895E-01 -0.15383707942E-01 -0.11679890071E-01  0.24032133028E-01  0.00000000000E+00 0. -1.
     999901    1    3    3    0    0 -0.79669278106E-01  0.54625804710E-01  0.87311466322E-01  0.88958106127E+00  0.88000000000E+00 0.  1.
        -11    1    4    4    0    0  0.37288599181E-01 -0.26343381366E-01 -0.46967041237E-01  0.65502499603E-01  0.51100000000E-03 0. -1.
         11    1    4    4    0    0  0.56679808820E-01 -0.12898715402E-01 -0.28664535014E-01  0.64814306102E-01  0.51100000000E-03 0.  1.
</event>
<event>
 8    1  0.1162192E+005  0.1043930E+01  0.7957747E-01            NaN
         13   -1    0    0    0    0  0.00000000000E+00  0.00000000000E+00  0.74505805969E-08  0.10566000000E+00  0.10566000000E+00 0.  1.
     999900   -1    0    0    0    0 -0.00000000000E+00 -0.00000000000E+00 -0.74505805969E-08  0.93827000000E+00  0.93827000000E+00 0. -1.
     999902    2    1    2    0    0  0.46532991193E-02  0.12436218443E-01 -0.20693110204E-01  0.10193430618E+01  0.10190464955E+01 0.  0.
     999903    2    3    3    0    0  0.44808321616E-01  0.12052370677E+00 -0.20039100161E-01  0.13182080363E+00  0.21009739506E-01 0.  0.
         14    1    1    2    0    0 -0.46532991193E-02 -0.12436218443E-01  0.20693110204E-01  0.24586938235E-01  0.00000000000E+00 0.  1.
     999901    1    3    3    0    0 -0.40155022496E-01 -0.10808748832E+00 -0.65401004293E-03  0.88752225814E+00  0.88000000000E+00 0. -1.
        -11    1    4    4    0    0  0.17699251477E-01  0.64259236124E-01 -0.15016563315E-02  0.66671050860E-01  0.51100000000E-03 0.  1.
         11    1    4    4    0    0  0.27109070139E-01  0.56264470644E-01 -0.18537443829E-01  0.65149752765E-01  0.51100000000E-03 0. -1.
</event>
<event>
 8    1  0.1162192E+005  0.1043930E+01  0.7957747E-01            NaN
         13   -1    0    0    0    0  0.00000000000E+00  0.00000000000E+00  0.74505805969E-08  0.10566000000E+00  0.10566000000E+00 0. -1.
     999900   -1    0    0    0    0 -0.00000000000E+00 -0.00000000000E+00 -0.74505805969E-08  0.93827000000E+00  0.93827000000E+00 0.  1.
     999902    2    1    2    0    0  0.10206034146E-01 -0.19605106421E-01  0.69614890003E-02  0.10207570490E+01  0.10204939820E+01 0.  0.
     999903    2    3    3    0    0 -0.19366900922E-01  0.10616563560E+00  0.68467542818E-01  0.12919895624E+00  0.18930051263E-01 0.  0.
         14    1    1    2    0    0 -0.10206034146E-01  0.19605106421E-01 -0.69614890003E-02  0.23172951039E-01  0.00000000000E+00 0.  1.
     999901    1    3    3    0    0  0.29572935068E-01 -0.12577074202E+00 -0.61506053818E-01  0.89155809272E+00  0.88000000000E+00 0.  1.
        -11    1    4    4    0    0 -0.11400528681E-02  0.58744188602E-01  0.36364495803E-01  0.69100051310E-01  0.51100000000E-03 0. -1.
         11    1    4    4    0    0 -0.18226848054E-01  0.47421446998E-01  0.32103047015E-01  0.60098904932E-01  0.51100000000E-03 0.  1.
</event>
<event>
 8    1  0.1162192E+005  0.1043930E+01  0.7957747E-01            NaN
         13   -1    0    0    0    0  0.00000000000E+00  0.00000000000E+00  0.74505805969E-08  0.10566000000E+00  0.10566000000E+00 0. -1.
     999900   -1    0    0    0    0 -0.00000000000E+00 -0.00000000000E+00 -0.74505805969E-08  0.93827000000E+00  0.93827000000E+00 0.  1.
     999902    2    1    2    0    0 -0.16590604969E-01  0.13076871407E-01 -0.11917396337E-01  0.10196755762E+01  0.10193870725E+01 0.  0.
     999903    2    3    3    0    0  0.42042517645E-01  0.55091517125E-01  0.10673758587E+00  0.12878721151E+00  0.19763224989E-01 0.  0.
         14    1    1    2    0    0  0.16590604969E-01 -0.13076871407E-01  0.11917396337E-01  0.24254423813E-01  0.00000000000E+00 0. -1.
     999901    1    3    3    0    0 -0.58633122614E-01 -0.42014645718E-01 -0.11865498220E+00  0.89088836468E+00  0.88000000000E+00 0.  1.
        -11    1    4    4    0    0  0.39104994615E-01  0.45280574761E-01  0.99952467422E-01  0.11649157875E+00  0.51100000000E-03 0. -1.
         11    1    4    4    0    0  0.29375230301E-02  0.98109423638E-02  0.67851184444E-02  0.12295632758E-01  0.51100000000E-03 0.  1.
</event>
<event>
 8    1  0.1162192E+005  0.1043930E+01  0.7957747E-01            NaN
         13   -1    0    0    0    0  0.00000000000E+00  0.00000000000E+00  0.74505805969E-08  0.10566000000E+00  0.10566000000E+00 0. -1.
     999900   -1    0    0    0    0 -0.00000000000E+00 -0.00000000000E+00 -0.74505805969E-08  0.93827000000E+00  0.93827000000E+00 0. -1.
     999902    2    1    2    0    0 -0.12871860390E-01 -0.80420106432E-02  0.16715383688E-01  0.10213520732E+01  0.10211024898E+01 0.  0.
     999903    2    3    3    0    0  0.97739103356E-01  0.98174225143E-02  0.85177530258E-01  0.13161008245E+00  0.20412937867E-01 0.  0.
         14    1    1    2    0    0  0.12871860390E-01  0.80420106432E-02 -0.16715383688E-01  0.22577926763E-01  0.00000000000E+00 0.  1.
     999901    1    3    3    0    0 -0.11061096375E+00 -0.17859433158E-01 -0.68462146570E-01  0.88974199079E+00  0.88000000000E+00 0. -1.
        -11    1    4    4    0    0  0.85983135811E-01  0.12335843880E-01  0.66524365343E-01  0.10941217937E+00  0.51100000000E-03 0. -1.
         11    1    4    4    0    0  0.11755967545E-01 -0.25184213653E-02  0.18653164915E-01  0.22197903086E-01  0.51100000000E-03 0.  1.
</event>
<event>
 8    1  0.1162192E+005  0.1043930E+01  0.7957747E-01            NaN
         13   -1    0    0    0    0  0.00000000000E+00  0.00000000000E+00  0.74505805969E-08  0.10566000000E+00  0.10566000000E+00 0. -1.
     999900   -1    0    0    0    0 -0.00000000000E+00 -0.00000000000E+00 -0.74505805969E-08  0.93827000000E+00  0.93827000000E+00 0. -1.
     999902    2    1    2    0    0 -0.11046128565E-01 -0.19831103203E-01  0.50235445066E-02  0.10206807933E+01  0.10204159722E+01 0.  0.
     999903    2    3    3    0    0  0.11758652565E+00 -0.43845034382E-01 -0.27317566402E-01  0.13041736263E+00  0.22659677553E-01 0.  0.
         14    1    1    2    0    0  0.11046128565E-01  0.19831103203E-01 -0.50235445066E-02  0.23249206651E-01  0.00000000000E+00 0.  1.
     999901    1    3    3    0    0 -0.12863265421E+00  0.24013931179E-01  0.32341110909E-01  0.89026343072E+00  0.88000000000E+00 0.  1.
        -11    1    4    4    0    0  0.97203470818E-02 -0.92631155885E-02 -0.76046016742E-02  0.15439609627E-01  0.51100000000E-03 0.  1.
         11    1    4    4    0    0  0.10786617857E+00 -0.34581918794E-01 -0.19712964728E-01  0.11497775300E+00  0.51100000000E-03 0. -1.
</event>
<event>
 8    1  0.1162192E+005  0.1043930E+01  0.7957747E-01            NaN
         13   -1    0    0    0    0  0.00000000000E+00  0.00000000000E+00  0.74505805969E-08  0.10566000000E+00  0.10566000000E+00 0. -1.
     999900   -1    0    0    0    0 -0.00000000000E+00 -0.00000000000E+00 -0.74505805969E-08  0.93827000000E+00  0.93827000000E+00 0.  1.
     999902    2    1    2    0    0  0.17637267539E-01 -0.17459283513E-03  0.13680864619E-01  0.10216080434E+01  0.10213641489E+01 0.  0.
     999903    2    3    3    0    0 -0.42365423251E-01  0.11500033424E+00 -0.40377750041E-01  0.13043582631E+00  0.19058754504E-01 0.  0.
         14    1    1    2    0    0 -0.17637267539E-01  0.17459283513E-03 -0.13680864619E-01  0.22321956581E-01  0.00000000000E+00 0. -1.
     999901    1    3    3    0    0  0.60002690790E-01 -0.11517492708E+00  0.54058614660E-01  0.89117221711E+00  0.88000000000E+00 0. -1.
        -11    1    4    4    0    0 -0.32675313690E-01  0.67395895001E-01 -0.18488260070E-01  0.77148944705E-01  0.51100000000E-03 0. -1.
         11    1    4    4    0    0 -0.96901095611E-02  0.47604439242E-01 -0.21889489971E-01  0.53286881604E-01  0.51100000000E-03 0.  1.
</event>
<event>
 8    1  0.1162192E+005  0.1043930E+01  0.7957747E-01            NaN
         13   -1    0    0    0    0  0.00000000000E+00  0.00000000000E+00  0.74505805969E-08  0.10566000000E+00  0.10566000000E+00 0.  1.
     999900   -1    0    0    0    0 -0.00000000000E+00 -0.00000000000E+00 -0.74505805969E-08  0.93827000000E+00  0.93827000000E+00 0. -1.
     999902    2    1    2    0    0  0.42295877412E-02  0.20313636024E-01 -0.11072144497E-01  0.10204113775E+01  0.10201403108E+01 0.  0.
     999903    2    3    3    0    0  0.12408111492E+00  0.10089683688E-01  0.35618693738E-01  0.13100204982E+00  0.19872617264E-01 0.  0.
         14    1    1    2    0    0 -0.42295877412E-02 -0.20313636024E-01  0.11072144497E-01  0.23518622509E-01  0.00000000000E+00 0.  1.
     999901    1    3    3    0    0 -0.11985152718E+00  0.10223952336E-01 -0.46690838235E-01  0.88940932767E+00  0.88000000000E+00 0.  1.
        -11    1    4    4    0    0  0.36191251273E-01 -0.45045568059E-02  0.15690223914E-01  0.39705691634E-01  0.51100000000E-03 0. -1.
         11    1    4    4    0    0  0.87889863649E-01  0.14594240494E-01  0.19928469824E-01  0.91296358188E-01  0.51100000000E-03 0.  1.
</event>
<event>
 8    1  0.1162192E+005  0.1043930E+01  0.7957747E-01            NaN
         13   -1    0    0    0    0  0.00000000000E+00  0.00000000000E+00  0.74505805969E-08  0.10566000000E+00  0.10566000000E+00 0.  1.
     999900   -1    0    0    0    0 -0.00000000000E+00 -0.00000000000E+00 -0.74505805969E-08  0.93827000000E+00  0.93827000000E+00 0.  1.
     999902    2    1    2    0    0 -0.19512744999E-01  0.13211381064E-01  0.14229375336E-02  0.10203225317E+01  0.10200493891E+01 0.  0.
     999903    2    3    3    0    0 -0.12472474014E+00  0.42292887392E-01  0.10398635056E-01  0.13353289428E+00  0.19441016398E-01 0.  0.
         14    1    1    2    0    0  0.19512744999E-01 -0.13211381064E-01 -0.14229375336E-02  0.23607468272E-01  0.00000000000E+00 0.  1.
     999901    1    3    3    0    0  0.10521199514E+00 -0.29081506328E-01 -0.89756975220E-02  0.88678963744E+00  0.88000000000E+00 0. -1.
        -11    1    4    4    0    0 -0.45574849674E-01  0.14193715817E-01 -0.54923472922E-02  0.48051591974E-01  0.51100000000E-03 0. -1.
         11    1    4    4    0    0 -0.79149890463E-01  0.28099171576E-01  0.15890982348E-01  0.85481302310E-01  0.51100000000E-03 0.  1.
</event>
<event>
 8    1  0.1162192E+005  0.1043930E+01  0.7957747E-01            NaN
         13   -1    0    0    0    0  0.00000000000E+00  0.00000000000E+00  0.74505805969E-08  0.10566000000E+00  0.10566000000E+00 0. -1.
     999900   -1    0    0    0    0 -0.00000000000E+00 -0.00000000000E+00 -0.74505805969E-08  0.93827000000E+00  0.93827000000E+00 0.  1.
     999902    2    1    2    0    0 -0.24509872658E-02  0.18779935646E-02 -0.23946285246E-01  0.10197854608E+01  0.10194995965E+01 0.  0.
     999903    2    3    3    0    0  0.28279833402E-01 -0.21947076519E-01  0.12035457533E+00  0.12718546318E+00  0.20235985193E-01 0.  0.
         14    1    1    2    0    0  0.24509872658E-02 -0.18779935646E-02  0.23946285246E-01  0.24144539248E-01  0.00000000000E+00 0. -1.
     999901    1    3    3    0    0 -0.30730820667E-01  0.23825070084E-01 -0.14430086057E+00  0.89259999757E+00  0.88000000000E+00 0.  1.
        -11    1    4    4    0    0  0.17304684945E-01 -0.76707813405E-02  0.89286769942E-01  0.91272566608E-01  0.51100000000E-03 0. -1.
         11    1    4    4    0    0  0.10975148457E-01 -0.14276295178E-01  0.31067805387E-01  0.35912896572E-01  0.51100000000E-03 0.  1.
</event>
<event>
 8    1  0.1162192E+005  0.1043930E+01  0.7957747E-01            NaN
         13   -1    0    0    0    0  0.00000000000E+00  0.00000000000E+00  0.74505805969E-08  0.10566000000E+00  0.10566000000E+00 0.  1.
     999900   -1    0    0    0    0 -0.00000000000E+00 -0.00000000000E+00 -0.74505805969E-08  0.93827000000E+00  0.93827000000E+00 0.  1.
     999902    2    1    2    0    0  0.12231725132E-01 -0.63123033868E-02 -0.13849677039E-02  0.10300960414E+01  0.10300031438E+01 0.  0.
     999903    2    3    3    0    0  0.88372472030E-01 -0.90340710071E-01 -0.59251474499E-01  0.14093535907E+00  0.19516672307E-01 0.  0.
         14    1    1    2    0    0 -0.12231725132E-01  0.63123033868E-02  0.13849677039E-02  0.13833958555E-01  0.00000000000E+00 0.  1.
     999901    1    3    3    0    0 -0.76140746897E-01  0.84028406684E-01  0.57866506795E-01  0.88916068237E+00  0.88000000000E+00 0.  1.
        -11    1    4    4    0    0  0.65224704715E-01 -0.62734324288E-01 -0.32888267714E-01  0.96289962215E-01  0.51100000000E-03 0. -1.
         11    1    4    4    0    0  0.23147767314E-01 -0.27606385783E-01 -0.26363206785E-01  0.44645396858E-01  0.51100000000E-03 0.  1.
</event>
<event>
 8    1  0.1162192E+005  0.1043930E+01  0.7957747E-01            NaN
         13   -1    0    0    0    0  0.00000000000E+00  0.00000000000E+00  0.74505805969E-08  0.10566000000E+00  0.10566000000E+00 0.  1.
     999900   -1    0    0    0    0 -0.00000000000E+00 -0.00000000000E+00 -0.74505805969E-08  0.93827000000E+00  0.93827000000E+00 0.  1.
     999902    2    1    2    0    0 -0.77453669215E-02  0.14585574755E-01 -0.17808294879E-01  0.10196428621E+01  0.10193535703E+01 0.  0.
     999903    2    3    3    0    0 -0.60204940541E-01  0.88613686256E-01  0.71069063254E-01  0.13052456125E+00  0.22557240103E-01 0.  0.
         14    1    1    2    0    0  0.77453669215E-02 -0.14585574755E-01  0.17808294879E-01  0.24287137875E-01  0.00000000000E+00 0.  1.
     999901    1    3    3    0    0  0.52459573620E-01 -0.74028111501E-01 -0.88877358133E-01  0.88911830087E+00  0.88000000000E+00 0.  1.
        -11    1    4    4    0    0 -0.52236586714E-01  0.67255425057E-01  0.46592180157E-01  0.97072372816E-01  0.51100000000E-03 0.  1.
         11    1    4    4    0    0 -0.79683538270E-02  0.21358261198E-01  0.24476883096E-01  0.33452188437E-01  0.51100000000E-03 0. -1.
</event>
<event>
 8    1  0.1162192E+005  0.1043930E+01  0.7957747E-01            NaN
         13   -1    0    0    0    0  0.00000000000E+00  0.00000000000E+00  0.74505805969E-08  0.10566000000E+00  0.10566000000E+00 0.  1.
     999900   -1    0    0    0    0 -0.00000000000E+00 -0.00000000000E+00 -0.74505805969E-08  0.93827000000E+00  0.93827000000E+00 0. -1.
     999902    2    1    2    0    0  0.11199436621E-01  0.20120847345E-01 -0.57726851180E-02  0.10201897436E+01  0.10199134832E+01 0.  0.
     999903    2    3    3    0    0 -0.11366203917E+00 -0.52086282859E-01 -0.20408424265E-01  0.12832738731E+00  0.20478636212E-01 0.  0.
         14    1    1    2    0    0 -0.11199436621E-01 -0.20120847345E-01  0.57726851180E-02  0.23740256358E-01  0.00000000000E+00 0.  1.
     999901    1    3    3    0    0  0.12486147579E+00  0.72207130203E-01  0.14635739147E-01  0.89186235634E+00  0.88000000000E+00 0.  1.
        -11    1    4    4    0    0 -0.22218158315E-01 -0.26476577010E-02  0.40689718331E-04  0.22381229342E-01  0.51100000000E-03 0.  1.
         11    1    4    4    0    0 -0.91443880856E-01 -0.49438625158E-01 -0.20449113983E-01  0.10594615796E+00  0.51100000000E-03 0. -1.
</event>
<event>
 8    1  0.1162192E+005  0.1043930E+01  0.7957747E-01            NaN
         13   -1    0    0    0    0  0.00000000000E+00  0.00000000000E+00  0.74505805969E-08  0.10566000000E+00  0.10566000000E+00 0.  1.
     999900   -1    0    0    0    0 -0.00000000000E+00 -0.00000000000E+00 -0.74505805969E-08  0.93827000000E+00  0.93827000000E+00 0. -1.
     999902    2    1    2    0    0  0.17925136370E-01 -0.10985477026E-01  0.10790537935E-01  0.10202989414E+01  0.10200252463E+01 0.  0.
     999903    2    3    3    0    0  0.92578644228E-01  0.67523217572E-01 -0.59901797051E-01  0.13084170943E+00  0.20028413772E-01 0.  0.
         14    1    1    2    0    0 -0.17925136370E-01  0.10985477026E-01 -0.10790537935E-01  0.23631058552E-01  0.00000000000E+00 0. -1.
     999901    1    3    3    0    0 -0.74653507859E-01 -0.78508694598E-01  0.70692334986E-01  0.88945723202E+00  0.88000000000E+00 0.  1.
        -11    1    4    4    0    0  0.15725102746E-01  0.18766892911E-01 -0.19298460072E-01  0.31179589607E-01  0.51100000000E-03 0. -1.
         11    1    4    4    0    0  0.76853541482E-01  0.48756324661E-01 -0.40603336978E-01  0.99662119823E-01  0.51100000000E-03 0.  1.
</event>
<event>
 8    1  0.1162192E+005  0.1043930E+01  0.7957747E-01            NaN
         13   -1    0    0    0    0  0.00000000000E+00  0.00000000000E+00  0.74505805969E-08  0.10566000000E+00  0.10566000000E+00 0. -1.
     999900   -1    0    0    0    0 -0.00000000000E+00 -0.00000000000E+00 -0.74505805969E-08  0.93827000000E+00  0.93827000000E+00 0. -1.
     999902    2    1    2    0    0  0.15311156682E-03 -0.20027009821E-01 -0.12312438867E-01  0.10204204122E+01  0.10201495562E+01 0.  0.
     999903    2    3    3    0    0  0.77880896024E-01  0.25728810649E-01 -0.10074668265E+00  0.13140082919E+00  0.19719994523E-01 0.  0.
         14    1    1    2    0    0 -0.15311156682E-03  0.20027009821E-01  0.12312438867E-01  0.23509587754E-01  0.00000000000E+00 0. -1.
     999901    1    3    3    0    0 -0.77727784457E-01 -0.45755820470E-01  0.88434243782E-01  0.88901958306E+00  0.88000000000E+00 0.  1.
        -11    1    4    4    0    0  0.27250732283E-01  0.11726037151E-01 -0.51269215610E-01  0.59235934596E-01  0.51100000000E-03 0. -1.
         11    1    4    4    0    0  0.50630163740E-01  0.14002773498E-01 -0.49477467040E-01  0.72164894593E-01  0.51100000000E-03 0.  1.
</event>
<event>
 8    1  0.1162192E+005  0.1043930E+01  0.7957747E-01            NaN
         13   -1    0    0    0    0  0.00000000000E+00  0.00000000000E+00  0.74505805969E-08  0.10566000000E+00  0.10566000000E+00 0. -1.
     999900   -1    0    0    0    0 -0.00000000000E+00 -0.00000000000E+00 -0.74505805969E-08  0.93827000000E+00  0.93827000000E+00 0.  1.
     999902    2    1    2    0    0 -0.97333015964E-02 -0.12113547090E-01  0.17954827625E-01  0.10201844527E+01  0.10199080676E+01 0.  0.
     999903    2    3    3    0    0  0.94913812175E-01 -0.15502743910E-02  0.88277844703E-01  0.13113556319E+00  0.19812192598E-01 0.  0.
         14    1    1    2    0    0  0.97333015964E-02  0.12113547090E-01 -0.17954827625E-01  0.23745547332E-01  0.00000000000E+00 0.  1.
     999901    1    3    3    0    0 -0.10464711377E+00 -0.10563272699E-01 -0.70323017078E-01  0.88904888948E+00  0.88000000000E+00 0.  1.
        -11    1    4    4    0    0  0.72067269512E-01 -0.87505538748E-02  0.71418135551E-01  0.10183847374E+00  0.51100000000E-03 0. -1.
         11    1    4    4    0    0  0.22846542663E-01  0.72002794838E-02  0.16859709152E-01  0.29297089446E-01  0.51100000000E-03 0.  1.
</event>
<event>
 8    1  0.1162192E+005  0.1043930E+01  0.7957747E-01            NaN
         13   -1    0    0    0    0  0.00000000000E+00  0.00000000000E+00  0.74505805969E-08  0.10566000000E+00  0.10566000000E+00 0. -1.
     999900   -1    0    0    0    0 -0.00000000000E+00 -0.00000000000E+00 -0.74505805969E-08  0.93827000000E+00  0.93827000000E+00 0.  1.
     999902    2    1    2    0    0 -0.32623490361E-03  0.47903477246E-02 -0.23113366592E-01  0.10203231879E+01  0.10200500607E+01 0.  0.
     999903    2    3    3    0    0 -0.10482251775E+00  0.62182842702E-01 -0.47936721809E-01  0.13193725234E+00  0.15970068930E-01 0.  0.
         14    1    1    2    0    0  0.32623490361E-03 -0.47903477246E-02  0.23113366592E-01  0.23606812062E-01  0.00000000000E+00 0. -1.
     999901    1    3    3    0    0  0.10449628285E+00 -0.57392494977E-01  0.24823355217E-01  0.88838593560E+00  0.88000000000E+00 0.  1.
        -11    1    4    4    0    0 -0.82810375311E-01  0.42265139557E-01 -0.39934083758E-01  0.10118741250E+00  0.51100000000E-03 0. -1.
         11    1    4    4    0    0 -0.22012142443E-01  0.19917703145E-01 -0.80026380518E-02  0.30749839841E-01  0.51100000000E-03 0.  1.
</event>
<event>
 8    1  0.1162192E+005  0.1043930E+01  0.7957747E-01            NaN
         13   -1    0    0    0    0  0.00000000000E+00  0.00000000000E+00  0.74505805969E-08  0.10566000000E+00  0.10566000000E+00 0.  1.
     999900   -1    0    0    0    0 -0.00000000000E+00 -0.00000000000E+00 -0.74505805969E-08  0.93827000000E+00  0.93827000000E+00 0. -1.
     999902    2    1    2    0    0 -0.56544722354E-02  0.12005919992E-01  0.19787110401E-01  0.10201047002E+01  0.10198264335E+01 0.  0.
     999903    2    3    3    0    0 -0.54242621178E-01  0.91143615851E-01 -0.73570694120E-01  0.13030738466E+00  0.17831062840E-01 0.  0.
         14    1    1    2    0    0  0.56544722354E-02 -0.12005919992E-01 -0.19787110401E-01  0.23825299770E-01  0.00000000000E+00 0. -1.
     999901    1    3    3    0    0  0.48588148943E-01 -0.79137695858E-01  0.93357804521E-01  0.88979731557E+00  0.88000000000E+00 0.  1.
        -11    1    4    4    0    0 -0.24032773758E-01  0.55669785639E-01 -0.46526795401E-01  0.76431034659E-01  0.51100000000E-03 0.  1.
         11    1    4    4    0    0 -0.30209847420E-01  0.35473830211E-01 -0.27043898719E-01  0.53876350005E-01  0.51100000000E-03 0. -1.
</event>
<event>
 8    1  0.1162192E+005  0.1043930E+01  0.7957747E-01            NaN
         13   -1    0    0    0    0  0.00000000000E+00  0.00000000000E+00  0.74505805969E-08  0.10566000000E+00  0.10566000000E+00 0.  1.
     999900   -1    0    0    0    0 -0.00000000000E+00 -0.00000000000E+00 -0.74505805969E-08  0.93827000000E+00  0.93827000000E+00 0.  1.
     999902    2    1    2    0    0 -0.86966752668E-02  0.87725795045E-02 -0.19906835253E-01  0.10205019740E+01  0.10202330158E+01 0.  0.
     999903    2    3    3    0    0  0.86445460265E-01  0.97783584104E-01 -0.49634643809E-02  0.13078387864E+00  0.67334993667E-02 0.  0.
         14    1    1    2    0    0  0.86966752668E-02 -0.87725795045E-02  0.19906835253E-01  0.23428025987E-01  0.00000000000E+00 0.  1.
     999901    1    3    3    0    0 -0.95142135532E-01 -0.89011004600E-01 -0.14943370872E-01  0.88971809537E+00  0.88000000000E+00 0. -1.
        -11    1    4    4    0    0  0.45230601568E-01  0.46860853542E-01 -0.75442041336E-03  0.65135068773E-01  0.51100000000E-03 0.  1.
         11    1    4    4    0    0  0.41214858697E-01  0.50922730562E-01 -0.42090439676E-02  0.65648809871E-01  0.51100000000E-03 0. -1.
</event>
<event>
 8    1  0.1162192E+005  0.1043930E+01  0.7957747E-01            NaN
         13   -1    0    0    0    0  0.00000000000E+00  0.00000000000E+00  0.74505805969E-08  0.10566000000E+00  0.10566000000E+00 0.  1.
     999900   -1    0    0    0    0 -0.00000000000E+00 -0.00000000000E+00 -0.74505805969E-08  0.93827000000E+00  0.93827000000E+00 0.  1.
     999902    2    1    2    0    0  0.56145709806E-02 -0.35119384218E-02 -0.22614709673E-01  0.10203655732E+01  0.10200934372E+01 0.  0.
     999903    2    3    3    0    0  0.55211378479E-01 -0.29948379936E-01  0.11036909163E+00  0.12860135535E+00  0.20292127476E-01 0.  0.
         14    1    1    2    0    0 -0.56145709806E-02  0.35119384218E-02  0.22614709673E-01  0.23564426842E-01  0.00000000000E+00 0.  1.
     999901    1    3    3    0    0 -0.49596807498E-01  0.26436441515E-01 -0.13298380130E+00  0.89176421781E+00  0.88000000000E+00 0.  1.
        -11    1    4    4    0    0  0.32319004959E-01 -0.10300447533E-01  0.73564464183E-01  0.81009930333E-01  0.51100000000E-03 0.  1.
         11    1    4    4    0    0  0.22892373520E-01 -0.19647932404E-01  0.36804627442E-01  0.47591425018E-01  0.51100000000E-03 0. -1.
</event>
<event>
 8    1  0.1162192E+005  0.1043930E+01  0.7957747E-01            NaN
         13   -1    0    0    0    0  0.00000000000E+00  0.00000000000E+00  0.74505805969E-08  0.10566000000E+00  0.10566000000E+00 0. -1.
     999900   -1    0    0    0    0 -0.00000000000E+00 -0.00000000000E+00 -0.74505805969E-08  0.93827000000E+00  0.93827000000E+00 0. -1.
     999902    2    1    2    0    0  0.87180769433E-02 -0.17608310402E-01 -0.13993579349E-01  0.10198078582E+01  0.10195225304E+01 0.  0.
     999903    2    3    3    0    0 -0.11003266649E+00  0.19879462098E-01  0.59131478041E-01  0.12803751437E+00  0.19866874044E-01 0.  0.
         14    1    1    2    0    0 -0.87180769433E-02  0.17608310402E-01  0.13993579349E-01  0.24122141775E-01  0.00000000000E+00 0. -1.
     999901    1    3    3    0    0  0.11875074343E+00 -0.37487772500E-01 -0.73125057390E-01  0.89177034385E+00  0.88000000000E+00 0. -1.
        -11    1    4    4    0    0 -0.32995340087E-01  0.98213908022E-02  0.27850337005E-01  0.44283795874E-01  0.51100000000E-03 0. -1.
         11    1    4    4    0    0 -0.77037326401E-01  0.10058071295E-01  0.31281141036E-01  0.83753718501E-01  0.51100000000E-03 0.  1.
</event>
<event>
 8    1  0.1162192E+005  0.1043930E+01  0.7957747E-01            NaN
         13   -1    0    0    0    0  0.00000000000E+00  0.00000000000E+00  0.74505805969E-08  0.10566000000E+00  0.10566000000E+00 0. -1.
     999900   -1    0    0    0    0 -0.00000000000E+00 -0.00000000000E+00 -0.74505805969E-08  0.93827000000E+00  0.93827000000E+00 0.  1.
     999902    2    1    2    0    0  0.12682597428E-02  0.21689992149E-01  0.92454284064E-02  0.10203176687E+01  0.10200444122E+01 0.  0.
     999903    2    3    3    0    0  0.14666460333E-01 -0.12381242079E+00  0.22444382782E-01  0.12817156165E+00  0.19482769229E-01 0.  0.
         14    1    1    2    0    0 -0.12682597428E-02 -0.21689992149E-01 -0.92454284064E-02  0.23612331283E-01  0.00000000000E+00 0.  1.
     999901    1    3    3    0    0 -0.13398200591E-01  0.14550241294E+00 -0.13198954376E-01  0.89214610706E+00  0.88000000000E+00 0.  1.
        -11    1    4    4    0    0  0.16486303746E-01 -0.85184291996E-01  0.90222463745E-02  0.87234304403E-01  0.51100000000E-03 0. -1.
         11    1    4    4    0    0 -0.18198434130E-02 -0.38628128798E-01  0.13422136408E-01  0.40937257251E-01  0.51100000000E-03 0.  1.
</event>
<event>
 8    1  0.1162192E+005  0.1043930E+01  0.7957747E-01            NaN
         13   -1    0    0    0    0  0.00000000000E+00  0.00000000000E+00  0.74505805969E-08  0.10566000000E+00  0.10566000000E+00 0.  1.
     999900   -1    0    0    0    0 -0.00000000000E+00 -0.00000000000E+00 -0.74505805969E-08  0.93827000000E+00  0.93827000000E+00 0.  1.
     999902    2    1    2    0    0 -0.16604404860E-01 -0.24408216176E-02  0.16918871790E-01  0.10200990937E+01  0.10198206945E+01 0.  0.
     999903    2    3    3    0    0 -0.11407975827E+00  0.98309779917E-02  0.64922740362E-01  0.13333169865E+00  0.21249477024E-01 0.  0.
         14    1    1    2    0    0  0.16604404860E-01  0.24408216176E-02 -0.16918871790E-01  0.23830906269E-01  0.00000000000E+00 0. -1.
     999901    1    3    3    0    0  0.97475353405E-01 -0.12271799609E-01 -0.48003868572E-01  0.88676739508E+00  0.88000000000E+00 0.  1.
        -11    1    4    4    0    0 -0.43370237404E-01  0.80142862205E-02  0.14369816916E-01  0.46389212488E-01  0.51100000000E-03 0. -1.
         11    1    4    4    0    0 -0.70709520861E-01  0.18166917712E-02  0.50552923447E-01  0.86942486158E-01  0.51100000000E-03 0.  1.
</event>
<event>
 8    1  0.1162192E+005  0.1043930E+01  0.7957747E-01            NaN
         13   -1    0    0    0    0  0.00000000000E+00  0.00000000000E+00  0.74505805969E-08  0.10566000000E+00  0.10566000000E+00 0. -1.
     999900   -1    0    0    0    0 -0.00000000000E+00 -0.00000000000E+00 -0.74505805969E-08  0.93827000000E+00  0.93827000000E+00 0. -1.
     999902    2    1    2    0    0  0.74658914816E-02  0.18855253512E-01  0.10930686844E-01  0.10208922042E+01  0.10206322318E+01 0.  0.
     999903    2    3    3    0    0  0.99307923934E-01  0.29096282575E-01  0.82294761061E-01  0.13318016266E+00  0.15995956118E-01 0.  0.
         14    1    1    2    0    0 -0.74658914816E-02 -0.18855253512E-01 -0.10930686844E-01  0.23037795803E-01  0.00000000000E+00 0.  1.
     999901    1    3    3    0    0 -0.91842032452E-01 -0.10241029063E-01 -0.71364074218E-01  0.88771204154E+00  0.88000000000E+00 0. -1.
        -11    1    4    4    0    0  0.93205257137E-01  0.23984297436E-01  0.72202901511E-01  0.12031619421E+00  0.51100000000E-03 0. -1.
         11    1    4    4    0    0  0.61026667966E-02  0.51119851388E-02  0.10091859551E-01  0.12863968450E-01  0.51100000000E-03 0.  1.
</event>
<event>
 8    1  0.1162192E+005  0.1043930E+01  0.7957747E-01            NaN
         13   -1    0    0    0    0  0.00000000000E+00  0.00000000000E+00  0.74505805969E-08  0.10566000000E+00  0.10566000000E+00 0. -1.
     999900   -1    0    0    0    0 -0.00000000000E+00 -0.00000000000E+00 -0.74505805969E-08  0.93827000000E+00  0.93827000000E+00 0. -1.
     999902    2    1    2    0    0  0.90764517218E-02  0.14472464123E-01 -0.15548373597E-01  0.10208305170E+01  0.10205691345E+01 0.  0.
     999903    2    3    3    0    0  0.82966446113E-01  0.10019912419E+00  0.18613924309E-01  0.13292519878E+00  0.19983358638E-01 0.  0.
         14    1    1    2    0    0 -0.90764517218E-02 -0.14472464123E-01  0.15548373597E-01  0.23099483006E-01  0.00000000000E+00 0. -1.
     999901    1    3    3    0    0 -0.73889994391E-01 -0.85726660070E-01 -0.34162297906E-01  0.88790531822E+00  0.88000000000E+00 0. -1.
        -11    1    4    4    0    0  0.47200880853E-01  0.71549563144E-01  0.10068874517E-01  0.86307047768E-01  0.51100000000E-03 0.  1.
         11    1    4    4    0    0  0.35765565260E-01  0.28649561048E-01  0.85450497915E-02  0.46618151010E-01  0.51100000000E-03 0. -1.
</event>
<event>
 8    1  0.1162192E+005  0.1043930E+01  0.7957747E-01            NaN
         13   -1    0    0    0    0  0.00000000000E+00  0.00000000000E+00  0.74505805969E-08  0.10566000000E+00  0.10566000000E+00 0.  1.
     999900   -1    0    0    0    0 -0.00000000000E+00 -0.00000000000E+00 -0.74505805969E-08  0.93827000000E+00  0.93827000000E+00 0. -1.
     999902    2    1    2    0    0  0.22320317341E-02 -0.21663049461E-01  0.72536583581E-02  0.10209760191E+01  0.10207179564E+01 0.  0.
     999903    2    3    3    0    0  0.61744629743E-01  0.87236928434E-01 -0.69427835494E-01  0.12896648668E+00  0.19734471372E-01 0.  0.
         14    1    1    2    0    0 -0.22320317341E-02  0.21663049461E-01 -0.72536583581E-02  0.22953980857E-01  0.00000000000E+00 0. -1.
     999901    1    3    3    0    0 -0.59512598009E-01 -0.10889997789E+00  0.76681493852E-01  0.89200953246E+00  0.88000000000E+00 0. -1.
        -11    1    4    4    0    0  0.34470992556E-01  0.64400167271E-01 -0.44652377228E-01  0.85613823565E-01  0.51100000000E-03 0.  1.
         11    1    4    4    0    0  0.27273637186E-01  0.22836761163E-01 -0.24775458266E-01  0.43352663114E-01  0.51100000000E-03 0. -1.
</event>
<event>
 8    1  0.1162192E+005  0.1043930E+01  0.7957747E-01            NaN
         13   -1    0    0    0    0  0.00000000000E+00  0.00000000000E+00  0.74505805969E-08  0.10566000000E+00  0.10566000000E+00 0.  1.
     999900   -1    0    0    0    0 -0.00000000000E+00 -0.00000000000E+00 -0.74505805969E-08  0.93827000000E+00  0.93827000000E+00 0.  1.
     999902    2    1    2    0    0  0.48971968107E-02 -0.22592516452E-01 -0.44109451184E-02  0.10203957532E+01  0.10201243220E+01 0.  0.
     999903    2    3    3    0    0  0.12692648247E+00  0.22172663417E-01  0.90976372778E-02  0.13074551310E+00  0.20240139221E-01 0.  0.
         14    1    1    2    0    0 -0.48971968107E-02  0.22592516452E-01  0.44109451184E-02  0.23534246813E-01  0.00000000000E+00 0.  1.
     999901    1    3    3    0    0 -0.12202928566E+00 -0.44765179868E-01 -0.13508582396E-01  0.88965024009E+00  0.88000000000E+00 0.  1.
        -11    1    4    4    0    0  0.68927713749E-01  0.21436214763E-01  0.89584995986E-02  0.72739651237E-01  0.51100000000E-03 0.  1.
         11    1    4    4    0    0  0.57998768725E-01  0.73644865356E-03  0.13913767924E-03  0.58005861863E-01  0.51100000000E-03 0. -1.
</event>
<event>
 8    1  0.1162192E+005  0.1043930E+01  0.7957747E-01            NaN
         13   -1    0    0    0    0  0.00000000000E+00  0.00000000000E+00  0.74505805969E-08  0.10566000000E+00  0.10566000000E+00 0.  1.
     999900   -1    0    0    0    0 -0.00000000000E+00 -0.00000000000E+00 -0.74505805969E-08  0.93827000000E+00  0.93827000000E+00 0. -1.
     999902    2    1    2    0    0  0.24484270190E-02  0.67204998391E-02  0.22303335247E-01  0.10205078166E+01  0.10202389941E+01 0.  0.
     999903    2    3    3    0    0  0.46414383394E-01  0.12133699207E+00 -0.33534818225E-02  0.13161624959E+00  0.20847798066E-01 0.  0.
         14    1    1    2    0    0 -0.24484270190E-02 -0.67204998391E-02 -0.22303335247E-01  0.23422183419E-01  0.00000000000E+00 0. -1.
     999901    1    3    3    0    0 -0.43965956375E-01 -0.11461649223E+00  0.25656817070E-01  0.88889156699E+00  0.88000000000E+00 0.  1.
        -11    1    4    4    0    0  0.14345729666E-01  0.50113939763E-01 -0.10508199669E-01  0.53177911764E-01  0.51100000000E-03 0. -1.
         11    1    4    4    0    0  0.32068653728E-01  0.71223052308E-01  0.71547178470E-02  0.78438337823E-01  0.51100000000E-03 0.  1.
</event>
<event>
 8    1  0.1162192E+005  0.1043930E+01  0.7957747E-01            NaN
         13   -1    0    0    0    0  0.00000000000E+00  0.00000000000E+00  0.74505805969E-08  0.10566000000E+00  0.10566000000E+00 0. -1.
     999900   -1    0    0    0    0 -0.00000000000E+00 -0.00000000000E+00 -0.74505805969E-08  0.93827000000E+00  0.93827000000E+00 0. -1.
     999902    2    1    2    0    0  0.15244938987E-01  0.78549020662E-02 -0.16914328636E-01  0.10198426140E+01  0.10195581176E+01 0.  0.
     999903    2    3    3    0    0 -0.11077380931E-01  0.52467644617E-01  0.11485686701E+00  0.12852515690E+00  0.21238030942E-01 0.  0.
         14    1    1    2    0    0 -0.15244938987E-01 -0.78549020662E-02  0.16914328636E-01  0.24087386002E-01  0.00000000000E+00 0. -1.
     999901    1    3    3    0    0  0.26322319918E-01 -0.44612742551E-01 -0.13177119564E+00  0.89131745710E+00  0.88000000000E+00 0. -1.
        -11    1    4    4    0    0  0.21759451527E-02  0.31860185591E-01  0.51571024576E-01  0.60660018629E-01  0.51100000000E-03 0. -1.
         11    1    4    4    0    0 -0.13253326084E-01  0.20607459025E-01  0.63285842430E-01  0.67865138273E-01  0.51100000000E-03 0.  1.
</event>
<event>
 8    1  0.1162192E+005  0.1043930E+01  0.7957747E-01            NaN
         13   -1    0    0    0    0  0.00000000000E+00  0.00000000000E+00  0.74505805969E-08  0.10566000000E+00  0.10566000000E+00 0. -1.
     999900   -1    0    0    0    0 -0.00000000000E+00 -0.00000000000E+00 -0.74505805969E-08  0.93827000000E+00  0.93827000000E+00 0.  1.
     999902    2    1    2    0    0  0.11592279887E-01 -0.99541168334E-02 -0.18084514587E-01  0.10202548007E+01  0.10199800700E+01 0.  0.
     999903    2    3    3    0    0  0.95180827802E-01  0.85664565227E-01  0.12996142584E-01  0.13059419969E+00  0.22093835225E-01 0.  0.
         14    1    1    2    0    0 -0.11592279887E-01  0.99541168334E-02  0.18084514587E-01  0.23675199318E-01  0.00000000000E+00 0. -1.
     999901    1    3    3    0    0 -0.83588547915E-01 -0.95618682060E-01 -0.31080657172E-01  0.88966060099E+00  0.88000000000E+00 0. -1.
        -11    1    4    4    0    0  0.24418255584E-01  0.18668693600E-01 -0.59760082847E-02  0.31316850456E-01  0.51100000000E-03 0.  1.
         11    1    4    4    0    0  0.70762572218E-01  0.66995871627E-01  0.18972150869E-01  0.99277349237E-01  0.51100000000E-03 0. -1.
</event>
<event>
 8    1  0.1162192E+005  0.1043930E+01  0.7957747E-01            NaN
         13   -1    0    0    0    0  0.00000000000E+00  0.00000000000E+00  0.74505805969E-08  0.10566000000E+00  0.10566000000E+00 0. -1.
     999900   -1    0    0    0    0 -0.00000000000E+00 -0.00000000000E+00 -0.74505805969E-08  0.93827000000E+00  0.93827000000E+00 0. -1.
     999902    2    1    2    0    0 -0.16407253079E-02 -0.64238449647E-02 -0.23241145112E-01  0.10197616614E+01  0.10194752265E+01 0.  0.
     999903    2    3    3    0    0 -0.93807329028E-01  0.66045929758E-01  0.49748759889E-01  0.12899004236E+00  0.31648255880E-01 0.  0.
         14    1    1    2    0    0  0.16407253079E-02  0.64238449647E-02  0.23241145112E-01  0.24168338581E-01  0.00000000000E+00 0.  1.
     999901    1    3    3    0    0  0.92166603720E-01 -0.72469774723E-01 -0.72989905001E-01  0.89077161906E+00  0.88000000000E+00 0. -1.
        -11    1    4    4    0    0 -0.91849047994E-01  0.53618899740E-01  0.45766067364E-01  0.11578440340E+00  0.51100000000E-03 0.  1.
         11    1    4    4    0    0 -0.19582810341E-02  0.12427030018E-01  0.39826925254E-02  0.13205638963E-01  0.51100000000E-03 0. -1.
</event>
<event>
 8    1  0.1162192E+005  0.1043930E+01  0.7957747E-01            NaN
         13   -1    0    0    0    0  0.00000000000E+00  0.00000000000E+00  0.74505805969E-08  0.10566000000E+00  0.10566000000E+00 0.  1.
     999900   -1    0    0    0    0 -0.00000000000E+00 -0.00000000000E+00 -0.74505805969E-08  0.93827000000E+00  0.93827000000E+00 0.  1.
     999902    2    1    2    0    0  0.22744444581E-01  0.71644277103E-02  0.47208392221E-02  0.10196210488E+01  0.10193312308E+01 0.  0.
     999903    2    3    3    0    0 -0.10025604583E-01  0.12350497602E+00  0.36801103237E-01  0.13078015045E+00  0.19877995489E-01 0.  0.
         14    1    1    2    0    0 -0.22744444581E-01 -0.71644277103E-02 -0.47208392221E-02  0.24308951164E-01  0.00000000000E+00 0.  1.
     999901    1    3    3    0    0  0.32770049164E-01 -0.11634054831E+00 -0.32080264015E-01  0.88884089838E+00  0.88000000000E+00 0.  1.
        -11    1    4    4    0    0 -0.12658309077E-01  0.40493827659E-01  0.13292343651E-01  0.44462685343E-01  0.51100000000E-03 0.  1.
         11    1    4    4    0    0  0.26327044937E-02  0.83011148357E-01  0.23508759586E-01  0.86317465108E-01  0.51100000000E-03 0. -1.
</event>
<event>
 8    1  0.1162192E+005  0.1043930E+01  0.7957747E-01            NaN
         13   -1    0    0    0    0  0.00000000000E+00  0.00000000000E+00  0.74505805969E-08  0.10566000000E+00  0.10566000000E+00 0. -1.
     999900   -1    0    0    0    0 -0.00000000000E+00 -0.00000000000E+00 -0.74505805969E-08  0.93827000000E+00  0.93827000000E+00 0.  1.
     999902    2    1    2    0    0  0.71637277942E-02 -0.19599807966E-01  0.11035239193E-01  0.10203238997E+01  0.10200507891E+01 0.  0.
     999903    2    3    3    0    0  0.95133566432E-01  0.64802775941E-01  0.60623421120E-01  0.13053657876E+00  0.10714661687E-01 0.  0.
         14    1    1    2    0    0 -0.71637277942E-02  0.19599807966E-01 -0.11035239193E-01  0.23606100319E-01  0.00000000000E+00 0.  1.
     999901    1    3    3    0    0 -0.87969838638E-01 -0.84402583907E-01 -0.49588181927E-01  0.88978732092E+00  0.88000000000E+00 0.  1.
        -11    1    4    4    0    0  0.28608387075E-01  0.17357972079E-01  0.12616188900E-01  0.35765463077E-01  0.51100000000E-03 0. -1.
         11    1    4    4    0    0  0.66525179357E-01  0.47444803862E-01  0.48007232219E-01  0.94771115686E-01  0.51100000000E-03 0.  1.
</event>
<event>
 8    1  0.1162192E+005  0.1043930E+01  0.7957747E-01            NaN
         13   -1    0    0    0    0  0.00000000000E+00  0.00000000000E+00  0.74505805969E-08  0.10566000000E+00  0.10566000000E+00 0. -1.
     999900   -1    0    0    0    0 -0.00000000000E+00 -0.00000000000E+00 -0.74505805969E-08  0.93827000000E+00  0.93827000000E+00 0. -1.
     999902    2    1    2    0    0 -0.23520076770E-01 -0.27073881391E-03  0.72979374488E-03  0.10203970463E+01  0.10201256453E+01 0.  0.
     999903    2    3    3    0    0 -0.71661522387E-01  0.10399951883E+00  0.34043325563E-01  0.13230939476E+00  0.19888544964E-01 0.  0.
         14    1    1    2    0    0  0.23520076770E-01  0.27073881391E-03 -0.72979374488E-03  0.23532953696E-01  0.00000000000E+00 0. -1.
     999901    1    3    3    0    0  0.48141445618E-01 -0.10427025764E+00 -0.33313531818E-01  0.88808765154E+00  0.88000000000E+00 0.  1.
        -11    1    4    4    0    0 -0.21469600488E-01  0.33411362819E-01  0.13859873937E-02  0.39742231852E-01  0.51100000000E-03 0.  1.
         11    1    4    4    0    0 -0.50191921900E-01  0.70588156007E-01  0.32657338170E-01  0.92567162913E-01  0.51100000000E-03 0. -1.
</event>
<event>
 8    1  0.1162192E+005  0.1043930E+01  0.7957747E-01            NaN
         13   -1    0    0    0    0  0.00000000000E+00  0.00000000000E+00  0.74505805969E-08  0.10566000000E+00  0.10566000000E+00 0.  1.
     999900   -1    0    0    0    0 -0.00000000000E+00 -0.00000000000E+00 -0.74505805969E-08  0.93827000000E+00  0.93827000000E+00 0. -1.
     999902    2    1    2    0    0  0.16157581793E-01  0.15915100733E-01  0.20448374433E-01  0.10133932369E+01  0.10129330475E+01 0.  0.
     999903    2    3    3    0    0  0.77547978958E-01 -0.47552125373E-02  0.99251600997E-01  0.12750047186E+00  0.19214289940E-01 0.  0.
         14    1    1    2    0    0 -0.16157581793E-01 -0.15915100733E-01 -0.20448374433E-01  0.30536763052E-01  0.00000000000E+00 0. -1.
     999901    1    3    3    0    0 -0.61390397165E-01  0.20670313270E-01 -0.78803226564E-01  0.88589276509E+00  0.88000000000E+00 0. -1.
        -11    1    4    4    0    0  0.76229180577E-01 -0.12428977872E-02  0.94192423869E-01  0.12118129642E+00  0.51100000000E-03 0. -1.
         11    1    4    4    0    0  0.13187983803E-02 -0.35123147501E-02  0.50591771277E-02  0.63191754432E-02  0.51100000000E-03 0.  1.
</event>
<event>
 8    1  0.1162192E+005  0.1043930E+01  0.7957747E-01            NaN
         13   -1    0    0    0    0  0.00000000000E+00  0.00000000000E+00  0.74505805969E-08  0.10566000000E+00  0.10566000000E+00 0.  1.
     999900   -1    0    0    0    0 -0.00000000000E+00 -0.00000000000E+00 -0.74505805969E-08  0.93827000000E+00  0.93827000000E+00 0.  1.
     999902    2    1    2    0    0 -0.14946433974E-01 -0.20188569780E-01  0.24191535333E-01  0.10090558746E+01  0.10084530497E+01 0.  0.
     999903    2    3    3    0    0  0.26911637061E-01 -0.10624705567E+00  0.53042290276E-01  0.12339762950E+00  0.20020423623E-01 0.  0.
         14    1    1    2    0    0  0.14946433974E-01  0.20188569780E-01 -0.24191535333E-01  0.34874125366E-01  0.00000000000E+00 0. -1.
     999901    1    3    3    0    0 -0.41858071035E-01  0.86058485889E-01 -0.28850754943E-01  0.88565824513E+00  0.88000000000E+00 0.  1.
        -11    1    4    4    0    0  0.12994835809E-01 -0.27847442172E-01  0.22602782159E-01  0.38150919721E-01  0.51100000000E-03 0. -1.
         11    1    4    4    0    0  0.13916801253E-01 -0.78399613497E-01  0.30439508117E-01  0.85246709784E-01  0.51100000000E-03 0.  1.
</event>
<event>
 8    1  0.1162192E+005  0.1043930E+01  0.7957747E-01            NaN
         13   -1    0    0    0    0  0.00000000000E+00  0.00000000000E+00  0.74505805969E-08  0.10566000000E+00  0.10566000000E+00 0. -1.
     999900   -1    0    0    0    0 -0.00000000000E+00 -0.00000000000E+00 -0.74505805969E-08  0.93827000000E+00  0.93827000000E+00 0.  1.
     999902    2    1    2    0    0 -0.51293042395E-02 -0.75731836056E-02 -0.12727867977E-01  0.10282564077E+01  0.10281369454E+01 0.  0.
     999903    2    3    3    0    0 -0.59353026163E-01 -0.35342854857E-01  0.11635101368E+00  0.13675614167E+00  0.19818799096E-01 0.  0.
         14    1    1    2    0    0  0.51293042395E-02  0.75731836056E-02  0.12727867977E-01  0.15673592286E-01  0.00000000000E+00 0. -1.
     999901    1    3    3    0    0  0.54223721923E-01  0.27769671252E-01 -0.12907888165E+00  0.89150026604E+00  0.88000000000E+00 0.  1.
        -11    1    4    4    0    0 -0.33982733633E-01 -0.92321078466E-02  0.51658744839E-01  0.62521556600E-01  0.51100000000E-03 0.  1.
         11    1    4    4    0    0 -0.25370292530E-01 -0.26110747011E-01  0.64692268839E-01  0.74234585073E-01  0.51100000000E-03 0. -1.
</event>
<event>
 8    1  0.1162192E+005  0.1043930E+01  0.7957747E-01            NaN
         13   -1    0    0    0    0  0.00000000000E+00  0.00000000000E+00  0.74505805969E-08  0.10566000000E+00  0.10566000000E+00 0. -1.
     999900   -1    0    0    0    0 -0.00000000000E+00 -0.00000000000E+00 -0.74505805969E-08  0.93827000000E+00  0.93827000000E+00 0. -1.
     999902    2    1    2    0    0  0.15248317275E-01 -0.10113918671E-01 -0.15244530633E-01  0.10201140758E+01  0.10198360307E+01 0.  0.
     999903    2    3    3    0    0  0.45200391594E-01 -0.73986817297E-01 -0.99280473025E-01  0.13330016436E+00  0.19879561367E-01 0.  0.
         14    1    1    2    0    0 -0.15248317275E-01  0.10113918671E-01  0.15244530633E-01  0.23815924186E-01  0.00000000000E+00 0. -1.
     999901    1    3    3    0    0 -0.29952074318E-01  0.63872898626E-01  0.84035942392E-01  0.88681391145E+00  0.88000000000E+00 0.  1.
        -11    1    4    4    0    0  0.17292211287E-01 -0.31329764230E-01 -0.55836561094E-01  0.66321620710E-01  0.51100000000E-03 0.  1.
         11    1    4    4    0    0  0.27908180306E-01 -0.42657053068E-01 -0.43443911932E-01  0.66978543649E-01  0.51100000000E-03 0. -1.
</event>
<event>
 8    1  0.1162192E+005  0.1043930E+01  0.7957747E-01            NaN
         13   -1    0    0    0    0  0.00000000000E+00  0.00000000000E+00  0.74505805969E-08  0.10566000000E+00  0.10566000000E+00 0.  1.
     999900   -1    0    0    0    0 -0.00000000000E+00 -0.00000000000E+00 -0.74505805969E-08  0.93827000000E+00  0.93827000000E+00 0. -1.
     999902    2    1    2    0    0 -0.22999412883E-01  0.12222697473E-01  0.86078869329E-03  0.10178702939E+01  0.10175366464E+01 0.  0.
     999903    2    3    3    0    0  0.71024970347E-02 -0.96044173321E-01 -0.80457823292E-01  0.12700523285E+00  0.19543263511E-01 0.  0.
         14    1    1    2    0    0  0.22999412883E-01 -0.12222697473E-01 -0.86078869329E-03  0.26059706132E-01  0.00000000000E+00 0.  1.
     999901    1    3    3    0    0 -0.30101909918E-01  0.10826687079E+00  0.81318611985E-01  0.89086506102E+00  0.88000000000E+00 0.  1.
        -11    1    4    4    0    0  0.13500753659E-01 -0.51543375156E-01 -0.42253917106E-01  0.68004738832E-01  0.51100000000E-03 0.  1.
         11    1    4    4    0    0 -0.63982566242E-02 -0.44500798165E-01 -0.38203906186E-01  0.59000494015E-01  0.51100000000E-03 0. -1.
</event>
<event>
 8    1  0.1162192E+005  0.1043930E+01  0.7957747E-01            NaN
         13   -1    0    0    0    0  0.00000000000E+00  0.00000000000E+00  0.74505805969E-08  0.10566000000E+00  0.10566000000E+00 0.  1.
     999900   -1    0    0    0    0 -0.00000000000E+00 -0.00000000000E+00 -0.74505805969E-08  0.93827000000E+00  0.93827000000E+00 0.  1.
     999902    2    1    2    0    0 -0.77197447235E-02  0.14840698412E-01  0.20028446491E-01  0.10178344169E+01  0.10174998382E+01 0.  0.
     999903    2    3    3    0    0 -0.66548544458E-02  0.12717514244E+00  0.21655825748E-01  0.13069135648E+00  0.19835622672E-01 0.  0.
         14    1    1    2    0    0  0.77197447235E-02 -0.14840698412E-01 -0.20028446491E-01  0.26095583090E-01  0.00000000000E+00 0. -1.
     999901    1    3    3    0    0 -0.10648902777E-02 -0.11233444403E+00 -0.16273792574E-02  0.88714306043E+00  0.88000000000E+00 0. -1.
        -11    1    4    4    0    0  0.44983320598E-02  0.77969356364E-01  0.85979093014E-02  0.78572518659E-01  0.51100000000E-03 0. -1.
         11    1    4    4    0    0 -0.11153186506E-01  0.49205786079E-01  0.13057916447E-01  0.52118837821E-01  0.51100000000E-03 0.  1.
</event>
<event>
 8    1  0.1162192E+005  0.1043930E+01  0.7957747E-01            NaN
         13   -1    0    0    0    0  0.00000000000E+00  0.00000000000E+00  0.74505805969E-08  0.10566000000E+00  0.10566000000E+00 0. -1.
     999900   -1    0    0    0    0 -0.00000000000E+00 -0.00000000000E+00 -0.74505805969E-08  0.93827000000E+00  0.93827000000E+00 0. -1.
     999902    2    1    2    0    0 -0.67223885899E-02 -0.16068031654E-01  0.16312389177E-01  0.10200665093E+01  0.10197873392E+01 0.  0.
     999903    2    3    3    0    0  0.51142300207E-01  0.62822895208E-02  0.11997989358E+00  0.13181271077E+00  0.18011491496E-01 0.  0.
         14    1    1    2    0    0  0.67223885899E-02  0.16068031654E-01 -0.16312389177E-01  0.23863490739E-01  0.00000000000E+00 0.  1.
     999901    1    3    3    0    0 -0.57864688797E-01 -0.22350321175E-01 -0.10366750440E+00  0.88825379849E+00  0.88000000000E+00 0. -1.
        -11    1    4    4    0    0  0.35921802884E-01  0.11725159891E-01  0.92581961686E-01  0.99997680211E-01  0.51100000000E-03 0.  1.
         11    1    4    4    0    0  0.15220497323E-01 -0.54428703701E-02  0.27397931889E-01  0.31815030559E-01  0.51100000000E-03 0. -1.
</event>
<event>
 8    1  0.1162192E+005  0.1043930E+01  0.7957747E-01            NaN
         13   -1    0    0    0    0  0.00000000000E+00  0.00000000000E+00  0.74505805969E-08  0.10566000000E+00  0.10566000000E+00 0. -1.
     999900   -1    0    0    0    0 -0.00000000000E+00 -0.00000000000E+00 -0.74505805969E-08  0.93827000000E+00  0.93827000000E+00 0. -1.
     999902    2    1    2    0    0 -0.23617932866E-01  0.16611123927E-02  0.21748842307E-02  0.10201540422E+01  0.10198769405E+01 0.  0.
     999903    2    3    3    0    0  0.53937375215E-02 -0.11279430719E+00  0.61589362224E-01  0.13028225353E+00  0.20701881751E-01 0.  0.
         14    1    1    2    0    0  0.23617932866E-01 -0.16611123927E-02 -0.21748842307E-02  0.23775957787E-01  0.00000000000E+00 0.  1.
     999901    1    3    3    0    0 -0.29011670388E-01  0.11445541958E+00 -0.59414477993E-01  0.88987178868E+00  0.88000000000E+00 0.  1.
        -11    1    4    4    0    0 -0.64298789449E-02 -0.21412340651E-01  0.15844957573E-01  0.27407215781E-01  0.51100000000E-03 0. -1.
         11    1    4    4    0    0  0.11823616466E-01 -0.91381966540E-01  0.45744404651E-01  0.10287503775E+00  0.51100000000E-03 0.  1.
</event>
<event>
 8    1  0.1162192E+005  0.1043930E+01  0.7957747E-01            NaN
         13   -1    0    0    0    0  0.00000000000E+00  0.00000000000E+00  0.74505805969E-08  0.10566000000E+00  0.10566000000E+00 0.  1.
     999900   -1    0    0    0    0 -0.00000000000E+00 -0.00000000000E+00 -0.74505805969E-08  0.93827000000E+00  0.93827000000E+00 0. -1.
     999902    2    1    2    0    0  0.48252197157E-02 -0.23323723129E-01 -0.11029950437E-02  0.10200868583E+01  0.10198081698E+01 0.  0.
     999903    2    3    3    0    0 -0.43493684840E-01  0.11261028045E+00  0.36029593444E-01  0.12756705521E+00  0.20061058971E-01 0.  0.
         14    1    1    2    0    0 -0.48252197157E-02  0.23323723129E-01  0.11029950437E-02  0.23843141655E-01  0.00000000000E+00 0.  1.
     999901    1    3    3    0    0  0.48318904555E-01 -0.13593400358E+00 -0.37132588487E-01  0.89251980314E+00  0.88000000000E+00 0. -1.
        -11    1    4    4    0    0 -0.36713200299E-01  0.78922716437E-01  0.18508511820E-01  0.88991462381E-01  0.51100000000E-03 0. -1.
         11    1    4    4    0    0 -0.67804845407E-02  0.33687564011E-01  0.17521081624E-01  0.38575592826E-01  0.51100000000E-03 0.  1.
</event>
<event>
 8    1  0.1162192E+005  0.1043930E+01  0.7957747E-01            NaN
         13   -1    0    0    0    0  0.00000000000E+00  0.00000000000E+00  0.74505805969E-08  0.10566000000E+00  0.10566000000E+00 0. -1.
     999900   -1    0    0    0    0 -0.00000000000E+00 -0.00000000000E+00 -0.74505805969E-08  0.93827000000E+00  0.93827000000E+00 0.  1.
     999902    2    1    2    0    0  0.11567987574E-01  0.11017236930E-01  0.17717393407E-01  0.10200741019E+01  0.10197951115E+01 0.  0.
     999903    2    3    3    0    0  0.83673241303E-01 -0.46314778628E-01 -0.84843585509E-01  0.12934132376E+00  0.19608008554E-01 0.  0.
         14    1    1    2    0    0 -0.11567987574E-01 -0.11017236930E-01 -0.17717393407E-01  0.23855898123E-01  0.00000000000E+00 0.  1.
     999901    1    3    3    0    0 -0.72105253729E-01  0.57332015559E-01  0.10256097892E+00  0.89073277812E+00  0.88000000000E+00 0.  1.
        -11    1    4    4    0    0  0.57137831417E-01 -0.22910231350E-01 -0.46388972442E-01  0.77083126330E-01  0.51100000000E-03 0.  1.
         11    1    4    4    0    0  0.26535409886E-01 -0.23404547279E-01 -0.38454613067E-01  0.52258197426E-01  0.51100000000E-03 0. -1.
</event>
<event>
 8    1  0.1162192E+005  0.1043930E+01  0.7957747E-01            NaN
         13   -1    0    0    0    0  0.00000000000E+00  0.00000000000E+00  0.74505805969E-08  0.10566000000E+00  0.10566000000E+00 0.  1.
     999900   -1    0    0    0    0 -0.00000000000E+00 -0.00000000000E+00 -0.74505805969E-08  0.93827000000E+00  0.93827000000E+00 0. -1.
     999902    2    1    2    0    0 -0.82690891469E-02 -0.17181687863E-01  0.13128756307E-01  0.10207793526E+01  0.10205167976E+01 0.  0.
     999903    2    3    3    0    0  0.99148626100E-02  0.30901118667E-01 -0.12303759135E+00  0.12882426033E+00  0.20106156454E-01 0.  0.
         14    1    1    2    0    0  0.82690891469E-02  0.17181687863E-01 -0.13128756307E-01  0.23150647406E-01  0.00000000000E+00 0. -1.
     999901    1    3    3    0    0 -0.18183951757E-01 -0.48082806530E-01  0.13616634766E+00  0.89195509227E+00  0.88000000000E+00 0.  1.
        -11    1    4    4    0    0  0.13029227645E-01  0.31986787934E-01 -0.10679671116E+00  0.11224399320E+00  0.51100000000E-03 0.  1.
         11    1    4    4    0    0 -0.31143650351E-02 -0.10856692673E-02 -0.16240880197E-01  0.16580267124E-01  0.51100000000E-03 0. -1.
</event>
<event>
 8    1  0.1162192E+005  0.1043930E+01  0.7957747E-01            NaN
         13   -1    0    0    0    0  0.00000000000E+00  0.00000000000E+00  0.74505805969E-08  0.10566000000E+00  0.10566000000E+00 0. -1.
     999900   -1    0    0    0    0 -0.00000000000E+00 -0.00000000000E+00 -0.74505805969E-08  0.93827000000E+00  0.93827000000E+00 0. -1.
     999902    2    1    2    0    0  0.26008933803E-02  0.23072394722E-01  0.36357136363E-02  0.10204285435E+01  0.10201578770E+01 0.  0.
     999903    2    3    3    0    0 -0.90552736554E-01 -0.88761940725E-01 -0.58173075134E-02  0.12842300709E+00  0.19497370707E-01 0.  0.
         14    1    1    2    0    0 -0.26008933803E-02 -0.23072394722E-01 -0.36357136363E-02  0.23501456513E-01  0.00000000000E+00 0. -1.
     999901    1    3    3    0    0  0.93153629935E-01  0.11183433545E+00  0.94530211498E-02  0.89200553640E+00  0.88000000000E+00 0. -1.
        -11    1    4    4    0    0 -0.30073071994E-02 -0.52091773720E-02 -0.42704581634E-02  0.73944140681E-02  0.51100000000E-03 0. -1.
         11    1    4    4    0    0 -0.87545429355E-01 -0.83552763353E-01 -0.15468493500E-02  0.12102859302E+00  0.51100000000E-03 0.  1.
</event>
<event>
 8    1  0.1162192E+005  0.1043930E+01  0.7957747E-01            NaN
         13   -1    0    0    0    0  0.00000000000E+00  0.00000000000E+00  0.74505805969E-08  0.10566000000E+00  0.10566000000E+00 0. -1.
     999900   -1    0    0    0    0 -0.00000000000E+00 -0.00000000000E+00 -0.74505805969E-08  0.93827000000E+00  0.93827000000E+00 0.  1.
     999902    2    1    2    0    0  0.81942488982E-02 -0.29745930812E-02  0.22630478528E-01  0.10196785572E+01  0.10193901253E+01 0.  0.
     999903    2    3    3    0    0  0.57600640016E-01  0.57019175032E-01 -0.97255794348E-01  0.12815572401E+00  0.19904271154E-01 0.  0.
         14    1    1    2    0    0 -0.81942488982E-02  0.29745930812E-02 -0.22630478528E-01  0.24251442791E-01  0.00000000000E+00 0.  1.
     999901    1    3    3    0    0 -0.49406391117E-01 -0.59993768114E-01  0.11988627288E+00  0.89152283320E+00  0.88000000000E+00 0. -1.
        -11    1    4    4    0    0  0.47248435711E-01  0.46354743992E-01 -0.65657309588E-01  0.93232614417E-01  0.51100000000E-03 0. -1.
         11    1    4    4    0    0  0.10352204305E-01  0.10664431041E-01 -0.31598484760E-01  0.34923109591E-01  0.51100000000E-03 0.  1.
</event>
<event>
 8    1  0.1162192E+005  0.1043930E+01  0.7957747E-01            NaN
         13   -1    0    0    0    0  0.00000000000E+00  0.00000000000E+00  0.74505805969E-08  0.10566000000E+00  0.10566000000E+00 0.  1.
     999900   -1    0    0    0    0 -0.00000000000E+00 -0.00000000000E+00 -0.74505805969E-08  0.93827000000E+00  0.93827000000E+00 0.  1.
     999902    2    1    2    0    0  0.67981931781E-02 -0.21051603127E-01  0.12866275227E-01  0.10183384689E+01  0.10180168519E+01 0.  0.
     999903    2    3    3    0    0 -0.73503629250E-01  0.72464809736E-01  0.72577705436E-01  0.12774363565E+00  0.19924381008E-01 0.  0.
         14    1    1    2    0    0 -0.67981931781E-02  0.21051603127E-01 -0.12866275227E-01  0.25591531078E-01  0.00000000000E+00 0.  1.
     999901    1    3    3    0    0  0.80301822428E-01 -0.93516412863E-01 -0.59711430209E-01  0.89059483328E+00  0.88000000000E+00 0.  1.
        -11    1    4    4    0    0 -0.38614452944E-01  0.39529714816E-01  0.26762937488E-01  0.61401875163E-01  0.51100000000E-03 0. -1.
         11    1    4    4    0    0 -0.34889176306E-01  0.32935094920E-01  0.45814767949E-01  0.66341760482E-01  0.51100000000E-03 0.  1.
</event>
<event>
 8    1  0.1162192E+005  0.1043930E+01  0.7957747E-01            NaN
         13   -1    0    0    0    0  0.00000000000E+00  0.00000000000E+00  0.74505805969E-08  0.10566000000E+00  0.10566000000E+00 0.  1.
     999900   -1    0    0    0    0 -0.00000000000E+00 -0.00000000000E+00 -0.74505805969E-08  0.93827000000E+00  0.93827000000E+00 0. -1.
     999902    2    1    2    0    0  0.18493206682E-01  0.14753118276E-01 -0.31985621125E-03  0.10202708474E+01  0.10199964934E+01 0.  0.
     999903    2    3    3    0    0  0.12356475531E+00  0.33775826219E-01 -0.34849872599E-01  0.13314390286E+00  0.10184795383E-01 0.  0.
         14    1    1    2    0    0 -0.18493206682E-01 -0.14753118276E-01  0.31985621125E-03  0.23659152569E-01  0.00000000000E+00 0. -1.
     999901    1    3    3    0    0 -0.10507154863E+00 -0.19022707943E-01  0.34530016388E-01  0.88712694457E+00  0.88000000000E+00 0. -1.
        -11    1    4    4    0    0  0.10296862831E+00  0.29958108317E-01 -0.32518927683E-01  0.11206144943E+00  0.51100000000E-03 0.  1.
         11    1    4    4    0    0  0.20596126998E-01  0.38177179026E-02 -0.23309449167E-02  0.21082453427E-01  0.51100000000E-03 0. -1.
</event>
<event>
 8    1  0.1162192E+005  0.1043930E+01  0.7957747E-01            NaN
         13   -1    0    0    0    0  0.00000000000E+00  0.00000000000E+00  0.74505805969E-08  0.10566000000E+00  0.10566000000E+00 0.  1.
     999900   -1    0    0    0    0 -0.00000000000E+00 -0.00000000000E+00 -0.74505805969E-08  0.93827000000E+00  0.93827000000E+00 0. -1.
     999902    2    1    2    0    0  0.19043518599E-01  0.11176034701E-01  0.11553017566E-01  0.10190094950E+01  0.10187047263E+01 0.  0.
     999903    2    3    3    0    0  0.59116000185E-01 -0.62132503966E-01  0.96621276822E-01  0.13096864331E+00  0.21493368011E-01 0.  0.
         14    1    1    2    0    0 -0.19043518599E-01 -0.11176034701E-01 -0.11553017566E-01  0.24920504953E-01  0.00000000000E+00 0. -1.
     999901    1    3    3    0    0 -0.40072481587E-01  0.73308538667E-01 -0.85068259256E-01  0.88804085174E+00  0.88000000000E+00 0. -1.
        -11    1    4    4    0    0  0.14535334297E-01 -0.29499227055E-01  0.31146195698E-01  0.45297096678E-01  0.51100000000E-03 0.  1.
         11    1    4    4    0    0  0.44580665888E-01 -0.32633276911E-01  0.65475081124E-01  0.85671546631E-01  0.51100000000E-03 0. -1.
</event>
<event>
 8    1  0.1162192E+005  0.1043930E+01  0.7957747E-01            NaN
         13   -1    0    0    0    0  0.00000000000E+00  0.00000000000E+00  0.74505805969E-08  0.10566000000E+00  0.10566000000E+00 0.  1.
     999900   -1    0    0    0    0 -0.00000000000E+00 -0.00000000000E+00 -0.74505805969E-08  0.93827000000E+00  0.93827000000E+00 0.  1.
     999902    2    1    2    0    0  0.56111235007E-02 -0.18252146042E-01 -0.14192553546E-01  0.10201381081E+01  0.10198606305E+01 0.  0.
     999903    2    3    3    0    0 -0.52677021180E-01 -0.80369212775E-01 -0.89390540897E-01  0.13283276324E+00  0.20488905911E-01 0.  0.
         14    1    1    2    0    0 -0.56111235007E-02  0.18252146042E-01  0.14192553546E-01  0.23791891860E-01  0.00000000000E+00 0. -1.
     999901    1    3    3    0    0  0.58288144680E-01  0.62117066732E-01  0.75197987351E-01  0.88730534490E+00  0.88000000000E+00 0.  1.
        -11    1    4    4    0    0 -0.68280934745E-02 -0.26111455376E-01 -0.20711690228E-01  0.34024494051E-01  0.51100000000E-03 0. -1.
         11    1    4    4    0    0 -0.45848927705E-01 -0.54257757399E-01 -0.68678850669E-01  0.98808269187E-01  0.51100000000E-03 0.  1.
</event>
<event>
 8    1  0.1162192E+005  0.1043930E+01  0.7957747E-01            NaN
         13   -1    0    0    0    0  0.00000000000E+00  0.00000000000E+00  0.74505805969E-08  0.10566000000E+00  0.10566000000E+00 0.  1.
     999900   -1    0    0    0    0 -0.00000000000E+00 -0.00000000000E+00 -0.74505805969E-08  0.93827000000E+00  0.93827000000E+00 0. -1.
     999902    2    1    2    0    0  0.81069031433E-02  0.19156700840E-01  0.74313967842E-02  0.10218409366E+01  0.10216021598E+01 0.  0.
     999903    2    3    3    0    0 -0.78603806422E-01 -0.91664080983E-01 -0.42660924974E-01  0.12925523561E+00  0.17495693357E-01 0.  0.
         14    1    1    2    0    0 -0.81069031433E-02 -0.19156700840E-01 -0.74313967842E-02  0.22089063444E-01  0.00000000000E+00 0. -1.
     999901    1    3    3    0    0  0.86710709565E-01  0.11082078182E+00  0.50092321759E-01  0.89258570095E+00  0.88000000000E+00 0.  1.
        -11    1    4    4    0    0 -0.67417714342E-01 -0.70461949990E-01 -0.38861308245E-01  0.10497855497E+00  0.51100000000E-03 0. -1.
         11    1    4    4    0    0 -0.11186092080E-01 -0.21202130993E-01 -0.37996167296E-02  0.24276680642E-01  0.51100000000E-03 0.  1.
</event>
<event>
 8    1  0.1162192E+005  0.1043930E+01  0.7957747E-01            NaN
         13   -1    0    0    0    0  0.00000000000E+00  0.00000000000E+00  0.74505805969E-08  0.10566000000E+00  0.10566000000E+00 0. -1.
     999900   -1    0    0    0    0 -0.00000000000E+00 -0.00000000000E+00 -0.74505805969E-08  0.93827000000E+00  0.93827000000E+00 0.  1.
     999902    2    1    2    0    0 -0.21108172166E-01  0.29309161899E-02 -0.13891529068E-01  0.10184914509E+01  0.10181737159E+01 0.  0.
     999903    2    3    3    0    0  0.10681897949E+00 -0.64717941018E-01 -0.40805721420E-02  0.12661815332E+00  0.20415665823E-01 0.  0.
         14    1    1    2    0    0  0.21108172166E-01 -0.29309161899E-02  0.13891529068E-01  0.25438549128E-01  0.00000000000E+00 0.  1.
     999901    1    3    3    0    0 -0.12792715166E+00  0.67648857208E-01 -0.98109569264E-02  0.89187329755E+00  0.88000000000E+00 0.  1.
        -11    1    4    4    0    0  0.44312631361E-01 -0.15347186224E-01 -0.13492295039E-02  0.46917235259E-01  0.51100000000E-03 0. -1.
         11    1    4    4    0    0  0.62506348133E-01 -0.49370754794E-01 -0.27313426381E-02  0.79700918059E-01  0.51100000000E-03 0.  1.
</event>
<event>
 8    1  0.1162192E+005  0.1043930E+01  0.7957747E-01            NaN
         13   -1    0    0    0    0  0.00000000000E+00  0.00000000000E+00  0.74505805969E-08  0.10566000000E+00  0.10566000000E+00 0. -1.
     999900   -1    0    0    0    0 -0.00000000000E+00 -0.00000000000E+00 -0.74505805969E-08  0.93827000000E+00  0.93827000000E+00 0. -1.
     999902    2    1    2    0    0  0.12676800660E-01 -0.15125558797E-01 -0.13350410516E-01  0.10201031818E+01  0.10198248792E+01 0.  0.
     999903    2    3    3    0    0 -0.23195091992E-01  0.91052634145E-01  0.83532269732E-01  0.12772049761E+00  0.22500909889E-01 0.  0.
         14    1    1    2    0    0 -0.12676800660E-01  0.15125558797E-01  0.13350410516E-01  0.23826818185E-01  0.00000000000E+00 0. -1.
     999901    1    3    3    0    0  0.35871892651E-01 -0.10617819294E+00 -0.96882680247E-01  0.89238268421E+00  0.88000000000E+00 0. -1.
        -11    1    4    4    0    0 -0.15922457986E-01  0.39754838543E-01  0.25167781120E-01  0.49675448497E-01  0.51100000000E-03 0. -1.
         11    1    4    4    0    0 -0.72726340054E-02  0.51297795602E-01  0.58364488612E-01  0.78045049113E-01  0.51100000000E-03 0.  1.
</event>
<event>
 8    1  0.1162192E+005  0.1043930E+01  0.7957747E-01            NaN
         13   -1    0    0    0    0  0.00000000000E+00  0.00000000000E+00  0.74505805969E-08  0.10566000000E+00  0.10566000000E+00 0. -1.
     999900   -1    0    0    0    0 -0.00000000000E+00 -0.00000000000E+00 -0.74505805969E-08  0.93827000000E+00  0.93827000000E+00 0.  1.
     999902    2    1    2    0    0  0.21659245455E-01 -0.26761267542E-02 -0.64485148567E-02  0.10211732886E+01  0.10209196920E+01 0.  0.
     999903    2    3    3    0    0  0.12332025819E+00  0.47234255625E-01 -0.19803804152E-02  0.13390446128E+00  0.22079897200E-01 0.  0.
         14    1    1    2    0    0 -0.21659245455E-01  0.26761267542E-02  0.64485148567E-02  0.22756711361E-01  0.00000000000E+00 0. -1.
     999901    1    3    3    0    0 -0.10166101273E+00 -0.49910382379E-01 -0.44681344416E-02  0.88726882736E+00  0.88000000000E+00 0.  1.
        -11    1    4    4    0    0  0.19847823441E-01  0.45778208292E-02  0.71933575592E-02  0.21607823881E-01  0.51100000000E-03 0. -1.
         11    1    4    4    0    0  0.10347243475E+00  0.42656434796E-01 -0.91737379744E-02  0.11229663740E+00  0.51100000000E-03 0.  1.
</event>
<event>
 8    1  0.1162192E+005  0.1043930E+01  0.7957747E-01            NaN
         13   -1    0    0    0    0  0.00000000000E+00  0.00000000000E+00  0.74505805969E-08  0.10566000000E+00  0.10566000000E+00 0. -1.
     999900   -1    0    0    0    0 -0.00000000000E+00 -0.00000000000E+00 -0.74505805969E-08  0.93827000000E+00  0.93827000000E+00 0.  1.
     999902    2    1    2    0    0  0.15431634807E-01 -0.23488734267E-04  0.17270894638E-01  0.10207692637E+01  0.10205064772E+01 0.  0.
     999903    2    3    3    0    0 -0.29967982409E-01  0.10079254611E+00  0.76949933146E-01  0.13184486547E+00  0.20113652540E-01 0.  0.
         14    1    1    2    0    0 -0.15431634807E-01  0.23488734267E-04 -0.17270894638E-01  0.23160736304E-01  0.00000000000E+00 0.  1.
     999901    1    3    3    0    0  0.45399617215E-01 -0.10081603484E+00 -0.59679038508E-01  0.88892439823E+00  0.88000000000E+00 0.  1.
        -11    1    4    4    0    0 -0.86722105731E-02  0.26414192868E-01  0.10060216320E-01  0.29570016816E-01  0.51100000000E-03 0.  1.
         11    1    4    4    0    0 -0.21295771836E-01  0.74378353242E-01  0.66889716826E-01  0.10227484865E+00  0.51100000000E-03 0. -1.
</event>
<event>
 8    1  0.1162192E+005  0.1043930E+01  0.7957747E-01            NaN
         13   -1    0    0    0    0  0.00000000000E+00  0.00000000000E+00  0.74505805969E-08  0.10566000000E+00  0.10566000000E+00 0. -1.
     999900   -1    0    0    0    0 -0.00000000000E+00 -0.00000000000E+00 -0.74505805969E-08  0.93827000000E+00  0.93827000000E+00 0. -1.
     999902    2    1    2    0    0  0.18852434185E-01 -0.73774524274E-02  0.12429692177E-01  0.10201741938E+01  0.10198975671E+01 0.  0.
     999903    2    3    3    0    0 -0.15450230112E-01 -0.99999729097E-01 -0.78632517219E-01  0.12997877434E+00  0.21742897321E-01 0.  0.
         14    1    1    2    0    0 -0.18852434185E-01  0.73774524274E-02 -0.12429692177E-01  0.23755806167E-01  0.00000000000E+00 0.  1.
     999901    1    3    3    0    0  0.34302664297E-01  0.92622276669E-01  0.91062209396E-01  0.89019541950E+00  0.88000000000E+00 0.  1.
        -11    1    4    4    0    0 -0.57499517039E-02 -0.44714667811E-02 -0.76053409129E-02  0.10543163243E-01  0.51100000000E-03 0. -1.
         11    1    4    4    0    0 -0.97002784076E-02 -0.95528262315E-01 -0.71027176306E-01  0.11943561109E+00  0.51100000000E-03 0.  1.
</event>
<event>
 8    1  0.1162192E+005  0.1043930E+01  0.7957747E-01            NaN
         13   -1    0    0    0    0  0.00000000000E+00  0.00000000000E+00  0.74505805969E-08  0.10566000000E+00  0.10566000000E+00 0.  1.
     999900   -1    0    0    0    0 -0.00000000000E+00 -0.00000000000E+00 -0.74505805969E-08  0.93827000000E+00  0.93827000000E+00 0. -1.
     999902    2    1    2    0    0 -0.18032135271E-01  0.17424229867E-02 -0.15384647507E-01  0.10201627680E+01  0.10198858719E+01 0.  0.
     999903    2    3    3    0    0  0.11405549743E-01 -0.76516406586E-01  0.10036999593E+00  0.12865272360E+00  0.22193245921E-01 0.  0.
         14    1    1    2    0    0  0.18032135271E-01 -0.17424229867E-02  0.15384647507E-01  0.23767232047E-01  0.00000000000E+00 0.  1.
     999901    1    3    3    0    0 -0.29437685014E-01  0.78258829573E-01 -0.11575464344E+00  0.89151004435E+00  0.88000000000E+00 0. -1.
        -11    1    4    4    0    0  0.14697988455E-02 -0.20212529128E-01  0.43588333882E-01  0.48071931665E-01  0.51100000000E-03 0. -1.
         11    1    4    4    0    0  0.99357508978E-02 -0.56303877458E-01  0.56781662049E-01  0.80580791934E-01  0.51100000000E-03 0.  1.
</event>
<event>
 8    1  0.1162192E+005  0.1043930E+01  0.7957747E-01            NaN
         13   -1    0    0    0    0  0.00000000000E+00  0.00000000000E+00  0.74505805969E-08  0.10566000000E+00  0.10566000000E+00 0.  1.
     999900   -1    0    0    0    0 -0.00000000000E+00 -0.00000000000E+00 -0.74505805969E-08  0.93827000000E+00  0.93827000000E+00 0. -1.
     999902    2    1    2    0    0 -0.44824814089E-02 -0.12621758935E-02 -0.24590138829E-01  0.10189028017E+01  0.10185953851E+01 0.  0.
     999903    2    3    3    0    0 -0.10756386341E+00  0.69111446738E-01 -0.96676464225E-02  0.12997035271E+00  0.21270928838E-01 0.  0.
         14    1    1    2    0    0  0.44824814089E-02  0.12621758935E-02  0.24590138829E-01  0.25027198309E-01  0.00000000000E+00 0.  1.
     999901    1    3    3    0    0  0.10308138200E+00 -0.70373622632E-01 -0.14922492406E-01  0.88893244898E+00  0.88000000000E+00 0.  1.
        -11    1    4    4    0    0 -0.67986502805E-01  0.53949856080E-01 -0.15028364017E-02  0.86805939734E-01  0.51100000000E-03 0.  1.
         11    1    4    4    0    0 -0.39577360604E-01  0.15161590658E-01 -0.81648100208E-02  0.43164412973E-01  0.51100000000E-03 0. -1.
</event>
<event>
 8    1  0.1162192E+005  0.1043930E+01  0.7957747E-01            NaN
         13   -1    0    0    0    0  0.00000000000E+00  0.00000000000E+00  0.74505805969E-08  0.10566000000E+00  0.10566000000E+00 0. -1.
     999900   -1    0    0    0    0 -0.00000000000E+00 -0.00000000000E+00 -0.74505805969E-08  0.93827000000E+00  0.93827000000E+00 0. -1.
     999902    2    1    2    0    0 -0.58460722498E-02  0.22312280933E-01  0.21688658972E-02  0.10207628159E+01  0.10204998814E+01 0.  0.
     999903    2    3    3    0    0  0.44427916677E-01 -0.46542447453E-01  0.11065615424E+00  0.13001148171E+00  0.22763165594E-01 0.  0.
         14    1    1    2    0    0  0.58460722498E-02 -0.22312280933E-01 -0.21688658972E-02  0.23167184129E-01  0.00000000000E+00 0. -1.
     999901    1    3    3    0    0 -0.50273988927E-01  0.68854728386E-01 -0.10848728835E+00  0.89075133417E+00  0.88000000000E+00 0. -1.
        -11    1    4    4    0    0  0.43918136655E-01 -0.39023103308E-01  0.85462344718E-01  0.10370958878E+00  0.51100000000E-03 0. -1.
         11    1    4    4    0    0  0.50978002211E-03 -0.75193441448E-02  0.25193809527E-01  0.26301892927E-01  0.51100000000E-03 0.  1.
</event>
<event>
 8    1  0.1162192E+005  0.1043930E+01  0.7957747E-01            NaN
         13   -1    0    0    0    0  0.00000000000E+00  0.00000000000E+00  0.74505805969E-08  0.10566000000E+00  0.10566000000E+00 0.  1.
     999900   -1    0    0    0    0 -0.00000000000E+00 -0.00000000000E+00 -0.74505805969E-08  0.93827000000E+00  0.93827000000E+00 0.  1.
     999902    2    1    2    0    0 -0.18593219584E-01  0.40660698963E-02  0.16383150883E-01  0.10188172867E+01  0.10185077394E+01 0.  0.
     999903    2    3    3    0    0  0.76420999072E-01 -0.14331473069E-01  0.10148621885E+00  0.12943058588E+00  0.20180776100E-01 0.  0.
         14    1    1    2    0    0  0.18593219584E-01 -0.40660698963E-02 -0.16383150883E-01  0.25112713349E-01  0.00000000000E+00 0. -1.
     999901    1    3    3    0    0 -0.95014218656E-01  0.18397542965E-01 -0.85103067971E-01  0.88938670077E+00  0.88000000000E+00 0.  1.
        -11    1    4    4    0    0  0.48672191106E-01 -0.17908663268E-01  0.72493764702E-01  0.89136465315E-01  0.51100000000E-03 0.  1.
         11    1    4    4    0    0  0.27748807966E-01  0.35771901985E-02  0.28992454152E-01  0.40294120564E-01  0.51100000000E-03 0. -1.
</event>
<event>
 8    1  0.1162192E+005  0.1043930E+01  0.7957747E-01            NaN
         13   -1    0    0    0    0  0.00000000000E+00  0.00000000000E+00  0.74505805969E-08  0.10566000000E+00  0.10566000000E+00 0.  1.
     999900   -1    0    0    0    0 -0.00000000000E+00 -0.00000000000E+00 -0.74505805969E-08  0.93827000000E+00  0.93827000000E+00 0. -1.
     999902    2    1    2    0    0  0.11852552587E-01 -0.19492006030E-01  0.29699622924E-02  0.10209247402E+01  0.10206655099E+01 0.  0.
     999903    2    3    3    0    0  0.12942525685E+00 -0.10567672779E-01  0.23955724824E-01  0.13281248000E+00  0.14237460181E-01 0.  0.
         14    1    1    2    0    0 -0.11852552587E-01  0.19492006030E-01 -0.29699622924E-02  0.23005259788E-01  0.00000000000E+00 0. -1.
     999901    1    3    3    0    0 -0.11757270426E+00 -0.89243332505E-02 -0.20985762531E-01  0.88811226021E+00  0.88000000000E+00 0.  1.
        -11    1    4    4    0    0  0.68409547872E-01 -0.41898336949E-03  0.76207582585E-02  0.68835883553E-01  0.51100000000E-03 0.  1.
         11    1    4    4    0    0  0.61015708980E-01 -0.10148689410E-01  0.16334966565E-01  0.63976596445E-01  0.51100000000E-03 0. -1.
</event>
<event>
 7    1  0.1213842E+005  0.1043930E+01  0.7957747E-01            NaN
         13   -1    0    0    0    0  0.00000000000E+00  0.00000000000E+00  0.74505805969E-08  0.10566000000E+00  0.10566000000E+00 0.  1.
     999900   -1    0    0    0    0 -0.00000000000E+00 -0.00000000000E+00 -0.74505805969E-08  0.93827000000E+00  0.93827000000E+00 0.  1.
     999903    2    1    2    0    0 -0.19557690879E-02 -0.13740282905E-01  0.84627308388E-01  0.88069911648E-01  0.20047633416E-01 0.  0.
         14    1    1    2    0    0  0.27005787839E-02  0.70184238305E-01 -0.90919359821E-02  0.70822198018E-01  0.00000000000E+00 0.  1.
     999901    1    1    2    0    0 -0.74480969601E-03 -0.56443955400E-01 -0.75535372406E-01  0.88503789033E+00  0.88000000000E+00 0.  1.
        -11    1    3    3    0    0  0.54289342275E-02 -0.15190188740E-01  0.46995319326E-01  0.49689398471E-01  0.51100000000E-03 0. -1.
         11    1    3    3    0    0 -0.73847033154E-02  0.14499058349E-02  0.37631989062E-01  0.38380513177E-01  0.51100000000E-03 0.  1.
</event>
<event>
 8    1  0.1162192E+005  0.1043930E+01  0.7957747E-01            NaN
         13   -1    0    0    0    0  0.00000000000E+00  0.00000000000E+00  0.74505805969E-08  0.10566000000E+00  0.10566000000E+00 0. -1.
     999900   -1    0    0    0    0 -0.00000000000E+00 -0.00000000000E+00 -0.74505805969E-08  0.93827000000E+00  0.93827000000E+00 0. -1.
     999902    2    1    2    0    0 -0.20024901075E-01 -0.12175082050E-01  0.43372347366E-02  0.10200963916E+01  0.10198179285E+01 0.  0.
     999903    2    3    3    0    0 -0.85776789845E-01  0.15932171582E-01 -0.96185855273E-01  0.13149174370E+00  0.20660787460E-01 0.  0.
         14    1    1    2    0    0  0.20024901075E-01  0.12175082050E-01 -0.43372347366E-02  0.23833608437E-01  0.00000000000E+00 0. -1.
     999901    1    3    3    0    0  0.65751888771E-01 -0.28107253632E-01  0.10052309001E+00  0.88860464787E+00  0.88000000000E+00 0.  1.
        -11    1    4    4    0    0 -0.19478023121E-01  0.12066654856E-01 -0.19955325911E-01  0.30388710031E-01  0.51100000000E-03 0.  1.
         11    1    4    4    0    0 -0.66298766724E-01  0.38655167254E-02 -0.76230529362E-01  0.10110303367E+00  0.51100000000E-03 0. -1.
</event>
<event>
 8    1  0.1162192E+005  0.1043930E+01  0.7957747E-01            NaN
         13   -1    0    0    0    0  0.00000000000E+00  0.00000000000E+00  0.74505805969E-08  0.10566000000E+00  0.10566000000E+00 0.  1.
     999900   -1    0    0    0    0 -0.00000000000E+00 -0.00000000000E+00 -0.74505805969E-08  0.93827000000E+00  0.93827000000E+00 0. -1.
     999902    2    1    2    0    0 -0.16587803464E-02  0.22835692165E-01  0.48435704489E-02  0.10205274240E+01  0.10202590566E+01 0.  0.
     999903    2    3    3    0    0  0.71776709079E-01 -0.86563206700E-01  0.58809304965E-01  0.12908298339E+00  0.23638898688E-01 0.  0.
         14    1    1    2    0    0  0.16587803464E-02 -0.22835692165E-01 -0.48435704489E-02  0.23402576003E-01  0.00000000000E+00 0. -1.
     999901    1    3    3    0    0 -0.73435489425E-01  0.10939889886E+00 -0.53965734516E-01  0.89144444060E+00  0.88000000000E+00 0.  1.
        -11    1    4    4    0    0  0.45649897220E-02 -0.11412113701E-01  0.14324597291E-01  0.18882019988E-01  0.51100000000E-03 0. -1.
         11    1    4    4    0    0  0.67211719357E-01 -0.75151092998E-01  0.44484707674E-01  0.11020096341E+00  0.51100000000E-03 0.  1.
</event>
<event>
 8    1  0.1162192E+005  0.1043930E+01  0.7957747E-01            NaN
         13   -1    0    0    0    0  0.00000000000E+00  0.00000000000E+00  0.74505805969E-08  0.10566000000E+00  0.10566000000E+00 0. -1.
     999900   -1    0    0    0    0 -0.00000000000E+00 -0.00000000000E+00 -0.74505805969E-08  0.93827000000E+00  0.93827000000E+00 0.  1.
     999902    2    1    2    0    0  0.19394944136E-01 -0.13112945578E-01 -0.34263877697E-02  0.10202687800E+01  0.10199943775E+01 0.  0.
     999903    2    3    3    0    0  0.11920905471E-01  0.77491885706E-01 -0.10194443923E+00  0.13011660020E+00  0.19762606615E-01 0.  0.
         14    1    1    2    0    0 -0.19394944136E-01  0.13112945578E-01  0.34263877697E-02  0.23661220022E-01  0.00000000000E+00 0. -1.
     999901    1    3    3    0    0  0.74740386651E-02 -0.90604831284E-01  0.98518051457E-01  0.89015217978E+00  0.88000000000E+00 0. -1.
        -11    1    4    4    0    0  0.16659601362E-01  0.65975258776E-01 -0.81511325101E-01  0.10618208102E+00  0.51100000000E-03 0.  1.
         11    1    4    4    0    0 -0.47386958915E-02  0.11516626930E-01 -0.20433114126E-01  0.23934519182E-01  0.51100000000E-03 0. -1.
</event>
<event>
 8    1  0.1162192E+005  0.1043930E+01  0.7957747E-01            NaN
         13   -1    0    0    0    0  0.00000000000E+00  0.00000000000E+00  0.74505805969E-08  0.10566000000E+00  0.10566000000E+00 0. -1.
     999900   -1    0    0    0    0 -0.00000000000E+00 -0.00000000000E+00 -0.74505805969E-08  0.93827000000E+00  0.93827000000E+00 0. -1.
     999902    2    1    2    0    0  0.72332765922E-02 -0.99719605952E-02 -0.20307003805E-01  0.10201784802E+01  0.10199019545E+01 0.  0.
     999903    2    3    3    0    0  0.38575506914E-02 -0.96735827667E-01  0.83866416433E-01  0.12979010112E+00  0.20956943738E-01 0.  0.
         14    1    1    2    0    0 -0.72332765922E-02  0.99719605952E-02  0.20307003805E-01  0.23751519781E-01  0.00000000000E+00 0. -1.
     999901    1    3    3    0    0  0.33757259008E-02  0.86763867072E-01 -0.10417342024E+00  0.89038837910E+00  0.88000000000E+00 0. -1.
        -11    1    4    4    0    0  0.12425503550E-01 -0.53330782932E-01  0.48389587918E-01  0.73077896018E-01  0.51100000000E-03 0.  1.
         11    1    4    4    0    0 -0.85679528584E-02 -0.43405044736E-01  0.35476828515E-01  0.56712205099E-01  0.51100000000E-03 0. -1.
</event>
<event>
 8    1  0.1162192E+005  0.1043930E+01  0.7957747E-01            NaN
         13   -1    0    0    0    0  0.00000000000E+00  0.00000000000E+00  0.74505805969E-08  0.10566000000E+00  0.10566000000E+00 0. -1.
     999900   -1    0    0    0    0 -0.00000000000E+00 -0.00000000000E+00 -0.74505805969E-08  0.93827000000E+00  0.93827000000E+00 0. -1.
     999902    2    1    2    0    0  0.16778483062E-01 -0.17696581077E-01  0.70633732012E-02  0.10185414649E+01  0.10182249938E+01 0.  0.
     999903    2    3    3    0    0  0.42656774495E-01  0.10791377831E+00  0.50904964999E-01  0.12816528957E+00  0.19236476503E-01 0.  0.
         14    1    1    2    0    0 -0.16778483062E-01  0.17696581077E-01 -0.70633732012E-02  0.25388535142E-01  0.00000000000E+00 0.  1.
     999901    1    3    3    0    0 -0.25878291434E-01 -0.12561035939E+00 -0.43841591798E-01  0.89037617529E+00  0.88000000000E+00 0. -1.
        -11    1    4    4    0    0  0.12751187838E-01  0.16252514698E-01  0.13830225943E-01  0.24865101969E-01  0.51100000000E-03 0.  1.
         11    1    4    4    0    0  0.29905586657E-01  0.91661263615E-01  0.37074739056E-01  0.10330018760E+00  0.51100000000E-03 0. -1.
</event>
<event>
 8    1  0.1162192E+005  0.1043930E+01  0.7957747E-01            NaN
         13   -1    0    0    0    0  0.00000000000E+00  0.00000000000E+00  0.74505805969E-08  0.10566000000E+00  0.10566000000E+00 0.  1.
     999900   -1    0    0    0    0 -0.00000000000E+00 -0.00000000000E+00 -0.74505805969E-08  0.93827000000E+00  0.93827000000E+00 0.  1.
     999902    2    1    2    0    0 -0.81100724624E-03  0.74607432708E-02 -0.20682039720E-01  0.10219284730E+01  0.10216916055E+01 0.  0.
     999903    2    3    3    0    0  0.63451070213E-01  0.11467372680E+00 -0.11252735723E-01  0.13304538159E+00  0.19958646548E-01 0.  0.
         14    1    1    2    0    0  0.81100724624E-03 -0.74607432708E-02  0.20682039720E-01  0.22001526990E-01  0.00000000000E+00 0.  1.
     999901    1    3    3    0    0 -0.64262077459E-01 -0.10721298353E+00 -0.94293039974E-02  0.88888309142E+00  0.88000000000E+00 0. -1.
        -11    1    4    4    0    0  0.22132290479E-01  0.32904372841E-01  0.50836250938E-02  0.39983001376E-01  0.51100000000E-03 0.  1.
         11    1    4    4    0    0  0.41318779734E-01  0.81769353959E-01 -0.16336360817E-01  0.93062380215E-01  0.51100000000E-03 0. -1.
</event>
<event>
 8    1  0.1162192E+005  0.1043930E+01  0.7957747E-01            NaN
         13   -1    0    0    0    0  0.00000000000E+00  0.00000000000E+00  0.74505805969E-08  0.10566000000E+00  0.10566000000E+00 0. -1.
     999900   -1    0    0    0    0 -0.00000000000E+00 -0.00000000000E+00 -0.74505805969E-08  0.93827000000E+00  0.93827000000E+00 0. -1.
     999902    2    1    2    0    0 -0.97119844916E-02 -0.90711800770E-02 -0.21033946772E-01  0.10190495686E+01  0.10187457913E+01 0.  0.
     999903    2    3    3    0    0  0.43855569980E-01  0.15679572558E-01 -0.12123636485E+00  0.13139952085E+00  0.19960408422E-01 0.  0.
         14    1    1    2    0    0  0.97119844916E-02  0.90711800770E-02  0.21033946772E-01  0.24880431418E-01  0.00000000000E+00 0. -1.
     999901    1    3    3    0    0 -0.53567554472E-01 -0.24750752635E-01  0.10020241808E+00  0.88765004773E+00  0.88000000000E+00 0.  1.
        -11    1    4    4    0    0  0.16114729066E-01  0.15980267939E-01 -0.60741550303E-01  0.64844818686E-01  0.51100000000E-03 0. -1.
         11    1    4    4    0    0  0.27740840915E-01 -0.30069538082E-03 -0.60494814545E-01  0.66554702164E-01  0.51100000000E-03 0.  1.
</event>
<event>
 8    1  0.1162192E+005  0.1043930E+01  0.7957747E-01            NaN
         13   -1    0    0    0    0  0.00000000000E+00  0.00000000000E+00  0.74505805969E-08  0.10566000000E+00  0.10566000000E+00 0.  1.
     999900   -1    0    0    0    0 -0.00000000000E+00 -0.00000000000E+00 -0.74505805969E-08  0.93827000000E+00  0.93827000000E+00 0. -1.
     999902    2    1    2    0    0 -0.71050356286E-02 -0.15892024475E-01 -0.16734481959E-01  0.10197829327E+01  0.10194970078E+01 0.  0.
     999903    2    3    3    0    0 -0.38783449039E-01 -0.63964467901E-01  0.10402137659E+00  0.12967256927E+00  0.19972965745E-01 0.  0.
         14    1    1    2    0    0  0.71050356286E-02  0.15892024475E-01  0.16734481959E-01  0.24147067309E-01  0.00000000000E+00 0.  1.
     999901    1    3    3    0    0  0.31678413410E-01  0.48072443426E-01 -0.12075585855E+00  0.89011036342E+00  0.88000000000E+00 0. -1.
        -11    1    4    4    0    0 -0.15251471116E-01 -0.41568555819E-01  0.51557264183E-01  0.67962966498E-01  0.51100000000E-03 0. -1.
         11    1    4    4    0    0 -0.23531977922E-01 -0.22395912082E-01  0.52464112406E-01  0.61709602774E-01  0.51100000000E-03 0.  1.
</event>
<event>
 8    1  0.1162192E+005  0.1043930E+01  0.7957747E-01            NaN
         13   -1    0    0    0    0  0.00000000000E+00  0.00000000000E+00  0.74505805969E-08  0.10566000000E+00  0.10566000000E+00 0. -1.
     999900   -1    0    0    0    0 -0.00000000000E+00 -0.00000000000E+00 -0.74505805969E-08  0.93827000000E+00  0.93827000000E+00 0.  1.
     999902    2    1    2    0    0  0.80034772119E-02 -0.21895956239E-01  0.51329638898E-02  0.10200587649E+01  0.10197794114E+01 0.  0.
     999903    2    3    3    0    0  0.13601793358E-01 -0.73607469561E-02 -0.12746601124E+00  0.12998848584E+00  0.20254210723E-01 0.  0.
         14    1    1    2    0    0 -0.80034772119E-02  0.21895956239E-01 -0.51329638898E-02  0.23871235104E-01  0.00000000000E+00 0.  1.
     999901    1    3    3    0    0 -0.55983161464E-02 -0.14535209283E-01  0.13259897513E+00  0.89007027906E+00  0.88000000000E+00 0. -1.
        -11    1    4    4    0    0  0.18243671750E-01 -0.44415866895E-02 -0.78605917606E-01  0.80818999343E-01  0.51100000000E-03 0. -1.
         11    1    4    4    0    0 -0.46418783920E-02 -0.29191602666E-02 -0.48860093632E-01  0.49169486498E-01  0.51100000000E-03 0.  1.
</event>
<event>
 8    1  0.1162192E+005  0.1043930E+01  0.7957747E-01            NaN
         13   -1    0    0    0    0  0.00000000000E+00  0.00000000000E+00  0.74505805969E-08  0.10566000000E+00  0.10566000000E+00 0.  1.
     999900   -1    0    0    0    0 -0.00000000000E+00 -0.00000000000E+00 -0.74505805969E-08  0.93827000000E+00  0.93827000000E+00 0. -1.
     999902    2    1    2    0    0 -0.10612340677E-01 -0.80841146894E-02 -0.18495785267E-01  0.10211249839E+01  0.10208702974E+01 0.  0.
     999903    2    3    3    0    0 -0.97582444417E-01  0.24973254932E-01 -0.85628753494E-01  0.13367728179E+00  0.19782197067E-01 0.  0.
         14    1    1    2    0    0  0.10612340677E-01  0.80841146894E-02  0.18495785267E-01  0.22805016062E-01  0.00000000000E+00 0.  1.
     999901    1    3    3    0    0  0.86970103740E-01 -0.33057369622E-01  0.67132968227E-01  0.88744770215E+00  0.88000000000E+00 0. -1.
        -11    1    4    4    0    0 -0.86813788539E-01  0.27867626142E-01 -0.72832395472E-01  0.11669643276E+00  0.51100000000E-03 0.  1.
         11    1    4    4    0    0 -0.10768655877E-01 -0.28943712099E-02 -0.12796358022E-01  0.16980849028E-01  0.51100000000E-03 0. -1.
</event>
<event>
 8    1  0.1162192E+005  0.1043930E+01  0.7957747E-01            NaN
         13   -1    0    0    0    0  0.00000000000E+00  0.00000000000E+00  0.74505805969E-08  0.10566000000E+00  0.10566000000E+00 0.  1.
     999900   -1    0    0    0    0 -0.00000000000E+00 -0.00000000000E+00 -0.74505805969E-08  0.93827000000E+00  0.93827000000E+00 0.  1.
     999902    2    1    2    0    0  0.12161552585E-01 -0.10971617356E-01 -0.10180427263E-01  0.10246447505E+01  0.10244632467E+01 0.  0.
     999903    2    3    3    0    0 -0.97177634414E-01  0.18343532848E-01  0.85271452087E-01  0.13227403320E+00  0.21100272256E-01 0.  0.
         14    1    1    2    0    0 -0.12161552585E-01  0.10971617356E-01  0.10180427263E-01  0.19285249491E-01  0.00000000000E+00 0.  1.
     999901    1    3    3    0    0  0.10933918700E+00 -0.29315150204E-01 -0.95451879350E-01  0.89237071731E+00  0.88000000000E+00 0.  1.
        -11    1    4    4    0    0 -0.78352688465E-01  0.59597217213E-02  0.66148476637E-01  0.10271584179E+00  0.51100000000E-03 0. -1.
         11    1    4    4    0    0 -0.18824945949E-01  0.12383811127E-01  0.19122975450E-01  0.29558191404E-01  0.51100000000E-03 0.  1.
</event>
<event>
 8    1  0.1162192E+005  0.1043930E+01  0.7957747E-01            NaN
         13   -1    0    0    0    0  0.00000000000E+00  0.00000000000E+00  0.74505805969E-08  0.10566000000E+00  0.10566000000E+00 0.  1.
     999900   -1    0    0    0    0 -0.00000000000E+00 -0.00000000000E+00 -0.74505805969E-08  0.93827000000E+00  0.93827000000E+00 0.  1.
     999902    2    1    2    0    0 -0.11980508739E-01  0.63188902619E-02  0.19080555061E-01  0.10205306721E+01  0.10202623801E+01 0.  0.
     999903    2    3    3    0    0 -0.12937669349E+00 -0.13822040748E-01  0.15383382619E-01  0.13249847091E+00  0.19743826975E-01 0.  0.
         14    1    1    2    0    0  0.11980508739E-01 -0.63188902619E-02 -0.19080555061E-01  0.23399327880E-01  0.00000000000E+00 0.  1.
     999901    1    3    3    0    0  0.11739618476E+00  0.20140931010E-01  0.36971724415E-02  0.88803220121E+00  0.88000000000E+00 0.  1.
        -11    1    4    4    0    0 -0.77206808365E-01  0.14744855030E-02  0.98810161042E-02  0.77852173801E-01  0.51100000000E-03 0. -1.
         11    1    4    4    0    0 -0.52169885129E-01 -0.15296526251E-01  0.55023665152E-02  0.54646297112E-01  0.51100000000E-03 0.  1.
</event>
<event>
 7    1  0.1162192E+005  0.1043930E+01  0.7957747E-01            NaN
         13   -1    0    0    0    0  0.00000000000E+00  0.00000000000E+00  0.74505805969E-08  0.10566000000E+00  0.10566000000E+00 0.  1.
     999900   -1    0    0    0    0 -0.00000000000E+00 -0.00000000000E+00 -0.74505805969E-08  0.93827000000E+00  0.93827000000E+00 0.  1.
     999902    2    1    2    0    0  0.18972755533E-02  0.69084728660E-03  0.23515803874E-01  0.10203276705E+01  0.10200546482E+01 0.  0.
         14    1    1    2    0    0 -0.18972755533E-02 -0.69084728660E-03 -0.23515803874E-01  0.23602329469E-01  0.00000000000E+00 0. -1.
     999901    1    3    3    0    0  0.10277488395E+00 -0.10390297020E-02  0.96007998595E-01  0.89116849818E+00  0.88000000000E+00 0. -1.
        -11    1    3    3    0    0 -0.73936841753E-01 -0.89833888791E-02 -0.36516816389E-01  0.82952376967E-01  0.51100000000E-03 0.  1.
         11    1    3    3    0    0 -0.26940766640E-01  0.10713265868E-01 -0.35975378331E-01  0.46206795385E-01  0.51100000000E-03 0. -1.
</event>
<event>
 8    1  0.1162192E+005  0.1043930E+01  0.7957747E-01            NaN
         13   -1    0    0    0    0  0.00000000000E+00  0.00000000000E+00  0.74505805969E-08  0.10566000000E+00  0.10566000000E+00 0.  1.
     999900   -1    0    0    0    0 -0.00000000000E+00 -0.00000000000E+00 -0.74505805969E-08  0.93827000000E+00  0.93827000000E+00 0. -1.
     999902    2    1    2    0    0  0.17114553098E-01  0.16821426004E-01 -0.30122146065E-02  0.10197444312E+01  0.10194575829E+01 0.  0.
     999903    2    3    3    0    0 -0.18082451942E-02 -0.12340706887E+00 -0.29653235750E-01  0.12804277311E+00  0.16824474910E-01 0.  0.
         14    1    1    2    0    0 -0.17114553098E-01 -0.16821426004E-01  0.30122146065E-02  0.24185568784E-01  0.00000000000E+00 0. -1.
     999901    1    3    3    0    0  0.18922798292E-01  0.14022849488E+00  0.26641021144E-01  0.89170165811E+00  0.88000000000E+00 0. -1.
        -11    1    4    4    0    0 -0.63920591147E-02 -0.10339874226E+00 -0.28646479757E-01  0.10748506986E+00  0.51100000000E-03 0.  1.
         11    1    4    4    0    0  0.45838139204E-02 -0.20008326615E-01 -0.10067559932E-02  0.20557703242E-01  0.51100000000E-03 0. -1.
</event>
<event>
 8    1  0.1162192E+005  0.1043930E+01  0.7957747E-01            NaN
         13   -1    0    0    0    0  0.00000000000E+00  0.00000000000E+00  0.74505805969E-08  0.10566000000E+00  0.10566000000E+00 0. -1.
     999900   -1    0    0    0    0 -0.00000000000E+00 -0.00000000000E+00 -0.74505805969E-08  0.93827000000E+00  0.93827000000E+00 0.  1.
     999902    2    1    2    0    0  0.93014560275E-02  0.19371814585E-01  0.95825861934E-02  0.10204010765E+01  0.10201297695E+01 0.  0.
     999903    2    3    3    0    0 -0.29471564142E-01 -0.10908384245E+00  0.58207164085E-01  0.12890315022E+00  0.21449718205E-01 0.  0.
         14    1    1    2    0    0 -0.93014560275E-02 -0.19371814585E-01 -0.95825861934E-02  0.23528923535E-01  0.00000000000E+00 0.  1.
     999901    1    3    3    0    0  0.38773020170E-01  0.12845565703E+00 -0.48624577891E-01  0.89149792624E+00  0.88000000000E+00 0.  1.
        -11    1    4    4    0    0 -0.23803801999E-01 -0.51823237721E-01  0.23347657683E-01  0.61625020874E-01  0.51100000000E-03 0.  1.
         11    1    4    4    0    0 -0.56677621437E-02 -0.57260604726E-01  0.34859506402E-01  0.67278129350E-01  0.51100000000E-03 0. -1.
</event>
<event>
 8    1  0.1162192E+005  0.1043930E+01  0.7957747E-01            NaN
         13   -1    0    0    0    0  0.00000000000E+00  0.00000000000E+00  0.74505805969E-08  0.10566000000E+00  0.10566000000E+00 0.  1.
     999900   -1    0    0    0    0 -0.00000000000E+00 -0.00000000000E+00 -0.74505805969E-08  0.93827000000E+00  0.93827000000E+00 0. -1.
     999902    2    1    2    0    0 -0.12626739273E-01 -0.18359973896E-01 -0.10585813788E-01  0.10192605322E+01  0.10189619472E+01 0.  0.
     999903    2    3    3    0    0 -0.17576369558E-02  0.45984942342E-01 -0.12067077930E+00  0.13000404209E+00  0.14896636319E-01 0.  0.
         14    1    1    2    0    0  0.12626739273E-01  0.18359973896E-01  0.10585813788E-01  0.24669467763E-01  0.00000000000E+00 0. -1.
     999901    1    3    3    0    0 -0.10869102318E-01 -0.64344916239E-01  0.11008496551E+00  0.88925649014E+00  0.88000000000E+00 0.  1.
        -11    1    4    4    0    0 -0.74611446396E-02  0.27188773173E-01 -0.61511793591E-01  0.67667273757E-01  0.51100000000E-03 0. -1.
         11    1    4    4    0    0  0.57035076838E-02  0.18796169170E-01 -0.59158985710E-01  0.62336768336E-01  0.51100000000E-03 0.  1.
</event>
<event>
 8    1  0.1162192E+005  0.1043930E+01  0.7957747E-01            NaN
         13   -1    0    0    0    0  0.00000000000E+00  0.00000000000E+00  0.74505805969E-08  0.10566000000E+00  0.10566000000E+00 0. -1.
     999900   -1    0    0    0    0 -0.00000000000E+00 -0.00000000000E+00 -0.74505805969E-08  0.93827000000E+00  0.93827000000E+00 0. -1.
     999902    2    1    2    0    0 -0.21469043553E-01  0.67755804399E-02  0.82571555097E-02  0.10199506560E+01  0.10196687363E+01 0.  0.
     999903    2    3    3    0    0 -0.11139895193E-01 -0.12429695167E+00  0.29996099293E-01  0.12991735233E+00  0.20122698688E-01 0.  0.
         14    1    1    2    0    0  0.21469043553E-01 -0.67755804399E-02 -0.82571555097E-02  0.23979343996E-01  0.00000000000E+00 0.  1.
     999901    1    3    3    0    0 -0.10329148360E-01  0.13107253211E+00 -0.21738943784E-01  0.89003330368E+00  0.88000000000E+00 0.  1.
        -11    1    4    4    0    0 -0.11507536093E-01 -0.32359908976E-01  0.56632104143E-02  0.34812643810E-01  0.51100000000E-03 0. -1.
         11    1    4    4    0    0  0.36764089966E-03 -0.91937042696E-01  0.24332888879E-01  0.95104708515E-01  0.51100000000E-03 0.  1.
</event>
<event>
 8    1  0.1162192E+005  0.1043930E+01  0.7957747E-01            NaN
         13   -1    0    0    0    0  0.00000000000E+00  0.00000000000E+00  0.74505805969E-08  0.10566000000E+00  0.10566000000E+00 0. -1.
     999900   -1    0    0    0    0 -0.00000000000E+00 -0.00000000000E+00 -0.74505805969E-08  0.93827000000E+00  0.93827000000E+00 0.  1.
     999902    2    1    2    0    0 -0.66732523665E-02 -0.15459952987E-01 -0.14505452098E-01  0.10217050009E+01  0.10214632437E+01 0.  0.
     999903    2    3    3    0    0 -0.86887751200E-01  0.75202086157E-01 -0.61926384027E-01  0.13215302608E+00  0.20608498043E-01 0.  0.
         14    1    1    2    0    0  0.66732523665E-02  0.15459952987E-01  0.14505452098E-01  0.22224999079E-01  0.00000000000E+00 0. -1.
     999901    1    3    3    0    0  0.80214498833E-01 -0.90662039144E-01  0.47420931929E-01  0.88955197484E+00  0.88000000000E+00 0.  1.
        -11    1    4    4    0    0 -0.42127807838E-01  0.48435638391E-01 -0.28741507734E-01  0.70335614360E-01  0.51100000000E-03 0. -1.
         11    1    4    4    0    0 -0.44759943362E-01  0.26766447766E-01 -0.33184876292E-01  0.61817411717E-01  0.51100000000E-03 0.  1.
</event>
<event>
 8    1  0.1162192E+005  0.1043930E+01  0.7957747E-01            NaN
         13   -1    0    0    0    0  0.00000000000E+00  0.00000000000E+00  0.74505805969E-08  0.10566000000E+00  0.10566000000E+00 0. -1.
     999900   -1    0    0    0    0 -0.00000000000E+00 -0.00000000000E+00 -0.74505805969E-08  0.93827000000E+00  0.93827000000E+00 0. -1.
     999902    2    1    2    0    0  0.21068389123E-01 -0.62643559430E-02 -0.86280022477E-02  0.10203172577E+01  0.10200439916E+01 0.  0.
     999903    2    3    3    0    0  0.23793654040E-01  0.11498462091E+00 -0.53926804177E-01  0.13084509799E+00  0.20609183420E-01 0.  0.
         14    1    1    2    0    0 -0.21068389123E-01  0.62643559430E-02  0.86280022477E-02  0.23612742289E-01  0.00000000000E+00 0. -1.
     999901    1    3    3    0    0 -0.27252649172E-02 -0.12124897686E+00  0.45298801929E-01  0.88947215972E+00  0.88000000000E+00 0.  1.
        -11    1    4    4    0    0  0.27202686368E-01  0.93197705972E-01 -0.45661403525E-01  0.10728943768E+00  0.51100000000E-03 0.  1.
         11    1    4    4    0    0 -0.34090323280E-02  0.21786914940E-01 -0.82654006517E-02  0.23555660317E-01  0.51100000000E-03 0. -1.
</event>
<event>
 8    1  0.1162192E+005  0.1043930E+01  0.7957747E-01            NaN
         13   -1    0    0    0    0  0.00000000000E+00  0.00000000000E+00  0.74505805969E-08  0.10566000000E+00  0.10566000000E+00 0. -1.
     999900   -1    0    0    0    0 -0.00000000000E+00 -0.00000000000E+00 -0.74505805969E-08  0.93827000000E+00  0.93827000000E+00 0. -1.
     999902    2    1    2    0    0 -0.21888099820E-01  0.10075186432E-01  0.19606446452E-02  0.10197547560E+01  0.10194681554E+01 0.  0.
     999903    2    3    3    0    0  0.12365785427E+00 -0.22181612087E-01 -0.47539163893E-02  0.12719147469E+00  0.19281666841E-01 0.  0.
         14    1    1    2    0    0  0.21888099820E-01 -0.10075186432E-01 -0.19606446452E-02  0.24175244007E-01  0.00000000000E+00 0.  1.
     999901    1    3    3    0    0 -0.14554595409E+00  0.32256798519E-01  0.67145610345E-02  0.89256328130E+00  0.88000000000E+00 0.  1.
        -11    1    4    4    0    0  0.47145419333E-01 -0.84916322388E-02  0.75385390412E-02  0.48496278971E-01  0.51100000000E-03 0. -1.
         11    1    4    4    0    0  0.76512434934E-01 -0.13689979848E-01 -0.12292455431E-01  0.78695195719E-01  0.51100000000E-03 0.  1.
</event>
<event>
 8    1  0.1162192E+005  0.1043930E+01  0.7957747E-01            NaN
         13   -1    0    0    0    0  0.00000000000E+00  0.00000000000E+00  0.74505805969E-08  0.10566000000E+00  0.10566000000E+00 0.  1.
     999900   -1    0    0    0    0 -0.00000000000E+00 -0.00000000000E+00 -0.74505805969E-08  0.93827000000E+00  0.93827000000E+00 0.  1.
     999902    2    1    2    0    0 -0.61186254047E-03  0.23427469954E-01 -0.19220354621E-02  0.10204158565E+01  0.10201448942E+01 0.  0.
     999903    2    3    3    0    0  0.39699530311E-01  0.33203631582E-01 -0.11924342000E+00  0.13166117212E+00  0.20907825697E-01 0.  0.
         14    1    1    2    0    0  0.61186254047E-03 -0.23427469954E-01  0.19220354621E-02  0.23514143500E-01  0.00000000000E+00 0.  1.
     999901    1    3    3    0    0 -0.40311392852E-01 -0.97761616274E-02  0.11732138454E+00  0.88875468438E+00  0.88000000000E+00 0. -1.
        -11    1    4    4    0    0  0.19788460913E-01  0.28001821701E-01 -0.85680190749E-01  0.92287818328E-01  0.51100000000E-03 0.  1.
         11    1    4    4    0    0  0.19911069399E-01  0.52018098804E-02 -0.33563229248E-01  0.39373353796E-01  0.51100000000E-03 0. -1.
</event>
<event>
 8    1  0.1162192E+005  0.1043930E+01  0.7957747E-01            NaN
         13   -1    0    0    0    0  0.00000000000E+00  0.00000000000E+00  0.74505805969E-08  0.10566000000E+00  0.10566000000E+00 0.  1.
     999900   -1    0    0    0    0 -0.00000000000E+00 -0.00000000000E+00 -0.74505805969E-08  0.93827000000E+00  0.93827000000E+00 0.  1.
     999902    2    1    2    0    0 -0.17966294791E-02 -0.59924569673E-02  0.25050768549E-01  0.10181098834E+01  0.10177824208E+01 0.  0.
     999903    2    3    3    0    0  0.20174142688E-02 -0.36232387425E-01 -0.11902363490E+00  0.12587312440E+00  0.18988468136E-01 0.  0.
         14    1    1    2    0    0  0.17966294791E-02  0.59924569673E-02 -0.25050768549E-01  0.25820116631E-01  0.00000000000E+00 0. -1.
     999901    1    3    3    0    0 -0.38140437478E-02  0.30239930458E-01  0.14407440345E+00  0.89223675897E+00  0.88000000000E+00 0. -1.
        -11    1    4    4    0    0  0.32428463056E-02 -0.30429006930E-04 -0.23186404506E-01  0.23417673945E-01  0.51100000000E-03 0.  1.
         11    1    4    4    0    0 -0.12254320369E-02 -0.36201958418E-01 -0.95837230397E-01  0.10245545046E+00  0.51100000000E-03 0. -1.
</event>
<event>
 8    1  0.1162192E+005  0.1043930E+01  0.7957747E-01            NaN
         13   -1    0    0    0    0  0.00000000000E+00  0.00000000000E+00  0.74505805969E-08  0.10566000000E+00  0.10566000000E+00 0.  1.
     999900   -1    0    0    0    0 -0.00000000000E+00 -0.00000000000E+00 -0.74505805969E-08  0.93827000000E+00  0.93827000000E+00 0.  1.
     999902    2    1    2    0    0 -0.71398572450E-02 -0.20004097380E-01 -0.10246629878E-01  0.10203474875E+01  0.10200749288E+01 0.  0.
     999903    2    3    3    0    0  0.46338920406E-01 -0.11818978937E+00  0.33866011018E-01  0.13217727019E+00  0.14415345930E-01 0.  0.
         14    1    1    2    0    0  0.71398572450E-02  0.20004097380E-01  0.10246629878E-01  0.23582512533E-01  0.00000000000E+00 0.  1.
     999901    1    3    3    0    0 -0.53478777651E-01  0.98185691985E-01 -0.44112640896E-01  0.88817021728E+00  0.88000000000E+00 0. -1.
        -11    1    4    4    0    0  0.35958853898E-01 -0.74786834577E-01  0.25075228586E-01  0.86689895659E-01  0.51100000000E-03 0.  1.
         11    1    4    4    0    0  0.10380066508E-01 -0.43402954789E-01  0.87907824324E-02  0.45487374533E-01  0.51100000000E-03 0. -1.
</event>
<event>
 8    1  0.1162192E+005  0.1043930E+01  0.7957747E-01            NaN
         13   -1    0    0    0    0  0.00000000000E+00  0.00000000000E+00  0.74505805969E-08  0.10566000000E+00  0.10566000000E+00 0. -1.
     999900   -1    0    0    0    0 -0.00000000000E+00 -0.00000000000E+00 -0.74505805969E-08  0.93827000000E+00  0.93827000000E+00 0.  1.
     999902    2    1    2    0    0  0.22184496056E-01  0.33899993494E-02  0.78688357067E-02  0.10201484413E+01  0.10198712074E+01 0.  0.
     999903    2    3    3    0    0  0.82372655610E-02 -0.99501352360E-01  0.82427684977E-01  0.13091271464E+00  0.19376375753E-01 0.  0.
         14    1    1    2    0    0 -0.22184496056E-01 -0.33899993494E-02 -0.78688357067E-02  0.23781558742E-01  0.00000000000E+00 0.  1.
     999901    1    3    3    0    0  0.13947230495E-01  0.10289135171E+00 -0.74558849271E-01  0.88923572662E+00  0.88000000000E+00 0.  1.
        -11    1    4    4    0    0  0.48153970583E-02 -0.55001834711E-02  0.88467846589E-02  0.11487679785E-01  0.51100000000E-03 0.  1.
         11    1    4    4    0    0  0.34218685027E-02 -0.94001168889E-01  0.73580900318E-01  0.11942503485E+00  0.51100000000E-03 0. -1.
</event>
<event>
 8    1  0.1162192E+005  0.1043930E+01  0.7957747E-01            NaN
         13   -1    0    0    0    0  0.00000000000E+00  0.00000000000E+00  0.74505805969E-08  0.10566000000E+00  0.10566000000E+00 0. -1.
     999900   -1    0    0    0    0 -0.00000000000E+00 -0.00000000000E+00 -0.74505805969E-08  0.93827000000E+00  0.93827000000E+00 0.  1.
     999902    2    1    2    0    0 -0.47610723347E-02 -0.13735377830E-01  0.18717396191E-01  0.10202304360E+01  0.10199551329E+01 0.  0.
     999903    2    3    3    0    0  0.14322845601E-01  0.50376786071E-01  0.11925818906E+00  0.13198327641E+00  0.21309742195E-01 0.  0.
         14    1    1    2    0    0  0.47610723347E-02  0.13735377830E-01 -0.18717396191E-01  0.23699564006E-01  0.00000000000E+00 0.  1.
     999901    1    3    3    0    0 -0.19083917936E-01 -0.64112163901E-01 -0.10054079287E+00  0.88824715959E+00  0.88000000000E+00 0.  1.
        -11    1    4    4    0    0  0.70672617784E-03  0.81446851558E-03  0.21519849018E-01  0.21552908008E-01  0.51100000000E-03 0.  1.
         11    1    4    4    0    0  0.13616119423E-01  0.49562317556E-01  0.97738340041E-01  0.11043036840E+00  0.51100000000E-03 0. -1.
</event>
<event>
 8    1  0.1162192E+005  0.1043930E+01  0.7957747E-01            NaN
         13   -1    0    0    0    0  0.00000000000E+00  0.00000000000E+00  0.74505805969E-08  0.10566000000E+00  0.10566000000E+00 0.  1.
     999900   -1    0    0    0    0 -0.00000000000E+00 -0.00000000000E+00 -0.74505805969E-08  0.93827000000E+00  0.93827000000E+00 0.  1.
     999902    2    1    2    0    0 -0.15152490914E-01  0.10182811912E-01 -0.14269824522E-01  0.10207585622E+01  0.10204955300E+01 0.  0.
     999903    2    3    3    0    0  0.60666134675E-01 -0.84190622198E-01  0.72298314739E-01  0.12826270683E+00  0.21350290114E-01 0.  0.
         14    1    1    2    0    0  0.15152490914E-01 -0.10182811912E-01  0.14269824522E-01  0.23171437832E-01  0.00000000000E+00 0.  1.
     999901    1    3    3    0    0 -0.75818625589E-01  0.94373434109E-01 -0.86568139261E-01  0.89249585533E+00  0.88000000000E+00 0.  1.
        -11    1    4    4    0    0  0.13084385806E-01 -0.25765164256E-01  0.30812501093E-01  0.42245901407E-01  0.51100000000E-03 0. -1.
         11    1    4    4    0    0  0.47581748869E-01 -0.58425457941E-01  0.41485813646E-01  0.86016805428E-01  0.51100000000E-03 0.  1.
</event>
<event>
 8    1  0.1162192E+005  0.1043930E+01  0.7957747E-01            NaN
         13   -1    0    0    0    0  0.00000000000E+00  0.00000000000E+00  0.74505805969E-08  0.10566000000E+00  0.10566000000E+00 0. -1.
     999900   -1    0    0    0    0 -0.00000000000E+00 -0.00000000000E+00 -0.74505805969E-08  0.93827000000E+00  0.93827000000E+00 0.  1.
     999902    2    1    2    0    0  0.45670752157E-02  0.14550946329E-01 -0.17891251715E-01  0.10204207443E+01  0.10201498960E+01 0.  0.
     999903    2    3    3    0    0  0.27882636071E-01  0.12523503732E+00 -0.29097451591E-01  0.13311010970E+00  0.20257928059E-01 0.  0.
         14    1    1    2    0    0 -0.45670752157E-02 -0.14550946329E-01  0.17891251715E-01  0.23509255688E-01  0.00000000000E+00 0. -1.
     999901    1    3    3    0    0 -0.23315560855E-01 -0.11068409099E+00  0.11206199876E-01  0.88731063461E+00  0.88000000000E+00 0.  1.
        -11    1    4    4    0    0  0.16163490287E-01  0.88385451986E-01 -0.11371095094E-01  0.90569362732E-01  0.51100000000E-03 0.  1.
         11    1    4    4    0    0  0.11719145784E-01  0.36849585332E-01 -0.17726356497E-01  0.42540746969E-01  0.51100000000E-03 0. -1.
</event>
<event>
 8    1  0.1162192E+005  0.1043930E+01  0.7957747E-01            NaN
         13   -1    0    0    0    0  0.00000000000E+00  0.00000000000E+00  0.74505805969E-08  0.10566000000E+00  0.10566000000E+00 0.  1.
     999900   -1    0    0    0    0 -0.00000000000E+00 -0.00000000000E+00 -0.74505805969E-08  0.93827000000E+00  0.93827000000E+00 0.  1.
     999902    2    1    2    0    0 -0.17443328118E-01  0.14063594612E-01  0.77968832927E-02  0.10202056290E+01  0.10199297425E+01 0.  0.
     999903    2    3    3    0    0  0.26434151288E-01 -0.32877874974E-01 -0.11971284305E+00  0.12869709565E+00  0.21261670231E-01 0.  0.
         14    1    1    2    0    0  0.17443328118E-01 -0.14063594612E-01 -0.77968832927E-02  0.23724370978E-01  0.00000000000E+00 0. -1.
     999901    1    3    3    0    0 -0.43877479406E-01  0.46941469587E-01  0.12750972634E+00  0.89150853337E+00  0.88000000000E+00 0. -1.
        -11    1    4    4    0    0  0.17460089942E-01 -0.33373936655E-01 -0.87812934087E-01  0.95551278917E-01  0.51100000000E-03 0. -1.
         11    1    4    4    0    0  0.89740613461E-02  0.49606168031E-03 -0.31899908959E-01  0.33145816732E-01  0.51100000000E-03 0.  1.
</event>
<event>
 8    1  0.1162192E+005  0.1043930E+01  0.7957747E-01            NaN
         13   -1    0    0    0    0  0.00000000000E+00  0.00000000000E+00  0.74505805969E-08  0.10566000000E+00  0.10566000000E+00 0.  1.
     999900   -1    0    0    0    0 -0.00000000000E+00 -0.00000000000E+00 -0.74505805969E-08  0.93827000000E+00  0.93827000000E+00 0. -1.
     999902    2    1    2    0    0  0.14093619268E-01 -0.10427866894E-01 -0.15795685211E-01  0.10203318182E+01  0.10200588930E+01 0.  0.
     999903    2    3    3    0    0  0.25098224623E-01 -0.12619813667E+00 -0.25972153263E-01  0.13262273456E+00  0.18930039600E-01 0.  0.
         14    1    1    2    0    0 -0.14093619268E-01  0.10427866894E-01  0.15795685211E-01  0.23598181780E-01  0.00000000000E+00 0.  1.
     999901    1    3    3    0    0 -0.11004605355E-01  0.11577026978E+00  0.10176468051E-01  0.88770908366E+00  0.88000000000E+00 0.  1.
        -11    1    4    4    0    0  0.97716956541E-02 -0.23519626275E-01  0.51755122508E-03  0.25479164750E-01  0.51100000000E-03 0.  1.
         11    1    4    4    0    0  0.15326528969E-01 -0.10267851040E+00 -0.26489704488E-01  0.10714356981E+00  0.51100000000E-03 0. -1.
</event>
<event>
 8    1  0.1162192E+005  0.1043930E+01  0.7957747E-01            NaN
         13   -1    0    0    0    0  0.00000000000E+00  0.00000000000E+00  0.74505805969E-08  0.10566000000E+00  0.10566000000E+00 0. -1.
     999900   -1    0    0    0    0 -0.00000000000E+00 -0.00000000000E+00 -0.74505805969E-08  0.93827000000E+00  0.93827000000E+00 0.  1.
     999902    2    1    2    0    0  0.21198748665E-02  0.61243979118E-03  0.22648934311E-01  0.10211738321E+01  0.10209202477E+01 0.  0.
     999903    2    3    3    0    0 -0.24494664258E-01 -0.57908672689E-01  0.11625378757E+00  0.13387742004E+00  0.21326451253E-01 0.  0.
         14    1    1    2    0    0 -0.21198748665E-02 -0.61243979118E-03 -0.22648934311E-01  0.22756167897E-01  0.00000000000E+00 0.  1.
     999901    1    3    3    0    0  0.26614539124E-01  0.58521112480E-01 -0.93604853261E-01  0.88729641206E+00  0.88000000000E+00 0.  1.
        -11    1    4    4    0    0 -0.18041703855E-01 -0.50181847398E-01  0.79229241962E-01  0.95505260531E-01  0.51100000000E-03 0.  1.
         11    1    4    4    0    0 -0.64529604024E-02 -0.77268252912E-02  0.37024545610E-01  0.38372159512E-01  0.51100000000E-03 0. -1.
</event>
<event>
 8    1  0.1162192E+005  0.1043930E+01  0.7957747E-01            NaN
         13   -1    0    0    0    0  0.00000000000E+00  0.00000000000E+00  0.74505805969E-08  0.10566000000E+00  0.10566000000E+00 0.  1.
     999900   -1    0    0    0    0 -0.00000000000E+00 -0.00000000000E+00 -0.74505805969E-08  0.93827000000E+00  0.93827000000E+00 0.  1.
     999902    2    1    2    0    0  0.42350472636E-02 -0.79601796347E-02  0.22686833112E-01  0.10195170427E+01  0.10192247093E+01 0.  0.
     999903    2    3    3    0    0 -0.20911311369E-01  0.58927975883E-01  0.11446196040E+00  0.13186337228E+00  0.19406681507E-01 0.  0.
         14    1    1    2    0    0 -0.42350472636E-02  0.79601796347E-02 -0.22686833112E-01  0.24412957252E-01  0.00000000000E+00 0. -1.
     999901    1    3    3    0    0  0.25146358632E-01 -0.66888155518E-01 -0.91775127285E-01  0.88765367046E+00  0.88000000000E+00 0.  1.
        -11    1    4    4    0    0  0.57768711650E-03  0.26602961326E-01  0.44386180904E-01  0.51753699867E-01  0.51100000000E-03 0. -1.
         11    1    4    4    0    0 -0.21488998485E-01  0.32325014557E-01  0.70075779494E-01  0.80109672416E-01  0.51100000000E-03 0.  1.
</event>
<event>
 8    1  0.1162192E+005  0.1043930E+01  0.7957747E-01            NaN
         13   -1    0    0    0    0  0.00000000000E+00  0.00000000000E+00  0.74505805969E-08  0.10566000000E+00  0.10566000000E+00 0. -1.
     999900   -1    0    0    0    0 -0.00000000000E+00 -0.00000000000E+00 -0.74505805969E-08  0.93827000000E+00  0.93827000000E+00 0. -1.
     999902    2    1    2    0    0  0.57615561973E-02  0.23115499527E-02  0.23057710787E-01  0.10200512056E+01  0.10197716731E+01 0.  0.
     999903    2    3    3    0    0  0.12876159496E+00  0.55263365216E-02  0.16997824563E-01  0.13147027708E+00  0.19632090650E-01 0.  0.
         14    1    1    2    0    0 -0.57615561973E-02 -0.23115499527E-02 -0.23057710787E-01  0.23878794353E-01  0.00000000000E+00 0.  1.
     999901    1    3    3    0    0 -0.12300003877E+00 -0.32147865688E-02  0.60598862240E-02  0.88858092857E+00  0.88000000000E+00 0. -1.
        -11    1    4    4    0    0  0.95749785713E-01 -0.39746959776E-02  0.15525769679E-01  0.97083110361E-01  0.51100000000E-03 0.  1.
         11    1    4    4    0    0  0.33011809250E-01  0.95010324991E-02  0.14720548844E-02  0.34387166721E-01  0.51100000000E-03 0. -1.
</event>
<event>
 8    1  0.1162192E+005  0.1043930E+01  0.7957747E-01            NaN
         13   -1    0    0    0    0  0.00000000000E+00  0.00000000000E+00  0.74505805969E-08  0.10566000000E+00  0.10566000000E+00 0. -1.
     999900   -1    0    0    0    0 -0.00000000000E+00 -0.00000000000E+00 -0.74505805969E-08  0.93827000000E+00  0.93827000000E+00 0.  1.
     999902    2    1    2    0    0  0.15360257848E-01  0.76620474074E-02  0.16677075947E-01  0.10199973998E+01  0.10197165911E+01 0.  0.
     999903    2    3    3    0    0 -0.89503487835E-01  0.88583493934E-01  0.25697074258E-01  0.13003894791E+00  0.19795924221E-01 0.  0.
         14    1    1    2    0    0 -0.15360257848E-01 -0.76620474074E-02 -0.16677075947E-01  0.23932600230E-01  0.00000000000E+00 0.  1.
     999901    1    3    3    0    0  0.10486374568E+00 -0.80921446527E-01 -0.90199983106E-02  0.88995845186E+00  0.88000000000E+00 0.  1.
        -11    1    4    4    0    0 -0.61016808449E-01  0.61265273918E-01  0.81787239503E-02  0.86854115320E-01  0.51100000000E-03 0. -1.
         11    1    4    4    0    0 -0.28486679386E-01  0.27318220017E-01  0.17518350307E-01  0.43184832590E-01  0.51100000000E-03 0.  1.
</event>
<event>
 8    1  0.1162192E+005  0.1043930E+01  0.7957747E-01            NaN
         13   -1    0    0    0    0  0.00000000000E+00  0.00000000000E+00  0.74505805969E-08  0.10566000000E+00  0.10566000000E+00 0.  1.
     999900   -1    0    0    0    0 -0.00000000000E+00 -0.00000000000E+00 -0.74505805969E-08  0.93827000000E+00  0.93827000000E+00 0.  1.
     999902    2    1    2    0    0 -0.17169425047E-01 -0.18534687821E-02 -0.16262593424E-01  0.10202087764E+01  0.10199329640E+01 0.  0.
     999903    2    3    3    0    0  0.12525612495E+00  0.17000019128E-01  0.71012568536E-02  0.12825229722E+00  0.20496985274E-01 0.  0.
         14    1    1    2    0    0  0.17169425047E-01  0.18534687821E-02  0.16262593424E-01  0.23721223574E-01  0.00000000000E+00 0. -1.
     999901    1    3    3    0    0 -0.14242555000E+00 -0.18853487910E-01 -0.23363850278E-01  0.89195647921E+00  0.88000000000E+00 0.  1.
        -11    1    4    4    0    0  0.67793533248E-01 -0.27665623289E-03  0.77936269671E-02  0.68242519233E-01  0.51100000000E-03 0. -1.
         11    1    4    4    0    0  0.57462591702E-01  0.17276675361E-01 -0.69237011347E-03  0.60009777987E-01  0.51100000000E-03 0.  1.
</event>
<event>
 8    1  0.1162192E+005  0.1043930E+01  0.7957747E-01            NaN
         13   -1    0    0    0    0  0.00000000000E+00  0.00000000000E+00  0.74505805969E-08  0.10566000000E+00  0.10566000000E+00 0.  1.
     999900   -1    0    0    0    0 -0.00000000000E+00 -0.00000000000E+00 -0.74505805969E-08  0.93827000000E+00  0.93827000000E+00 0. -1.
     999902    2    1    2    0    0  0.44301132900E-02 -0.21218473786E-02  0.22976857950E-01  0.10204339548E+01  0.10201634143E+01 0.  0.
     999903    2    3    3    0    0 -0.93231353798E-01 -0.89040615093E-01  0.55391431794E-02  0.13060435972E+00  0.20161850200E-01 0.  0.
         14    1    1    2    0    0 -0.44301132900E-02  0.21218473786E-02 -0.22976857950E-01  0.23496045228E-01  0.00000000000E+00 0. -1.
     999901    1    3    3    0    0  0.97661467088E-01  0.86918767714E-01  0.17437714771E-01  0.88982959505E+00  0.88000000000E+00 0. -1.
        -11    1    4    4    0    0 -0.57296776769E-01 -0.62742116577E-01 -0.39928174451E-02  0.85062903388E-01  0.51100000000E-03 0.  1.
         11    1    4    4    0    0 -0.35934577029E-01 -0.26298498516E-01  0.95319606244E-02  0.45541456332E-01  0.51100000000E-03 0. -1.
</event>
<event>
 8    1  0.1162192E+005  0.1043930E+01  0.7957747E-01            NaN
         13   -1    0    0    0    0  0.00000000000E+00  0.00000000000E+00  0.74505805969E-08  0.10566000000E+00  0.10566000000E+00 0. -1.
     999900   -1    0    0    0    0 -0.00000000000E+00 -0.00000000000E+00 -0.74505805969E-08  0.93827000000E+00  0.93827000000E+00 0.  1.
     999902    2    1    2    0    0  0.11275613818E-01 -0.19295612642E-01  0.12072478434E-02  0.10215488119E+01  0.10213036069E+01 0.  0.
     999903    2    3    3    0    0  0.21873891012E-01 -0.11960916375E+00 -0.52991862277E-01  0.13412970258E+00  0.19945437706E-01 0.  0.
         14    1    1    2    0    0 -0.11275613818E-01  0.19295612642E-01 -0.12072478434E-02  0.22381188118E-01  0.00000000000E+00 0. -1.
     999901    1    3    3    0    0 -0.10598277194E-01  0.10031355111E+00  0.54199110121E-01  0.88741910930E+00  0.88000000000E+00 0. -1.
        -11    1    4    4    0    0  0.15561961642E-01 -0.50012393445E-01 -0.31003579147E-01  0.60867866639E-01  0.51100000000E-03 0.  1.
         11    1    4    4    0    0  0.63119293700E-02 -0.69596770307E-01 -0.21988283130E-01  0.73261835942E-01  0.51100000000E-03 0. -1.
</event>
<event>
 8    1  0.1162192E+005  0.1043930E+01  0.7957747E-01            NaN
         13   -1    0    0    0    0  0.00000000000E+00  0.00000000000E+00  0.74505805969E-08  0.10566000000E+00  0.10566000000E+00 0.  1.
     999900   -1    0    0    0    0 -0.00000000000E+00 -0.00000000000E+00 -0.74505805969E-08  0.93827000000E+00  0.93827000000E+00 0.  1.
     999902    2    1    2    0    0  0.24419307361E-01 -0.27634021637E-02  0.40555709860E-02  0.10190224385E+01  0.10187179902E+01 0.  0.
     999903    2    3    3    0    0  0.37547711635E-01  0.24082368141E-01  0.12126059297E+00  0.13074879398E+00  0.20033088046E-01 0.  0.
         14    1    1    2    0    0 -0.24419307361E-01  0.27634021637E-02 -0.40555709860E-02  0.24907561493E-01  0.00000000000E+00 0. -1.
     999901    1    3    3    0    0 -0.13128404273E-01 -0.26845770305E-01 -0.11720502198E+00  0.88827364453E+00  0.88000000000E+00 0.  1.
        -11    1    4    4    0    0  0.70091434327E-02  0.10340615394E-01  0.16104790475E-01  0.20388276426E-01  0.51100000000E-03 0.  1.
         11    1    4    4    0    0  0.30538568202E-01  0.13741752747E-01  0.10515580249E+00  0.11036051755E+00  0.51100000000E-03 0. -1.
</event>
<event>
 8    1  0.1162192E+005  0.1043930E+01  0.7957747E-01            NaN
         13   -1    0    0    0    0  0.00000000000E+00  0.00000000000E+00  0.74505805969E-08  0.10566000000E+00  0.10566000000E+00 0.  1.
     999900   -1    0    0    0    0 -0.00000000000E+00 -0.00000000000E+00 -0.74505805969E-08  0.93827000000E+00  0.93827000000E+00 0.  1.
     999902    2    1    2    0    0 -0.18754883081E-01 -0.54593008441E-02 -0.13077678642E-01  0.10204230801E+01  0.10201522862E+01 0.  0.
     999903    2    3    3    0    0 -0.99840369811E-01  0.10392253790E-01  0.82467757572E-01  0.13140392488E+00  0.19747456859E-01 0.  0.
         14    1    1    2    0    0  0.18754883081E-01  0.54593008441E-02  0.13077678642E-01  0.23506919912E-01  0.00000000000E+00 0. -1.
     999901    1    3    3    0    0  0.81085486730E-01 -0.15851554634E-01 -0.95545436214E-01  0.88901915521E+00  0.88000000000E+00 0.  1.
        -11    1    4    4    0    0 -0.25086104433E-01 -0.59271673447E-02  0.21368265608E-01  0.33485935024E-01  0.51100000000E-03 0.  1.
         11    1    4    4    0    0 -0.74754265379E-01  0.16319421135E-01  0.61099491965E-01  0.97917989858E-01  0.51100000000E-03 0. -1.
</event>
<event>
 7    1  0.1162192E+005  0.1043930E+01  0.7957747E-01            NaN
         13   -1    0    0    0    0  0.00000000000E+00  0.00000000000E+00  0.74505805969E-08  0.10566000000E+00  0.10566000000E+00 0.  1.
     999900   -1    0    0    0    0 -0.00000000000E+00 -0.00000000000E+00 -0.74505805969E-08  0.93827000000E+00  0.93827000000E+00 0. -1.
     999903    2    1    2    0    0 -0.81457923695E-01 -0.19949086242E-01  0.33093947562E-01  0.92422636875E-01  0.20331627264E-01 0.  0.
         14    1    1    2    0    0 -0.13434296874E-01  0.62060514826E-01  0.10371175138E-01  0.64339327839E-01  0.00000000000E+00 0.  1.
     999901    1    1    2    0    0  0.94892220569E-01 -0.42111428585E-01 -0.43465122700E-01  0.88716803529E+00  0.88000000000E+00 0.  1.
        -11    1    3    3    0    0 -0.20078737675E-01 -0.14295814154E-01  0.94866439023E-02  0.26415592791E-01  0.51100000000E-03 0.  1.
         11    1    3    3    0    0 -0.61379186019E-01 -0.56532720876E-02  0.23607303660E-01  0.66007044084E-01  0.51100000000E-03 0. -1.
</event>
<event>
 8    1  0.1162192E+005  0.1043930E+01  0.7957747E-01            NaN
         13   -1    0    0    0    0  0.00000000000E+00  0.00000000000E+00  0.74505805969E-08  0.10566000000E+00  0.10566000000E+00 0. -1.
     999900   -1    0    0    0    0 -0.00000000000E+00 -0.00000000000E+00 -0.74505805969E-08  0.93827000000E+00  0.93827000000E+00 0.  1.
     999902    2    1    2    0    0  0.86349428297E-02 -0.22078003537E-01 -0.14105134019E-02  0.10201815258E+01  0.10199050719E+01 0.  0.
     999903    2    3    3    0    0  0.11942253141E+00 -0.26077956812E-01  0.45207621697E-01  0.13200184809E+00  0.20951324557E-01 0.  0.
         14    1    1    2    0    0 -0.86349428297E-02  0.22078003537E-01  0.14105134019E-02  0.23748474181E-01  0.00000000000E+00 0.  1.
     999901    1    3    3    0    0 -0.11078758858E+00  0.39999532750E-02 -0.46618135099E-01  0.88817967773E+00  0.88000000000E+00 0.  1.
        -11    1    4    4    0    0  0.58070200084E-01 -0.23257430812E-01  0.24557233250E-01  0.67203980922E-01  0.51100000000E-03 0. -1.
         11    1    4    4    0    0  0.61352331323E-01 -0.28205260001E-02  0.20650388446E-01  0.64797867169E-01  0.51100000000E-03 0.  1.
</event>
<event>
 8    1  0.1162192E+005  0.1043930E+01  0.7957747E-01            NaN
         13   -1    0    0    0    0  0.00000000000E+00  0.00000000000E+00  0.74505805969E-08  0.10566000000E+00  0.10566000000E+00 0.  1.
     999900   -1    0    0    0    0 -0.00000000000E+00 -0.00000000000E+00 -0.74505805969E-08  0.93827000000E+00  0.93827000000E+00 0.  1.
     999902    2    1    2    0    0 -0.21375342549E-01  0.67755796651E-03 -0.13173719030E-02  0.10225033852E+01  0.10222788626E+01 0.  0.
     999903    2    3    3    0    0 -0.13330008330E+00 -0.10862067300E-01  0.19643981380E-02  0.13533311936E+00  0.20598485913E-01 0.  0.
         14    1    1    2    0    0  0.21375342549E-01 -0.67755796651E-03  0.13173719030E-02  0.21426614819E-01  0.00000000000E+00 0. -1.
     999901    1    3    3    0    0  0.11192474075E+00  0.11539625266E-01 -0.32817700410E-02  0.88717026582E+00  0.88000000000E+00 0. -1.
        -11    1    4    4    0    0 -0.78431394970E-01 -0.10706307101E-01  0.10316512558E-01  0.79829820750E-01  0.51100000000E-03 0.  1.
         11    1    4    4    0    0 -0.54868688330E-01 -0.15576019846E-03 -0.83521144198E-02  0.55503298610E-01  0.51100000000E-03 0. -1.
</event>
<event>
 7    1  0.1162192E+005  0.1043930E+01  0.7957747E-01            NaN
         13   -1    0    0    0    0  0.00000000000E+00  0.00000000000E+00  0.74505805969E-08  0.10566000000E+00  0.10566000000E+00 0. -1.
     999900   -1    0    0    0    0 -0.00000000000E+00 -0.00000000000E+00 -0.74505805969E-08  0.93827000000E+00  0.93827000000E+00 0.  1.
     999902    2    1    2    0    0 -0.14854935377E-03 -0.13283211520E-01 -0.18880886454E-01  0.10208442111E+01  0.10205831420E+01 0.  0.
         14    1    1    2    0    0  0.14854935377E-03  0.13283211520E-01  0.18880886454E-01  0.23085788886E-01  0.00000000000E+00 0. -1.
     999901    1    3    3    0    0 -0.88453288395E-01 -0.90500440326E-01  0.39225234093E-01  0.88991737421E+00  0.88000000000E+00 0.  1.
        -11    1    3    3    0    0  0.45269710803E-01  0.38855090806E-01 -0.28578305576E-01  0.66151685302E-01  0.51100000000E-03 0.  1.
         11    1    3    3    0    0  0.43035028238E-01  0.38362138000E-01 -0.29527814971E-01  0.64775151604E-01  0.51100000000E-03 0. -1.
</event>
<event>
 8    1  0.1162192E+005  0.1043930E+01  0.7957747E-01            NaN
         13   -1    0    0    0    0  0.00000000000E+00  0.00000000000E+00  0.74505805969E-08  0.10566000000E+00  0.10566000000E+00 0.  1.
     999900   -1    0    0    0    0 -0.00000000000E+00 -0.00000000000E+00 -0.74505805969E-08  0.93827000000E+00  0.93827000000E+00 0. -1.
     999902    2    1    2    0    0 -0.15937499893E-01  0.14220528065E-01  0.86488800674E-02  0.10208859021E+01  0.10206257858E+01 0.  0.
     999903    2    3    3    0    0 -0.12397759613E+00 -0.18161621386E-01 -0.36897800780E-01  0.13251899247E+00  0.22350544267E-01 0.  0.
         14    1    1    2    0    0  0.15937499893E-01 -0.14220528065E-01 -0.86488800674E-02  0.23044097893E-01  0.00000000000E+00 0. -1.
     999901    1    3    3    0    0  0.10804009624E+00  0.32382149451E-01  0.45546680847E-01  0.88836690964E+00  0.88000000000E+00 0. -1.
        -11    1    4    4    0    0 -0.53200821579E-01 -0.18126032308E-01 -0.20810677238E-01  0.59935180587E-01  0.51100000000E-03 0. -1.
         11    1    4    4    0    0 -0.70776774554E-01 -0.35589078404E-04 -0.16087123542E-01  0.72583811885E-01  0.51100000000E-03 0.  1.
</event>
<event>
 8    1  0.1162192E+005  0.1043930E+01  0.7957747E-01            NaN
         13   -1    0    0    0    0  0.00000000000E+00  0.00000000000E+00  0.74505805969E-08  0.10566000000E+00  0.10566000000E+00 0.  1.
     999900   -1    0    0    0    0 -0.00000000000E+00 -0.00000000000E+00 -0.74505805969E-08  0.93827000000E+00  0.93827000000E+00 0. -1.
     999902    2    1    2    0    0 -0.10865915465E-01  0.20933667925E-01  0.80827445033E-02  0.10189977452E+01  0.10186926854E+01 0.  0.
     999903    2    3    3    0    0 -0.16560602333E-01  0.99852795058E-01 -0.80834486020E-01  0.13098483313E+00  0.19441660144E-01 0.  0.
         14    1    1    2    0    0  0.10865915465E-01 -0.20933667925E-01 -0.80827445033E-02  0.24932254820E-01  0.00000000000E+00 0.  1.
     999901    1    3    3    0    0  0.56946868679E-02 -0.78919127133E-01  0.88917230524E-01  0.88801291205E+00  0.88000000000E+00 0.  1.
        -11    1    4    4    0    0 -0.16483108997E-01  0.41538962634E-01 -0.37258916738E-01  0.58186478639E-01  0.51100000000E-03 0.  1.
         11    1    4    4    0    0 -0.77493336067E-04  0.58313832424E-01 -0.43575569282E-01  0.72798354490E-01  0.51100000000E-03 0. -1.
</event>
<event>
 8    1  0.1162192E+005  0.1043930E+01  0.7957747E-01            NaN
         13   -1    0    0    0    0  0.00000000000E+00  0.00000000000E+00  0.74505805969E-08  0.10566000000E+00  0.10566000000E+00 0. -1.
     999900   -1    0    0    0    0 -0.00000000000E+00 -0.00000000000E+00 -0.74505805969E-08  0.93827000000E+00  0.93827000000E+00 0. -1.
     999902    2    1    2    0    0  0.38631273062E-02  0.23338206894E-01 -0.48475146973E-02  0.10197826595E+01  0.10194967281E+01 0.  0.
     999903    2    3    3    0    0  0.28036140673E-01 -0.30400591055E-01 -0.12181025640E+00  0.13009031049E+00  0.19378575757E-01 0.  0.
         14    1    1    2    0    0 -0.38631273062E-02 -0.23338206894E-01  0.48475146973E-02  0.24147340482E-01  0.00000000000E+00 0.  1.
     999901    1    3    3    0    0 -0.24173013367E-01  0.53738797949E-01  0.11696274170E+00  0.88969234903E+00  0.88000000000E+00 0.  1.
        -11    1    4    4    0    0  0.25881973452E-01 -0.27611962791E-01 -0.84246358712E-01  0.92358037637E-01  0.51100000000E-03 0.  1.
         11    1    4    4    0    0  0.21541672211E-02 -0.27886282635E-02 -0.37563897685E-01  0.37732272848E-01  0.51100000000E-03 0. -1.
</event>
<event>
 8    1  0.1162192E+005  0.1043930E+01  0.7957747E-01            NaN
         13   -1    0    0    0    0  0.00000000000E+00  0.00000000000E+00  0.74505805969E-08  0.10566000000E+00  0.10566000000E+00 0. -1.
     999900   -1    0    0    0    0 -0.00000000000E+00 -0.00000000000E+00 -0.74505805969E-08  0.93827000000E+00  0.93827000000E+00 0. -1.
     999902    2    1    2    0    0  0.16679505703E-01 -0.83961517652E-02  0.11023108505E-01  0.10222456693E+01  0.10220156546E+01 0.  0.
     999903    2    3    3    0    0 -0.11968585120E+00  0.10089475532E-01  0.47497653953E-01  0.13080435246E+00  0.20670050708E-01 0.  0.
         14    1    1    2    0    0 -0.16679505703E-01  0.83961517652E-02 -0.11023108505E-01  0.21684330658E-01  0.00000000000E+00 0. -1.
     999901    1    3    3    0    0  0.13636535691E+00 -0.18485627298E-01 -0.36474545448E-01  0.89144131688E+00  0.88000000000E+00 0. -1.
        -11    1    4    4    0    0 -0.66903581528E-01  0.15909147465E-01  0.26641923569E-01  0.73751226477E-01  0.51100000000E-03 0. -1.
         11    1    4    4    0    0 -0.52782269675E-01 -0.58196719323E-02  0.20855730384E-01  0.57053125982E-01  0.51100000000E-03 0.  1.
</event>
<event>
 8    1  0.1162192E+005  0.1043930E+01  0.7957747E-01            NaN
         13   -1    0    0    0    0  0.00000000000E+00  0.00000000000E+00  0.74505805969E-08  0.10566000000E+00  0.10566000000E+00 0. -1.
     999900   -1    0    0    0    0 -0.00000000000E+00 -0.00000000000E+00 -0.74505805969E-08  0.93827000000E+00  0.93827000000E+00 0. -1.
     999902    2    1    2    0    0 -0.16326819097E-01 -0.17282136819E-01 -0.22538918234E-03  0.10201542124E+01  0.10198771147E+01 0.  0.
     999903    2    3    3    0    0 -0.86511987333E-01  0.65328221272E-01 -0.70377405050E-01  0.13073207730E+00  0.19641701739E-01 0.  0.
         14    1    1    2    0    0  0.16326819097E-01  0.17282136819E-01  0.22538918234E-03  0.23775787582E-01  0.00000000000E+00 0. -1.
     999901    1    3    3    0    0  0.70185168236E-01 -0.82610358092E-01  0.70152015867E-01  0.88942213512E+00  0.88000000000E+00 0.  1.
        -11    1    4    4    0    0 -0.18391131312E-01  0.23539071335E-01 -0.24073302837E-01  0.38368041659E-01  0.51100000000E-03 0. -1.
         11    1    4    4    0    0 -0.68120856021E-01  0.41789149937E-01 -0.46304102213E-01  0.92364035643E-01  0.51100000000E-03 0.  1.
</event>
<event>
 8    1  0.1162192E+005  0.1043930E+01  0.7957747E-01            NaN
         13   -1    0    0    0    0  0.00000000000E+00  0.00000000000E+00  0.74505805969E-08  0.10566000000E+00  0.10566000000E+00 0. -1.
     999900   -1    0    0    0    0 -0.00000000000E+00 -0.00000000000E+00 -0.74505805969E-08  0.93827000000E+00  0.93827000000E+00 0.  1.
     999902    2    1    2    0    0 -0.18496995534E-02 -0.12074231458E-02  0.23441189895E-01  0.10203849656E+01  0.10201132827E+01 0.  0.
     999903    2    3    3    0    0  0.11784605301E+00  0.42109858324E-01 -0.26728461438E-01  0.12981186142E+00  0.21812297836E-01 0.  0.
         14    1    1    2    0    0  0.18496995534E-02  0.12074231458E-02 -0.23441189895E-01  0.23545034355E-01  0.00000000000E+00 0.  1.
     999901    1    3    3    0    0 -0.11969575256E+00 -0.43317281470E-01  0.50169651333E-01  0.89057310423E+00  0.88000000000E+00 0. -1.
        -11    1    4    4    0    0  0.68929697756E-01  0.22335915791E-01 -0.26180499743E-01  0.77044636768E-01  0.51100000000E-03 0.  1.
         11    1    4    4    0    0  0.48916355251E-01  0.19773942533E-01 -0.54796169484E-03  0.52767224651E-01  0.51100000000E-03 0. -1.
</event>
<event>
 8    1  0.1162192E+005  0.1043930E+01  0.7957747E-01            NaN
         13   -1    0    0    0    0  0.00000000000E+00  0.00000000000E+00  0.74505805969E-08  0.10566000000E+00  0.10566000000E+00 0. -1.
     999900   -1    0    0    0    0 -0.00000000000E+00 -0.00000000000E+00 -0.74505805969E-08  0.93827000000E+00  0.93827000000E+00 0. -1.
     999902    2    1    2    0    0  0.71502246605E-02  0.18202946914E-01  0.13546649761E-01  0.10201395669E+01  0.10198621236E+01 0.  0.
     999903    2    3    3    0    0  0.63684061484E-01  0.51962458216E-01 -0.99302096444E-01  0.13049322206E+00  0.20293296765E-01 0.  0.
         14    1    1    2    0    0 -0.71502246605E-02 -0.18202946914E-01 -0.13546649761E-01  0.23790433136E-01  0.00000000000E+00 0.  1.
     999901    1    3    3    0    0 -0.56533836823E-01 -0.33759511302E-01  0.11284874620E+00  0.88964634481E+00  0.88000000000E+00 0.  1.
        -11    1    4    4    0    0  0.76079009460E-02  0.15665738650E-01 -0.15455216715E-01  0.23289919901E-01  0.51100000000E-03 0.  1.
         11    1    4    4    0    0  0.56076160538E-01  0.36296719566E-01 -0.83846879728E-01  0.10720330216E+00  0.51100000000E-03 0. -1.
</event>
<event>
 8    1  0.1162192E+005  0.1043930E+01  0.7957747E-01            NaN
         13   -1    0    0    0    0  0.00000000000E+00  0.00000000000E+00  0.74505805969E-08  0.10566000000E+00  0.10566000000E+00 0.  1.
     999900   -1    0    0    0    0 -0.00000000000E+00 -0.00000000000E+00 -0.74505805969E-08  0.93827000000E+00  0.93827000000E+00 0.  1.
     999902    2    1    2    0    0  0.11517172308E-01 -0.18780319775E-01  0.85956916206E-02  0.10202819222E+01  0.10200078280E+01 0.  0.
     999903    2    3    3    0    0 -0.25787111382E-01 -0.51551017750E-01 -0.11509128106E+00  0.13024597044E+00  0.19887868035E-01 0.  0.
         14    1    1    2    0    0 -0.11517172308E-01  0.18780319775E-01 -0.85956916206E-02  0.23648077792E-01  0.00000000000E+00 0. -1.
     999901    1    3    3    0    0  0.37304283690E-01  0.32770697975E-01  0.12368697268E+00  0.89003595177E+00  0.88000000000E+00 0. -1.
        -11    1    4    4    0    0 -0.17897574547E-01 -0.19354195524E-01 -0.37234119256E-01  0.45623993872E-01  0.51100000000E-03 0.  1.
         11    1    4    4    0    0 -0.78895368358E-02 -0.32196822226E-01 -0.77857161805E-01  0.84621976568E-01  0.51100000000E-03 0. -1.
</event>
<event>
 8    1  0.1162192E+005  0.1043930E+01  0.7957747E-01            NaN
         13   -1    0    0    0    0  0.00000000000E+00  0.00000000000E+00  0.74505805969E-08  0.10566000000E+00  0.10566000000E+00 0. -1.
     999900   -1    0    0    0    0 -0.00000000000E+00 -0.00000000000E+00 -0.74505805969E-08  0.93827000000E+00  0.93827000000E+00 0.  1.
     999902    2    1    2    0    0  0.95175200854E-04 -0.22571681001E-01 -0.73736197512E-02  0.10201842612E+01  0.10199078717E+01 0.  0.
     999903    2    3    3    0    0  0.11259408310E+00 -0.59752873557E-01 -0.27846478806E-01  0.13200771160E+00  0.20069282291E-01 0.  0.
         14    1    1    2    0    0 -0.95175200854E-04  0.22571681001E-01  0.73736197512E-02  0.23745738770E-01  0.00000000000E+00 0.  1.
     999901    1    3    3    0    0 -0.11249890790E+00  0.37181192556E-01  0.20472859055E-01  0.88817654963E+00  0.88000000000E+00 0. -1.
        -11    1    4    4    0    0  0.70120789856E-01 -0.47184583748E-01 -0.14588428170E-01  0.85769420372E-01  0.51100000000E-03 0. -1.
         11    1    4    4    0    0  0.42473293244E-01 -0.12568289809E-01 -0.13258050636E-01  0.46238291225E-01  0.51100000000E-03 0.  1.
</event>
<event>
 8    1  0.1162192E+005  0.1043930E+01  0.7957747E-01            NaN
         13   -1    0    0    0    0  0.00000000000E+00  0.00000000000E+00  0.74505805969E-08  0.10566000000E+00  0.10566000000E+00 0. -1.
     999900   -1    0    0    0    0 -0.00000000000E+00 -0.00000000000E+00 -0.74505805969E-08  0.93827000000E+00  0.93827000000E+00 0.  1.
     999902    2    1    2    0    0  0.21093383490E-02 -0.22433431411E-01  0.35236562563E-02  0.10211237661E+01  0.10208690520E+01 0.  0.
     999903    2    3    3    0    0  0.39819801119E-01 -0.27228134774E-01  0.12207104281E+00  0.13236139566E+00  0.17064925503E-01 0.  0.
         14    1    1    2    0    0 -0.21093383490E-02  0.22433431411E-01 -0.35236562563E-02  0.22806233941E-01  0.00000000000E+00 0.  1.
     999901    1    3    3    0    0 -0.37710462770E-01  0.47947033633E-02 -0.11854738656E+00  0.88876237040E+00  0.88000000000E+00 0.  1.
        -11    1    4    4    0    0  0.32710691913E-01 -0.24196281635E-01  0.81908579639E-01  0.91458875730E-01  0.51100000000E-03 0. -1.
         11    1    4    4    0    0  0.71091092057E-02 -0.30318531396E-02  0.40162463175E-01  0.40902519927E-01  0.51100000000E-03 0.  1.
</event>
<event>
 8    1  0.1162192E+005  0.1043930E+01  0.7957747E-01            NaN
         13   -1    0    0    0    0  0.00000000000E+00  0.00000000000E+00  0.74505805969E-08  0.10566000000E+00  0.10566000000E+00 0. -1.
     999900   -1    0    0    0    0 -0.00000000000E+00 -0.00000000000E+00 -0.74505805969E-08  0.93827000000E+00  0.93827000000E+00 0.  1.
     999902    2    1    2    0    0  0.20835137333E-01  0.36388689539E-02  0.11145930599E-01  0.10200223426E+01  0.10197421259E+01 0.  0.
     999903    2    3    3    0    0  0.12495057625E+00 -0.40033948622E-01  0.48822164142E-02  0.13278698837E+00  0.19828885409E-01 0.  0.
         14    1    1    2    0    0 -0.20835137333E-01 -0.36388689539E-02 -0.11145930599E-01  0.23907657432E-01  0.00000000000E+00 0. -1.
     999901    1    3    3    0    0 -0.10411543892E+00  0.43672817575E-01  0.62637141843E-02  0.88723535419E+00  0.88000000000E+00 0. -1.
        -11    1    4    4    0    0  0.48909952455E-01 -0.59430826515E-02 -0.55375721649E-03  0.49275464977E-01  0.51100000000E-03 0.  1.
         11    1    4    4    0    0  0.76040623796E-01 -0.34090865970E-01  0.54359736307E-02  0.83511523398E-01  0.51100000000E-03 0. -1.
</event>
<event>
 8    1  0.1162192E+005  0.1043930E+01  0.7957747E-01            NaN
         13   -1    0    0    0    0  0.00000000000E+00  0.00000000000E+00  0.74505805969E-08  0.10566000000E+00  0.10566000000E+00 0.  1.
     999900   -1    0    0    0    0 -0.00000000000E+00 -0.00000000000E+00 -0.74505805969E-08  0.93827000000E+00  0.93827000000E+00 0.  1.
     999902    2    1    2    0    0 -0.11063799083E-01 -0.18908290283E-01 -0.95496002128E-02  0.10200317583E+01  0.10197517649E+01 0.  0.
     999903    2    3    3    0    0 -0.48437946445E-01 -0.10745659769E+00  0.56673971299E-01  0.13232505503E+00  0.20120291308E-01 0.  0.
         14    1    1    2    0    0  0.11063799083E-01  0.18908290283E-01  0.95496002128E-02  0.23898241688E-01  0.00000000000E+00 0. -1.
     999901    1    3    3    0    0  0.37374147362E-01  0.88548307405E-01 -0.66223571512E-01  0.88770670329E+00  0.88000000000E+00 0. -1.
        -11    1    4    4    0    0 -0.92120903532E-02 -0.39828977491E-01  0.13744131737E-01  0.43132033744E-01  0.51100000000E-03 0.  1.
         11    1    4    4    0    0 -0.39225856092E-01 -0.67627620196E-01  0.42929839563E-01  0.89193021282E-01  0.51100000000E-03 0. -1.
</event>
<event>
 8    1  0.1162192E+005  0.1043930E+01  0.7957747E-01            NaN
         13   -1    0    0    0    0  0.00000000000E+00  0.00000000000E+00  0.74505805969E-08  0.10566000000E+00  0.10566000000E+00 0. -1.
     999900   -1    0    0    0    0 -0.00000000000E+00 -0.00000000000E+00 -0.74505805969E-08  0.93827000000E+00  0.93827000000E+00 0.  1.
     999902    2    1    2    0    0  0.19923099149E-01 -0.18003148758E-01  0.23304742587E-01  0.10083750528E+01  0.10077480304E+01 0.  0.
     999903    2    3    3    0    0 -0.60504386543E-01  0.37504711401E-01  0.94589053298E-01  0.12010079561E+00  0.20241737430E-01 0.  0.
         14    1    1    2    0    0 -0.19923099149E-01  0.18003148758E-01 -0.23304742587E-01  0.35554947222E-01  0.00000000000E+00 0. -1.
     999901    1    3    3    0    0  0.80427485692E-01 -0.55507860159E-01 -0.71284310711E-01  0.88827425717E+00  0.88000000000E+00 0.  1.
        -11    1    4    4    0    0 -0.57859816695E-01  0.29764354508E-01  0.88706187624E-01  0.11001238126E+00  0.51100000000E-03 0. -1.
         11    1    4    4    0    0 -0.26445698479E-02  0.77403568932E-02  0.58828656743E-02  0.10088414348E-01  0.51100000000E-03 0.  1.
</event>
<event>
 8    1  0.1162192E+005  0.1043930E+01  0.7957747E-01            NaN
         13   -1    0    0    0    0  0.00000000000E+00  0.00000000000E+00  0.74505805969E-08  0.10566000000E+00  0.10566000000E+00 0. -1.
     999900   -1    0    0    0    0 -0.00000000000E+00 -0.00000000000E+00 -0.74505805969E-08  0.93827000000E+00  0.93827000000E+00 0.  1.
     999902    2    1    2    0    0  0.65523760398E-02  0.16695047894E-01 -0.12834956497E-01  0.10218756498E+01  0.10216376311E+01 0.  0.
     999903    2    3    3    0    0  0.59016204926E-01 -0.79097412515E-01 -0.85378229323E-01  0.13216155229E+00  0.20926556128E-01 0.  0.
         14    1    1    2    0    0 -0.65523760398E-02 -0.16695047894E-01  0.12834956497E-01  0.22054350234E-01  0.00000000000E+00 0. -1.
     999901    1    3    3    0    0 -0.52463828887E-01  0.95792460409E-01  0.72543272825E-01  0.88971409747E+00  0.88000000000E+00 0. -1.
        -11    1    4    4    0    0  0.90360375632E-02 -0.14278751134E-01 -0.26109035673E-01  0.31104269379E-01  0.51100000000E-03 0.  1.
         11    1    4    4    0    0  0.49980167363E-01 -0.64818661382E-01 -0.59269193649E-01  0.10105728291E+00  0.51100000000E-03 0. -1.
</event>
<event>
 8    1  0.1162192E+005  0.1043930E+01  0.7957747E-01            NaN
         13   -1    0    0    0    0  0.00000000000E+00  0.00000000000E+00  0.74505805969E-08  0.10566000000E+00  0.10566000000E+00 0.  1.
     999900   -1    0    0    0    0 -0.00000000000E+00 -0.00000000000E+00 -0.74505805969E-08  0.93827000000E+00  0.93827000000E+00 0. -1.
     999902    2    1    2    0    0 -0.20180685780E-01  0.69215865166E-02  0.98125426843E-02  0.10204469331E+01  0.10201766949E+01 0.  0.
     999903    2    3    3    0    0 -0.10643497885E+00  0.70075118556E-01 -0.32138039057E-01  0.13298537166E+00  0.20330483429E-01 0.  0.
         14    1    1    2    0    0  0.20180685780E-01 -0.69215865166E-02 -0.98125426843E-02  0.23483066929E-01  0.00000000000E+00 0.  1.
     999901    1    3    3    0    0  0.86254293069E-01 -0.63153532040E-01  0.41950581742E-01  0.88746156142E+00  0.88000000000E+00 0.  1.
        -11    1    4    4    0    0 -0.98568155559E-01  0.69339671510E-01 -0.33180233605E-01  0.12499944143E+00  0.51100000000E-03 0. -1.
         11    1    4    4    0    0 -0.78668232906E-02  0.73544704585E-03  0.10421945474E-02  0.79859302225E-02  0.51100000000E-03 0.  1.
</event>
<event>
 8    1  0.1162192E+005  0.1043930E+01  0.7957747E-01            NaN
         13   -1    0    0    0    0  0.00000000000E+00  0.00000000000E+00  0.74505805969E-08  0.10566000000E+00  0.10566000000E+00 0.  1.
     999900   -1    0    0    0    0 -0.00000000000E+00 -0.00000000000E+00 -0.74505805969E-08  0.93827000000E+00  0.93827000000E+00 0.  1.
     999902    2    1    2    0    0  0.31133890699E-03 -0.17955041367E-01  0.15470333706E-01  0.10202274333E+01  0.10199520597E+01 0.  0.
     999903    2    3    3    0    0 -0.72738579491E-01  0.99752142977E-01 -0.29009361874E-01  0.12828028514E+00  0.19310554214E-01 0.  0.
         14    1    1    2    0    0 -0.31133890699E-03  0.17955041367E-01 -0.15470333706E-01  0.23702566683E-01  0.00000000000E+00 0. -1.
     999901    1    3    3    0    0  0.73049918398E-01 -0.11770718434E+00  0.44479695579E-01  0.89194714818E+00  0.88000000000E+00 0.  1.
        -11    1    4    4    0    0 -0.65866809147E-01  0.78073391038E-01 -0.25275484337E-01  0.10522833347E+00  0.51100000000E-03 0.  1.
         11    1    4    4    0    0 -0.68717703445E-02  0.21678751939E-01 -0.37338775374E-02  0.23051951669E-01  0.51100000000E-03 0. -1.
</event>
<event>
 8    1  0.1162192E+005  0.1043930E+01  0.7957747E-01            NaN
         13   -1    0    0    0    0  0.00000000000E+00  0.00000000000E+00  0.74505805969E-08  0.10566000000E+00  0.10566000000E+00 0. -1.
     999900   -1    0    0    0    0 -0.00000000000E+00 -0.00000000000E+00 -0.74505805969E-08  0.93827000000E+00  0.93827000000E+00 0.  1.
     999902    2    1    2    0    0 -0.18836594562E-01  0.22232994926E-01  0.21030570878E-01  0.10079938306E+01  0.10073530435E+01 0.  0.
     999903    2    3    3    0    0 -0.52300206942E-01  0.12932220297E-01 -0.10375636731E+00  0.11851190405E+00  0.19419929863E-01 0.  0.
         14    1    1    2    0    0  0.18836594562E-01 -0.22232994926E-01 -0.21030570878E-01  0.35936169378E-01  0.00000000000E+00 0.  1.
     999901    1    3    3    0    0  0.33463612381E-01  0.93007746287E-02  0.12478693819E+00  0.88948192658E+00  0.88000000000E+00 0. -1.
        -11    1    4    4    0    0 -0.36958819268E-01  0.13594750031E-01 -0.88463666557E-01  0.96834151888E-01  0.51100000000E-03 0. -1.
         11    1    4    4    0    0 -0.15341387674E-01 -0.66252973398E-03 -0.15292700751E-01  0.21677752160E-01  0.51100000000E-03 0.  1.
</event>
<event>
 8    1  0.1162192E+005  0.1043930E+01  0.7957747E-01            NaN
         13   -1    0    0    0    0  0.00000000000E+00  0.00000000000E+00  0.74505805969E-08  0.10566000000E+00  0.10566000000E+00 0.  1.
     999900   -1    0    0    0    0 -0.00000000000E+00 -0.00000000000E+00 -0.74505805969E-08  0.93827000000E+00  0.93827000000E+00 0.  1.
     999902    2    1    2    0    0 -0.18356373346E-01  0.49225888090E-03  0.11168207907E-01  0.10224374983E+01  0.10222115781E+01 0.  0.
     999903    2    3    3    0    0  0.10047401154E+00 -0.16730883643E-01  0.80747085080E-01  0.13156235713E+00  0.20337467982E-01 0.  0.
         14    1    1    2    0    0  0.18356373346E-01 -0.49225888090E-03 -0.11168207907E-01  0.21492501694E-01  0.00000000000E+00 0. -1.
     999901    1    3    3    0    0 -0.11883038488E+00  0.17223142524E-01 -0.69578877173E-01  0.89087514117E+00  0.88000000000E+00 0.  1.
        -11    1    4    4    0    0  0.70431820548E-01 -0.93247350215E-02  0.44205721570E-01  0.83677947928E-01  0.51100000000E-03 0.  1.
         11    1    4    4    0    0  0.30042190989E-01 -0.74061486219E-02  0.36541363510E-01  0.47884409206E-01  0.51100000000E-03 0. -1.
</event>
<event>
 8    1  0.1162192E+005  0.1043930E+01  0.7957747E-01            NaN
         13   -1    0    0    0    0  0.00000000000E+00  0.00000000000E+00  0.74505805969E-08  0.10566000000E+00  0.10566000000E+00 0. -1.
     999900   -1    0    0    0    0 -0.00000000000E+00 -0.00000000000E+00 -0.74505805969E-08  0.93827000000E+00  0.93827000000E+00 0.  1.
     999902    2    1    2    0    0 -0.72983347839E-02 -0.20309515508E-01  0.92032066615E-02  0.10204685183E+01  0.10201987825E+01 0.  0.
     999903    2    3    3    0    0  0.10313909961E+00 -0.35070659520E-01 -0.68477233065E-01  0.13004807322E+00  0.18861200201E-01 0.  0.
         14    1    1    2    0    0  0.72983347839E-02  0.20309515508E-01 -0.92032066615E-02  0.23461481702E-01  0.00000000000E+00 0.  1.
     999901    1    3    3    0    0 -0.11043743440E+00  0.14761144011E-01  0.77680439727E-01  0.89042044507E+00  0.88000000000E+00 0.  1.
        -11    1    4    4    0    0  0.70855811839E-01 -0.19621671406E-01 -0.54927915150E-01  0.91776320714E-01  0.51100000000E-03 0.  1.
         11    1    4    4    0    0  0.32283287774E-01 -0.15448988114E-01 -0.13549317916E-01  0.38271752510E-01  0.51100000000E-03 0. -1.
</event>
<event>
 8    1  0.1162192E+005  0.1043930E+01  0.7957747E-01            NaN
         13   -1    0    0    0    0  0.00000000000E+00  0.00000000000E+00  0.74505805969E-08  0.10566000000E+00  0.10566000000E+00 0.  1.
     999900   -1    0    0    0    0 -0.00000000000E+00 -0.00000000000E+00 -0.74505805969E-08  0.93827000000E+00  0.93827000000E+00 0. -1.
     999902    2    1    2    0    0  0.21741818231E-01  0.89665576041E-02 -0.83233242580E-02  0.10189823840E+01  0.10186769436E+01 0.  0.
     999903    2    3    3    0    0 -0.39175165899E-01 -0.11893299878E+00 -0.12257013195E-01  0.12764370016E+00  0.21515761564E-01 0.  0.
         14    1    1    2    0    0 -0.21741818231E-01 -0.89665576041E-02  0.83233242580E-02  0.24947615958E-01  0.00000000000E+00 0. -1.
     999901    1    3    3    0    0  0.60916984130E-01  0.12789955638E+00  0.39336889370E-02  0.89133868388E+00  0.88000000000E+00 0.  1.
        -11    1    4    4    0    0 -0.23871214379E-01 -0.41026842543E-01 -0.79517720059E-02  0.48130328111E-01  0.51100000000E-03 0.  1.
         11    1    4    4    0    0 -0.15303951519E-01 -0.77906156237E-01 -0.43052411890E-02  0.79513372048E-01  0.51100000000E-03 0. -1.
</event>
<event>
 8    1  0.1162192E+005  0.1043930E+01  0.7957747E-01            NaN
         13   -1    0    0    0    0  0.00000000000E+00  0.00000000000E+00  0.74505805969E-08  0.10566000000E+00  0.10566000000E+00 0. -1.
     999900   -1    0    0    0    0 -0.00000000000E+00 -0.00000000000E+00 -0.74505805969E-08  0.93827000000E+00  0.93827000000E+00 0.  1.
     999902    2    1    2    0    0 -0.25404776939E-02 -0.23115713702E-01 -0.14357231738E-02  0.10206308252E+01  0.10203648513E+01 0.  0.
     999903    2    3    3    0    0 -0.93053667667E-01  0.32829698046E-01  0.82961543033E-01  0.13021214544E+00  0.18325148263E-01 0.  0.
         14    1    1    2    0    0  0.25404776939E-02  0.23115713702E-01  0.14357231738E-02  0.23299174833E-01  0.00000000000E+00 0. -1.
     999901    1    3    3    0    0  0.90513189973E-01 -0.55945411748E-01 -0.84397266207E-01  0.89041867972E+00  0.88000000000E+00 0.  1.
        -11    1    4    4    0    0 -0.31221847931E-01  0.26874742525E-02  0.21939757826E-01  0.38257553510E-01  0.51100000000E-03 0. -1.
         11    1    4    4    0    0 -0.61831819735E-01  0.30142223794E-01  0.61021785208E-01  0.91954591935E-01  0.51100000000E-03 0.  1.
</event>
<event>
 8    1  0.1162192E+005  0.1043930E+01  0.7957747E-01            NaN
         13   -1    0    0    0    0  0.00000000000E+00  0.00000000000E+00  0.74505805969E-08  0.10566000000E+00  0.10566000000E+00 0. -1.
     999900   -1    0    0    0    0 -0.00000000000E+00 -0.00000000000E+00 -0.74505805969E-08  0.93827000000E+00  0.93827000000E+00 0. -1.
     999902    2    1    2    0    0 -0.28308738027E-02 -0.17504251732E-01 -0.15870255208E-01  0.10201334104E+01  0.10198558219E+01 0.  0.
     999903    2    3    3    0    0 -0.92285408758E-01 -0.36010386283E-01 -0.85693113741E-01  0.13265393324E+00  0.20985987526E-01 0.  0.
         14    1    1    2    0    0  0.28308738027E-02  0.17504251732E-01  0.15870255208E-01  0.23796589578E-01  0.00000000000E+00 0.  1.
     999901    1    3    3    0    0  0.89454534955E-01  0.18506134551E-01  0.69822858533E-01  0.88747947718E+00  0.88000000000E+00 0.  1.
        -11    1    4    4    0    0 -0.33142935541E-01 -0.16847077711E-01 -0.44885977467E-01  0.58286278812E-01  0.51100000000E-03 0.  1.
         11    1    4    4    0    0 -0.59142473217E-01 -0.19163308572E-01 -0.40807136275E-01  0.74367654431E-01  0.51100000000E-03 0. -1.
</event>
<event>
 8    1  0.1162192E+005  0.1043930E+01  0.7957747E-01            NaN
         13   -1    0    0    0    0  0.00000000000E+00  0.00000000000E+00  0.74505805969E-08  0.10566000000E+00  0.10566000000E+00 0.  1.
     999900   -1    0    0    0    0 -0.00000000000E+00 -0.00000000000E+00 -0.74505805969E-08  0.93827000000E+00  0.93827000000E+00 0. -1.
     999902    2    1    2    0    0 -0.11547512312E-01 -0.20028277486E-02 -0.19674359018E-01  0.10210294157E+01  0.10207725657E+01 0.  0.
     999903    2    3    3    0    0  0.56670093165E-01 -0.10752072280E+00 -0.46583856909E-01  0.13169720050E+00  0.20047234317E-01 0.  0.
         14    1    1    2    0    0  0.11547512312E-01  0.20028277486E-02  0.19674359018E-01  0.22900584323E-01  0.00000000000E+00 0.  1.
     999901    1    3    3    0    0 -0.68217605477E-01  0.10551789505E+00  0.26909497891E-01  0.88933221518E+00  0.88000000000E+00 0.  1.
        -11    1    4    4    0    0  0.22971423555E-01 -0.64856533368E-01 -0.26710121426E-01  0.73808860771E-01  0.51100000000E-03 0. -1.
         11    1    4    4    0    0  0.33698669610E-01 -0.42664189435E-01 -0.19873735483E-01  0.57888339730E-01  0.51100000000E-03 0.  1.
</event>
<event>
 8    1  0.1162192E+005  0.1043930E+01  0.7957747E-01            NaN
         13   -1    0    0    0    0  0.00000000000E+00  0.00000000000E+00  0.74505805969E-08  0.10566000000E+00  0.10566000000E+00 0.  1.
     999900   -1    0    0    0    0 -0.00000000000E+00 -0.00000000000E+00 -0.74505805969E-08  0.93827000000E+00  0.93827000000E+00 0. -1.
     999902    2    1    2    0    0  0.11169050513E-01 -0.17466220024E-01  0.13148461336E-01  0.10193800801E+01  0.10190844171E+01 0.  0.
     999903    2    3    3    0    0 -0.20364032248E-02 -0.30196937915E-01 -0.12330927991E+00  0.12867408466E+00  0.20876770663E-01 0.  0.
         14    1    1    2    0    0 -0.11169050513E-01  0.17466220024E-01 -0.13148461336E-01  0.24549919894E-01  0.00000000000E+00 0. -1.
     999901    1    3    3    0    0  0.13205453738E-01  0.12730717891E-01  0.13645774124E+00  0.89070599545E+00  0.88000000000E+00 0.  1.
        -11    1    4    4    0    0 -0.38677871383E-02 -0.32856042046E-01 -0.10547955376E+00  0.11054716938E+00  0.51100000000E-03 0. -1.
         11    1    4    4    0    0  0.18313839135E-02  0.26591041312E-02 -0.17829726147E-01  0.18126915272E-01  0.51100000000E-03 0.  1.
</event>
<event>
 8    1  0.1162192E+005  0.1043930E+01  0.7957747E-01            NaN
         13   -1    0    0    0    0  0.00000000000E+00  0.00000000000E+00  0.74505805969E-08  0.10566000000E+00  0.10566000000E+00 0. -1.
     999900   -1    0    0    0    0 -0.00000000000E+00 -0.00000000000E+00 -0.74505805969E-08  0.93827000000E+00  0.93827000000E+00 0.  1.
     999902    2    1    2    0    0 -0.15030784064E-01  0.15652001451E-01  0.17732012541E-01  0.10159061907E+01  0.10155195982E+01 0.  0.
     999903    2    3    3    0    0 -0.10316091179E+00  0.59762778582E-01  0.47445686254E-01  0.12990642632E+00  0.20268769809E-01 0.  0.
         14    1    1    2    0    0  0.15030784064E-01 -0.15652001451E-01 -0.17732012541E-01  0.28023809301E-01  0.00000000000E+00 0.  1.
     999901    1    3    3    0    0  0.88130127729E-01 -0.44110777132E-01 -0.29713673714E-01  0.88599976438E+00  0.88000000000E+00 0.  1.
        -11    1    4    4    0    0 -0.95283997782E-01  0.48043218433E-01  0.40256961823E-01  0.11405294896E+00  0.51100000000E-03 0. -1.
         11    1    4    4    0    0 -0.78769140112E-02  0.11719560149E-01  0.71887244311E-02  0.15853477359E-01  0.51100000000E-03 0.  1.
</event>
<event>
 8    1  0.1162192E+005  0.1043930E+01  0.7957747E-01            NaN
         13   -1    0    0    0    0  0.00000000000E+00  0.00000000000E+00  0.74505805969E-08  0.10566000000E+00  0.10566000000E+00 0. -1.
     999900   -1    0    0    0    0 -0.00000000000E+00 -0.00000000000E+00 -0.74505805969E-08  0.93827000000E+00  0.93827000000E+00 0.  1.
     999902    2    1    2    0    0  0.23454490999E-02  0.65591269590E-02  0.22082441855E-01  0.10207749246E+01  0.10205122680E+01 0.  0.
     999903    2    3    3    0    0 -0.10645166208E+00  0.74004332763E-01  0.27116592913E-02  0.13130266849E+00  0.20601942409E-01 0.  0.
         14    1    1    2    0    0 -0.23454490999E-02 -0.65591269590E-02 -0.22082441855E-01  0.23155075388E-01  0.00000000000E+00 0.  1.
     999901    1    3    3    0    0  0.10879711118E+00 -0.67445205804E-01  0.19370782563E-01  0.88947225612E+00  0.88000000000E+00 0. -1.
        -11    1    4    4    0    0 -0.68270523379E-01  0.53496004947E-01 -0.65460467094E-02  0.86981600102E-01  0.51100000000E-03 0. -1.
         11    1    4    4    0    0 -0.38181138698E-01  0.20508327816E-01  0.92577060006E-02  0.44321068393E-01  0.51100000000E-03 0.  1.
</event>
<event>
 8    1  0.1162192E+005  0.1043930E+01  0.7957747E-01            NaN
         13   -1    0    0    0    0  0.00000000000E+00  0.00000000000E+00  0.74505805969E-08  0.10566000000E+00  0.10566000000E+00 0. -1.
     999900   -1    0    0    0    0 -0.00000000000E+00 -0.00000000000E+00 -0.74505805969E-08  0.93827000000E+00  0.93827000000E+00 0.  1.
     999902    2    1    2    0    0  0.64841738390E-02 -0.22749613799E-01  0.29307656950E-02  0.10200934980E+01  0.10198149665E+01 0.  0.
     999903    2    3    3    0    0  0.25455235834E-02 -0.11797147949E+00 -0.57528233883E-01  0.13288551379E+00  0.20623104041E-01 0.  0.
         14    1    1    2    0    0 -0.64841738390E-02  0.22749613799E-01 -0.29307656950E-02  0.23836501966E-01  0.00000000000E+00 0. -1.
     999901    1    3    3    0    0  0.39386502556E-02  0.95221865686E-01  0.60458999578E-01  0.88720798424E+00  0.88000000000E+00 0. -1.
        -11    1    4    4    0    0 -0.86544851304E-02 -0.38951911123E-01 -0.17022570038E-01  0.43384104286E-01  0.51100000000E-03 0.  1.
         11    1    4    4    0    0  0.11200008714E-01 -0.79019568362E-01 -0.40505663845E-01  0.89501409508E-01  0.51100000000E-03 0. -1.
</event>
<event>
 8    1  0.1162192E+005  0.1043930E+01  0.7957747E-01            NaN
         13   -1    0    0    0    0  0.00000000000E+00  0.00000000000E+00  0.74505805969E-08  0.10566000000E+00  0.10566000000E+00 0. -1.
     999900   -1    0    0    0    0 -0.00000000000E+00 -0.00000000000E+00 -0.74505805969E-08  0.93827000000E+00  0.93827000000E+00 0. -1.
     999902    2    1    2    0    0  0.16035857192E-01  0.12554414718E-01  0.12276080105E-01  0.10201505091E+01  0.10198733240E+01 0.  0.
     999903    2    3    3    0    0  0.12830343294E-02  0.10015539347E+00 -0.81065208588E-01  0.13076635507E+00  0.22260335979E-01 0.  0.
         14    1    1    2    0    0 -0.16035857192E-01 -0.12554414718E-01 -0.12276080105E-01  0.23779490902E-01  0.00000000000E+00 0. -1.
     999901    1    3    3    0    0  0.14752822862E-01 -0.87600978747E-01  0.93341288693E-01  0.88938415403E+00  0.88000000000E+00 0.  1.
        -11    1    4    4    0    0  0.45909604821E-02  0.26678085346E-01 -0.11133876468E-01  0.29274929241E-01  0.51100000000E-03 0. -1.
         11    1    4    4    0    0 -0.33079261527E-02  0.73477308119E-01 -0.69931332120E-01  0.10149142583E+00  0.51100000000E-03 0.  1.
</event>
<event>
 8    1  0.1162192E+005  0.1043930E+01  0.7957747E-01            NaN
         13   -1    0    0    0    0  0.00000000000E+00  0.00000000000E+00  0.74505805969E-08  0.10566000000E+00  0.10566000000E+00 0.  1.
     999900   -1    0    0    0    0 -0.00000000000E+00 -0.00000000000E+00 -0.74505805969E-08  0.93827000000E+00  0.93827000000E+00 0.  1.
     999902    2    1    2    0    0 -0.10680089322E-01 -0.19312429823E-01  0.14698019420E-01  0.10174146077E+01  0.10170690330E+01 0.  0.
     999903    2    3    3    0    0  0.87663084743E-01 -0.91846064440E-01 -0.98441503766E-02  0.12863182990E+00  0.18130758009E-01 0.  0.
         14    1    1    2    0    0  0.10680089322E-01  0.19312429823E-01 -0.14698019420E-01  0.26515392293E-01  0.00000000000E+00 0.  1.
     999901    1    3    3    0    0 -0.98343174065E-01  0.72533634617E-01  0.24542169797E-01  0.88878277781E+00  0.88000000000E+00 0. -1.
        -11    1    4    4    0    0  0.49797721168E-01 -0.50209487666E-01  0.34458322944E-02  0.70802122613E-01  0.51100000000E-03 0. -1.
         11    1    4    4    0    0  0.37865363574E-01 -0.41636576773E-01 -0.13289982671E-01  0.57829707283E-01  0.51100000000E-03 0.  1.
</event>
<event>
 8    1  0.1162192E+005  0.1043930E+01  0.7957747E-01            NaN
         13   -1    0    0    0    0  0.00000000000E+00  0.00000000000E+00  0.74505805969E-08  0.10566000000E+00  0.10566000000E+00 0.  1.
     999900   -1    0    0    0    0 -0.00000000000E+00 -0.00000000000E+00 -0.74505805969E-08  0.93827000000E+00  0.93827000000E+00 0. -1.
     999902    2    1    2    0    0 -0.41171120658E-02  0.12296294652E-01  0.19991391280E-01  0.10201013366E+01  0.10198229904E+01 0.  0.
     999903    2    3    3    0    0 -0.47166377031E-01 -0.65326377240E-01 -0.96647731929E-01  0.12797847317E+00  0.23356001826E-01 0.  0.
         14    1    1    2    0    0  0.41171120658E-02 -0.12296294652E-01 -0.19991391280E-01  0.23828663396E-01  0.00000000000E+00 0. -1.
     999901    1    3    3    0    0  0.43049264965E-01  0.77622671892E-01  0.11663912321E+00  0.89212286344E+00  0.88000000000E+00 0.  1.
        -11    1    4    4    0    0 -0.32627121399E-01 -0.53214950439E-01 -0.59261041467E-01  0.86072598182E-01  0.51100000000E-03 0.  1.
         11    1    4    4    0    0 -0.14539255632E-01 -0.12111426801E-01 -0.37386690462E-01  0.41905874984E-01  0.51100000000E-03 0. -1.
</event>
<event>
 8    1  0.1162192E+005  0.1043930E+01  0.7957747E-01            NaN
         13   -1    0    0    0    0  0.00000000000E+00  0.00000000000E+00  0.74505805969E-08  0.10566000000E+00  0.10566000000E+00 0. -1.
     999900   -1    0    0    0    0 -0.00000000000E+00 -0.00000000000E+00 -0.74505805969E-08  0.93827000000E+00  0.93827000000E+00 0.  1.
     999902    2    1    2    0    0 -0.10685161500E-01  0.12755265376E-02 -0.21051328128E-01  0.10202877061E+01  0.10200137475E+01 0.  0.
     999903    2    3    3    0    0  0.36037667968E-01  0.16099578247E-01  0.11997940254E+00  0.12771141117E+00  0.18900729509E-01 0.  0.
         14    1    1    2    0    0  0.10685161500E-01 -0.12755265376E-02  0.21051328128E-01  0.23642293885E-01  0.00000000000E+00 0. -1.
     999901    1    3    3    0    0 -0.46722829468E-01 -0.14824051710E-01 -0.14103073067E+00  0.89257629494E+00  0.88000000000E+00 0.  1.
        -11    1    4    4    0    0  0.84836330683E-02 -0.42163374481E-02  0.28263683483E-01  0.29813528080E-01  0.51100000000E-03 0.  1.
         11    1    4    4    0    0  0.27554034900E-01  0.20315915695E-01  0.91715719061E-01  0.97897883091E-01  0.51100000000E-03 0. -1.
</event>
<event>
 8    1  0.1162192E+005  0.1043930E+01  0.7957747E-01            NaN
         13   -1    0    0    0    0  0.00000000000E+00  0.00000000000E+00  0.74505805969E-08  0.10566000000E+00  0.10566000000E+00 0.  1.
     999900   -1    0    0    0    0 -0.00000000000E+00 -0.00000000000E+00 -0.74505805969E-08  0.93827000000E+00  0.93827000000E+00 0. -1.
     999902    2    1    2    0    0  0.22185902207E-01 -0.15808365003E-01 -0.51945511721E-03  0.10166831930E+01  0.10163180242E+01 0.  0.
     999903    2    3    3    0    0  0.47890653496E-01 -0.12140059595E-01 -0.11675189747E+00  0.12866057423E+00  0.21946345018E-01 0.  0.
         14    1    1    2    0    0 -0.22185902207E-01  0.15808365003E-01  0.51945511721E-03  0.27246807050E-01  0.00000000000E+00 0. -1.
     999901    1    3    3    0    0 -0.25704751289E-01 -0.36683054077E-02  0.11623244235E+00  0.88802261872E+00  0.88000000000E+00 0.  1.
        -11    1    4    4    0    0  0.48661320092E-01 -0.11766670977E-01 -0.99560389472E-01  0.11144016732E+00  0.51100000000E-03 0.  1.
         11    1    4    4    0    0 -0.77066659581E-03 -0.37338861738E-03 -0.17191507996E-01  0.17220406912E-01  0.51100000000E-03 0. -1.
</event>
<event>
 8    1  0.1162192E+005  0.1043930E+01  0.7957747E-01            NaN
         13   -1    0    0    0    0  0.00000000000E+00  0.00000000000E+00  0.74505805969E-08  0.10566000000E+00  0.10566000000E+00 0. -1.
     999900   -1    0    0    0    0 -0.00000000000E+00 -0.00000000000E+00 -0.74505805969E-08  0.93827000000E+00  0.93827000000E+00 0. -1.
     999902    2    1    2    0    0  0.11185229030E-01 -0.17875091866E-01 -0.81310040846E-02  0.10213304096E+01  0.10210803417E+01 0.  0.
     999903    2    3    3    0    0 -0.29961786161E-01 -0.11446308550E+00 -0.58920736824E-01  0.13363569052E+00  0.19680904002E-01 0.  0.
         14    1    1    2    0    0 -0.11185229030E-01  0.17875091866E-01  0.81310040846E-02  0.22599590375E-01  0.00000000000E+00 0. -1.
     999901    1    3    3    0    0  0.41147015190E-01  0.96587993629E-01  0.50789732739E-01  0.88769471910E+00  0.88000000000E+00 0. -1.
        -11    1    4    4    0    0 -0.17362899085E-01 -0.31432396154E-01 -0.15895799103E-01  0.39273443225E-01  0.51100000000E-03 0. -1.
         11    1    4    4    0    0 -0.12598887075E-01 -0.83030689342E-01 -0.43024937721E-01  0.94362247297E-01  0.51100000000E-03 0.  1.
</event>
<event>
 8    1  0.1162192E+005  0.1043930E+01  0.7957747E-01            NaN
         13   -1    0    0    0    0  0.00000000000E+00  0.00000000000E+00  0.74505805969E-08  0.10566000000E+00  0.10566000000E+00 0. -1.
     999900   -1    0    0    0    0 -0.00000000000E+00 -0.00000000000E+00 -0.74505805969E-08  0.93827000000E+00  0.93827000000E+00 0.  1.
     999902    2    1    2    0    0  0.14300726455E-01  0.10763384336E-01 -0.12773457294E-01  0.10219408565E+01  0.10217042585E+01 0.  0.
     999903    2    3    3    0    0 -0.60182268439E-01  0.69239255338E-01  0.90977943960E-01  0.13080029675E+00  0.20389983518E-01 0.  0.
         14    1    1    2    0    0 -0.14300726455E-01 -0.10763384336E-01  0.12773457294E-01  0.21989143475E-01  0.00000000000E+00 0. -1.
     999901    1    3    3    0    0  0.74482994894E-01 -0.58475871002E-01 -0.10375140125E+00  0.89114055978E+00  0.88000000000E+00 0.  1.
        -11    1    4    4    0    0 -0.10566500502E-01  0.27940426950E-02  0.86671793035E-02  0.13958464297E-01  0.51100000000E-03 0.  1.
         11    1    4    4    0    0 -0.49615767937E-01  0.66445212643E-01  0.82310764657E-01  0.11684183245E+00  0.51100000000E-03 0. -1.
</event>
<event>
 8    1  0.1408009E+005  0.1043930E+01  0.7957747E-01            NaN
         13   -1    0    0    0    0  0.00000000000E+00  0.00000000000E+00  0.74505805969E-08  0.10566000000E+00  0.10566000000E+00 0.  1.
     999900   -1    0    0    0    0 -0.00000000000E+00 -0.00000000000E+00 -0.74505805969E-08  0.93827000000E+00  0.93827000000E+00 0.  1.
     999902    2    1    2    0    0  0.17567746097E-01 -0.12670576636E-01 -0.89373553113E-02  0.10204982793E+01  0.10202292353E+01 0.  0.
     999903    2    3    3    0    0 -0.25315118367E-01 -0.12377830284E+00  0.30728136383E-01  0.13159039986E+00  0.20245777267E-01 0.  0.
         14    1    1    2    0    0 -0.17567746097E-01  0.12670576636E-01  0.89373553113E-02  0.23431720705E-01  0.00000000000E+00 0. -1.
     999901    1    3    3    0    0  0.42882864464E-01  0.11110772621E+00 -0.39665491694E-01  0.88890787943E+00  0.88000000000E+00 0.  1.
        -11    1    4    4    0    0 -0.23846993711E-01 -0.68152271152E-01  0.14786328594E-01  0.73704191241E-01  0.51100000000E-03 0. -1.
         11    1    4    4    0    0 -0.14681246559E-02 -0.55626031693E-01  0.15941807789E-01  0.57886208621E-01  0.51100000000E-03 0.  1.
</event>
<event>
 8    1  0.1162192E+005  0.1043930E+01  0.7957747E-01            NaN
         13   -1    0    0    0    0  0.00000000000E+00  0.00000000000E+00  0.74505805969E-08  0.10566000000E+00  0.10566000000E+00 0. -1.
     999900   -1    0    0    0    0 -0.00000000000E+00 -0.00000000000E+00 -0.74505805969E-08  0.93827000000E+00  0.93827000000E+00 0. -1.
     999902    2    1    2    0    0 -0.40631261569E-03 -0.20738123842E-02  0.22883179640E-01  0.10209494496E+01  0.10206907822E+01 0.  0.
     999903    2    3    3    0    0  0.11189332134E+00  0.58666232043E-01  0.31474411580E-01  0.13169449735E+00  0.19772706063E-01 0.  0.
         14    1    1    2    0    0  0.40631261569E-03  0.20738123842E-02 -0.22883179640E-01  0.22980550432E-01  0.00000000000E+00 0.  1.
     999901    1    3    3    0    0 -0.11229963395E+00 -0.60740044427E-01 -0.85912319403E-02  0.88925495222E+00  0.88000000000E+00 0. -1.
        -11    1    4    4    0    0  0.22815168760E-01  0.17810668880E-01  0.63685762680E-03  0.28955458210E-01  0.51100000000E-03 0.  1.
         11    1    4    4    0    0  0.89078152578E-01  0.40855563163E-01  0.30837553953E-01  0.10273903914E+00  0.51100000000E-03 0. -1.
</event>
<event>
 8    1  0.1162192E+005  0.1043930E+01  0.7957747E-01            NaN
         13   -1    0    0    0    0  0.00000000000E+00  0.00000000000E+00  0.74505805969E-08  0.10566000000E+00  0.10566000000E+00 0.  1.
     999900   -1    0    0    0    0 -0.00000000000E+00 -0.00000000000E+00 -0.74505805969E-08  0.93827000000E+00  0.93827000000E+00 0. -1.
     999902    2    1    2    0    0  0.19538179189E-01 -0.49359335526E-02 -0.12276551267E-01  0.10203330172E+01  0.10200601200E+01 0.  0.
     999903    2    3    3    0    0 -0.72012409994E-01 -0.13341739275E-01 -0.10560694066E+00  0.13063490575E+00  0.23427835634E-01 0.  0.
         14    1    1    2    0    0 -0.19538179189E-01  0.49359335526E-02  0.12276551267E-01  0.23596982795E-01  0.00000000000E+00 0.  1.
     999901    1    3    3    0    0  0.91550589183E-01  0.84058057229E-02  0.93330389398E-01  0.88969811146E+00  0.88000000000E+00 0.  1.
        -11    1    4    4    0    0 -0.80565982415E-02  0.11967810137E-03 -0.28160632403E-01  0.29295143563E-01  0.51100000000E-03 0. -1.
         11    1    4    4    0    0 -0.63955811753E-01 -0.13461417377E-01 -0.77446308262E-01  0.10133976218E+00  0.51100000000E-03 0.  1.
</event>
<event>
 8    1  0.1162192E+005  0.1043930E+01  0.7957747E-01            NaN
         13   -1    0    0    0    0  0.00000000000E+00  0.00000000000E+00  0.74505805969E-08  0.10566000000E+00  0.10566000000E+00 0.  1.
     999900   -1    0    0    0    0 -0.00000000000E+00 -0.00000000000E+00 -0.74505805969E-08  0.93827000000E+00  0.93827000000E+00 0.  1.
     999902    2    1    2    0    0  0.23627041098E-02 -0.22699803843E-01  0.51955834312E-02  0.10205236429E+01  0.10202551878E+01 0.  0.
     999903    2    3    3    0    0  0.63589540199E-01  0.65360569487E-01 -0.88929786084E-01  0.12902886446E+00  0.20598721920E-01 0.  0.
         14    1    1    2    0    0 -0.23627041098E-02  0.22699803843E-01 -0.51955834312E-02  0.23406357094E-01  0.00000000000E+00 0. -1.
     999901    1    3    3    0    0 -0.61226836089E-01 -0.88060373330E-01  0.94125369515E-01  0.89149477845E+00  0.88000000000E+00 0. -1.
        -11    1    4    4    0    0  0.96023481380E-02  0.19133670841E-01 -0.13133178915E-01  0.25120588350E-01  0.51100000000E-03 0.  1.
         11    1    4    4    0    0  0.53987192061E-01  0.46226898646E-01 -0.75796607169E-01  0.10390827611E+00  0.51100000000E-03 0. -1.
</event>
<event>
 8    1  0.1162192E+005  0.1043930E+01  0.7957747E-01            NaN
         13   -1    0    0    0    0  0.00000000000E+00  0.00000000000E+00  0.74505805969E-08  0.10566000000E+00  0.10566000000E+00 0. -1.
     999900   -1    0    0    0    0 -0.00000000000E+00 -0.00000000000E+00 -0.74505805969E-08  0.93827000000E+00  0.93827000000E+00 0. -1.
     999902    2    1    2    0    0  0.19354277201E-01 -0.23525136343E-02  0.12947190782E-01  0.10205258953E+01  0.10202574925E+01 0.  0.
     999903    2    3    3    0    0 -0.10519748645E-01  0.10178232929E+00  0.79810405106E-01  0.13136493557E+00  0.20414158490E-01 0.  0.
         14    1    1    2    0    0 -0.19354277201E-01  0.23525136343E-02 -0.12947190782E-01  0.23404104673E-01  0.00000000000E+00 0.  1.
     999901    1    3    3    0    0  0.29874025846E-01 -0.10413484292E+00 -0.66863214324E-01  0.88916095976E+00  0.88000000000E+00 0.  1.
        -11    1    4    4    0    0 -0.11767307016E-01  0.75613067446E-01  0.48777689357E-01  0.90748716702E-01  0.51100000000E-03 0.  1.
         11    1    4    4    0    0  0.12475583702E-02  0.26169261841E-01  0.31032715750E-01  0.40616218866E-01  0.51100000000E-03 0. -1.
</event>
<event>
 8    1  0.1162192E+005  0.1043930E+01  0.7957747E-01            NaN
         13   -1    0    0    0    0  0.00000000000E+00  0.00000000000E+00  0.74505805969E-08  0.10566000000E+00  0.10566000000E+00 0.  1.
     999900   -1    0    0    0    0 -0.00000000000E+00 -0.00000000000E+00 -0.74505805969E-08  0.93827000000E+00  0.93827000000E+00 0.  1.
     999902    2    1    2    0    0 -0.18297584384E-01 -0.11393947730E-02 -0.15820854888E-01  0.10197143178E+01  0.10194267461E+01 0.  0.
     999903    2    3    3    0    0 -0.49084871200E-01 -0.10565442259E+00 -0.58634884819E-01  0.13196193722E+00  0.20092823736E-01 0.  0.
         14    1    1    2    0    0  0.18297584384E-01  0.11393947730E-02  0.15820854888E-01  0.24215682194E-01  0.00000000000E+00 0.  1.
     999901    1    3    3    0    0  0.30787286816E-01  0.10451502781E+00  0.42814029931E-01  0.88775238058E+00  0.88000000000E+00 0.  1.
        -11    1    4    4    0    0 -0.44089355109E-01 -0.96449894295E-01 -0.59211727964E-01  0.12146087104E+00  0.51100000000E-03 0.  1.
         11    1    4    4    0    0 -0.49955160912E-02 -0.92045282915E-02  0.57684314526E-03  0.10501066189E-01  0.51100000000E-03 0. -1.
</event>
<event>
 8    1  0.1162192E+005  0.1043930E+01  0.7957747E-01            NaN
         13   -1    0    0    0    0  0.00000000000E+00  0.00000000000E+00  0.74505805969E-08  0.10566000000E+00  0.10566000000E+00 0. -1.
     999900   -1    0    0    0    0 -0.00000000000E+00 -0.00000000000E+00 -0.74505805969E-08  0.93827000000E+00  0.93827000000E+00 0.  1.
     999902    2    1    2    0    0 -0.11620347916E-01  0.14049021672E-01  0.16157843439E-01  0.10195684853E+01  0.10192773973E+01 0.  0.
     999903    2    3    3    0    0  0.29075344011E-01 -0.11065469399E+00 -0.50647721906E-01  0.12734085758E+00  0.23678372910E-01 0.  0.
         14    1    1    2    0    0  0.11620347916E-01 -0.14049021672E-01 -0.16157843439E-01  0.24361514736E-01  0.00000000000E+00 0.  1.
     999901    1    3    3    0    0 -0.40695691927E-01  0.12470371566E+00  0.66805565345E-01  0.89222762768E+00  0.88000000000E+00 0. -1.
        -11    1    4    4    0    0  0.11977618302E-01 -0.51835386930E-01 -0.10870124930E-01  0.54302775393E-01  0.51100000000E-03 0.  1.
         11    1    4    4    0    0  0.17097725709E-01 -0.58819307060E-01 -0.39777596977E-01  0.73038082188E-01  0.51100000000E-03 0. -1.
</event>
<event>
 8    1  0.1162192E+005  0.1043930E+01  0.7957747E-01            NaN
         13   -1    0    0    0    0  0.00000000000E+00  0.00000000000E+00  0.74505805969E-08  0.10566000000E+00  0.10566000000E+00 0.  1.
     999900   -1    0    0    0    0 -0.00000000000E+00 -0.00000000000E+00 -0.74505805969E-08  0.93827000000E+00  0.93827000000E+00 0.  1.
     999902    2    1    2    0    0  0.11887946419E-01  0.96309948174E-02  0.14701183584E-01  0.10227119857E+01  0.10224918589E+01 0.  0.
     999903    2    3    3    0    0  0.74382744013E-01 -0.10038050701E+00 -0.38037770235E-01  0.13210010195E+00  0.19862683001E-01 0.  0.
         14    1    1    2    0    0 -0.11887946419E-01 -0.96309948174E-02 -0.14701183584E-01  0.21218014281E-01  0.00000000000E+00 0. -1.
     999901    1    3    3    0    0 -0.62494797594E-01  0.11001150183E+00  0.52738953819E-01  0.89061188377E+00  0.88000000000E+00 0. -1.
        -11    1    4    4    0    0  0.48191910441E-01 -0.48470115494E-01 -0.21247872247E-01  0.71578946094E-01  0.51100000000E-03 0. -1.
         11    1    4    4    0    0  0.26190833573E-01 -0.51910391517E-01 -0.16789897988E-01  0.60521155856E-01  0.51100000000E-03 0.  1.
</event>
<event>
 8    1  0.1162192E+005  0.1043930E+01  0.7957747E-01            NaN
         13   -1    0    0    0    0  0.00000000000E+00  0.00000000000E+00  0.74505805969E-08  0.10566000000E+00  0.10566000000E+00 0. -1.
     999900   -1    0    0    0    0 -0.00000000000E+00 -0.00000000000E+00 -0.74505805969E-08  0.93827000000E+00  0.93827000000E+00 0. -1.
     999902    2    1    2    0    0  0.26586493602E-02  0.21737519642E-01  0.40917433522E-02  0.10216515229E+01  0.10214085881E+01 0.  0.
     999903    2    3    3    0    0  0.50849688678E-02 -0.65095343188E-01 -0.11060078734E+00  0.12996760490E+00  0.19894309493E-01 0.  0.
         14    1    1    2    0    0 -0.26586493602E-02 -0.21737519642E-01 -0.40917433522E-02  0.22278477064E-01  0.00000000000E+00 0.  1.
     999901    1    3    3    0    0 -0.24263195075E-02  0.86832862830E-01  0.11469253069E+00  0.89168391804E+00  0.88000000000E+00 0.  1.
        -11    1    4    4    0    0  0.12450755718E-01 -0.33693092443E-01 -0.61306836993E-01  0.71056563239E-01  0.51100000000E-03 0. -1.
         11    1    4    4    0    0 -0.73657868502E-02 -0.31402250745E-01 -0.49293950343E-01  0.58911041658E-01  0.51100000000E-03 0.  1.
</event>
<event>
 8    1  0.1162192E+005  0.1043930E+01  0.7957747E-01            NaN
         13   -1    0    0    0    0  0.00000000000E+00  0.00000000000E+00  0.74505805969E-08  0.10566000000E+00  0.10566000000E+00 0. -1.
     999900   -1    0    0    0    0 -0.00000000000E+00 -0.00000000000E+00 -0.74505805969E-08  0.93827000000E+00  0.93827000000E+00 0.  1.
     999902    2    1    2    0    0 -0.16481889475E-01 -0.16603331864E-01  0.79755135681E-02  0.10192129588E+01  0.10189132069E+01 0.  0.
     999903    2    3    3    0    0  0.41753550600E-01 -0.10291846804E+00 -0.64909766030E-01  0.13008195989E+00  0.19299443307E-01 0.  0.
         14    1    1    2    0    0  0.16481889475E-01  0.16603331864E-01 -0.79755135681E-02  0.24717041213E-01  0.00000000000E+00 0. -1.
     999901    1    3    3    0    0 -0.58235440075E-01  0.86315136176E-01  0.72885279598E-01  0.88913099889E+00  0.88000000000E+00 0. -1.
        -11    1    4    4    0    0  0.20958070835E-01 -0.28132178747E-01 -0.19073563083E-01  0.39933972302E-01  0.51100000000E-03 0. -1.
         11    1    4    4    0    0  0.20795479764E-01 -0.74786289293E-01 -0.45836202947E-01  0.90147987590E-01  0.51100000000E-03 0.  1.
</event>
<event>
 8    1  0.1162192E+005  0.1043930E+01  0.7957747E-01            NaN
         13   -1    0    0    0    0  0.00000000000E+00  0.00000000000E+00  0.74505805969E-08  0.10566000000E+00  0.10566000000E+00 0.  1.
     999900   -1    0    0    0    0 -0.00000000000E+00 -0.00000000000E+00 -0.74505805969E-08  0.93827000000E+00  0.93827000000E+00 0. -1.
     999902    2    1    2    0    0  0.87280413490E-02  0.64463491977E-06 -0.21893355585E-01  0.10203610008E+01  0.10200887580E+01 0.  0.
     999903    2    3    3    0    0  0.75974121528E-01  0.21233423455E-01 -0.10582698466E+00  0.13355903849E+00  0.20389719677E-01 0.  0.
         14    1    1    2    0    0 -0.87280413490E-02 -0.64463491977E-06  0.21893355585E-01  0.23568999236E-01  0.00000000000E+00 0.  1.
     999901    1    3    3    0    0 -0.67246080179E-01 -0.21232778820E-01  0.83933629071E-01  0.88680196227E+00  0.88000000000E+00 0.  1.
        -11    1    4    4    0    0  0.34673321882E-01  0.15388213363E-01 -0.64552761531E-01  0.74875606863E-01  0.51100000000E-03 0.  1.
         11    1    4    4    0    0  0.41300799646E-01  0.58452100922E-02 -0.41274223125E-01  0.58683431631E-01  0.51100000000E-03 0. -1.
</event>
<event>
 8    1  0.1162192E+005  0.1043930E+01  0.7957747E-01            NaN
         13   -1    0    0    0    0  0.00000000000E+00  0.00000000000E+00  0.74505805969E-08  0.10566000000E+00  0.10566000000E+00 0. -1.
     999900   -1    0    0    0    0 -0.00000000000E+00 -0.00000000000E+00 -0.74505805969E-08  0.93827000000E+00  0.93827000000E+00 0.  1.
     999902    2    1    2    0    0 -0.10917856278E-01 -0.65838660164E-03 -0.21039389093E-01  0.10202173672E+01  0.10199417569E+01 0.  0.
     999903    2    3    3    0    0 -0.68258518919E-01  0.96858225514E-01 -0.55351591459E-01  0.13231266039E+00  0.20052435451E-01 0.  0.
         14    1    1    2    0    0  0.10917856278E-01  0.65838660164E-03  0.21039389093E-01  0.23712632752E-01  0.00000000000E+00 0. -1.
     999901    1    3    3    0    0  0.57340662641E-01 -0.97516612116E-01  0.34312202366E-01  0.88790470686E+00  0.88000000000E+00 0. -1.
        -11    1    4    4    0    0 -0.16906037432E-01  0.11238692967E-01 -0.10492501799E-01  0.22857734714E-01  0.51100000000E-03 0. -1.
         11    1    4    4    0    0 -0.51352481487E-01  0.85619532547E-01 -0.44859089660E-01  0.10945492568E+00  0.51100000000E-03 0.  1.
</event>
<event>
 8    1  0.1162192E+005  0.1043930E+01  0.7957747E-01            NaN
         13   -1    0    0    0    0  0.00000000000E+00  0.00000000000E+00  0.74505805969E-08  0.10566000000E+00  0.10566000000E+00 0.  1.
     999900   -1    0    0    0    0 -0.00000000000E+00 -0.00000000000E+00 -0.74505805969E-08  0.93827000000E+00  0.93827000000E+00 0. -1.
     999902    2    1    2    0    0 -0.13406306795E-01  0.14266119215E-01  0.28174343211E-02  0.10241514976E+01  0.10239604978E+01 0.  0.
     999903    2    3    3    0    0  0.11247693130E+00 -0.19235854894E-01  0.64053578158E-01  0.13245713453E+00  0.20517149485E-01 0.  0.
         14    1    1    2    0    0  0.13406306795E-01 -0.14266119215E-01 -0.28174343211E-02  0.19778502357E-01  0.00000000000E+00 0.  1.
     999901    1    3    3    0    0 -0.12588323810E+00  0.33501974109E-01 -0.61236143837E-01  0.89169436312E+00  0.88000000000E+00 0. -1.
        -11    1    4    4    0    0  0.11883716859E-01 -0.71766076630E-03  0.14596517237E-01  0.18842961546E-01  0.51100000000E-03 0.  1.
         11    1    4    4    0    0  0.10059321444E+00 -0.18518194128E-01  0.49457060921E-01  0.11361417298E+00  0.51100000000E-03 0. -1.
</event>
<event>
 8    1  0.1162192E+005  0.1043930E+01  0.7957747E-01            NaN
         13   -1    0    0    0    0  0.00000000000E+00  0.00000000000E+00  0.74505805969E-08  0.10566000000E+00  0.10566000000E+00 0. -1.
     999900   -1    0    0    0    0 -0.00000000000E+00 -0.00000000000E+00 -0.74505805969E-08  0.93827000000E+00  0.93827000000E+00 0.  1.
     999902    2    1    2    0    0 -0.13856105425E-01  0.17979290061E-01 -0.72126143682E-02  0.10201126044E+01  0.10198345244E+01 0.  0.
     999903    2    3    3    0    0  0.36201858467E-01 -0.63032732721E-01  0.10379286624E+00  0.12804143887E+00  0.18383444618E-01 0.  0.
         14    1    1    2    0    0  0.13856105425E-01 -0.17979290061E-01  0.72126143682E-02  0.23817395632E-01  0.00000000000E+00 0. -1.
     999901    1    3    3    0    0 -0.50057963892E-01  0.81012022782E-01 -0.11100548061E+00  0.89207116550E+00  0.88000000000E+00 0.  1.
        -11    1    4    4    0    0  0.20724601481E-01 -0.51699850539E-01  0.74451201644E-01  0.92981859518E-01  0.51100000000E-03 0.  1.
         11    1    4    4    0    0  0.15477256986E-01 -0.11332882182E-01  0.29341664594E-01  0.35059579354E-01  0.51100000000E-03 0. -1.
</event>
<event>
 8    1  0.1162192E+005  0.1043930E+01  0.7957747E-01            NaN
         13   -1    0    0    0    0  0.00000000000E+00  0.00000000000E+00  0.74505805969E-08  0.10566000000E+00  0.10566000000E+00 0.  1.
     999900   -1    0    0    0    0 -0.00000000000E+00 -0.00000000000E+00 -0.74505805969E-08  0.93827000000E+00  0.93827000000E+00 0. -1.
     999902    2    1    2    0    0 -0.75383988370E-02 -0.26203013188E-01  0.75219656111E-02  0.10156456346E+01  0.10152517175E+01 0.  0.
     999903    2    3    3    0    0  0.58850305271E-01  0.10482899714E+00 -0.14286914422E-01  0.12320377378E+00  0.22859940487E-01 0.  0.
         14    1    1    2    0    0  0.75383988370E-02  0.26203013188E-01 -0.75219656111E-02  0.28284365360E-01  0.00000000000E+00 0. -1.
     999901    1    3    3    0    0 -0.66388704108E-01 -0.13103201033E+00  0.21808880033E-01  0.89244186086E+00  0.88000000000E+00 0.  1.
        -11    1    4    4    0    0 -0.28828062218E-03  0.10273571093E-01  0.20313051753E-02  0.10488884137E-01  0.51100000000E-03 0.  1.
         11    1    4    4    0    0  0.59138585894E-01  0.94555426045E-01 -0.16318219598E-01  0.11271488965E+00  0.51100000000E-03 0. -1.
</event>
<event>
 8    1  0.1162192E+005  0.1043930E+01  0.7957747E-01            NaN
         13   -1    0    0    0    0  0.00000000000E+00  0.00000000000E+00  0.74505805969E-08  0.10566000000E+00  0.10566000000E+00 0.  1.
     999900   -1    0    0    0    0 -0.00000000000E+00 -0.00000000000E+00 -0.74505805969E-08  0.93827000000E+00  0.93827000000E+00 0.  1.
     999902    2    1    2    0    0 -0.17717001246E-01  0.19665827461E-01 -0.43662605734E-02  0.10171027539E+01  0.10167488927E+01 0.  0.
     999903    2    3    3    0    0  0.98750904427E-01  0.56612502921E-01 -0.53455230091E-01  0.12730527310E+00  0.19810459934E-01 0.  0.
         14    1    1    2    0    0  0.17717001246E-01 -0.19665827461E-01  0.43662605734E-02  0.26827246118E-01  0.00000000000E+00 0.  1.
     999901    1    3    3    0    0 -0.11646790567E+00 -0.36946675460E-01  0.49088969518E-01  0.88979748078E+00  0.88000000000E+00 0. -1.
        -11    1    4    4    0    0  0.57490823672E-01  0.24078671758E-01 -0.22205238671E-01  0.66168806741E-01  0.51100000000E-03 0.  1.
         11    1    4    4    0    0  0.41260080755E-01  0.32533831163E-01 -0.31249991420E-01  0.61136466359E-01  0.51100000000E-03 0. -1.
</event>
<event>
 8    1  0.1162192E+005  0.1043930E+01  0.7957747E-01            NaN
         13   -1    0    0    0    0  0.00000000000E+00  0.00000000000E+00  0.74505805969E-08  0.10566000000E+00  0.10566000000E+00 0. -1.
     999900   -1    0    0    0    0 -0.00000000000E+00 -0.00000000000E+00 -0.74505805969E-08  0.93827000000E+00  0.93827000000E+00 0. -1.
     999902    2    1    2    0    0 -0.22971336514E-01  0.17378580934E-02 -0.34108643705E-02  0.10206418818E+01  0.10203761632E+01 0.  0.
     999903    2    3    3    0    0  0.11408981658E+00  0.43775336191E-01  0.34962359593E-01  0.12821518256E+00  0.16852303874E-01 0.  0.
         14    1    1    2    0    0  0.22971336514E-01 -0.17378580934E-02  0.34108643705E-02  0.23288118166E-01  0.00000000000E+00 0. -1.
     999901    1    3    3    0    0 -0.13706115309E+00 -0.42037478097E-01 -0.38373223963E-01  0.89242669927E+00  0.88000000000E+00 0.  1.
        -11    1    4    4    0    0  0.28367010447E-01  0.86413637527E-02  0.15818363819E-01  0.33613125473E-01  0.51100000000E-03 0. -1.
         11    1    4    4    0    0  0.85722806133E-01  0.35133972438E-01  0.19143995774E-01  0.94602057091E-01  0.51100000000E-03 0.  1.
</event>
<event>
 8    1  0.1162192E+005  0.1043930E+01  0.7957747E-01            NaN
         13   -1    0    0    0    0  0.00000000000E+00  0.00000000000E+00  0.74505805969E-08  0.10566000000E+00  0.10566000000E+00 0. -1.
     999900   -1    0    0    0    0 -0.00000000000E+00 -0.00000000000E+00 -0.74505805969E-08  0.93827000000E+00  0.93827000000E+00 0.  1.
     999902    2    1    2    0    0 -0.43552510735E-02  0.16667768688E-01  0.15147612486E-01  0.10209902335E+01  0.10207324938E+01 0.  0.
     999903    2    3    3    0    0 -0.20294879792E-01 -0.11348317963E+00 -0.53020794620E-01  0.12866726903E+00  0.21301343933E-01 0.  0.
         14    1    1    2    0    0  0.43552510735E-02 -0.16667768688E-01 -0.15147612486E-01  0.22939766542E-01  0.00000000000E+00 0. -1.
     999901    1    3    3    0    0  0.15939628718E-01  0.13015094832E+00  0.68168407106E-01  0.89232296442E+00  0.88000000000E+00 0. -1.
        -11    1    4    4    0    0 -0.19136806316E-01 -0.55676255697E-01 -0.32908335939E-01  0.67448369140E-01  0.51100000000E-03 0.  1.
         11    1    4    4    0    0 -0.11580734762E-02 -0.57806923935E-01 -0.20112458681E-01  0.61218899894E-01  0.51100000000E-03 0. -1.
</event>
<event>
 8    1  0.1162192E+005  0.1043930E+01  0.7957747E-01            NaN
         13   -1    0    0    0    0  0.00000000000E+00  0.00000000000E+00  0.74505805969E-08  0.10566000000E+00  0.10566000000E+00 0. -1.
     999900   -1    0    0    0    0 -0.00000000000E+00 -0.00000000000E+00 -0.74505805969E-08  0.93827000000E+00  0.93827000000E+00 0.  1.
     999902    2    1    2    0    0 -0.38440309755E-02  0.18897067565E-01 -0.13404557749E-01  0.10204447300E+01  0.10201744406E+01 0.  0.
     999903    2    3    3    0    0  0.22241392366E-01  0.12952920135E+00 -0.79759416219E-02  0.13311762676E+00  0.19600851335E-01 0.  0.
         14    1    1    2    0    0  0.38440309755E-02 -0.18897067565E-01  0.13404557749E-01  0.23485269961E-01  0.00000000000E+00 0. -1.
     999901    1    3    3    0    0 -0.26085423342E-01 -0.11063213379E+00 -0.54286161266E-02  0.88732710328E+00  0.88000000000E+00 0. -1.
        -11    1    4    4    0    0  0.65580062783E-02  0.79835035157E-01 -0.11301525678E-01  0.80898862097E-01  0.51100000000E-03 0.  1.
         11    1    4    4    0    0  0.15683386088E-01  0.49694166194E-01  0.33255840558E-02  0.52218764666E-01  0.51100000000E-03 0. -1.
</event>
<event>
 8    1  0.1162192E+005  0.1043930E+01  0.7957747E-01            NaN
         13   -1    0    0    0    0  0.00000000000E+00  0.00000000000E+00  0.74505805969E-08  0.10566000000E+00  0.10566000000E+00 0.  1.
     999900   -1    0    0    0    0 -0.00000000000E+00 -0.00000000000E+00 -0.74505805969E-08  0.93827000000E+00  0.93827000000E+00 0.  1.
     999902    2    1    2    0    0  0.12898671113E-01  0.17565940058E-01 -0.92679594922E-02  0.10202480862E+01  0.10199731979E+01 0.  0.
     999903    2    3    3    0    0  0.80054744360E-02  0.12399832606E+00 -0.43359908103E-01  0.13316632161E+00  0.20335070569E-01 0.  0.
         14    1    1    2    0    0 -0.12898671113E-01 -0.17565940058E-01  0.92679594922E-02  0.23681913769E-01  0.00000000000E+00 0.  1.
     999901    1    3    3    0    0  0.48931966774E-02 -0.10643238600E+00  0.34091948611E-01  0.88708176462E+00  0.88000000000E+00 0. -1.
        -11    1    4    4    0    0  0.39824232805E-02  0.96752853045E-01 -0.24832188814E-01  0.99969360255E-01  0.51100000000E-03 0.  1.
         11    1    4    4    0    0  0.40230511555E-02  0.27245473010E-01 -0.18527719289E-01  0.33196961355E-01  0.51100000000E-03 0. -1.
</event>
<event>
 7    1  0.1162192E+005  0.1043930E+01  0.7957747E-01            NaN
         13   -1    0    0    0    0  0.00000000000E+00  0.00000000000E+00  0.74505805969E-08  0.10566000000E+00  0.10566000000E+00 0. -1.
     999900   -1    0    0    0    0 -0.00000000000E+00 -0.00000000000E+00 -0.74505805969E-08  0.93827000000E+00  0.93827000000E+00 0.  1.
     999903    2    1    2    0    0 -0.27345572378E-01 -0.21787312112E-01 -0.91579807402E-01  0.99852526444E-01  0.19005226011E-01 0.  0.
         14    1    1    2    0    0  0.34035219469E-01  0.39141492334E-01 -0.22461166269E-01  0.56523946930E-01  0.00000000000E+00 0.  1.
     999901    1    1    2    0    0 -0.66896470917E-02 -0.17354180221E-01  0.11404097367E+00  0.88755352663E+00  0.88000000000E+00 0. -1.
        -11    1    3    3    0    0 -0.29637735326E-01 -0.16499362152E-01 -0.75797417335E-01  0.83042964195E-01  0.51100000000E-03 0. -1.
         11    1    3    3    0    0  0.22921629484E-02 -0.52879499606E-02 -0.15782390067E-01  0.16809562249E-01  0.51100000000E-03 0.  1.
</event>
<event>
 7    1  0.1162192E+005  0.1043930E+01  0.7957747E-01            NaN
         13   -1    0    0    0    0  0.00000000000E+00  0.00000000000E+00  0.74505805969E-08  0.10566000000E+00  0.10566000000E+00 0. -1.
     999900   -1    0    0    0    0 -0.00000000000E+00 -0.00000000000E+00 -0.74505805969E-08  0.93827000000E+00  0.93827000000E+00 0.  1.
     999902    2    1    2    0    0  0.57079435148E-03 -0.17055935719E-01  0.16893329986E-01  0.10199171837E+01  0.10196344670E+01 0.  0.
         14    1    1    2    0    0 -0.57079435148E-03  0.17055935719E-01 -0.16893329986E-01  0.24012816317E-01  0.00000000000E+00 0.  1.
     999901    1    3    3    0    0  0.78638241986E-01 -0.47336619905E-01 -0.72862477303E-01  0.88776892787E+00  0.88000000000E+00 0.  1.
        -11    1    3    3    0    0 -0.61719100323E-01  0.17707186185E-01  0.33913037488E-01  0.72616437670E-01  0.51100000000E-03 0. -1.
         11    1    3    3    0    0 -0.16348347312E-01  0.12573498001E-01  0.55842769801E-01  0.59531818146E-01  0.51100000000E-03 0.  1.
</event>
<event>
 8    1  0.1162192E+005  0.1043930E+01  0.7957747E-01            NaN
         13   -1    0    0    0    0  0.00000000000E+00  0.00000000000E+00  0.74505805969E-08  0.10566000000E+00  0.10566000000E+00 0. -1.
     999900   -1    0    0    0    0 -0.00000000000E+00 -0.00000000000E+00 -0.74505805969E-08  0.93827000000E+00  0.93827000000E+00 0.  1.
     999902    2    1    2    0    0 -0.15294179117E-01  0.14697518217E-01  0.11547878672E-01  0.10197787587E+01  0.10194927337E+01 0.  0.
     999903    2    3    3    0    0  0.37382506866E-01  0.11923131264E+00 -0.33806704448E-01  0.13086977252E+00  0.19246983152E-01 0.  0.
         14    1    1    2    0    0  0.15294179117E-01 -0.14697518217E-01 -0.11547878672E-01  0.24151241343E-01  0.00000000000E+00 0. -1.
     999901    1    3    3    0    0 -0.52676685983E-01 -0.10453379442E+00  0.45354583120E-01  0.88890898614E+00  0.88000000000E+00 0.  1.
        -11    1    4    4    0    0  0.10768341769E-01  0.37434654349E-01 -0.19863942641E-01  0.43728113027E-01  0.51100000000E-03 0.  1.
         11    1    4    4    0    0  0.26614165098E-01  0.81796658291E-01 -0.13942761807E-01  0.87141659494E-01  0.51100000000E-03 0. -1.
</event>
<event>
 8    1  0.1162192E+005  0.1043930E+01  0.7957747E-01            NaN
         13   -1    0    0    0    0  0.00000000000E+00  0.00000000000E+00  0.74505805969E-08  0.10566000000E+00  0.10566000000E+00 0.  1.
     999900   -1    0    0    0    0 -0.00000000000E+00 -0.00000000000E+00 -0.74505805969E-08  0.93827000000E+00  0.93827000000E+00 0. -1.
     999902    2    1    2    0    0 -0.76756682719E-02 -0.31067060553E-02 -0.23140385986E-01  0.10193526737E+01  0.10190563421E+01 0.  0.
     999903    2    3    3    0    0  0.78467131582E-01 -0.67512988595E-01 -0.78155679196E-01  0.13109852441E+00  0.19063539633E-01 0.  0.
         14    1    1    2    0    0  0.76756682719E-02  0.31067060553E-02  0.23140385986E-01  0.24577326330E-01  0.00000000000E+00 0.  1.
     999901    1    3    3    0    0 -0.86142799853E-01  0.64406282539E-01  0.55015293210E-01  0.88825414926E+00  0.88000000000E+00 0. -1.
        -11    1    4    4    0    0  0.71855216303E-01 -0.55848806836E-01 -0.73204772248E-01  0.11679666577E+00  0.51100000000E-03 0. -1.
         11    1    4    4    0    0  0.66119152791E-02 -0.11664181758E-01 -0.49509069478E-02  0.14301858633E-01  0.51100000000E-03 0.  1.
</event>
<event>
 8    1  0.1162192E+005  0.1043930E+01  0.7957747E-01            NaN
         13   -1    0    0    0    0  0.00000000000E+00  0.00000000000E+00  0.74505805969E-08  0.10566000000E+00  0.10566000000E+00 0. -1.
     999900   -1    0    0    0    0 -0.00000000000E+00 -0.00000000000E+00 -0.74505805969E-08  0.93827000000E+00  0.93827000000E+00 0. -1.
     999902    2    1    2    0    0 -0.17796402323E-01  0.14017589816E-01  0.73420552160E-02  0.10201159173E+01  0.10198379157E+01 0.  0.
     999903    2    3    3    0    0  0.21595835673E-01  0.29373834947E-01 -0.12270306407E+00  0.12955469216E+00  0.19979340061E-01 0.  0.
         14    1    1    2    0    0  0.17796402323E-01 -0.14017589816E-01 -0.73420552160E-02  0.23814082696E-01  0.00000000000E+00 0.  1.
     999901    1    3    3    0    0 -0.39392237996E-01 -0.15356245131E-01  0.13004511929E+00  0.89056122514E+00  0.88000000000E+00 0.  1.
        -11    1    4    4    0    0  0.51834317449E-02  0.36839146823E-02 -0.54183934691E-01  0.54558217453E-01  0.51100000000E-03 0.  1.
         11    1    4    4    0    0  0.16412403928E-01  0.25689920264E-01 -0.68519129384E-01  0.74996474706E-01  0.51100000000E-03 0. -1.
</event>
<event>
 8    1  0.1162192E+005  0.1043930E+01  0.7957747E-01            NaN
         13   -1    0    0    0    0  0.00000000000E+00  0.00000000000E+00  0.74505805969E-08  0.10566000000E+00  0.10566000000E+00 0. -1.
     999900   -1    0    0    0    0 -0.00000000000E+00 -0.00000000000E+00 -0.74505805969E-08  0.93827000000E+00  0.93827000000E+00 0.  1.
     999902    2    1    2    0    0 -0.18472790354E-01 -0.75160750864E-02  0.11726098055E-01  0.10207948159E+01  0.10205326156E+01 0.  0.
     999903    2    3    3    0    0  0.54775086160E-02  0.12049960316E+00 -0.43349061804E-01  0.12950647650E+00  0.18510235923E-01 0.  0.
         14    1    1    2    0    0  0.18472790354E-01  0.75160750864E-02 -0.11726098055E-01  0.23135184109E-01  0.00000000000E+00 0.  1.
     999901    1    3    3    0    0 -0.23950298970E-01 -0.12801567825E+00  0.55075159859E-01  0.89128833939E+00  0.88000000000E+00 0.  1.
        -11    1    4    4    0    0 -0.66415455660E-02  0.34881680475E-01 -0.14329784777E-01  0.38294198164E-01  0.51100000000E-03 0.  1.
         11    1    4    4    0    0  0.12119054182E-01  0.85617922686E-01 -0.29019277027E-01  0.91212278337E-01  0.51100000000E-03 0. -1.
</event>
<event>
 8    1  0.1162192E+005  0.1043930E+01  0.7957747E-01            NaN
         13   -1    0    0    0    0  0.00000000000E+00  0.00000000000E+00  0.74505805969E-08  0.10566000000E+00  0.10566000000E+00 0.  1.
     999900   -1    0    0    0    0 -0.00000000000E+00 -0.00000000000E+00 -0.74505805969E-08  0.93827000000E+00  0.93827000000E+00 0.  1.
     999902    2    1    2    0    0 -0.27241453315E-02 -0.69516674675E-02 -0.23604144520E-01  0.10191731366E+01  0.10188724062E+01 0.  0.
     999903    2    3    3    0    0 -0.39330617524E-01 -0.51428516139E-01  0.10898523656E+00  0.12737822301E+00  0.12475582594E-01 0.  0.
         14    1    1    2    0    0  0.27241453315E-02  0.69516674675E-02  0.23604144520E-01  0.24756863430E-01  0.00000000000E+00 0.  1.
     999901    1    3    3    0    0  0.36606472193E-01  0.44476848672E-01 -0.13258938108E+00  0.89179491356E+00  0.88000000000E+00 0.  1.
        -11    1    4    4    0    0 -0.22504051920E-01 -0.38920887130E-01  0.73934671139E-01  0.86532447817E-01  0.51100000000E-03 0. -1.
         11    1    4    4    0    0 -0.16826565604E-01 -0.12507629010E-01  0.35050565426E-01  0.40845775194E-01  0.51100000000E-03 0.  1.
</event>
<event>
 8    1  0.1162192E+005  0.1043930E+01  0.7957747E-01            NaN
         13   -1    0    0    0    0  0.00000000000E+00  0.00000000000E+00  0.74505805969E-08  0.10566000000E+00  0.10566000000E+00 0.  1.
     999900   -1    0    0    0    0 -0.00000000000E+00 -0.00000000000E+00 -0.74505805969E-08  0.93827000000E+00  0.93827000000E+00 0.  1.
     999902    2    1    2    0    0  0.14638168673E-01  0.99400398506E-02 -0.15443872556E-01  0.10204439707E+01  0.10201736635E+01 0.  0.
     999903    2    3    3    0    0  0.65236009756E-01  0.47686891856E-01  0.10056387592E+00  0.13058849697E+00  0.20260448617E-01 0.  0.
         14    1    1    2    0    0 -0.14638168673E-01 -0.99400398506E-02  0.15443872556E-01  0.23486029333E-01  0.00000000000E+00 0.  1.
     999901    1    3    3    0    0 -0.50597841083E-01 -0.37746852006E-01 -0.11600774847E+00  0.88985547369E+00  0.88000000000E+00 0.  1.
        -11    1    4    4    0    0  0.17742283605E-01  0.24952074885E-01  0.38670891005E-01  0.49326398619E-01  0.51100000000E-03 0.  1.
         11    1    4    4    0    0  0.47493726151E-01  0.22734816971E-01  0.61892984912E-01  0.81262098353E-01  0.51100000000E-03 0. -1.
</event>
<event>
 8    1  0.1162192E+005  0.1043930E+01  0.7957747E-01            NaN
         13   -1    0    0    0    0  0.00000000000E+00  0.00000000000E+00  0.74505805969E-08  0.10566000000E+00  0.10566000000E+00 0.  1.
     999900   -1    0    0    0    0 -0.00000000000E+00 -0.00000000000E+00 -0.74505805969E-08  0.93827000000E+00  0.93827000000E+00 0. -1.
     999902    2    1    2    0    0 -0.66758943848E-02  0.21249992352E-01 -0.93315243297E-02  0.10197803191E+01  0.10194943316E+01 0.  0.
     999903    2    3    3    0    0  0.47646921100E-01 -0.10844481667E+00  0.40517801814E-01  0.12722406481E+00  0.22666341812E-01 0.  0.
         14    1    1    2    0    0  0.66758943848E-02 -0.21249992352E-01  0.93315243297E-02  0.24149680891E-01  0.00000000000E+00 0. -1.
     999901    1    3    3    0    0 -0.54322815485E-01  0.12969480902E+00 -0.49849326144E-01  0.89255625430E+00  0.88000000000E+00 0. -1.
        -11    1    4    4    0    0  0.27128048691E-01 -0.61416232637E-01  0.11031695015E-01  0.68042957557E-01  0.51100000000E-03 0.  1.
         11    1    4    4    0    0  0.20518872410E-01 -0.47028584030E-01  0.29486106799E-01  0.59181107255E-01  0.51100000000E-03 0. -1.
</event>
<event>
 8    1  0.1162192E+005  0.1043930E+01  0.7957747E-01            NaN
         13   -1    0    0    0    0  0.00000000000E+00  0.00000000000E+00  0.74505805969E-08  0.10566000000E+00  0.10566000000E+00 0.  1.
     999900   -1    0    0    0    0 -0.00000000000E+00 -0.00000000000E+00 -0.74505805969E-08  0.93827000000E+00  0.93827000000E+00 0. -1.
     999902    2    1    2    0    0 -0.78060793344E-02  0.24137013704E-01 -0.33845864894E-02  0.10183373110E+01  0.10180156645E+01 0.  0.
     999903    2    3    3    0    0 -0.90900671165E-02 -0.94510121871E-01  0.79480436741E-01  0.12651591436E+00  0.25968140214E-01 0.  0.
         14    1    1    2    0    0  0.78060793344E-02 -0.24137013704E-01  0.33845864894E-02  0.25592689012E-01  0.00000000000E+00 0.  1.
     999901    1    3    3    0    0  0.12839877821E-02  0.11864713558E+00 -0.82865023230E-01  0.89182139663E+00  0.88000000000E+00 0. -1.
        -11    1    4    4    0    0 -0.11069014415E-01 -0.14624967900E-01  0.12000671860E-01  0.21924643949E-01  0.51100000000E-03 0.  1.
         11    1    4    4    0    0  0.19789472981E-02 -0.79885153971E-01  0.67479764881E-01  0.10459127041E+00  0.51100000000E-03 0. -1.
</event>
<event>
 8    1  0.1162192E+005  0.1043930E+01  0.7957747E-01            NaN
         13   -1    0    0    0    0  0.00000000000E+00  0.00000000000E+00  0.74505805969E-08  0.10566000000E+00  0.10566000000E+00 0.  1.
     999900   -1    0    0    0    0 -0.00000000000E+00 -0.00000000000E+00 -0.74505805969E-08  0.93827000000E+00  0.93827000000E+00 0. -1.
     999902    2    1    2    0    0 -0.61630916392E-04 -0.23305225302E-01 -0.20003794685E-02  0.10205390008E+01  0.10202709019E+01 0.  0.
     999903    2    3    3    0    0 -0.62218970234E-01 -0.46993514655E-01  0.10415671205E+00  0.13166668267E+00  0.20196632975E-01 0.  0.
         14    1    1    2    0    0  0.61630916392E-04  0.23305225302E-01  0.20003794685E-02  0.23390999182E-01  0.00000000000E+00 0.  1.
     999901    1    3    3    0    0  0.62157339317E-01  0.23688289353E-01 -0.10615709152E+00  0.88887231814E+00  0.88000000000E+00 0. -1.
        -11    1    4    4    0    0 -0.13031984488E-01 -0.20082738220E-01  0.24534716876E-01  0.34283559432E-01  0.51100000000E-03 0.  1.
         11    1    4    4    0    0 -0.49186985745E-01 -0.26910776435E-01  0.79621995178E-01  0.97383123241E-01  0.51100000000E-03 0. -1.
</event>
<event>
 8    1  0.1162192E+005  0.1043930E+01  0.7957747E-01            NaN
         13   -1    0    0    0    0  0.00000000000E+00  0.00000000000E+00  0.74505805969E-08  0.10566000000E+00  0.10566000000E+00 0. -1.
     999900   -1    0    0    0    0 -0.00000000000E+00 -0.00000000000E+00 -0.74505805969E-08  0.93827000000E+00  0.93827000000E+00 0.  1.
     999902    2    1    2    0    0 -0.10370166222E-01  0.20510110238E-01  0.11585932080E-01  0.10181921137E+01  0.10178667602E+01 0.  0.
     999903    2    3    3    0    0 -0.11146534836E+00 -0.53259373755E-03 -0.62097900305E-01  0.12909575311E+00  0.19615216216E-01 0.  0.
         14    1    1    2    0    0  0.10370166222E-01 -0.20510110238E-01 -0.11585932080E-01  0.25737886308E-01  0.00000000000E+00 0.  1.
     999901    1    3    3    0    0  0.10109518214E+00  0.21042703976E-01  0.73683832385E-01  0.88909636058E+00  0.88000000000E+00 0. -1.
        -11    1    4    4    0    0 -0.79509473975E-01 -0.37723651325E-02 -0.53271352271E-01  0.95781445407E-01  0.51100000000E-03 0.  1.
         11    1    4    4    0    0 -0.31955874388E-01  0.32397713949E-02 -0.88265480343E-02  0.33314307704E-01  0.51100000000E-03 0. -1.
</event>
<event>
 8    1  0.1162192E+005  0.1043930E+01  0.7957747E-01            NaN
         13   -1    0    0    0    0  0.00000000000E+00  0.00000000000E+00  0.74505805969E-08  0.10566000000E+00  0.10566000000E+00 0. -1.
     999900   -1    0    0    0    0 -0.00000000000E+00 -0.00000000000E+00 -0.74505805969E-08  0.93827000000E+00  0.93827000000E+00 0.  1.
     999902    2    1    2    0    0 -0.93003558277E-03 -0.19811782373E-01  0.13453140620E-01  0.10199642186E+01  0.10196826214E+01 0.  0.
     999903    2    3    3    0    0 -0.63269828396E-01  0.46014100999E-01  0.10292390299E+00  0.13079364213E+00  0.19831246526E-01 0.  0.
         14    1    1    2    0    0  0.93003558277E-03  0.19811782373E-01 -0.13453140620E-01  0.23965781430E-01  0.00000000000E+00 0.  1.
     999901    1    3    3    0    0  0.62339792813E-01 -0.65825883373E-01 -0.89470762369E-01  0.88917057644E+00  0.88000000000E+00 0. -1.
        -11    1    4    4    0    0 -0.39732467161E-01  0.29388305089E-01  0.79698348778E-01  0.93778618788E-01  0.51100000000E-03 0.  1.
         11    1    4    4    0    0 -0.23537361235E-01  0.16625795910E-01  0.23225554211E-01  0.37015023342E-01  0.51100000000E-03 0. -1.
</event>
<event>
 8    1  0.1162192E+005  0.1043930E+01  0.7957747E-01            NaN
         13   -1    0    0    0    0  0.00000000000E+00  0.00000000000E+00  0.74505805969E-08  0.10566000000E+00  0.10566000000E+00 0. -1.
     999900   -1    0    0    0    0 -0.00000000000E+00 -0.00000000000E+00 -0.74505805969E-08  0.93827000000E+00  0.93827000000E+00 0. -1.
     999902    2    1    2    0    0 -0.76365122101E-02 -0.15431178097E-01  0.15967784334E-01  0.10204479278E+01  0.10201777128E+01 0.  0.
     999903    2    3    3    0    0  0.28869782773E-01  0.95118140000E-01  0.82182793457E-01  0.13031406783E+00  0.18623099107E-01 0.  0.
         14    1    1    2    0    0  0.76365122101E-02  0.15431178097E-01 -0.15967784334E-01  0.23482072156E-01  0.00000000000E+00 0. -1.
     999901    1    3    3    0    0 -0.36506294983E-01 -0.11054931810E+00 -0.66215009123E-01  0.89013386001E+00  0.88000000000E+00 0. -1.
        -11    1    4    4    0    0  0.17470911267E-01  0.33994900728E-01  0.23845583359E-01  0.45052846556E-01  0.51100000000E-03 0.  1.
         11    1    4    4    0    0  0.11398871506E-01  0.61123239271E-01  0.58337210098E-01  0.85261221277E-01  0.51100000000E-03 0. -1.
</event>
<event>
 8    1  0.1162192E+005  0.1043930E+01  0.7957747E-01            NaN
         13   -1    0    0    0    0  0.00000000000E+00  0.00000000000E+00  0.74505805969E-08  0.10566000000E+00  0.10566000000E+00 0.  1.
     999900   -1    0    0    0    0 -0.00000000000E+00 -0.00000000000E+00 -0.74505805969E-08  0.93827000000E+00  0.93827000000E+00 0. -1.
     999902    2    1    2    0    0 -0.12354454967E-01  0.10019314001E-01  0.11491248959E-01  0.10243068501E+01  0.10241188677E+01 0.  0.
     999903    2    3    3    0    0  0.11268072540E+00 -0.57961895015E-02  0.68509604100E-01  0.13350102426E+00  0.19960359051E-01 0.  0.
         14    1    1    2    0    0  0.12354454967E-01 -0.10019314001E-01 -0.11491248959E-01  0.19623149931E-01  0.00000000000E+00 0.  1.
     999901    1    3    3    0    0 -0.12503518037E+00  0.15815503502E-01 -0.57018355142E-01  0.89080582581E+00  0.88000000000E+00 0. -1.
        -11    1    4    4    0    0  0.67572891696E-01 -0.11737491759E-01  0.35057572146E-01  0.77027001050E-01  0.51100000000E-03 0. -1.
         11    1    4    4    0    0  0.45107833705E-01  0.59413022580E-02  0.33452031954E-01  0.56474023205E-01  0.51100000000E-03 0.  1.
</event>
<event>
 8    1  0.1162192E+005  0.1043930E+01  0.7957747E-01            NaN
         13   -1    0    0    0    0  0.00000000000E+00  0.00000000000E+00  0.74505805969E-08  0.10566000000E+00  0.10566000000E+00 0.  1.
     999900   -1    0    0    0    0 -0.00000000000E+00 -0.00000000000E+00 -0.74505805969E-08  0.93827000000E+00  0.93827000000E+00 0. -1.
     999902    2    1    2    0    0 -0.19251284037E-01 -0.14035530198E-01  0.81615663884E-02  0.10187462908E+01  0.10184349688E+01 0.  0.
     999903    2    3    3    0    0  0.95775769181E-01  0.34395499933E-01 -0.72146883408E-01  0.12631913140E+00  0.19882197950E-01 0.  0.
         14    1    1    2    0    0  0.19251284037E-01  0.14035530198E-01 -0.81615663884E-02  0.25183709237E-01  0.00000000000E+00 0. -1.
     999901    1    3    3    0    0 -0.11502705322E+00 -0.48431030131E-01  0.80308449797E-01  0.89242715936E+00  0.88000000000E+00 0.  1.
        -11    1    4    4    0    0  0.50995018961E-01  0.21462226515E-01 -0.50552983452E-01  0.74946543501E-01  0.51100000000E-03 0.  1.
         11    1    4    4    0    0  0.44780750220E-01  0.12933273418E-01 -0.21593899956E-01  0.51372587904E-01  0.51100000000E-03 0. -1.
</event>
<event>
 8    1  0.1162192E+005  0.1043930E+01  0.7957747E-01            NaN
         13   -1    0    0    0    0  0.00000000000E+00  0.00000000000E+00  0.74505805969E-08  0.10566000000E+00  0.10566000000E+00 0.  1.
     999900   -1    0    0    0    0 -0.00000000000E+00 -0.00000000000E+00 -0.74505805969E-08  0.93827000000E+00  0.93827000000E+00 0. -1.
     999902    2    1    2    0    0  0.21163439999E-01 -0.60725014359E-02 -0.75423955802E-02  0.10206565345E+01  0.10203911540E+01 0.  0.
     999903    2    3    3    0    0  0.10789785458E+00  0.42203082707E-01  0.61234806800E-01  0.13240899338E+00  0.18957656794E-01 0.  0.
         14    1    1    2    0    0 -0.21163439999E-01  0.60725014359E-02  0.75423955802E-02  0.23273465522E-01  0.00000000000E+00 0.  1.
     999901    1    3    3    0    0 -0.86734414583E-01 -0.48275584142E-01 -0.68777202380E-01  0.88824754110E+00  0.88000000000E+00 0. -1.
        -11    1    4    4    0    0  0.67108534270E-01  0.33198048281E-01  0.46368511257E-01  0.88067960909E-01  0.51100000000E-03 0.  1.
         11    1    4    4    0    0  0.40789320313E-01  0.90050344260E-02  0.14866295543E-01  0.44341032473E-01  0.51100000000E-03 0. -1.
</event>
<event>
 8    1  0.1162192E+005  0.1043930E+01  0.7957747E-01            NaN
         13   -1    0    0    0    0  0.00000000000E+00  0.00000000000E+00  0.74505805969E-08  0.10566000000E+00  0.10566000000E+00 0. -1.
     999900   -1    0    0    0    0 -0.00000000000E+00 -0.00000000000E+00 -0.74505805969E-08  0.93827000000E+00  0.93827000000E+00 0.  1.
     999902    2    1    2    0    0  0.60279363605E-02  0.12721542669E-01 -0.19592321274E-01  0.10198046458E+01  0.10195192410E+01 0.  0.
     999903    2    3    3    0    0 -0.53895666346E-02 -0.11809981471E+00 -0.49020735842E-01  0.12957399109E+00  0.20242849611E-01 0.  0.
         14    1    1    2    0    0 -0.60279363605E-02 -0.12721542669E-01  0.19592321274E-01  0.24125354247E-01  0.00000000000E+00 0.  1.
     999901    1    3    3    0    0  0.11417502995E-01  0.13082135738E+00  0.29428414568E-01  0.89023065467E+00  0.88000000000E+00 0. -1.
        -11    1    4    4    0    0  0.10090134777E-02 -0.58891076064E-01 -0.14213159005E-01  0.60592507442E-01  0.51100000000E-03 0.  1.
         11    1    4    4    0    0 -0.63985801123E-02 -0.59208738648E-01 -0.34807576837E-01  0.68981483646E-01  0.51100000000E-03 0. -1.
</event>
<event>
 8    1  0.1162192E+005  0.1043930E+01  0.7957747E-01            NaN
         13   -1    0    0    0    0  0.00000000000E+00  0.00000000000E+00  0.74505805969E-08  0.10566000000E+00  0.10566000000E+00 0.  1.
     999900   -1    0    0    0    0 -0.00000000000E+00 -0.00000000000E+00 -0.74505805969E-08  0.93827000000E+00  0.93827000000E+00 0.  1.
     999902    2    1    2    0    0  0.16640668811E-01 -0.16997548670E-01 -0.20617413963E-02  0.10200536666E+01  0.10197741924E+01 0.  0.
     999903    2    3    3    0    0 -0.77298051743E-01 -0.63589241527E-01  0.80523585290E-01  0.12998872220E+00  0.19860505263E-01 0.  0.
         14    1    1    2    0    0 -0.16640668811E-01  0.16997548670E-01  0.20617413963E-02  0.23876333405E-01  0.00000000000E+00 0. -1.
     999901    1    3    3    0    0  0.93938720554E-01  0.46591692857E-01 -0.82585326686E-01  0.89006494440E+00  0.88000000000E+00 0.  1.
        -11    1    4    4    0    0 -0.26488731185E-01 -0.34425111040E-01  0.35491218261E-01  0.56094820123E-01  0.51100000000E-03 0. -1.
         11    1    4    4    0    0 -0.50809320558E-01 -0.29164130486E-01  0.45032367029E-01  0.73893902075E-01  0.51100000000E-03 0.  1.
</event>
<event>
 8    1  0.1162192E+005  0.1043930E+01  0.7957747E-01            NaN
         13   -1    0    0    0    0  0.00000000000E+00  0.00000000000E+00  0.74505805969E-08  0.10566000000E+00  0.10566000000E+00 0. -1.
     999900   -1    0    0    0    0 -0.00000000000E+00 -0.00000000000E+00 -0.74505805969E-08  0.93827000000E+00  0.93827000000E+00 0. -1.
     999902    2    1    2    0    0 -0.76563850529E-02 -0.11805444265E-01  0.19085456262E-01  0.10202183280E+01  0.10199427403E+01 0.  0.
     999903    2    3    3    0    0 -0.97107391540E-01 -0.49248278589E-01  0.73925997632E-01  0.13319469060E+00  0.20506926680E-01 0.  0.
         14    1    1    2    0    0  0.76563850529E-02  0.11805444265E-01 -0.19085456262E-01  0.23711671960E-01  0.00000000000E+00 0.  1.
     999901    1    3    3    0    0  0.89451006487E-01  0.37442834324E-01 -0.54840541369E-01  0.88702363744E+00  0.88000000000E+00 0.  1.
        -11    1    4    4    0    0 -0.27579158470E-01 -0.24246188395E-01  0.20989960799E-01  0.42300439820E-01  0.51100000000E-03 0. -1.
         11    1    4    4    0    0 -0.69528233070E-01 -0.25002090194E-01  0.52936036833E-01  0.90894250778E-01  0.51100000000E-03 0.  1.
</event>
<event>
 8    1  0.1162192E+005  0.1043930E+01  0.7957747E-01            NaN
         13   -1    0    0    0    0  0.00000000000E+00  0.00000000000E+00  0.74505805969E-08  0.10566000000E+00  0.10566000000E+00 0. -1.
     999900   -1    0    0    0    0 -0.00000000000E+00 -0.00000000000E+00 -0.74505805969E-08  0.93827000000E+00  0.93827000000E+00 0.  1.
     999902    2    1    2    0    0 -0.12195071956E-01 -0.18689635455E-01 -0.84176537876E-02  0.10200788124E+01  0.10197999335E+01 0.  0.
     999903    2    3    3    0    0  0.97149223220E-01  0.21471976605E-01  0.78291818987E-01  0.12817766171E+00  0.20022154994E-01 0.  0.
         14    1    1    2    0    0  0.12195071956E-01  0.18689635455E-01  0.84176537876E-02  0.23851187575E-01  0.00000000000E+00 0. -1.
     999901    1    3    3    0    0 -0.10934429518E+00 -0.40161612059E-01 -0.86709472774E-01  0.89190115071E+00  0.88000000000E+00 0.  1.
        -11    1    4    4    0    0  0.88640597341E-01  0.13261274926E-01  0.70051505224E-01  0.11375628077E+00  0.51100000000E-03 0. -1.
         11    1    4    4    0    0  0.85086258795E-02  0.82107016784E-02  0.82403137624E-02  0.14421380943E-01  0.51100000000E-03 0.  1.
</event>
<event>
 8    1  0.1162192E+005  0.1043930E+01  0.7957747E-01            NaN
         13   -1    0    0    0    0  0.00000000000E+00  0.00000000000E+00  0.74505805969E-08  0.10566000000E+00  0.10566000000E+00 0.  1.
     999900   -1    0    0    0    0 -0.00000000000E+00 -0.00000000000E+00 -0.74505805969E-08  0.93827000000E+00  0.93827000000E+00 0.  1.
     999902    2    1    2    0    0  0.12517635199E-01  0.15544827178E-01 -0.12620833026E-01  0.10203160577E+01  0.10200427635E+01 0.  0.
     999903    2    3    3    0    0 -0.90544196232E-01  0.26507822427E-01 -0.88723494537E-01  0.13097161184E+00  0.19513802893E-01 0.  0.
         14    1    1    2    0    0 -0.12517635199E-01 -0.15544827178E-01  0.12620833026E-01  0.23613942264E-01  0.00000000000E+00 0.  1.
     999901    1    3    3    0    0  0.10306183143E+00 -0.10962995249E-01  0.76102661510E-01  0.88934444590E+00  0.88000000000E+00 0. -1.
        -11    1    4    4    0    0 -0.47036110113E-01  0.19047968469E-01 -0.58635102260E-01  0.77547128222E-01  0.51100000000E-03 0. -1.
         11    1    4    4    0    0 -0.43508086119E-01  0.74598539575E-02 -0.30088392276E-01  0.53424483616E-01  0.51100000000E-03 0.  1.
</event>
<event>
 8    1  0.1162192E+005  0.1043930E+01  0.7957747E-01            NaN
         13   -1    0    0    0    0  0.00000000000E+00  0.00000000000E+00  0.74505805969E-08  0.10566000000E+00  0.10566000000E+00 0. -1.
     999900   -1    0    0    0    0 -0.00000000000E+00 -0.00000000000E+00 -0.74505805969E-08  0.93827000000E+00  0.93827000000E+00 0. -1.
     999902    2    1    2    0    0 -0.52279627954E-02 -0.96598924734E-02  0.20747964415E-01  0.10204539879E+01  0.10201839139E+01 0.  0.
     999903    2    3    3    0    0 -0.30499963519E-01 -0.12527366876E+00 -0.17727079589E-01  0.13169893259E+00  0.20164811842E-01 0.  0.
         14    1    1    2    0    0  0.52279627954E-02  0.96598924734E-02 -0.20747964415E-01  0.23476012118E-01  0.00000000000E+00 0.  1.
     999901    1    3    3    0    0  0.25272000723E-01  0.11561377629E+00  0.38475044004E-01  0.88875505529E+00  0.88000000000E+00 0.  1.
        -11    1    4    4    0    0 -0.44987662223E-02 -0.33038824356E-01 -0.12869786236E-01  0.35744864402E-01  0.51100000000E-03 0. -1.
         11    1    4    4    0    0 -0.26001197296E-01 -0.92234844404E-01 -0.48572933534E-02  0.95954068193E-01  0.51100000000E-03 0.  1.
</event>
<event>
 8    1  0.1162192E+005  0.1043930E+01  0.7957747E-01            NaN
         13   -1    0    0    0    0  0.00000000000E+00  0.00000000000E+00  0.74505805969E-08  0.10566000000E+00  0.10566000000E+00 0. -1.
     999900   -1    0    0    0    0 -0.00000000000E+00 -0.00000000000E+00 -0.74505805969E-08  0.93827000000E+00  0.93827000000E+00 0. -1.
     999902    2    1    2    0    0 -0.51785233532E-02 -0.23229472173E-01 -0.21263463303E-02  0.10200355063E+01  0.10197556017E+01 0.  0.
     999903    2    3    3    0    0  0.69810930340E-01  0.55429866592E-01 -0.90923605104E-01  0.12891505263E+00  0.20148268519E-01 0.  0.
         14    1    1    2    0    0  0.51785233532E-02  0.23229472173E-01  0.21263463303E-02  0.23894493723E-01  0.00000000000E+00 0. -1.
     999901    1    3    3    0    0 -0.74989453694E-01 -0.78659338766E-01  0.88797258774E-01  0.89112045365E+00  0.88000000000E+00 0.  1.
        -11    1    4    4    0    0  0.60513818949E-01  0.46717885293E-01 -0.86441898011E-01  0.11539907254E+00  0.51100000000E-03 0.  1.
         11    1    4    4    0    0  0.92971113910E-02  0.87119812996E-02 -0.44817070927E-02  0.13515980092E-01  0.51100000000E-03 0. -1.
</event>
<event>
 8    1  0.1162192E+005  0.1043930E+01  0.7957747E-01            NaN
         13   -1    0    0    0    0  0.00000000000E+00  0.00000000000E+00  0.74505805969E-08  0.10566000000E+00  0.10566000000E+00 0. -1.
     999900   -1    0    0    0    0 -0.00000000000E+00 -0.00000000000E+00 -0.74505805969E-08  0.93827000000E+00  0.93827000000E+00 0. -1.
     999902    2    1    2    0    0  0.15129595683E-01  0.14802647791E-01  0.10792296552E-01  0.10201708605E+01  0.10198941552E+01 0.  0.
     999903    2    3    3    0    0 -0.29145006427E-01  0.67332113549E-01 -0.10533726069E+00  0.12988682756E+00  0.19789001185E-01 0.  0.
         14    1    1    2    0    0 -0.15129595683E-01 -0.14802647791E-01 -0.10792296552E-01  0.23759139547E-01  0.00000000000E+00 0.  1.
     999901    1    3    3    0    0  0.44274602110E-01 -0.52529465758E-01  0.11612955724E+00  0.89028403290E+00  0.88000000000E+00 0.  1.
        -11    1    4    4    0    0 -0.79585196140E-02  0.71807830533E-02 -0.25768722367E-01  0.27913972364E-01  0.51100000000E-03 0.  1.
         11    1    4    4    0    0 -0.21186486813E-01  0.60151330496E-01 -0.79568538325E-01  0.10197285519E+00  0.51100000000E-03 0. -1.
</event>
<event>
 8    1  0.1162192E+005  0.1043930E+01  0.7957747E-01            NaN
         13   -1    0    0    0    0  0.00000000000E+00  0.00000000000E+00  0.74505805969E-08  0.10566000000E+00  0.10566000000E+00 0. -1.
     999900   -1    0    0    0    0 -0.00000000000E+00 -0.00000000000E+00 -0.74505805969E-08  0.93827000000E+00  0.93827000000E+00 0. -1.
     999902    2    1    2    0    0  0.21676121496E-01  0.57110618692E-02 -0.41227414085E-02  0.10211381710E+01  0.10208837823E+01 0.  0.
     999903    2    3    3    0    0  0.43019030835E-01  0.11703697991E+00 -0.42122616805E-01  0.13305429530E+00  0.19515095970E-01 0.  0.
         14    1    1    2    0    0 -0.21676121496E-01 -0.57110618692E-02  0.41227414085E-02  0.22791828963E-01  0.00000000000E+00 0.  1.
     999901    1    3    3    0    0 -0.21342909339E-01 -0.11132591805E+00  0.37999875396E-01  0.88808387573E+00  0.88000000000E+00 0. -1.
        -11    1    4    4    0    0  0.13968221869E-01  0.44491739307E-01 -0.62006526620E-02  0.47046097640E-01  0.51100000000E-03 0.  1.
         11    1    4    4    0    0  0.29050808966E-01  0.72545240607E-01 -0.35921964143E-01  0.86008197663E-01  0.51100000000E-03 0. -1.
</event>
<event>
 8    1  0.1162192E+005  0.1043930E+01  0.7957747E-01            NaN
         13   -1    0    0    0    0  0.00000000000E+00  0.00000000000E+00  0.74505805969E-08  0.10566000000E+00  0.10566000000E+00 0. -1.
     999900   -1    0    0    0    0 -0.00000000000E+00 -0.00000000000E+00 -0.74505805969E-08  0.93827000000E+00  0.93827000000E+00 0.  1.
     999902    2    1    2    0    0  0.65711334328E-02 -0.19050064605E-01 -0.12894765393E-01  0.10200059592E+01  0.10197253537E+01 0.  0.
     999903    2    3    3    0    0  0.39427026905E-01  0.10032540845E+00 -0.71033099371E-01  0.12943867973E+00  0.94335874390E-02 0.  0.
         14    1    1    2    0    0 -0.65711334328E-02  0.19050064605E-01  0.12894765393E-01  0.23924040850E-01  0.00000000000E+00 0. -1.
     999901    1    3    3    0    0 -0.32855893473E-01 -0.11937547305E+00  0.58138333978E-01  0.89056727942E+00  0.88000000000E+00 0. -1.
        -11    1    4    4    0    0  0.11987337109E-01  0.38001404913E-01 -0.21962867406E-01  0.45501996572E-01  0.51100000000E-03 0.  1.
         11    1    4    4    0    0  0.27439689797E-01  0.62324003536E-01 -0.49070231965E-01  0.83936683155E-01  0.51100000000E-03 0. -1.
</event>
<event>
 8    1  0.1162192E+005  0.1043930E+01  0.7957747E-01            NaN
         13   -1    0    0    0    0  0.00000000000E+00  0.00000000000E+00  0.74505805969E-08  0.10566000000E+00  0.10566000000E+00 0. -1.
     999900   -1    0    0    0    0 -0.00000000000E+00 -0.00000000000E+00 -0.74505805969E-08  0.93827000000E+00  0.93827000000E+00 0.  1.
     999902    2    1    2    0    0 -0.17717361557E-01  0.12606403226E-02  0.15332815809E-01  0.10204653595E+01  0.10201955501E+01 0.  0.
     999903    2    3    3    0    0 -0.48881410846E-02 -0.12901613518E+00  0.24293530238E-02  0.13068835005E+00  0.20111837883E-01 0.  0.
         14    1    1    2    0    0  0.17717361557E-01 -0.12606403226E-02 -0.15332815809E-01  0.23464640530E-01  0.00000000000E+00 0.  1.
     999901    1    3    3    0    0 -0.12829220473E-01  0.13027677550E+00  0.12903462786E-01  0.88977700942E+00  0.88000000000E+00 0.  1.
        -11    1    4    4    0    0 -0.11508602432E-01 -0.83695379250E-01  0.63091219271E-02  0.84719717765E-01  0.51100000000E-03 0.  1.
         11    1    4    4    0    0  0.66204613475E-02 -0.45320755932E-01 -0.38797689032E-02  0.45968632288E-01  0.51100000000E-03 0. -1.
</event>
<event>
 8    1  0.1162192E+005  0.1043930E+01  0.7957747E-01            NaN
         13   -1    0    0    0    0  0.00000000000E+00  0.00000000000E+00  0.74505805969E-08  0.10566000000E+00  0.10566000000E+00 0.  1.
     999900   -1    0    0    0    0 -0.00000000000E+00 -0.00000000000E+00 -0.74505805969E-08  0.93827000000E+00  0.93827000000E+00 0. -1.
     999902    2    1    2    0    0 -0.13730844784E-01 -0.17555342219E-01  0.78640633247E-02  0.10202959223E+01  0.10200221563E+01 0.  0.
     999903    2    3    3    0    0  0.10572643595E+00  0.61671575945E-01  0.33238785018E-01  0.12833694171E+00  0.19598245801E-01 0.  0.
         14    1    1    2    0    0  0.13730844784E-01  0.17555342219E-01 -0.78640633247E-02  0.23634077745E-01  0.00000000000E+00 0. -1.
     999901    1    3    3    0    0 -0.11945728073E+00 -0.79226918164E-01 -0.25374721694E-01  0.89195898055E+00  0.88000000000E+00 0.  1.
        -11    1    4    4    0    0  0.61226412931E-01  0.26461852770E-01  0.23737137197E-01  0.70799831185E-01  0.51100000000E-03 0. -1.
         11    1    4    4    0    0  0.44500023018E-01  0.35209723175E-01  0.95016478216E-02  0.57537110520E-01  0.51100000000E-03 0.  1.
</event>
<event>
 8    1  0.1162192E+005  0.1043930E+01  0.7957747E-01            NaN
         13   -1    0    0    0    0  0.00000000000E+00  0.00000000000E+00  0.74505805969E-08  0.10566000000E+00  0.10566000000E+00 0.  1.
     999900   -1    0    0    0    0 -0.00000000000E+00 -0.00000000000E+00 -0.74505805969E-08  0.93827000000E+00  0.93827000000E+00 0.  1.
     999902    2    1    2    0    0 -0.21691973678E-01  0.96178458428E-02  0.12636685546E-03  0.10202011010E+01  0.10199251079E+01 0.  0.
     999903    2    3    3    0    0  0.88717105275E-01  0.49426487557E-01 -0.76989791220E-01  0.12906598523E+00  0.20418083892E-01 0.  0.
         14    1    1    2    0    0  0.21691973678E-01 -0.96178458428E-02 -0.12636685546E-03  0.23728899032E-01  0.00000000000E+00 0.  1.
     999901    1    3    3    0    0 -0.11040907895E+00 -0.39808641714E-01  0.77116158076E-01  0.89113511574E+00  0.88000000000E+00 0. -1.
        -11    1    4    4    0    0  0.52752501518E-01  0.27743652786E-01 -0.32522902822E-01  0.67900935305E-01  0.51100000000E-03 0. -1.
         11    1    4    4    0    0  0.35964603757E-01  0.21682834771E-01 -0.44466888399E-01  0.61165049922E-01  0.51100000000E-03 0.  1.
</event>
<event>
 8    1  0.1162192E+005  0.1043930E+01  0.7957747E-01            NaN
         13   -1    0    0    0    0  0.00000000000E+00  0.00000000000E+00  0.74505805969E-08  0.10566000000E+00  0.10566000000E+00 0. -1.
     999900   -1    0    0    0    0 -0.00000000000E+00 -0.00000000000E+00 -0.74505805969E-08  0.93827000000E+00  0.93827000000E+00 0. -1.
     999902    2    1    2    0    0 -0.21331341339E-01 -0.10630889010E-01 -0.48724064132E-02  0.10196034246E+01  0.10193131812E+01 0.  0.
     999903    2    3    3    0    0 -0.71314771522E-01  0.92112635580E-01 -0.55295098565E-01  0.13078565759E+00  0.21835888705E-01 0.  0.
         14    1    1    2    0    0  0.21331341339E-01  0.10630889010E-01  0.48724064132E-02  0.24326575360E-01  0.00000000000E+00 0. -1.
     999901    1    3    3    0    0  0.49983430183E-01 -0.10274352459E+00  0.50422692152E-01  0.88881776705E+00  0.88000000000E+00 0.  1.
        -11    1    4    4    0    0 -0.17518373624E-01  0.21678960242E-01 -0.34078178720E-02  0.28084605663E-01  0.51100000000E-03 0. -1.
         11    1    4    4    0    0 -0.53796397898E-01  0.70433675338E-01 -0.51887280693E-01  0.10270105193E+00  0.51100000000E-03 0.  1.
</event>
<event>
 8    1  0.1162192E+005  0.1043930E+01  0.7957747E-01            NaN
         13   -1    0    0    0    0  0.00000000000E+00  0.00000000000E+00  0.74505805969E-08  0.10566000000E+00  0.10566000000E+00 0. -1.
     999900   -1    0    0    0    0 -0.00000000000E+00 -0.00000000000E+00 -0.74505805969E-08  0.93827000000E+00  0.93827000000E+00 0. -1.
     999902    2    1    2    0    0 -0.10685993536E-01 -0.16626941000E-01  0.14587071677E-01  0.10193652227E+01  0.10190691973E+01 0.  0.
     999903    2    3    3    0    0 -0.10393705762E+00 -0.68211794800E-01  0.42176383863E-01  0.13250676258E+00  0.17984267524E-01 0.  0.
         14    1    1    2    0    0  0.10685993536E-01  0.16626941000E-01 -0.14587071677E-01  0.24564777324E-01  0.00000000000E+00 0. -1.
     999901    1    3    3    0    0  0.93251064080E-01  0.51584853800E-01 -0.27589312186E-01  0.88685846009E+00  0.88000000000E+00 0. -1.
        -11    1    4    4    0    0 -0.68645878519E-01 -0.50263882369E-01  0.21138610267E-01  0.87668788479E-01  0.51100000000E-03 0. -1.
         11    1    4    4    0    0 -0.35291179097E-01 -0.17947912431E-01  0.21037773597E-01  0.44837974103E-01  0.51100000000E-03 0.  1.
</event>
<event>
 8    1  0.1162192E+005  0.1043930E+01  0.7957747E-01            NaN
         13   -1    0    0    0    0  0.00000000000E+00  0.00000000000E+00  0.74505805969E-08  0.10566000000E+00  0.10566000000E+00 0. -1.
     999900   -1    0    0    0    0 -0.00000000000E+00 -0.00000000000E+00 -0.74505805969E-08  0.93827000000E+00  0.93827000000E+00 0. -1.
     999902    2    1    2    0    0 -0.41503824128E-02 -0.16589889489E-01 -0.15978159421E-01  0.10205259045E+01  0.10202575018E+01 0.  0.
     999903    2    3    3    0    0 -0.10004851739E+00 -0.57841718956E-01  0.58765128363E-01  0.13120890546E+00  0.20175883528E-01 0.  0.
         14    1    1    2    0    0  0.41503824128E-02  0.16589889489E-01  0.15978159421E-01  0.23404095494E-01  0.00000000000E+00 0. -1.
     999901    1    3    3    0    0  0.95898134977E-01  0.41251829467E-01 -0.74743287784E-01  0.88931699905E+00  0.88000000000E+00 0. -1.
        -11    1    4    4    0    0 -0.25568767478E-01 -0.13290575895E-01  0.53905041567E-02  0.29320981123E-01  0.51100000000E-03 0. -1.
         11    1    4    4    0    0 -0.74479749912E-01 -0.44551143061E-01  0.53374624207E-01  0.10188792433E+00  0.51100000000E-03 0.  1.
</event>
<event>
 8    1  0.1162192E+005  0.1043930E+01  0.7957747E-01            NaN
         13   -1    0    0    0    0  0.00000000000E+00  0.00000000000E+00  0.74505805969E-08  0.10566000000E+00  0.10566000000E+00 0. -1.
     999900   -1    0    0    0    0 -0.00000000000E+00 -0.00000000000E+00 -0.74505805969E-08  0.93827000000E+00  0.93827000000E+00 0. -1.
     999902    2    1    2    0    0  0.10452818143E-01  0.21605563360E-01  0.50320695319E-02  0.10194068783E+01  0.10191118682E+01 0.  0.
     999903    2    3    3    0    0 -0.27162044927E-01  0.12618497927E+00 -0.20810418073E-01  0.13204023121E+00  0.18469528434E-01 0.  0.
         14    1    1    2    0    0 -0.10452818143E-01 -0.21605563360E-01 -0.50320695319E-02  0.24523121722E-01  0.00000000000E+00 0. -1.
     999901    1    3    3    0    0  0.37614863070E-01 -0.10457941591E+00  0.25842487605E-01  0.88736664706E+00  0.88000000000E+00 0. -1.
        -11    1    4    4    0    0 -0.25311404493E-01  0.74848810006E-01 -0.13087037788E-01  0.80090843645E-01  0.51100000000E-03 0. -1.
         11    1    4    4    0    0 -0.18506404342E-02  0.51336169264E-01 -0.77233802850E-02  0.51949387569E-01  0.51100000000E-03 0.  1.
</event>
<event>
 8    1  0.1162192E+005  0.1043930E+01  0.7957747E-01            NaN
         13   -1    0    0    0    0  0.00000000000E+00  0.00000000000E+00  0.74505805969E-08  0.10566000000E+00  0.10566000000E+00 0. -1.
     999900   -1    0    0    0    0 -0.00000000000E+00 -0.00000000000E+00 -0.74505805969E-08  0.93827000000E+00  0.93827000000E+00 0. -1.
     999902    2    1    2    0    0  0.13289301155E-01  0.51636512337E-02  0.29725191335E-02  0.10293661856E+01  0.10292631536E+01 0.  0.
     999903    2    3    3    0    0  0.30195002362E-01 -0.32343681823E-02  0.13452944155E+00  0.13938666153E+00  0.20205728508E-01 0.  0.
         14    1    1    2    0    0 -0.13289301155E-01 -0.51636512337E-02 -0.29725191335E-02  0.14563814379E-01  0.00000000000E+00 0.  1.
     999901    1    3    3    0    0 -0.16905701207E-01  0.83980194160E-02 -0.13155692241E+00  0.88997952409E+00  0.88000000000E+00 0. -1.
        -11    1    4    4    0    0  0.63670809424E-02 -0.31903395074E-02  0.83968000215E-02  0.11022039625E-01  0.51100000000E-03 0. -1.
         11    1    4    4    0    0  0.23827921420E-01 -0.44028674866E-04  0.12613264153E+00  0.12836462191E+00  0.51100000000E-03 0.  1.
</event>
<event>
 8    1  0.1162192E+005  0.1043930E+01  0.7957747E-01            NaN
         13   -1    0    0    0    0  0.00000000000E+00  0.00000000000E+00  0.74505805969E-08  0.10566000000E+00  0.10566000000E+00 0. -1.
     999900   -1    0    0    0    0 -0.00000000000E+00 -0.00000000000E+00 -0.74505805969E-08  0.93827000000E+00  0.93827000000E+00 0. -1.
     999902    2    1    2    0    0 -0.18736189505E-01 -0.12147798438E-01  0.63181675234E-02  0.10207236852E+01  0.10204598515E+01 0.  0.
     999903    2    3    3    0    0 -0.83870139189E-01  0.74724568135E-01 -0.64801756783E-01  0.13120286867E+00  0.19923948756E-01 0.  0.
         14    1    1    2    0    0  0.18736189505E-01  0.12147798438E-01 -0.63181675234E-02  0.23206314763E-01  0.00000000000E+00 0.  1.
     999901    1    3    3    0    0  0.65133949684E-01 -0.86872366573E-01  0.71119924306E-01  0.88952081657E+00  0.88000000000E+00 0.  1.
        -11    1    4    4    0    0 -0.48439196793E-01  0.45883415459E-01 -0.49285781047E-01  0.82951750642E-01  0.51100000000E-03 0.  1.
         11    1    4    4    0    0 -0.35430942396E-01  0.28841152676E-01 -0.15515975736E-01  0.48251118026E-01  0.51100000000E-03 0. -1.
</event>
<event>
 8    1  0.1162192E+005  0.1043930E+01  0.7957747E-01            NaN
         13   -1    0    0    0    0  0.00000000000E+00  0.00000000000E+00  0.74505805969E-08  0.10566000000E+00  0.10566000000E+00 0.  1.
     999900   -1    0    0    0    0 -0.00000000000E+00 -0.00000000000E+00 -0.74505805969E-08  0.93827000000E+00  0.93827000000E+00 0. -1.
     999902    2    1    2    0    0  0.12547242376E-01  0.18045836951E-01 -0.10769703419E-01  0.10194540519E+01  0.10191601895E+01 0.  0.
     999903    2    3    3    0    0  0.10647520929E+00  0.75477315157E-01 -0.14014369813E-01  0.13258801609E+00  0.18691820468E-01 0.  0.
         14    1    1    2    0    0 -0.12547242376E-01 -0.18045836951E-01  0.10769703419E-01  0.24475948076E-01  0.00000000000E+00 0.  1.
     999901    1    3    3    0    0 -0.93927966915E-01 -0.57431478206E-01  0.32446663936E-02  0.88686603584E+00  0.88000000000E+00 0. -1.
        -11    1    4    4    0    0  0.56444987626E-01  0.31573887137E-01 -0.57310479668E-03  0.64680263969E-01  0.51100000000E-03 0. -1.
         11    1    4    4    0    0  0.50030221665E-01  0.43903428020E-01 -0.13441265016E-01  0.67907752120E-01  0.51100000000E-03 0.  1.
</event>
<event>
 8    1  0.1162192E+005  0.1043930E+01  0.7957747E-01            NaN
         13   -1    0    0    0    0  0.00000000000E+00  0.00000000000E+00  0.74505805969E-08  0.10566000000E+00  0.10566000000E+00 0.  1.
     999900   -1    0    0    0    0 -0.00000000000E+00 -0.00000000000E+00 -0.74505805969E-08  0.93827000000E+00  0.93827000000E+00 0. -1.
     999902    2    1    2    0    0  0.93968065261E-02  0.18203843266E-01 -0.12063398508E-01  0.10201559497E+01  0.10198788930E+01 0.  0.
     999903    2    3    3    0    0 -0.13626181733E-02  0.12799781287E+00  0.27001101048E-01  0.13240794714E+00  0.20433016918E-01 0.  0.
         14    1    1    2    0    0 -0.93968065261E-02 -0.18203843266E-01  0.12063398508E-01  0.23774050267E-01  0.00000000000E+00 0.  1.
     999901    1    3    3    0    0  0.10759424699E-01 -0.10979396960E+00 -0.39064499556E-01  0.88774800259E+00  0.88000000000E+00 0. -1.
        -11    1    4    4    0    0 -0.80362182347E-02  0.11169648869E+00  0.22584375959E-01  0.11424098016E+00  0.51100000000E-03 0.  1.
         11    1    4    4    0    0  0.66736000614E-02  0.16301324180E-01  0.44167250890E-02  0.18166966981E-01  0.51100000000E-03 0. -1.
</event>
<event>
 8    1  0.1162192E+005  0.1043930E+01  0.7957747E-01            NaN
         13   -1    0    0    0    0  0.00000000000E+00  0.00000000000E+00  0.74505805969E-08  0.10566000000E+00  0.10566000000E+00 0.  1.
     999900   -1    0    0    0    0 -0.00000000000E+00 -0.00000000000E+00 -0.74505805969E-08  0.93827000000E+00  0.93827000000E+00 0. -1.
     999902    2    1    2    0    0 -0.14250787228E-02  0.63950858463E-02  0.26825324131E-01  0.10163161269E+01  0.10159409155E+01 0.  0.
     999903    2    3    3    0    0  0.11925926110E+00 -0.19753054748E-01 -0.29731703405E-01  0.12589648848E+00  0.18788216924E-01 0.  0.
         14    1    1    2    0    0  0.14250787228E-02 -0.63950858463E-02 -0.26825324131E-01  0.27613873091E-01  0.00000000000E+00 0. -1.
     999901    1    3    3    0    0 -0.12068433982E+00  0.26148140595E-01  0.56557027536E-01  0.89041963843E+00  0.88000000000E+00 0.  1.
        -11    1    4    4    0    0  0.51705915264E-01 -0.17877496998E-01 -0.14950860937E-01  0.56717686271E-01  0.51100000000E-03 0. -1.
         11    1    4    4    0    0  0.67553345833E-01 -0.18755577505E-02 -0.14780842467E-01  0.69178802210E-01  0.51100000000E-03 0.  1.
</event>
<event>
 8    1  0.1162192E+005  0.1043930E+01  0.7957747E-01            NaN
         13   -1    0    0    0    0  0.00000000000E+00  0.00000000000E+00  0.74505805969E-08  0.10566000000E+00  0.10566000000E+00 0. -1.
     999900   -1    0    0    0    0 -0.00000000000E+00 -0.00000000000E+00 -0.74505805969E-08  0.93827000000E+00  0.93827000000E+00 0. -1.
     999902    2    1    2    0    0 -0.52315884611E-02  0.64787458618E-02  0.21611146917E-01  0.10207700057E+01  0.10205072362E+01 0.  0.
     999903    2    3    3    0    0 -0.79092042938E-01  0.10022646346E+00  0.30043855910E-01  0.13267366413E+00  0.19969292475E-01 0.  0.
         14    1    1    2    0    0  0.52315884611E-02 -0.64787458618E-02 -0.21611146917E-01  0.23159994319E-01  0.00000000000E+00 0.  1.
     999901    1    3    3    0    0  0.73860454477E-01 -0.93747717601E-01 -0.84327089933E-02  0.88809634155E+00  0.88000000000E+00 0.  1.
        -11    1    4    4    0    0 -0.55038666871E-01  0.76257905285E-01  0.13889832887E-01  0.95066879343E-01  0.51100000000E-03 0. -1.
         11    1    4    4    0    0 -0.24053376068E-01  0.23968558178E-01  0.16154023023E-01  0.37606784790E-01  0.51100000000E-03 0.  1.
</event>
<event>
 8    1  0.1162192E+005  0.1043930E+01  0.7957747E-01            NaN
         13   -1    0    0    0    0  0.00000000000E+00  0.00000000000E+00  0.74505805969E-08  0.10566000000E+00  0.10566000000E+00 0. -1.
     999900   -1    0    0    0    0 -0.00000000000E+00 -0.00000000000E+00 -0.74505805969E-08  0.93827000000E+00  0.93827000000E+00 0.  1.
     999902    2    1    2    0    0 -0.86656401274E-02  0.13628827479E-01  0.17660336573E-01  0.10199983109E+01  0.10197175238E+01 0.  0.
     999903    2    3    3    0    0 -0.12240200639E+00 -0.40811137669E-01  0.11604952251E-01  0.13098968408E+00  0.19386136591E-01 0.  0.
         14    1    1    2    0    0  0.86656401274E-02 -0.13628827479E-01 -0.17660336573E-01  0.23931689141E-01  0.00000000000E+00 0.  1.
     999901    1    3    3    0    0  0.11373636626E+00  0.54439965148E-01  0.60553843215E-02  0.88900862678E+00  0.88000000000E+00 0.  1.
        -11    1    4    4    0    0 -0.96491539141E-02 -0.30794779403E-02 -0.43294233433E-02  0.11026984317E-01  0.51100000000E-03 0.  1.
         11    1    4    4    0    0 -0.11275285247E+00 -0.37731659729E-01  0.15934375595E-01  0.11996269976E+00  0.51100000000E-03 0. -1.
</event>
<event>
 8    1  0.1162192E+005  0.1043930E+01  0.7957747E-01            NaN
         13   -1    0    0    0    0  0.00000000000E+00  0.00000000000E+00  0.74505805969E-08  0.10566000000E+00  0.10566000000E+00 0. -1.
     999900   -1    0    0    0    0 -0.00000000000E+00 -0.00000000000E+00 -0.74505805969E-08  0.93827000000E+00  0.93827000000E+00 0.  1.
     999902    2    1    2    0    0  0.72010413408E-02  0.40088218348E-02 -0.21737465713E-01  0.10206825686E+01  0.10204177884E+01 0.  0.
     999903    2    3    3    0    0  0.44948156985E-01  0.11335639119E+00  0.42669733339E-01  0.13077806649E+00  0.20302420881E-01 0.  0.
         14    1    1    2    0    0 -0.72010413408E-02 -0.40088218348E-02  0.21737465713E-01  0.23247431353E-01  0.00000000000E+00 0.  1.
     999901    1    3    3    0    0 -0.37747115645E-01 -0.10934756935E+00 -0.64407199051E-01  0.88990450215E+00  0.88000000000E+00 0.  1.
        -11    1    4    4    0    0  0.34752843586E-01  0.62928864457E-01  0.20504152056E-01  0.74756160226E-01  0.51100000000E-03 0.  1.
         11    1    4    4    0    0  0.10195313399E-01  0.50427526729E-01  0.22165581283E-01  0.56021906268E-01  0.51100000000E-03 0. -1.
</event>
<event>
 8    1  0.1162192E+005  0.1043930E+01  0.7957747E-01            NaN
         13   -1    0    0    0    0  0.00000000000E+00  0.00000000000E+00  0.74505805969E-08  0.10566000000E+00  0.10566000000E+00 0. -1.
     999900   -1    0    0    0    0 -0.00000000000E+00 -0.00000000000E+00 -0.74505805969E-08  0.93827000000E+00  0.93827000000E+00 0.  1.
     999902    2    1    2    0    0  0.35616054995E-02  0.14909301025E-01  0.17183181743E-01  0.10209031890E+01  0.10206434673E+01 0.  0.
     999903    2    3    3    0    0  0.47315248629E-02 -0.82907453649E-01 -0.95974430385E-01  0.12828113493E+00  0.18679536724E-01 0.  0.
         14    1    1    2    0    0 -0.35616054995E-02 -0.14909301025E-01 -0.17183181743E-01  0.23026811017E-01  0.00000000000E+00 0.  1.
     999901    1    3    3    0    0 -0.11699193635E-02  0.97816754674E-01  0.11315761213E+00  0.89262205406E+00  0.88000000000E+00 0. -1.
        -11    1    4    4    0    0  0.77356760064E-02 -0.70617799663E-01 -0.71883265676E-01  0.10106522309E+00  0.51100000000E-03 0. -1.
         11    1    4    4    0    0 -0.30041511435E-02 -0.12289653987E-01 -0.24091164709E-01  0.27215911839E-01  0.51100000000E-03 0.  1.
</event>
<event>
 8    1  0.1162192E+005  0.1043930E+01  0.7957747E-01            NaN
         13   -1    0    0    0    0  0.00000000000E+00  0.00000000000E+00  0.74505805969E-08  0.10566000000E+00  0.10566000000E+00 0. -1.
     999900   -1    0    0    0    0 -0.00000000000E+00 -0.00000000000E+00 -0.74505805969E-08  0.93827000000E+00  0.93827000000E+00 0. -1.
     999902    2    1    2    0    0  0.70888605351E-02  0.16243604715E-01 -0.16045007223E-01  0.10200229112E+01  0.10197427080E+01 0.  0.
     999903    2    3    3    0    0  0.35657967670E-01 -0.12171070112E+00 -0.76082357683E-02  0.12877728654E+00  0.20993304903E-01 0.  0.
         14    1    1    2    0    0 -0.70888605351E-02 -0.16243604715E-01  0.16045007223E-01  0.23907088794E-01  0.00000000000E+00 0. -1.
     999901    1    3    3    0    0 -0.28569107135E-01  0.13795430583E+00 -0.84367714542E-02  0.89124562467E+00  0.88000000000E+00 0.  1.
        -11    1    4    4    0    0  0.14729846129E-01 -0.54531752481E-01 -0.13770921849E-01  0.58142753678E-01  0.51100000000E-03 0. -1.
         11    1    4    4    0    0  0.20928121541E-01 -0.67178948638E-01  0.61626860809E-02  0.70634532858E-01  0.51100000000E-03 0.  1.
</event>
<event>
 8    1  0.1162192E+005  0.1043930E+01  0.7957747E-01            NaN
         13   -1    0    0    0    0  0.00000000000E+00  0.00000000000E+00  0.74505805969E-08  0.10566000000E+00  0.10566000000E+00 0.  1.
     999900   -1    0    0    0    0 -0.00000000000E+00 -0.00000000000E+00 -0.74505805969E-08  0.93827000000E+00  0.93827000000E+00 0. -1.
     999902    2    1    2    0    0  0.18891465039E-01 -0.15154958268E-01 -0.61541862348E-02  0.10189413182E+01  0.10186348588E+01 0.  0.
     999903    2    3    3    0    0 -0.11426115715E+00 -0.19918358516E-01 -0.48976170299E-01  0.12788237899E+00  0.22425087692E-01 0.  0.
         14    1    1    2    0    0 -0.18891465039E-01  0.15154958268E-01  0.61541862348E-02  0.24988681831E-01  0.00000000000E+00 0.  1.
     999901    1    3    3    0    0  0.13315262219E+00  0.47634002480E-02  0.42821984064E-01  0.89105893918E+00  0.88000000000E+00 0.  1.
        -11    1    4    4    0    0 -0.18478532867E-01  0.47096238620E-02 -0.10390038901E-01  0.21722126120E-01  0.51100000000E-03 0. -1.
         11    1    4    4    0    0 -0.95782624286E-01 -0.24627982379E-01 -0.38586131398E-01  0.10616025287E+00  0.51100000000E-03 0.  1.
</event>
<event>
 8    1  0.1162192E+005  0.1043930E+01  0.7957747E-01            NaN
         13   -1    0    0    0    0  0.00000000000E+00  0.00000000000E+00  0.74505805969E-08  0.10566000000E+00  0.10566000000E+00 0.  1.
     999900   -1    0    0    0    0 -0.00000000000E+00 -0.00000000000E+00 -0.74505805969E-08  0.93827000000E+00  0.93827000000E+00 0. -1.
     999902    2    1    2    0    0 -0.46100673138E-02 -0.22613629369E-01 -0.84758161080E-02  0.10193440607E+01  0.10190475188E+01 0.  0.
     999903    2    3    3    0    0 -0.46592405689E-01  0.82681336293E-02  0.11760097673E+00  0.12883209685E+00  0.22989239830E-01 0.  0.
         14    1    1    2    0    0  0.46100673138E-02  0.22613629369E-01  0.84758161080E-02  0.24585939327E-01  0.00000000000E+00 0.  1.
     999901    1    3    3    0    0  0.41982338376E-01 -0.30881762998E-01 -0.12607679284E+00  0.89051196382E+00  0.88000000000E+00 0. -1.
        -11    1    4    4    0    0 -0.73213677386E-02  0.11009678250E-01  0.28644053262E-01  0.31552469776E-01  0.51100000000E-03 0.  1.
         11    1    4    4    0    0 -0.39271037951E-01 -0.27415446207E-02  0.88956923473E-01  0.97279627072E-01  0.51100000000E-03 0. -1.
</event>
<event>
 8    1  0.1162192E+005  0.1043930E+01  0.7957747E-01            NaN
         13   -1    0    0    0    0  0.00000000000E+00  0.00000000000E+00  0.74505805969E-08  0.10566000000E+00  0.10566000000E+00 0.  1.
     999900   -1    0    0    0    0 -0.00000000000E+00 -0.00000000000E+00 -0.74505805969E-08  0.93827000000E+00  0.93827000000E+00 0. -1.
     999902    2    1    2    0    0 -0.14938113553E-01  0.15940285775E-01  0.10143211976E-01  0.10198442221E+01  0.10195597642E+01 0.  0.
     999903    2    3    3    0    0 -0.41128842584E-01 -0.11107392960E+00  0.49691378598E-01  0.12946080882E+00  0.16182347886E-01 0.  0.
         14    1    1    2    0    0  0.14938113553E-01 -0.15940285775E-01 -0.10143211976E-01  0.24085777885E-01  0.00000000000E+00 0. -1.
     999901    1    3    3    0    0  0.26190729030E-01  0.12701421538E+00 -0.39548166622E-01  0.89038341330E+00  0.88000000000E+00 0.  1.
        -11    1    4    4    0    0 -0.27813630534E-01 -0.74763810786E-01  0.41516833825E-01  0.89928494142E-01  0.51100000000E-03 0.  1.
         11    1    4    4    0    0 -0.13315212049E-01 -0.36310118815E-01  0.81745447729E-02  0.39532314675E-01  0.51100000000E-03 0. -1.
</event>
<event>
 8    1  0.1162192E+005  0.1043930E+01  0.7957747E-01            NaN
         13   -1    0    0    0    0  0.00000000000E+00  0.00000000000E+00  0.74505805969E-08  0.10566000000E+00  0.10566000000E+00 0. -1.
     999900   -1    0    0    0    0 -0.00000000000E+00 -0.00000000000E+00 -0.74505805969E-08  0.93827000000E+00  0.93827000000E+00 0.  1.
     999902    2    1    2    0    0 -0.12123846596E-01  0.20369705347E-01  0.16240088398E-02  0.10201697400E+01  0.10198930083E+01 0.  0.
     999903    2    3    3    0    0 -0.12847729845E+00  0.63425707018E-02  0.22824362332E-01  0.13214702559E+00  0.19880654799E-01 0.  0.
         14    1    1    2    0    0  0.12123846596E-01 -0.20369705347E-01 -0.16240088398E-02  0.23760260035E-01  0.00000000000E+00 0.  1.
     999901    1    3    3    0    0  0.11635345185E+00  0.14027134645E-01 -0.21200353493E-01  0.88802271438E+00  0.88000000000E+00 0.  1.
        -11    1    4    4    0    0 -0.45772420021E-01  0.11335417205E-01  0.11295123573E-01  0.48491721513E-01  0.51100000000E-03 0.  1.
         11    1    4    4    0    0 -0.82704878429E-01 -0.49928465030E-02  0.11529238759E-01  0.83655304073E-01  0.51100000000E-03 0. -1.
</event>
<event>
 8    1  0.1162192E+005  0.1043930E+01  0.7957747E-01            NaN
         13   -1    0    0    0    0  0.00000000000E+00  0.00000000000E+00  0.74505805969E-08  0.10566000000E+00  0.10566000000E+00 0. -1.
     999900   -1    0    0    0    0 -0.00000000000E+00 -0.00000000000E+00 -0.74505805969E-08  0.93827000000E+00  0.93827000000E+00 0.  1.
     999902    2    1    2    0    0 -0.23724995429E-01 -0.51132396764E-02 -0.67381506431E-04  0.10196601593E+01  0.10193712843E+01 0.  0.
     999903    2    3    3    0    0  0.11988179306E+00 -0.12252914320E-01 -0.38996802638E-01  0.12714159674E+00  0.11066019583E-01 0.  0.
         14    1    1    2    0    0  0.23724995429E-01  0.51132396764E-02  0.67381506431E-04  0.24269840715E-01  0.00000000000E+00 0.  1.
     999901    1    3    3    0    0 -0.14360678849E+00  0.71396746437E-02  0.38929421132E-01  0.89251856254E+00  0.88000000000E+00 0.  1.
        -11    1    4    4    0    0  0.60614379003E-01 -0.89295441885E-02 -0.14772019089E-01  0.63026291104E-01  0.51100000000E-03 0.  1.
         11    1    4    4    0    0  0.59267414057E-01 -0.33233701316E-02 -0.24224783549E-01  0.64115305638E-01  0.51100000000E-03 0. -1.
</event>
<event>
 8    1  0.1162192E+005  0.1043930E+01  0.7957747E-01            NaN
         13   -1    0    0    0    0  0.00000000000E+00  0.00000000000E+00  0.74505805969E-08  0.10566000000E+00  0.10566000000E+00 0. -1.
     999900   -1    0    0    0    0 -0.00000000000E+00 -0.00000000000E+00 -0.74505805969E-08  0.93827000000E+00  0.93827000000E+00 0.  1.
     999902    2    1    2    0    0  0.22335503239E-01 -0.80693141826E-02 -0.45826557606E-02  0.10197434486E+01  0.10194565766E+01 0.  0.
     999903    2    3    3    0    0  0.43452019564E-01 -0.12053505818E+00  0.23624547485E-01  0.13188642340E+00  0.20472693452E-01 0.  0.
         14    1    1    2    0    0 -0.22335503239E-01  0.80693141826E-02  0.45826557606E-02  0.24186551431E-01  0.00000000000E+00 0. -1.
     999901    1    3    3    0    0 -0.21116516325E-01  0.11246574400E+00 -0.28207203246E-01  0.88785702517E+00  0.88000000000E+00 0.  1.
        -11    1    4    4    0    0  0.16158202972E-01 -0.51729455812E-01  0.20018021604E-01  0.57775482965E-01  0.51100000000E-03 0.  1.
         11    1    4    4    0    0  0.27293816592E-01 -0.68805602369E-01  0.36065258812E-02  0.74110940431E-01  0.51100000000E-03 0. -1.
</event>
<event>
 8    1  0.1162192E+005  0.1043930E+01  0.7957747E-01            NaN
         13   -1    0    0    0    0  0.00000000000E+00  0.00000000000E+00  0.74505805969E-08  0.10566000000E+00  0.10566000000E+00 0.  1.
     999900   -1    0    0    0    0 -0.00000000000E+00 -0.00000000000E+00 -0.74505805969E-08  0.93827000000E+00  0.93827000000E+00 0.  1.
     999902    2    1    2    0    0 -0.12313143450E-01 -0.12852630267E-02 -0.20511394935E-01  0.10199720634E+01  0.10196906528E+01 0.  0.
     999903    2    3    3    0    0 -0.43930335931E-01  0.97563615495E-01  0.71388228398E-01  0.12912062328E+00  0.11283736906E-01 0.  0.
         14    1    1    2    0    0  0.12313143450E-01  0.12852630267E-02  0.20511394935E-01  0.23957936573E-01  0.00000000000E+00 0.  1.
     999901    1    3    3    0    0  0.31617192481E-01 -0.98848878522E-01 -0.91899623333E-01  0.89085144015E+00  0.88000000000E+00 0. -1.
        -11    1    4    4    0    0 -0.15462149201E-02  0.11268875013E-01  0.89450367832E-02  0.14479403602E-01  0.51100000000E-03 0.  1.
         11    1    4    4    0    0 -0.42384121011E-01  0.86294740482E-01  0.62443191615E-01  0.11464121968E+00  0.51100000000E-03 0. -1.
</event>
<event>
 8    1  0.1162192E+005  0.1043930E+01  0.7957747E-01            NaN
         13   -1    0    0    0    0  0.00000000000E+00  0.00000000000E+00  0.74505805969E-08  0.10566000000E+00  0.10566000000E+00 0.  1.
     999900   -1    0    0    0    0 -0.00000000000E+00 -0.00000000000E+00 -0.74505805969E-08  0.93827000000E+00  0.93827000000E+00 0.  1.
     999902    2    1    2    0    0 -0.22669471439E-01 -0.57178472983E-02 -0.26000794931E-02  0.10204064134E+01  0.10201352309E+01 0.  0.
     999903    2    3    3    0    0  0.94819626370E-01 -0.46445192475E-02 -0.84751376470E-01  0.12880466613E+00  0.19887511164E-01 0.  0.
         14    1    1    2    0    0  0.22669471439E-01  0.57178472983E-02  0.26000794931E-02  0.23523586598E-01  0.00000000000E+00 0. -1.
     999901    1    3    3    0    0 -0.11748909781E+00 -0.10733280508E-02  0.82151296977E-01  0.89160174727E+00  0.88000000000E+00 0. -1.
        -11    1    4    4    0    0  0.50172914597E-01 -0.11575914049E-01 -0.39939134315E-01  0.65166852894E-01  0.51100000000E-03 0.  1.
         11    1    4    4    0    0  0.44646711773E-01  0.69313948017E-02 -0.44812242154E-01  0.63637813240E-01  0.51100000000E-03 0. -1.
</event>
<event>
 8    1  0.1162192E+005  0.1043930E+01  0.7957747E-01            NaN
         13   -1    0    0    0    0  0.00000000000E+00  0.00000000000E+00  0.74505805969E-08  0.10566000000E+00  0.10566000000E+00 0. -1.
     999900   -1    0    0    0    0 -0.00000000000E+00 -0.00000000000E+00 -0.74505805969E-08  0.93827000000E+00  0.93827000000E+00 0.  1.
     999902    2    1    2    0    0 -0.11397899046E-01 -0.17988606607E-01  0.92420435045E-02  0.10207154046E+01  0.10204513804E+01 0.  0.
     999903    2    3    3    0    0 -0.10301793708E+00  0.66128655538E-01 -0.40757725207E-01  0.13056377595E+00  0.20000324588E-01 0.  0.
         14    1    1    2    0    0  0.11397899046E-01  0.17988606607E-01 -0.92420435045E-02  0.23214595376E-01  0.00000000000E+00 0.  1.
     999901    1    3    3    0    0  0.91620038031E-01 -0.84117262146E-01  0.49999768711E-01  0.89015162867E+00  0.88000000000E+00 0.  1.
        -11    1    4    4    0    0 -0.71703735565E-01  0.35814256385E-01 -0.22033090599E-01  0.83125235980E-01  0.51100000000E-03 0. -1.
         11    1    4    4    0    0 -0.31314201511E-01  0.30314399154E-01 -0.18724634608E-01  0.47438539970E-01  0.51100000000E-03 0.  1.
</event>
<event>
 8    1  0.1162192E+005  0.1043930E+01  0.7957747E-01            NaN
         13   -1    0    0    0    0  0.00000000000E+00  0.00000000000E+00  0.74505805969E-08  0.10566000000E+00  0.10566000000E+00 0.  1.
     999900   -1    0    0    0    0 -0.00000000000E+00 -0.00000000000E+00 -0.74505805969E-08  0.93827000000E+00  0.93827000000E+00 0.  1.
     999902    2    1    2    0    0  0.43284372040E-02 -0.16704291241E-01 -0.17053581608E-01  0.10196690569E+01  0.10193803962E+01 0.  0.
     999903    2    3    3    0    0 -0.85297033421E-02 -0.41388016821E-01  0.12002586429E+00  0.12862169981E+00  0.18751260993E-01 0.  0.
         14    1    1    2    0    0 -0.43284372040E-02  0.16704291241E-01  0.17053581608E-01  0.24260943101E-01  0.00000000000E+00 0.  1.
     999901    1    3    3    0    0  0.12858140546E-01  0.24683725580E-01 -0.13707944590E+00  0.89104735709E+00  0.88000000000E+00 0.  1.
        -11    1    4    4    0    0  0.51864326064E-02 -0.97066993597E-02  0.39461348994E-01  0.40970456198E-01  0.51100000000E-03 0.  1.
         11    1    4    4    0    0 -0.13716135948E-01 -0.31681317461E-01  0.80564515293E-01  0.87651243613E-01  0.51100000000E-03 0. -1.
</event>
<event>
 8    1  0.1162192E+005  0.1043930E+01  0.7957747E-01            NaN
         13   -1    0    0    0    0  0.00000000000E+00  0.00000000000E+00  0.74505805969E-08  0.10566000000E+00  0.10566000000E+00 0. -1.
     999900   -1    0    0    0    0 -0.00000000000E+00 -0.00000000000E+00 -0.74505805969E-08  0.93827000000E+00  0.93827000000E+00 0. -1.
     999902    2    1    2    0    0  0.15923529096E-01  0.28743421919E-02 -0.15654074569E-01  0.10214162115E+01  0.10211680598E+01 0.  0.
     999903    2    3    3    0    0 -0.38715942522E-01 -0.68107771298E-02 -0.12539038923E+00  0.13286608227E+00  0.19629957149E-01 0.  0.
         14    1    1    2    0    0 -0.15923529096E-01 -0.28743421919E-02  0.15654074569E-01  0.22513788498E-01  0.00000000000E+00 0.  1.
     999901    1    3    3    0    0  0.54639471619E-01  0.96851193217E-02  0.10973631466E+00  0.88855012923E+00  0.88000000000E+00 0.  1.
        -11    1    4    4    0    0 -0.11557086406E-01 -0.11545097329E-01 -0.44635850652E-01  0.47533943692E-01  0.51100000000E-03 0.  1.
         11    1    4    4    0    0 -0.27158856117E-01  0.47343201996E-02 -0.80754538577E-01  0.85332138583E-01  0.51100000000E-03 0. -1.
</event>
<event>
 8    1  0.1162192E+005  0.1043930E+01  0.7957747E-01            NaN
         13   -1    0    0    0    0  0.00000000000E+00  0.00000000000E+00  0.74505805969E-08  0.10566000000E+00  0.10566000000E+00 0. -1.
     999900   -1    0    0    0    0 -0.00000000000E+00 -0.00000000000E+00 -0.74505805969E-08  0.93827000000E+00  0.93827000000E+00 0. -1.
     999902    2    1    2    0    0 -0.36686223639E-02  0.86776542668E-02 -0.22267022531E-01  0.10197518949E+01  0.10194652257E+01 0.  0.
     999903    2    3    3    0    0  0.69978870785E-01 -0.83581310095E-01 -0.69106885694E-01  0.13063455589E+00  0.20167989221E-01 0.  0.
         14    1    1    2    0    0  0.36686223639E-02 -0.86776542668E-02  0.22267022531E-01  0.24178105096E-01  0.00000000000E+00 0. -1.
     999901    1    3    3    0    0 -0.73647493149E-01  0.92258964361E-01  0.46839863163E-01  0.88911733901E+00  0.88000000000E+00 0. -1.
        -11    1    4    4    0    0  0.37377656695E-01 -0.58405934140E-01 -0.38497743301E-01  0.79313805375E-01  0.51100000000E-03 0. -1.
         11    1    4    4    0    0  0.32601214089E-01 -0.25175375955E-01 -0.30609142393E-01  0.51320750516E-01  0.51100000000E-03 0.  1.
</event>
<event>
 8    1  0.1162192E+005  0.1043930E+01  0.7957747E-01            NaN
         13   -1    0    0    0    0  0.00000000000E+00  0.00000000000E+00  0.74505805969E-08  0.10566000000E+00  0.10566000000E+00 0.  1.
     999900   -1    0    0    0    0 -0.00000000000E+00 -0.00000000000E+00 -0.74505805969E-08  0.93827000000E+00  0.93827000000E+00 0.  1.
     999902    2    1    2    0    0 -0.19674153337E-01  0.95593293260E-02  0.88431102710E-02  0.10203364906E+01  0.10200636747E+01 0.  0.
     999903    2    3    3    0    0  0.88712095025E-01  0.85351122933E-01  0.36041742513E-01  0.13003781015E+00  0.21358250753E-01 0.  0.
         14    1    1    2    0    0  0.19674153337E-01 -0.95593293260E-02 -0.88431102710E-02  0.23593509403E-01  0.00000000000E+00 0.  1.
     999901    1    3    3    0    0 -0.10838624836E+00 -0.75791793607E-01 -0.27198632242E-01  0.89029868045E+00  0.88000000000E+00 0.  1.
        -11    1    4    4    0    0  0.42637971497E-01  0.26530744532E-01  0.14960231037E-01  0.52401781005E-01  0.51100000000E-03 0.  1.
         11    1    4    4    0    0  0.46074123529E-01  0.58820378401E-01  0.21081511476E-01  0.77636029144E-01  0.51100000000E-03 0. -1.
</event>
<event>
 8    1  0.1162192E+005  0.1043930E+01  0.7957747E-01            NaN
         13   -1    0    0    0    0  0.00000000000E+00  0.00000000000E+00  0.74505805969E-08  0.10566000000E+00  0.10566000000E+00 0. -1.
     999900   -1    0    0    0    0 -0.00000000000E+00 -0.00000000000E+00 -0.74505805969E-08  0.93827000000E+00  0.93827000000E+00 0.  1.
     999902    2    1    2    0    0  0.11847863580E-01  0.16361382697E-01 -0.12800862795E-01  0.10200149670E+01  0.10197345753E+01 0.  0.
     999903    2    3    3    0    0 -0.64224556063E-01  0.11136178369E+00  0.16240462937E-01  0.13116431148E+00  0.20349041766E-01 0.  0.
         14    1    1    2    0    0 -0.11847863580E-01 -0.16361382697E-01  0.12800862795E-01  0.23915033002E-01  0.00000000000E+00 0. -1.
     999901    1    3    3    0    0  0.76072419643E-01 -0.95000400993E-01 -0.29041325732E-01  0.88885065552E+00  0.88000000000E+00 0.  1.
        -11    1    4    4    0    0 -0.49108687376E-02  0.21508471031E-01  0.67674660490E-02  0.23082258892E-01  0.51100000000E-03 0. -1.
         11    1    4    4    0    0 -0.59313687325E-01  0.89853312659E-01  0.94729968875E-02  0.10808205259E+00  0.51100000000E-03 0.  1.
</event>
<event>
 8    1  0.1162192E+005  0.1043930E+01  0.7957747E-01            NaN
         13   -1    0    0    0    0  0.00000000000E+00  0.00000000000E+00  0.74505805969E-08  0.10566000000E+00  0.10566000000E+00 0.  1.
     999900   -1    0    0    0    0 -0.00000000000E+00 -0.00000000000E+00 -0.74505805969E-08  0.93827000000E+00  0.93827000000E+00 0. -1.
     999902    2    1    2    0    0  0.39604908022E-02 -0.45610182871E-02  0.21818771057E-01  0.10212904959E+01  0.10210395339E+01 0.  0.
     999903    2    3    3    0    0  0.16127411150E-01  0.17184317880E-01 -0.12494457373E+00  0.12878818612E+00  0.20490393096E-01 0.  0.
         14    1    1    2    0    0 -0.39604908022E-02  0.45610182871E-02 -0.21818771057E-01  0.22639504095E-01  0.00000000000E+00 0. -1.
     999901    1    3    3    0    0 -0.12166920348E-01 -0.21745336167E-01  0.14676334478E+00  0.89250230978E+00  0.88000000000E+00 0.  1.
        -11    1    4    4    0    0  0.13754961648E-01  0.21930848012E-01 -0.10268611226E+00  0.10590023530E+00  0.51100000000E-03 0.  1.
         11    1    4    4    0    0  0.23724495023E-02 -0.47465301324E-02 -0.22258461465E-01  0.22887950819E-01  0.51100000000E-03 0. -1.
</event>
<event>
 8    1  0.1162192E+005  0.1043930E+01  0.7957747E-01            NaN
         13   -1    0    0    0    0  0.00000000000E+00  0.00000000000E+00  0.74505805969E-08  0.10566000000E+00  0.10566000000E+00 0.  1.
     999900   -1    0    0    0    0 -0.00000000000E+00 -0.00000000000E+00 -0.74505805969E-08  0.93827000000E+00  0.93827000000E+00 0. -1.
     999902    2    1    2    0    0 -0.16193365211E-01  0.15132223768E-01  0.55841865768E-02  0.10210740946E+01  0.10208182572E+01 0.  0.
     999903    2    3    3    0    0  0.39229864271E-01  0.88862015916E-01  0.87900597849E-01  0.13243254244E+00  0.19401625497E-01 0.  0.
         14    1    1    2    0    0  0.16193365211E-01 -0.15132223768E-01 -0.55841865768E-02  0.22855905424E-01  0.00000000000E+00 0.  1.
     999901    1    3    3    0    0 -0.55423229482E-01 -0.73729792148E-01 -0.82316411272E-01  0.88864155214E+00  0.88000000000E+00 0. -1.
        -11    1    4    4    0    0  0.33616398778E-02  0.28544040339E-01  0.22506843548E-01  0.36508656358E-01  0.51100000000E-03 0.  1.
         11    1    4    4    0    0  0.35868224393E-01  0.60317975576E-01  0.65393754301E-01  0.95923886083E-01  0.51100000000E-03 0. -1.
</event>
<event>
 8    1  0.1162192E+005  0.1043930E+01  0.7957747E-01            NaN
         13   -1    0    0    0    0  0.00000000000E+00  0.00000000000E+00  0.74505805969E-08  0.10566000000E+00  0.10566000000E+00 0.  1.
     999900   -1    0    0    0    0 -0.00000000000E+00 -0.00000000000E+00 -0.74505805969E-08  0.93827000000E+00  0.93827000000E+00 0. -1.
     999902    2    1    2    0    0  0.11506629617E-01  0.18081427282E-01 -0.98918318761E-02  0.10203251514E+01  0.10200520701E+01 0.  0.
     999903    2    3    3    0    0 -0.17519937135E-01  0.60874238698E-01  0.11224293884E+00  0.13038657575E+00  0.19737291660E-01 0.  0.
         14    1    1    2    0    0 -0.11506629617E-01 -0.18081427282E-01  0.98918318761E-02  0.23604848561E-01  0.00000000000E+00 0. -1.
     999901    1    3    3    0    0  0.29026566752E-01 -0.42792811416E-01 -0.12213477071E+00  0.88993857569E+00  0.88000000000E+00 0. -1.
        -11    1    4    4    0    0 -0.92647160983E-02  0.53725809684E-01  0.10054265166E+00  0.11437387602E+00  0.51100000000E-03 0.  1.
         11    1    4    4    0    0 -0.82552210362E-02  0.71484290138E-02  0.11700287175E-01  0.16012699732E-01  0.51100000000E-03 0. -1.
</event>
<event>
 8    1  0.1162192E+005  0.1043930E+01  0.7957747E-01            NaN
         13   -1    0    0    0    0  0.00000000000E+00  0.00000000000E+00  0.74505805969E-08  0.10566000000E+00  0.10566000000E+00 0. -1.
     999900   -1    0    0    0    0 -0.00000000000E+00 -0.00000000000E+00 -0.74505805969E-08  0.93827000000E+00  0.93827000000E+00 0.  1.
     999902    2    1    2    0    0 -0.24474154262E-01  0.16453350479E-02 -0.22779536551E-03  0.10193995445E+01  0.10191043559E+01 0.  0.
     999903    2    3    3    0    0  0.99765319756E-02 -0.75494046095E-01 -0.10244723313E+00  0.12946350900E+00  0.21598203626E-01 0.  0.
         14    1    1    2    0    0  0.24474154262E-01 -0.16453350479E-02  0.22779536551E-03  0.24530455458E-01  0.00000000000E+00 0.  1.
     999901    1    3    3    0    0 -0.34450686237E-01  0.77139381143E-01  0.10221943776E+00  0.88993603555E+00  0.88000000000E+00 0. -1.
        -11    1    4    4    0    0  0.13623272937E-01 -0.24585482976E-01 -0.36245394226E-01  0.45869698738E-01  0.51100000000E-03 0. -1.
         11    1    4    4    0    0 -0.36467409616E-02 -0.50908563119E-01 -0.66201838904E-01  0.83593810259E-01  0.51100000000E-03 0.  1.
</event>
<event>
 8    1  0.1162192E+005  0.1043930E+01  0.7957747E-01            NaN
         13   -1    0    0    0    0  0.00000000000E+00  0.00000000000E+00  0.74505805969E-08  0.10566000000E+00  0.10566000000E+00 0. -1.
     999900   -1    0    0    0    0 -0.00000000000E+00 -0.00000000000E+00 -0.74505805969E-08  0.93827000000E+00  0.93827000000E+00 0. -1.
     999902    2    1    2    0    0  0.15212735568E-01  0.16667920873E-01  0.74687230567E-02  0.10201596669E+01  0.10198826978E+01 0.  0.
     999903    2    3    3    0    0 -0.74409099780E-01  0.19641797678E-01  0.10340206989E+00  0.13041581372E+00  0.19843942759E-01 0.  0.
         14    1    1    2    0    0 -0.15212735568E-01 -0.16667920873E-01 -0.74687230567E-02  0.23770333060E-01  0.00000000000E+00 0.  1.
     999901    1    3    3    0    0  0.89621835348E-01 -0.29738768045E-02 -0.95933346831E-01  0.88974385322E+00  0.88000000000E+00 0. -1.
        -11    1    4    4    0    0 -0.92257750226E-02  0.89494904227E-02  0.23055869395E-01  0.26401563176E-01  0.51100000000E-03 0.  1.
         11    1    4    4    0    0 -0.65183324757E-01  0.10692307255E-01  0.80346200493E-01  0.10401425054E+00  0.51100000000E-03 0. -1.
</event>
<event>
 8    1  0.1162192E+005  0.1043930E+01  0.7957747E-01            NaN
         13   -1    0    0    0    0  0.00000000000E+00  0.00000000000E+00  0.74505805969E-08  0.10566000000E+00  0.10566000000E+00 0.  1.
     999900   -1    0    0    0    0 -0.00000000000E+00 -0.00000000000E+00 -0.74505805969E-08  0.93827000000E+00  0.93827000000E+00 0.  1.
     999902    2    1    2    0    0  0.63387846927E-02 -0.22057409008E-01 -0.91522152407E-02  0.10192222577E+01  0.10189227341E+01 0.  0.
     999903    2    3    3    0    0 -0.95234747550E-01 -0.93718802057E-03 -0.86007444918E-01  0.12980111312E+00  0.19506740433E-01 0.  0.
         14    1    1    2    0    0 -0.63387846927E-02  0.22057409008E-01  0.91522152407E-02  0.24707742255E-01  0.00000000000E+00 0.  1.
     999901    1    3    3    0    0  0.10157353224E+00 -0.21120220987E-01  0.76855229677E-01  0.88942114463E+00  0.88000000000E+00 0.  1.
        -11    1    4    4    0    0 -0.53950494008E-01  0.32614549466E-02 -0.36601539207E-01  0.65278072011E-01  0.51100000000E-03 0.  1.
         11    1    4    4    0    0 -0.41284253541E-01 -0.41986429671E-02 -0.49405905711E-01  0.64523041104E-01  0.51100000000E-03 0. -1.
</event>
<event>
 8    1  0.1162192E+005  0.1043930E+01  0.7957747E-01            NaN
         13   -1    0    0    0    0  0.00000000000E+00  0.00000000000E+00  0.74505805969E-08  0.10566000000E+00  0.10566000000E+00 0.  1.
     999900   -1    0    0    0    0 -0.00000000000E+00 -0.00000000000E+00 -0.74505805969E-08  0.93827000000E+00  0.93827000000E+00 0. -1.
     999902    2    1    2    0    0  0.14317872448E-01 -0.14206523388E-01 -0.12652782611E-01  0.10201199247E+01  0.10198420177E+01 0.  0.
     999903    2    3    3    0    0 -0.95032169415E-01  0.19795063985E-01  0.80704096565E-01  0.12780325081E+00  0.19938955194E-01 0.  0.
         14    1    1    2    0    0 -0.14317872448E-01  0.14206523388E-01  0.12652782611E-01  0.23810075305E-01  0.00000000000E+00 0.  1.
     999901    1    3    3    0    0  0.10935004186E+00 -0.34001587373E-01 -0.93356879176E-01  0.89231667388E+00  0.88000000000E+00 0. -1.
        -11    1    4    4    0    0 -0.25986820993E-01  0.91597238608E-02  0.34008843494E-01  0.43773027807E-01  0.51100000000E-03 0.  1.
         11    1    4    4    0    0 -0.69045348421E-01  0.10635340124E-01  0.46695253070E-01  0.84030223006E-01  0.51100000000E-03 0. -1.
</event>
<event>
 8    1  0.1162192E+005  0.1043930E+01  0.7957747E-01            NaN
         13   -1    0    0    0    0  0.00000000000E+00  0.00000000000E+00  0.74505805969E-08  0.10566000000E+00  0.10566000000E+00 0.  1.
     999900   -1    0    0    0    0 -0.00000000000E+00 -0.00000000000E+00 -0.74505805969E-08  0.93827000000E+00  0.93827000000E+00 0.  1.
     999902    2    1    2    0    0  0.47067342278E-02 -0.11230045587E-01  0.20846572802E-01  0.10197877783E+01  0.10195019695E+01 0.  0.
     999903    2    3    3    0    0  0.91053679423E-01  0.49510423052E-01  0.78567674598E-01  0.13160034028E+00  0.20092673827E-01 0.  0.
         14    1    1    2    0    0 -0.47067342278E-02  0.11230045587E-01 -0.20846572802E-01  0.24142221699E-01  0.00000000000E+00 0. -1.
     999901    1    3    3    0    0 -0.86346945195E-01 -0.60740468639E-01 -0.57721101797E-01  0.88818743803E+00  0.88000000000E+00 0.  1.
        -11    1    4    4    0    0  0.70127870115E-01  0.32990163002E-01  0.48568016716E-01  0.91462464380E-01  0.51100000000E-03 0.  1.
         11    1    4    4    0    0  0.20925809308E-01  0.16520260050E-01  0.29999657882E-01  0.40137875895E-01  0.51100000000E-03 0. -1.
</event>
<event>
 8    1  0.1162192E+005  0.1043930E+01  0.7957747E-01            NaN
         13   -1    0    0    0    0  0.00000000000E+00  0.00000000000E+00  0.74505805969E-08  0.10566000000E+00  0.10566000000E+00 0.  1.
     999900   -1    0    0    0    0 -0.00000000000E+00 -0.00000000000E+00 -0.74505805969E-08  0.93827000000E+00  0.93827000000E+00 0. -1.
     999902    2    1    2    0    0 -0.18412122038E-01  0.12905800322E-01  0.75567409751E-02  0.10202093285E+01  0.10199335291E+01 0.  0.
     999903    2    3    3    0    0  0.12253480248E+00  0.22878639496E-01  0.25178089946E-01  0.12876330944E+00  0.20195139987E-01 0.  0.
         14    1    1    2    0    0  0.18412122038E-01 -0.12905800322E-01 -0.75567409751E-02  0.23720671451E-01  0.00000000000E+00 0. -1.
     999901    1    3    3    0    0 -0.14094692452E+00 -0.99728391741E-02 -0.17621348971E-01  0.89144601911E+00  0.88000000000E+00 0. -1.
        -11    1    4    4    0    0  0.22573779967E-01 -0.75559357998E-03  0.10809231859E-01  0.25044901238E-01  0.51100000000E-03 0.  1.
         11    1    4    4    0    0  0.99961022516E-01  0.23634233076E-01  0.14368858088E-01  0.10371840820E+00  0.51100000000E-03 0. -1.
</event>
<event>
 8    1  0.1162192E+005  0.1043930E+01  0.7957747E-01            NaN
         13   -1    0    0    0    0  0.00000000000E+00  0.00000000000E+00  0.74505805969E-08  0.10566000000E+00  0.10566000000E+00 0.  1.
     999900   -1    0    0    0    0 -0.00000000000E+00 -0.00000000000E+00 -0.74505805969E-08  0.93827000000E+00  0.93827000000E+00 0.  1.
     999902    2    1    2    0    0 -0.11906072606E-01 -0.55808761844E-02  0.19940199299E-01  0.10200446009E+01  0.10197649119E+01 0.  0.
     999903    2    3    3    0    0 -0.10539777958E+00 -0.54531457326E-01  0.56196606633E-01  0.13299816141E+00  0.21167913540E-01 0.  0.
         14    1    1    2    0    0  0.11906072606E-01  0.55808761844E-02 -0.19940199299E-01  0.23885399138E-01  0.00000000000E+00 0. -1.
     999901    1    3    3    0    0  0.93491706974E-01  0.48950581142E-01 -0.36256407334E-01  0.88704643945E+00  0.88000000000E+00 0.  1.
        -11    1    4    4    0    0 -0.49373397315E-01 -0.32839809948E-01  0.37134858934E-01  0.69967452068E-01  0.51100000000E-03 0.  1.
         11    1    4    4    0    0 -0.56024382265E-01 -0.21691647378E-01  0.19061747699E-01  0.63030709345E-01  0.51100000000E-03 0. -1.
</event>
<event>
 8    1  0.1162192E+005  0.1043930E+01  0.7957747E-01            NaN
         13   -1    0    0    0    0  0.00000000000E+00  0.00000000000E+00  0.74505805969E-08  0.10566000000E+00  0.10566000000E+00 0.  1.
     999900   -1    0    0    0    0 -0.00000000000E+00 -0.00000000000E+00 -0.74505805969E-08  0.93827000000E+00  0.93827000000E+00 0. -1.
     999902    2    1    2    0    0  0.59621365753E-02 -0.65972191461E-02  0.22248895191E-01  0.10199699560E+01  0.10196884953E+01 0.  0.
     999903    2    3    3    0    0 -0.75888063950E-01  0.55848675455E-01 -0.83769882844E-01  0.12764774601E+00  0.19961988619E-01 0.  0.
         14    1    1    2    0    0 -0.59621365753E-02  0.65972191461E-02 -0.22248895191E-01  0.23960044037E-01  0.00000000000E+00 0. -1.
     999901    1    3    3    0    0  0.81850200525E-01 -0.62445894601E-01  0.10601877804E+00  0.89232220995E+00  0.88000000000E+00 0. -1.
        -11    1    4    4    0    0 -0.48806130953E-01  0.28446391651E-01 -0.59825328913E-01  0.82283453484E-01  0.51100000000E-03 0. -1.
         11    1    4    4    0    0 -0.27081932997E-01  0.27402283804E-01 -0.23944553931E-01  0.45364292527E-01  0.51100000000E-03 0.  1.
</event>
<event>
 8    1  0.1162192E+005  0.1043930E+01  0.7957747E-01            NaN
         13   -1    0    0    0    0  0.00000000000E+00  0.00000000000E+00  0.74505805969E-08  0.10566000000E+00  0.10566000000E+00 0.  1.
     999900   -1    0    0    0    0 -0.00000000000E+00 -0.00000000000E+00 -0.74505805969E-08  0.93827000000E+00  0.93827000000E+00 0.  1.
     999902    2    1    2    0    0  0.27364275898E-02 -0.77727307908E-02 -0.10526137758E-01  0.10305620175E+01  0.10304753122E+01 0.  0.
     999903    2    3    3    0    0 -0.22788416305E-01 -0.23959874784E-01 -0.13587554496E+00  0.14116558443E+00  0.19291733764E-01 0.  0.
         14    1    1    2    0    0 -0.27364275898E-02  0.77727307908E-02  0.10526137758E-01  0.13367982495E-01  0.00000000000E+00 0.  1.
     999901    1    3    3    0    0  0.25524843895E-01  0.16187143994E-01  0.12534940720E+00  0.88939643308E+00  0.88000000000E+00 0. -1.
        -11    1    4    4    0    0 -0.11285713921E-03 -0.12548263152E-01 -0.54119403064E-01  0.55557560727E-01  0.51100000000E-03 0.  1.
         11    1    4    4    0    0 -0.22675559166E-01 -0.11411611633E-01 -0.81756141893E-01  0.85608023700E-01  0.51100000000E-03 0. -1.
</event>
<event>
 8    1  0.1162192E+005  0.1043930E+01  0.7957747E-01            NaN
         13   -1    0    0    0    0  0.00000000000E+00  0.00000000000E+00  0.74505805969E-08  0.10566000000E+00  0.10566000000E+00 0. -1.
     999900   -1    0    0    0    0 -0.00000000000E+00 -0.00000000000E+00 -0.74505805969E-08  0.93827000000E+00  0.93827000000E+00 0. -1.
     999902    2    1    2    0    0 -0.17858329265E-01  0.18229012116E-02 -0.15759741517E-01  0.10200425065E+01  0.10197627679E+01 0.  0.
     999903    2    3    3    0    0 -0.82806644100E-01 -0.75995302063E-01  0.63054011808E-01  0.13072503559E+00  0.21931718610E-01 0.  0.
         14    1    1    2    0    0  0.17858329265E-01 -0.18229012116E-02  0.15759741517E-01  0.23887493499E-01  0.00000000000E+00 0. -1.
     999901    1    3    3    0    0  0.64948314835E-01  0.77818203275E-01 -0.78813753325E-01  0.88931747091E+00  0.88000000000E+00 0. -1.
        -11    1    4    4    0    0 -0.96099328650E-02 -0.11467076321E-01  0.82884301013E-03  0.14993090100E-01  0.51100000000E-03 0.  1.
         11    1    4    4    0    0 -0.73196711235E-01 -0.64528225742E-01  0.62225168798E-01  0.11573194549E+00  0.51100000000E-03 0. -1.
</event>
<event>
 8    1  0.1162192E+005  0.1043930E+01  0.7957747E-01            NaN
         13   -1    0    0    0    0  0.00000000000E+00  0.00000000000E+00  0.74505805969E-08  0.10566000000E+00  0.10566000000E+00 0.  1.
     999900   -1    0    0    0    0 -0.00000000000E+00 -0.00000000000E+00 -0.74505805969E-08  0.93827000000E+00  0.93827000000E+00 0. -1.
     999902    2    1    2    0    0 -0.59953186445E-02  0.16575502585E-01 -0.16033900258E-01  0.10201019265E+01  0.10198235942E+01 0.  0.
     999903    2    3    3    0    0  0.85214980376E-01 -0.34121811913E-01  0.86905824701E-01  0.12797742655E+00  0.19992708950E-01 0.  0.
         14    1    1    2    0    0  0.59953186445E-02 -0.16575502585E-01  0.16033900258E-01  0.23828073549E-01  0.00000000000E+00 0.  1.
     999901    1    3    3    0    0 -0.91210299021E-01  0.50697314498E-01 -0.10293972496E+00  0.89212449990E+00  0.88000000000E+00 0. -1.
        -11    1    4    4    0    0  0.51327808390E-01 -0.25646985715E-01  0.65176589772E-01  0.86836402307E-01  0.51100000000E-03 0.  1.
         11    1    4    4    0    0  0.33887171986E-01 -0.84748261975E-02  0.21729234930E-01  0.41141024245E-01  0.51100000000E-03 0. -1.
</event>
<event>
 8    1  0.1162192E+005  0.1043930E+01  0.7957747E-01            NaN
         13   -1    0    0    0    0  0.00000000000E+00  0.00000000000E+00  0.74505805969E-08  0.10566000000E+00  0.10566000000E+00 0.  1.
     999900   -1    0    0    0    0 -0.00000000000E+00 -0.00000000000E+00 -0.74505805969E-08  0.93827000000E+00  0.93827000000E+00 0.  1.
     999902    2    1    2    0    0 -0.16834851096E-01 -0.67964481990E-02 -0.16041563147E-01  0.10197032448E+01  0.10194154069E+01 0.  0.
     999903    2    3    3    0    0 -0.33986328160E-01  0.59017872823E-01  0.10712866218E+00  0.12852615666E+00  0.20105791966E-01 0.  0.
         14    1    1    2    0    0  0.16834851096E-01  0.67964481990E-02  0.16041563147E-01  0.24226755204E-01  0.00000000000E+00 0. -1.
     999901    1    3    3    0    0  0.17151477064E-01 -0.65814321023E-01 -0.12317022532E+00  0.89117708814E+00  0.88000000000E+00 0.  1.
        -11    1    4    4    0    0 -0.71829351176E-02  0.32425126043E-01  0.48142215328E-01  0.58488608921E-01  0.51100000000E-03 0.  1.
         11    1    4    4    0    0 -0.26803393043E-01  0.26592746781E-01  0.58986446849E-01  0.70037547736E-01  0.51100000000E-03 0. -1.
</event>
<event>
 8    1  0.1162192E+005  0.1043930E+01  0.7957747E-01            NaN
         13   -1    0    0    0    0  0.00000000000E+00  0.00000000000E+00  0.74505805969E-08  0.10566000000E+00  0.10566000000E+00 0.  1.
     999900   -1    0    0    0    0 -0.00000000000E+00 -0.00000000000E+00 -0.74505805969E-08  0.93827000000E+00  0.93827000000E+00 0. -1.
     999902    2    1    2    0    0  0.41069124018E-03 -0.89326646533E-02  0.18599407708E-01  0.10232926762E+01  0.10230845528E+01 0.  0.
     999903    2    3    3    0    0  0.16095554631E-01 -0.12082913234E+00 -0.50353472270E-01  0.13339305601E+00  0.19987223910E-01 0.  0.
         14    1    1    2    0    0 -0.41069124018E-03  0.89326646533E-02 -0.18599407708E-01  0.20637323765E-01  0.00000000000E+00 0. -1.
     999901    1    3    3    0    0 -0.15684863391E-01  0.11189646769E+00  0.68952879978E-01  0.88989962023E+00  0.88000000000E+00 0.  1.
        -11    1    4    4    0    0  0.11225576445E-01 -0.49136691821E-01 -0.30204324254E-01  0.58762150865E-01  0.51100000000E-03 0. -1.
         11    1    4    4    0    0  0.48699781854E-02 -0.71692440524E-01 -0.20149148016E-01  0.74630905144E-01  0.51100000000E-03 0.  1.
</event>
<event>
 8    1  0.1162192E+005  0.1043930E+01  0.7957747E-01            NaN
         13   -1    0    0    0    0  0.00000000000E+00  0.00000000000E+00  0.74505805969E-08  0.10566000000E+00  0.10566000000E+00 0. -1.
     999900   -1    0    0    0    0 -0.00000000000E+00 -0.00000000000E+00 -0.74505805969E-08  0.93827000000E+00  0.93827000000E+00 0. -1.
     999902    2    1    2    0    0 -0.15080770034E-01  0.17865924806E-01 -0.40911914480E-02  0.10201948206E+01  0.10199186797E+01 0.  0.
     999903    2    3    3    0    0 -0.75615247641E-02 -0.42075913159E-01 -0.12142415967E+00  0.13035405483E+00  0.20513262360E-01 0.  0.
         14    1    1    2    0    0  0.15080770034E-01 -0.17865924806E-01  0.40911914480E-02  0.23735179407E-01  0.00000000000E+00 0.  1.
     999901    1    3    3    0    0 -0.75192452701E-02  0.59941837965E-01  0.11733296822E+00  0.88984076577E+00  0.88000000000E+00 0.  1.
        -11    1    4    4    0    0  0.36689366681E-02 -0.17635946631E-01 -0.70431367671E-01  0.72700250225E-01  0.51100000000E-03 0.  1.
         11    1    4    4    0    0 -0.11230461432E-01 -0.24439966528E-01 -0.50992792001E-01  0.57653804601E-01  0.51100000000E-03 0. -1.
</event>
<event>
 8    1  0.1162192E+005  0.1043930E+01  0.7957747E-01            NaN
         13   -1    0    0    0    0  0.00000000000E+00  0.00000000000E+00  0.74505805969E-08  0.10566000000E+00  0.10566000000E+00 0. -1.
     999900   -1    0    0    0    0 -0.00000000000E+00 -0.00000000000E+00 -0.74505805969E-08  0.93827000000E+00  0.93827000000E+00 0.  1.
     999902    2    1    2    0    0 -0.22695107867E-01  0.26080713520E-02  0.39859548396E-02  0.10207403947E+01  0.10204769452E+01 0.  0.
     999903    2    3    3    0    0  0.27656849194E-02 -0.86534707707E-01 -0.94574732709E-01  0.13039838394E+00  0.23737182125E-01 0.  0.
         14    1    1    2    0    0  0.22695107867E-01 -0.26080713520E-02 -0.39859548396E-02  0.23189605285E-01  0.00000000000E+00 0.  1.
     999901    1    3    3    0    0 -0.25460792786E-01  0.89142779059E-01  0.98560687549E-01  0.89034201078E+00  0.88000000000E+00 0. -1.
        -11    1    4    4    0    0  0.88406611889E-02 -0.35167426545E-01 -0.52033390255E-01  0.63424285589E-01  0.51100000000E-03 0. -1.
         11    1    4    4    0    0 -0.60749762695E-02 -0.51367281162E-01 -0.42541342454E-01  0.66974098347E-01  0.51100000000E-03 0.  1.
</event>
<event>
 8    1  0.1162192E+005  0.1043930E+01  0.7957747E-01            NaN
         13   -1    0    0    0    0  0.00000000000E+00  0.00000000000E+00  0.74505805969E-08  0.10566000000E+00  0.10566000000E+00 0. -1.
     999900   -1    0    0    0    0 -0.00000000000E+00 -0.00000000000E+00 -0.74505805969E-08  0.93827000000E+00  0.93827000000E+00 0. -1.
     999902    2    1    2    0    0  0.22133343344E-01  0.71895701293E-02  0.19042994955E-02  0.10205804569E+01  0.10203133185E+01 0.  0.
     999903    2    3    3    0    0  0.90434949835E-01  0.60698044666E-01  0.74029898090E-01  0.13337677777E+00  0.21123594845E-01 0.  0.
         14    1    1    2    0    0 -0.22133343344E-01 -0.71895701293E-02 -0.19042994955E-02  0.23349543096E-01  0.00000000000E+00 0. -1.
     999901    1    3    3    0    0 -0.68301606492E-01 -0.53508474537E-01 -0.72125598595E-01  0.88720367913E+00  0.88000000000E+00 0. -1.
        -11    1    4    4    0    0  0.44883606508E-01  0.17540877000E-01  0.31739987175E-01  0.57705358555E-01  0.51100000000E-03 0.  1.
         11    1    4    4    0    0  0.45551343327E-01  0.43157167665E-01  0.42289910915E-01  0.75671419215E-01  0.51100000000E-03 0. -1.
</event>
<event>
 8    1  0.1162192E+005  0.1043930E+01  0.7957747E-01            NaN
         13   -1    0    0    0    0  0.00000000000E+00  0.00000000000E+00  0.74505805969E-08  0.10566000000E+00  0.10566000000E+00 0. -1.
     999900   -1    0    0    0    0 -0.00000000000E+00 -0.00000000000E+00 -0.74505805969E-08  0.93827000000E+00  0.93827000000E+00 0.  1.
     999902    2    1    2    0    0  0.90073400724E-02 -0.82071278065E-02 -0.19744507391E-01  0.10207279593E+01  0.10204642238E+01 0.  0.
     999903    2    3    3    0    0  0.29569614636E-01  0.69999480372E-01 -0.10673206473E+00  0.13274940332E+00  0.21363077432E-01 0.  0.
         14    1    1    2    0    0 -0.90073400724E-02  0.82071278065E-02  0.19744507391E-01  0.23202040732E-01  0.00000000000E+00 0. -1.
     999901    1    3    3    0    0 -0.20562274564E-01 -0.78206608179E-01  0.86987557338E-01  0.88797855595E+00  0.88000000000E+00 0. -1.
        -11    1    4    4    0    0  0.22465236170E-01  0.61210519849E-01 -0.76776580219E-01  0.10072893808E+00  0.51100000000E-03 0. -1.
         11    1    4    4    0    0  0.71043784659E-02  0.87889605233E-02 -0.29955484510E-01  0.32020465232E-01  0.51100000000E-03 0.  1.
</event>
<event>
 8    1  0.1162192E+005  0.1043930E+01  0.7957747E-01            NaN
         13   -1    0    0    0    0  0.00000000000E+00  0.00000000000E+00  0.74505805969E-08  0.10566000000E+00  0.10566000000E+00 0. -1.
     999900   -1    0    0    0    0 -0.00000000000E+00 -0.00000000000E+00 -0.74505805969E-08  0.93827000000E+00  0.93827000000E+00 0.  1.
     999902    2    1    2    0    0 -0.18229744516E-01  0.53503297767E-02  0.13419435880E-01  0.10206699296E+01  0.10204048581E+01 0.  0.
     999903    2    3    3    0    0  0.62944056725E-01  0.11226538677E+00 -0.34285551941E-02  0.13033074134E+00  0.20220677641E-01 0.  0.
         14    1    1    2    0    0  0.18229744516E-01 -0.53503297767E-02 -0.13419435880E-01  0.23260070361E-01  0.00000000000E+00 0.  1.
     999901    1    3    3    0    0 -0.81173801241E-01 -0.10691505699E+00  0.16847991074E-01  0.89033918830E+00  0.88000000000E+00 0. -1.
        -11    1    4    4    0    0  0.20136605870E-01  0.48394053136E-01  0.64229463469E-02  0.52810819305E-01  0.51100000000E-03 0. -1.
         11    1    4    4    0    0  0.42807450855E-01  0.63871333631E-01 -0.98515015410E-02  0.77519922034E-01  0.51100000000E-03 0.  1.
</event>
<event>
 8    1  0.1162192E+005  0.1043930E+01  0.7957747E-01            NaN
         13   -1    0    0    0    0  0.00000000000E+00  0.00000000000E+00  0.74505805969E-08  0.10566000000E+00  0.10566000000E+00 0. -1.
     999900   -1    0    0    0    0 -0.00000000000E+00 -0.00000000000E+00 -0.74505805969E-08  0.93827000000E+00  0.93827000000E+00 0. -1.
     999902    2    1    2    0    0  0.15345427401E-01 -0.16456208852E-01  0.71969499213E-02  0.10203061764E+01  0.10200326508E+01 0.  0.
     999903    2    3    3    0    0 -0.89562012288E-01 -0.23636577979E-01  0.89585597576E-01  0.13022470945E+00  0.18784402949E-01 0.  0.
         14    1    1    2    0    0 -0.15345427401E-01  0.16456208852E-01 -0.71969499213E-02  0.23623823570E-01  0.00000000000E+00 0. -1.
     999901    1    3    3    0    0  0.10490743969E+00  0.71803691268E-02 -0.82388647654E-01  0.89008146698E+00  0.88000000000E+00 0. -1.
        -11    1    4    4    0    0 -0.58620115856E-01 -0.23530422861E-01  0.65619259758E-01  0.91083188104E-01  0.51100000000E-03 0. -1.
         11    1    4    4    0    0 -0.30941896432E-01 -0.10615511791E-03  0.23966337818E-01  0.39141521344E-01  0.51100000000E-03 0.  1.
</event>
<event>
 8    1  0.1162192E+005  0.1043930E+01  0.7957747E-01            NaN
         13   -1    0    0    0    0  0.00000000000E+00  0.00000000000E+00  0.74505805969E-08  0.10566000000E+00  0.10566000000E+00 0.  1.
     999900   -1    0    0    0    0 -0.00000000000E+00 -0.00000000000E+00 -0.74505805969E-08  0.93827000000E+00  0.93827000000E+00 0.  1.
     999902    2    1    2    0    0  0.16353269594E-01  0.14082794105E-01  0.13207030057E-01  0.10186282183E+01  0.10183139334E+01 0.  0.
     999903    2    3    3    0    0 -0.21508448419E-01  0.12468639315E+00  0.25739755082E-01  0.13080856596E+00  0.20953184628E-01 0.  0.
         14    1    1    2    0    0 -0.16353269594E-01 -0.14082794105E-01 -0.13207030057E-01  0.25301781739E-01  0.00000000000E+00 0. -1.
     999901    1    3    3    0    0  0.37861718014E-01 -0.11060359905E+00 -0.12532725025E-01  0.88781965230E+00  0.88000000000E+00 0. -1.
        -11    1    4    4    0    0 -0.19615789763E-01  0.55042905080E-01  0.14831008129E-01  0.60288643464E-01  0.51100000000E-03 0. -1.
         11    1    4    4    0    0 -0.18926586569E-02  0.69643488073E-01  0.10908746953E-01  0.70519922497E-01  0.51100000000E-03 0.  1.
</event>
<event>
 8    1  0.1162192E+005  0.1043930E+01  0.7957747E-01            NaN
         13   -1    0    0    0    0  0.00000000000E+00  0.00000000000E+00  0.74505805969E-08  0.10566000000E+00  0.10566000000E+00 0.  1.
     999900   -1    0    0    0    0 -0.00000000000E+00 -0.00000000000E+00 -0.74505805969E-08  0.93827000000E+00  0.93827000000E+00 0. -1.
     999902    2    1    2    0    0 -0.53314189209E-02  0.20956842435E-01 -0.75551820212E-02  0.10210237989E+01  0.10207668215E+01 0.  0.
     999903    2    3    3    0    0 -0.21020437639E-01  0.77480356851E-01  0.10315563577E+00  0.13214926437E+00  0.19423655351E-01 0.  0.
         14    1    1    2    0    0  0.53314189209E-02 -0.20956842435E-01  0.75551820212E-02  0.22906201080E-01  0.00000000000E+00 0.  1.
     999901    1    3    3    0    0  0.15689018718E-01 -0.56523514416E-01 -0.11071081779E+00  0.88887453455E+00  0.88000000000E+00 0. -1.
        -11    1    4    4    0    0 -0.16439369125E-02  0.33899426764E-01  0.33198023796E-01  0.47478874970E-01  0.51100000000E-03 0. -1.
         11    1    4    4    0    0 -0.19376500727E-01  0.43580930087E-01  0.69957611973E-01  0.84670389403E-01  0.51100000000E-03 0.  1.
</event>
<event>
 8    1  0.1162192E+005  0.1043930E+01  0.7957747E-01            NaN
         13   -1    0    0    0    0  0.00000000000E+00  0.00000000000E+00  0.74505805969E-08  0.10566000000E+00  0.10566000000E+00 0. -1.
     999900   -1    0    0    0    0 -0.00000000000E+00 -0.00000000000E+00 -0.74505805969E-08  0.93827000000E+00  0.93827000000E+00 0.  1.
     999902    2    1    2    0    0  0.17573156775E-01 -0.12704696808E-01  0.28432925363E-02  0.10220597126E+01  0.10218256929E+01 0.  0.
     999903    2    3    3    0    0 -0.23640417372E-02  0.11119716066E+00 -0.65218911347E-01  0.13055445416E+00  0.20507605180E-01 0.  0.
         14    1    1    2    0    0 -0.17573156775E-01  0.12704696808E-01 -0.28432925363E-02  0.21870287435E-01  0.00000000000E+00 0. -1.
     999901    1    3    3    0    0  0.19937198512E-01 -0.12390185747E+00  0.68062203884E-01  0.89150525841E+00  0.88000000000E+00 0. -1.
        -11    1    4    4    0    0  0.56970320731E-03  0.88953943752E-01 -0.60614544877E-01  0.10764531036E+00  0.51100000000E-03 0.  1.
         11    1    4    4    0    0 -0.29337449445E-02  0.22243216913E-01 -0.46043664697E-02  0.22909143799E-01  0.51100000000E-03 0. -1.
</event>
<event>
 7    1  0.1324827E+005  0.1043930E+01  0.7957747E-01            NaN
         13   -1    0    0    0    0  0.00000000000E+00  0.00000000000E+00  0.74505805969E-08  0.10566000000E+00  0.10566000000E+00 0. -1.
     999900   -1    0    0    0    0 -0.00000000000E+00 -0.00000000000E+00 -0.74505805969E-08  0.93827000000E+00  0.93827000000E+00 0. -1.
     999902    2    1    2    0    0 -0.16071085901E-02 -0.20707731532E-01  0.10738566954E-01  0.10205481745E+01  0.10202802883E+01 0.  0.
         14    1    1    2    0    0  0.16071085901E-02  0.20707731532E-01 -0.10738566954E-01  0.23381825494E-01  0.00000000000E+00 0.  1.
     999901    1    3    3    0    0  0.55987839082E-01 -0.10283320202E+00 -0.63891688116E-01  0.89005137682E+00  0.88000000000E+00 0. -1.
        -11    1    3    3    0    0 -0.44080453160E-01  0.49486381323E-01  0.67222096811E-01  0.94398409457E-01  0.51100000000E-03 0. -1.
         11    1    3    3    0    0 -0.13514494512E-01  0.32639089162E-01  0.74081582585E-02  0.36098388233E-01  0.51100000000E-03 0.  1.
</event>
<event>
 8    1  0.1162192E+005  0.1043930E+01  0.7957747E-01            NaN
         13   -1    0    0    0    0  0.00000000000E+00  0.00000000000E+00  0.74505805969E-08  0.10566000000E+00  0.10566000000E+00 0.  1.
     999900   -1    0    0    0    0 -0.00000000000E+00 -0.00000000000E+00 -0.74505805969E-08  0.93827000000E+00  0.93827000000E+00 0.  1.
     999902    2    1    2    0    0 -0.83994951908E-02  0.17491425913E-01 -0.12974822746E-01  0.10205880308E+01  0.10203210677E+01 0.  0.
     999903    2    3    3    0    0 -0.15335656963E-01  0.12704088394E+00  0.28995023368E-01  0.13277574093E+00  0.20349875485E-01 0.  0.
         14    1    1    2    0    0  0.83994951908E-02 -0.17491425913E-01  0.12974822746E-01  0.23341969180E-01  0.00000000000E+00 0.  1.
     999901    1    3    3    0    0  0.69361617724E-02 -0.10954945803E+00 -0.41969846114E-01  0.88781228989E+00  0.88000000000E+00 0. -1.
        -11    1    4    4    0    0  0.23760512299E-02  0.19539907649E-01  0.10334670670E-01  0.22237809002E-01  0.51100000000E-03 0.  1.
         11    1    4    4    0    0 -0.17711708193E-01  0.10750097629E+00  0.18660352698E-01  0.11053793193E+00  0.51100000000E-03 0. -1.
</event>
<event>
 8    1  0.1162192E+005  0.1043930E+01  0.7957747E-01            NaN
         13   -1    0    0    0    0  0.00000000000E+00  0.00000000000E+00  0.74505805969E-08  0.10566000000E+00  0.10566000000E+00 0. -1.
     999900   -1    0    0    0    0 -0.00000000000E+00 -0.00000000000E+00 -0.74505805969E-08  0.93827000000E+00  0.93827000000E+00 0. -1.
     999902    2    1    2    0    0 -0.13359981799E-01 -0.15439507059E-01  0.13308108272E-01  0.10195584338E+01  0.10192671028E+01 0.  0.
     999903    2    3    3    0    0  0.42489031863E-02  0.12527272612E+00 -0.14082568685E-01  0.12778477724E+00  0.20477340296E-01 0.  0.
         14    1    1    2    0    0  0.13359981799E-01  0.15439507059E-01 -0.13308108272E-01  0.24371566172E-01  0.00000000000E+00 0.  1.
     999901    1    3    3    0    0 -0.17608884985E-01 -0.14071223318E+00  0.27390676957E-01  0.89177365659E+00  0.88000000000E+00 0. -1.
        -11    1    4    4    0    0 -0.66499050335E-02  0.52703929167E-01 -0.34386725291E-03  0.53125368256E-01  0.51100000000E-03 0.  1.
         11    1    4    4    0    0  0.10898808220E-01  0.72568796955E-01 -0.13738701432E-01  0.74659408986E-01  0.51100000000E-03 0. -1.
</event>
<event>
 8    1  0.1162192E+005  0.1043930E+01  0.7957747E-01            NaN
         13   -1    0    0    0    0  0.00000000000E+00  0.00000000000E+00  0.74505805969E-08  0.10566000000E+00  0.10566000000E+00 0. -1.
     999900   -1    0    0    0    0 -0.00000000000E+00 -0.00000000000E+00 -0.74505805969E-08  0.93827000000E+00  0.93827000000E+00 0. -1.
     999902    2    1    2    0    0  0.15855573804E-01 -0.83256545504E-02 -0.15450526249E-01  0.10202776321E+01  0.10200034373E+01 0.  0.
     999903    2    3    3    0    0 -0.96681612767E-02  0.66540920285E-01  0.10725124645E+00  0.12825062015E+00  0.20596705794E-01 0.  0.
         14    1    1    2    0    0 -0.15855573804E-01  0.83256545504E-02  0.15450526249E-01  0.23652367867E-01  0.00000000000E+00 0. -1.
     999901    1    3    3    0    0  0.25523735080E-01 -0.74866574836E-01 -0.12270177270E+00  0.89202701198E+00  0.88000000000E+00 0. -1.
        -11    1    4    4    0    0 -0.26826457153E-02  0.29453886345E-01  0.66073439149E-01  0.72392599696E-01  0.51100000000E-03 0. -1.
         11    1    4    4    0    0 -0.69855155614E-02  0.37087033940E-01  0.41177807301E-01  0.55858020456E-01  0.51100000000E-03 0.  1.
</event>
<event>
 8    1  0.1162192E+005  0.1043930E+01  0.7957747E-01            NaN
         13   -1    0    0    0    0  0.00000000000E+00  0.00000000000E+00  0.74505805969E-08  0.10566000000E+00  0.10566000000E+00 0.  1.
     999900   -1    0    0    0    0 -0.00000000000E+00 -0.00000000000E+00 -0.74505805969E-08  0.93827000000E+00  0.93827000000E+00 0.  1.
     999902    2    1    2    0    0  0.15875734790E-01  0.15576826553E-01 -0.80326259312E-02  0.10202825993E+01  0.10200085210E+01 0.  0.
     999903    2    3    3    0    0 -0.10713326404E+00 -0.60938567775E-01 -0.28844851454E-01  0.12819573800E+00  0.20275021117E-01 0.  0.
         14    1    1    2    0    0 -0.15875734790E-01 -0.15576826553E-01  0.80326259312E-02  0.23647400701E-01  0.00000000000E+00 0.  1.
     999901    1    3    3    0    0  0.12300899883E+00  0.76515394328E-01  0.20812225523E-01  0.89208686129E+00  0.88000000000E+00 0. -1.
        -11    1    4    4    0    0 -0.54128432404E-01 -0.39342611169E-01 -0.85272591999E-02  0.67458902441E-01  0.51100000000E-03 0.  1.
         11    1    4    4    0    0 -0.53004831635E-01 -0.21595956606E-01 -0.20317592254E-01  0.60736835564E-01  0.51100000000E-03 0. -1.
</event>
<event>
 8    1  0.1162192E+005  0.1043930E+01  0.7957747E-01            NaN
         13   -1    0    0    0    0  0.00000000000E+00  0.00000000000E+00  0.74505805969E-08  0.10566000000E+00  0.10566000000E+00 0. -1.
     999900   -1    0    0    0    0 -0.00000000000E+00 -0.00000000000E+00 -0.74505805969E-08  0.93827000000E+00  0.93827000000E+00 0.  1.
     999902    2    1    2    0    0  0.54973929218E-02  0.20992580521E-01 -0.71809093334E-02  0.10210722830E+01  0.10208164046E+01 0.  0.
     999903    2    3    3    0    0  0.93699346441E-01 -0.75749351891E-01  0.44458993491E-01  0.12989033436E+00  0.19425885350E-01 0.  0.
         14    1    1    2    0    0 -0.54973929218E-02 -0.20992580521E-01  0.71809093334E-02  0.22857716962E-01  0.00000000000E+00 0.  1.
     999901    1    3    3    0    0 -0.88201953519E-01  0.96741932412E-01 -0.51639902825E-01  0.89118194868E+00  0.88000000000E+00 0. -1.
        -11    1    4    4    0    0  0.13378427070E-01 -0.17969972211E-01  0.29947598238E-02  0.22608226811E-01  0.51100000000E-03 0. -1.
         11    1    4    4    0    0  0.80320919371E-01 -0.57779379680E-01  0.41464233667E-01  0.10728210755E+00  0.51100000000E-03 0.  1.
</event>
<event>
 8    1  0.1162192E+005  0.1043930E+01  0.7957747E-01            NaN
         13   -1    0    0    0    0  0.00000000000E+00  0.00000000000E+00  0.74505805969E-08  0.10566000000E+00  0.10566000000E+00 0. -1.
     999900   -1    0    0    0    0 -0.00000000000E+00 -0.00000000000E+00 -0.74505805969E-08  0.93827000000E+00  0.93827000000E+00 0.  1.
     999902    2    1    2    0    0  0.20855920002E-01  0.34382060407E-02 -0.40987165229E-02  0.10223988566E+01  0.10221721146E+01 0.  0.
     999903    2    3    3    0    0 -0.42522930723E-01  0.12168647870E+00 -0.19826017531E-01  0.13209167324E+00  0.20960449249E-01 0.  0.
         14    1    1    2    0    0 -0.20855920002E-01 -0.34382060407E-02  0.40987165229E-02  0.21531143422E-01  0.00000000000E+00 0. -1.
     999901    1    3    3    0    0  0.63378850726E-01 -0.11824827266E+00  0.15727301008E-01  0.89030718334E+00  0.88000000000E+00 0.  1.
        -11    1    4    4    0    0 -0.40193365531E-01  0.88308976200E-01 -0.17054863758E-01  0.98514523848E-01  0.51100000000E-03 0.  1.
         11    1    4    4    0    0 -0.23295651923E-02  0.33377502499E-01 -0.27711537726E-02  0.33577149392E-01  0.51100000000E-03 0. -1.
</event>
<event>
 8    1  0.1162192E+005  0.1043930E+01  0.7957747E-01            NaN
         13   -1    0    0    0    0  0.00000000000E+00  0.00000000000E+00  0.74505805969E-08  0.10566000000E+00  0.10566000000E+00 0.  1.
     999900   -1    0    0    0    0 -0.00000000000E+00 -0.00000000000E+00 -0.74505805969E-08  0.93827000000E+00  0.93827000000E+00 0.  1.
     999902    2    1    2    0    0  0.23764980330E-01 -0.49580664419E-03 -0.19077777996E-02  0.10200834126E+01  0.10198046425E+01 0.  0.
     999903    2    3    3    0    0  0.59961804322E-02 -0.10947250051E+00 -0.68108804662E-01  0.13071609478E+00  0.20681044812E-01 0.  0.
         14    1    1    2    0    0 -0.23764980330E-01  0.49580664419E-03  0.19077777996E-02  0.23846587396E-01  0.00000000000E+00 0.  1.
     999901    1    3    3    0    0  0.17768799898E-01  0.10897669386E+00  0.66201026863E-01  0.88936731782E+00  0.88000000000E+00 0.  1.
        -11    1    4    4    0    0 -0.32918558868E-02 -0.18081161491E-01 -0.19438622006E-01  0.26756043476E-01  0.51100000000E-03 0. -1.
         11    1    4    4    0    0  0.92880363189E-02 -0.91391339018E-01 -0.48670182657E-01  0.10396005130E+00  0.51100000000E-03 0.  1.
</event>
<event>
 8    1  0.1162192E+005  0.1043930E+01  0.7957747E-01            NaN
         13   -1    0    0    0    0  0.00000000000E+00  0.00000000000E+00  0.74505805969E-08  0.10566000000E+00  0.10566000000E+00 0. -1.
     999900   -1    0    0    0    0 -0.00000000000E+00 -0.00000000000E+00 -0.74505805969E-08  0.93827000000E+00  0.93827000000E+00 0.  1.
     999902    2    1    2    0    0 -0.11378443439E-01 -0.70784707468E-02 -0.20293695351E-01  0.10196111227E+01  0.10193210651E+01 0.  0.
     999903    2    3    3    0    0  0.56735428659E-01  0.93051463203E-01  0.62817803503E-01  0.12743791949E+00  0.20417228447E-01 0.  0.
         14    1    1    2    0    0  0.11378443439E-01  0.70784707468E-02  0.20293695351E-01  0.24318877323E-01  0.00000000000E+00 0. -1.
     999901    1    3    3    0    0 -0.68113872098E-01 -0.10012993395E+00 -0.83111498854E-01  0.89217320319E+00  0.88000000000E+00 0. -1.
        -11    1    4    4    0    0  0.14293378351E-01  0.28195858464E-01  0.28889525252E-01  0.42827244710E-01  0.51100000000E-03 0.  1.
         11    1    4    4    0    0  0.42442050309E-01  0.64855604740E-01  0.33928278251E-01  0.84610674780E-01  0.51100000000E-03 0. -1.
</event>
<event>
 8    1  0.1162192E+005  0.1043930E+01  0.7957747E-01            NaN
         13   -1    0    0    0    0  0.00000000000E+00  0.00000000000E+00  0.74505805969E-08  0.10566000000E+00  0.10566000000E+00 0.  1.
     999900   -1    0    0    0    0 -0.00000000000E+00 -0.00000000000E+00 -0.74505805969E-08  0.93827000000E+00  0.93827000000E+00 0. -1.
     999902    2    1    2    0    0 -0.73556980712E-02 -0.24960741094E-02 -0.21362211775E-01  0.10211993869E+01  0.10209463781E+01 0.  0.
     999903    2    3    3    0    0  0.19132868207E-01 -0.12433209142E+00  0.29473042204E-01  0.13095791274E+00  0.21372390874E-01 0.  0.
         14    1    1    2    0    0  0.73556980712E-02  0.24960741094E-02  0.21362211775E-01  0.22730613102E-01  0.00000000000E+00 0.  1.
     999901    1    3    3    0    0 -0.26488566278E-01  0.12183601731E+00 -0.50835253979E-01  0.89024147415E+00  0.88000000000E+00 0. -1.
        -11    1    4    4    0    0  0.89448108037E-02 -0.10765058512E+00  0.24071783389E-01  0.11067235424E+00  0.51100000000E-03 0.  1.
         11    1    4    4    0    0  0.10188057403E-01 -0.16681506301E-01  0.54012588156E-02  0.20285558507E-01  0.51100000000E-03 0. -1.
</event>
<event>
 8    1  0.1162192E+005  0.1043930E+01  0.7957747E-01            NaN
         13   -1    0    0    0    0  0.00000000000E+00  0.00000000000E+00  0.74505805969E-08  0.10566000000E+00  0.10566000000E+00 0.  1.
     999900   -1    0    0    0    0 -0.00000000000E+00 -0.00000000000E+00 -0.74505805969E-08  0.93827000000E+00  0.93827000000E+00 0. -1.
     999902    2    1    2    0    0 -0.20597975114E-01 -0.34316713753E-02  0.13059252335E-01  0.10193008096E+01  0.10190032107E+01 0.  0.
     999903    2    3    3    0    0  0.43880684275E-01  0.74547270697E-02  0.12091201703E+00  0.13030799185E+00  0.19477409244E-01 0.  0.
         14    1    1    2    0    0  0.20597975114E-01  0.34316713753E-02 -0.13059252335E-01  0.24629190380E-01  0.00000000000E+00 0. -1.
     999901    1    3    3    0    0 -0.64478659390E-01 -0.10886398445E-01 -0.10785276469E+00  0.88899281777E+00  0.88000000000E+00 0. -1.
        -11    1    4    4    0    0  0.22917293036E-01  0.39608843101E-03  0.36993909381E-01  0.43522059447E-01  0.51100000000E-03 0.  1.
         11    1    4    4    0    0  0.20963391239E-01  0.70586386387E-02  0.83918107647E-01  0.86785932407E-01  0.51100000000E-03 0. -1.
</event>
<event>
 8    1  0.1162192E+005  0.1043930E+01  0.7957747E-01            NaN
         13   -1    0    0    0    0  0.00000000000E+00  0.00000000000E+00  0.74505805969E-08  0.10566000000E+00  0.10566000000E+00 0. -1.
     999900   -1    0    0    0    0 -0.00000000000E+00 -0.00000000000E+00 -0.74505805969E-08  0.93827000000E+00  0.93827000000E+00 0.  1.
     999902    2    1    2    0    0 -0.15968332202E-01 -0.15491227502E-01 -0.67724370252E-02  0.10206742122E+01  0.10204092394E+01 0.  0.
     999903    2    3    3    0    0  0.75967299526E-01 -0.88683905774E-01 -0.56830411306E-01  0.13145256980E+00  0.20352314765E-01 0.  0.
         14    1    1    2    0    0  0.15968332202E-01  0.15491227502E-01  0.67724370252E-02  0.23255787798E-01  0.00000000000E+00 0. -1.
     999901    1    3    3    0    0 -0.91935631728E-01  0.73192678272E-01  0.50057974280E-01  0.88922164241E+00  0.88000000000E+00 0. -1.
        -11    1    4    4    0    0  0.70075416727E-01 -0.81271746813E-01 -0.45190829139E-01  0.11643939633E+00  0.51100000000E-03 0.  1.
         11    1    4    4    0    0  0.58918827986E-02 -0.74121589613E-02 -0.11639582166E-01  0.15013173462E-01  0.51100000000E-03 0. -1.
</event>
<event>
 7    1  0.1162192E+005  0.1043930E+01  0.7957747E-01            NaN
         13   -1    0    0    0    0  0.00000000000E+00  0.00000000000E+00  0.74505805969E-08  0.10566000000E+00  0.10566000000E+00 0.  1.
     999900   -1    0    0    0    0 -0.00000000000E+00 -0.00000000000E+00 -0.74505805969E-08  0.93827000000E+00  0.93827000000E+00 0. -1.
     999902    2    1    2    0    0  0.37010151815E-02  0.19119352323E-01  0.45384399177E-02  0.10239338858E+01  0.10237386180E+01 0.  0.
         14    1    1    2    0    0 -0.37010151815E-02 -0.19119352323E-01 -0.45384399177E-02  0.19996114210E-01  0.00000000000E+00 0. -1.
     999901    1    3    3    0    0  0.38228856048E-01  0.10742222073E+00  0.82091745551E-01  0.89114534933E+00  0.88000000000E+00 0.  1.
        -11    1    3    3    0    0 -0.18294130336E-02 -0.50509648438E-01 -0.15004783543E-01  0.52725477594E-01  0.51100000000E-03 0. -1.
         11    1    3    3    0    0 -0.32698427833E-01 -0.37793219972E-01 -0.62548522090E-01  0.80063058867E-01  0.51100000000E-03 0.  1.
</event>
<event>
 8    1  0.1162192E+005  0.1043930E+01  0.7957747E-01            NaN
         13   -1    0    0    0    0  0.00000000000E+00  0.00000000000E+00  0.74505805969E-08  0.10566000000E+00  0.10566000000E+00 0. -1.
     999900   -1    0    0    0    0 -0.00000000000E+00 -0.00000000000E+00 -0.74505805969E-08  0.93827000000E+00  0.93827000000E+00 0.  1.
     999902    2    1    2    0    0 -0.36748116549E-02 -0.67132657515E-02  0.22004451608E-01  0.10206326167E+01  0.10203666842E+01 0.  0.
     999903    2    3    3    0    0  0.68058789984E-01 -0.70827156034E-01  0.87016633415E-01  0.13300494459E+00  0.21678004227E-01 0.  0.
         14    1    1    2    0    0  0.36748116549E-02  0.67132657515E-02 -0.22004451608E-01  0.23297383294E-01  0.00000000000E+00 0.  1.
     999901    1    3    3    0    0 -0.71733601639E-01  0.64113890283E-01 -0.65012181807E-01  0.88762767212E+00  0.88000000000E+00 0. -1.
        -11    1    4    4    0    0  0.42170763998E-01 -0.49283946429E-01  0.69395494242E-01  0.94990928272E-01  0.51100000000E-03 0.  1.
         11    1    4    4    0    0  0.25888025986E-01 -0.21543209605E-01  0.17621139173E-01  0.38014016314E-01  0.51100000000E-03 0. -1.
</event>
<event>
 7    1  0.1162192E+005  0.1043930E+01  0.7957747E-01            NaN
         13   -1    0    0    0    0  0.00000000000E+00  0.00000000000E+00  0.74505805969E-08  0.10566000000E+00  0.10566000000E+00 0. -1.
     999900   -1    0    0    0    0 -0.00000000000E+00 -0.00000000000E+00 -0.74505805969E-08  0.93827000000E+00  0.93827000000E+00 0.  1.
     999902    2    1    2    0    0 -0.19153239165E-01  0.36344120581E-02  0.77884545328E-02  0.10229367738E+01  0.10227213343E+01 0.  0.
         14    1    1    2    0    0  0.19153239165E-01 -0.36344120581E-02 -0.77884545328E-02  0.20993226182E-01  0.00000000000E+00 0.  1.
     999901    1    3    3    0    0 -0.83752956039E-01  0.99787228899E-02 -0.10114582003E+00  0.88980032000E+00  0.88000000000E+00 0.  1.
        -11    1    3    3    0    0  0.42125933794E-01 -0.16671831917E-01  0.93711293807E-01  0.10408944224E+00  0.51100000000E-03 0. -1.
         11    1    3    3    0    0  0.22473783081E-01  0.10327521085E-01  0.15222980760E-01  0.29047011584E-01  0.51100000000E-03 0.  1.
</event>
<event>
 8    1  0.1162192E+005  0.1043930E+01  0.7957747E-01            NaN
         13   -1    0    0    0    0  0.00000000000E+00  0.00000000000E+00  0.74505805969E-08  0.10566000000E+00  0.10566000000E+00 0. -1.
     999900   -1    0    0    0    0 -0.00000000000E+00 -0.00000000000E+00 -0.74505805969E-08  0.93827000000E+00  0.93827000000E+00 0. -1.
     999902    2    1    2    0    0 -0.42222396468E-02  0.22168137271E-01  0.65711152451E-02  0.10204261030E+01  0.10201553796E+01 0.  0.
     999903    2    3    3    0    0  0.45741594297E-01  0.12334155581E+00  0.88184054633E-02  0.13321840714E+00  0.19077392037E-01 0.  0.
         14    1    1    2    0    0  0.42222396468E-02 -0.22168137271E-01 -0.65711152451E-02  0.23503896980E-01  0.00000000000E+00 0. -1.
     999901    1    3    3    0    0 -0.49963833943E-01 -0.10117341854E+00 -0.22472902181E-02  0.88720769588E+00  0.88000000000E+00 0. -1.
        -11    1    4    4    0    0  0.37373107555E-01  0.75012158994E-01  0.75975078831E-02  0.84151984007E-01  0.51100000000E-03 0.  1.
         11    1    4    4    0    0  0.83684867414E-02  0.48329396815E-01  0.12208975801E-02  0.49066423130E-01  0.51100000000E-03 0. -1.
</event>
<event>
 8    1  0.1162192E+005  0.1043930E+01  0.7957747E-01            NaN
         13   -1    0    0    0    0  0.00000000000E+00  0.00000000000E+00  0.74505805969E-08  0.10566000000E+00  0.10566000000E+00 0.  1.
     999900   -1    0    0    0    0 -0.00000000000E+00 -0.00000000000E+00 -0.74505805969E-08  0.93827000000E+00  0.93827000000E+00 0.  1.
     999902    2    1    2    0    0 -0.43575695003E-02 -0.22739592819E-01  0.62970118326E-02  0.10199356288E+01  0.10196533514E+01 0.  0.
     999903    2    3    3    0    0  0.11347054942E-01 -0.89467269730E-01 -0.93978853873E-01  0.13159196364E+00  0.18742249376E-01 0.  0.
         14    1    1    2    0    0  0.43575695003E-02  0.22739592819E-01 -0.62970118326E-02  0.23994371247E-01  0.00000000000E+00 0. -1.
     999901    1    3    3    0    0 -0.15704624443E-01  0.66727676911E-01  0.10027586571E+00  0.88834366511E+00  0.88000000000E+00 0. -1.
        -11    1    4    4    0    0  0.31179382053E-02 -0.45686109884E-01 -0.34794949300E-01  0.57514274687E-01  0.51100000000E-03 0.  1.
         11    1    4    4    0    0  0.82291167370E-02 -0.43781159846E-01 -0.59183904573E-01  0.74077688958E-01  0.51100000000E-03 0. -1.
</event>
<event>
 8    1  0.1162192E+005  0.1043930E+01  0.7957747E-01            NaN
         13   -1    0    0    0    0  0.00000000000E+00  0.00000000000E+00  0.74505805969E-08  0.10566000000E+00  0.10566000000E+00 0. -1.
     999900   -1    0    0    0    0 -0.00000000000E+00 -0.00000000000E+00 -0.74505805969E-08  0.93827000000E+00  0.93827000000E+00 0.  1.
     999902    2    1    2    0    0 -0.16149647029E-01  0.14827795879E-01 -0.59409293348E-02  0.10212150430E+01  0.10209623866E+01 0.  0.
     999903    2    3    3    0    0  0.23006128361E-01  0.50920194218E-01 -0.11836914327E+00  0.13246539364E+00  0.20339083351E-01 0.  0.
         14    1    1    2    0    0  0.16149647029E-01 -0.14827795879E-01  0.59409293348E-02  0.22714956992E-01  0.00000000000E+00 0. -1.
     999901    1    3    3    0    0 -0.39155775390E-01 -0.36092398340E-01  0.11242821394E+00  0.88874964937E+00  0.88000000000E+00 0. -1.
        -11    1    4    4    0    0  0.65204655495E-02  0.29124539197E-01 -0.79742120180E-01  0.85145887195E-01  0.51100000000E-03 0. -1.
         11    1    4    4    0    0  0.16485662812E-01  0.21795655021E-01 -0.38627023093E-01  0.47319506445E-01  0.51100000000E-03 0.  1.
</event>
<event>
 8    1  0.1162192E+005  0.1043930E+01  0.7957747E-01            NaN
         13   -1    0    0    0    0  0.00000000000E+00  0.00000000000E+00  0.74505805969E-08  0.10566000000E+00  0.10566000000E+00 0.  1.
     999900   -1    0    0    0    0 -0.00000000000E+00 -0.00000000000E+00 -0.74505805969E-08  0.93827000000E+00  0.93827000000E+00 0. -1.
     999902    2    1    2    0    0  0.17215268150E-01 -0.31933810495E-02  0.17169080927E-01  0.10194077554E+01  0.10191127667E+01 0.  0.
     999903    2    3    3    0    0 -0.88270850140E-01  0.67423386178E-01 -0.58453379207E-01  0.12708897524E+00  0.19928725450E-01 0.  0.
         14    1    1    2    0    0 -0.17215268150E-01  0.31933810495E-02 -0.17169080927E-01  0.24522244593E-01  0.00000000000E+00 0. -1.
     999901    1    3    3    0    0  0.10548611829E+00 -0.70616767228E-01  0.75622460134E-01  0.89231878017E+00  0.88000000000E+00 0.  1.
        -11    1    4    4    0    0 -0.62926454991E-01  0.36925622330E-01 -0.41699413515E-01  0.84037744679E-01  0.51100000000E-03 0. -1.
         11    1    4    4    0    0 -0.25344395148E-01  0.30497763849E-01 -0.16753965692E-01  0.43051230559E-01  0.51100000000E-03 0.  1.
</event>
<event>
 8    1  0.1162192E+005  0.1043930E+01  0.7957747E-01            NaN
         13   -1    0    0    0    0  0.00000000000E+00  0.00000000000E+00  0.74505805969E-08  0.10566000000E+00  0.10566000000E+00 0. -1.
     999900   -1    0    0    0    0 -0.00000000000E+00 -0.00000000000E+00 -0.74505805969E-08  0.93827000000E+00  0.93827000000E+00 0. -1.
     999902    2    1    2    0    0  0.47393308066E-02  0.20933430648E-01  0.10758906148E-01  0.10199211717E+01  0.10196385500E+01 0.  0.
     999903    2    3    3    0    0 -0.10189420133E+00 -0.57403254941E-01  0.50918999450E-01  0.12912367530E+00  0.20065320215E-01 0.  0.
         14    1    1    2    0    0 -0.47393308066E-02 -0.20933430648E-01 -0.10758906148E-01  0.24008828307E-01  0.00000000000E+00 0. -1.
     999901    1    3    3    0    0  0.10663353214E+00  0.78336685589E-01 -0.40160093302E-01  0.89079749639E+00  0.88000000000E+00 0. -1.
        -11    1    4    4    0    0 -0.62505590507E-01 -0.43809210085E-01  0.39344004541E-01  0.85874370724E-01  0.51100000000E-03 0.  1.
         11    1    4    4    0    0 -0.39388610824E-01 -0.13594044856E-01  0.11574994909E-01  0.43249304576E-01  0.51100000000E-03 0. -1.
</event>
<event>
 8    1  0.1162192E+005  0.1043930E+01  0.7957747E-01            NaN
         13   -1    0    0    0    0  0.00000000000E+00  0.00000000000E+00  0.74505805969E-08  0.10566000000E+00  0.10566000000E+00 0.  1.
     999900   -1    0    0    0    0 -0.00000000000E+00 -0.00000000000E+00 -0.74505805969E-08  0.93827000000E+00  0.93827000000E+00 0.  1.
     999902    2    1    2    0    0  0.51653197811E-02  0.19414644005E-01  0.13356772801E-01  0.10198050687E+01  0.10195196741E+01 0.  0.
     999903    2    3    3    0    0  0.61691774955E-01 -0.24533176494E-01 -0.10827921586E+00  0.12855764806E+00  0.19872806600E-01 0.  0.
         14    1    1    2    0    0 -0.51653197811E-02 -0.19414644005E-01 -0.13356772801E-01  0.24124931294E-01  0.00000000000E+00 0. -1.
     999901    1    3    3    0    0 -0.56526455174E-01  0.43947820499E-01  0.12163598866E+00  0.89124742064E+00  0.88000000000E+00 0. -1.
        -11    1    4    4    0    0  0.25303129369E-01 -0.14476728465E-01 -0.31050215960E-01  0.42593439109E-01  0.51100000000E-03 0. -1.
         11    1    4    4    0    0  0.36388645586E-01 -0.10056448028E-01 -0.77228999902E-01  0.85964208956E-01  0.51100000000E-03 0.  1.
</event>
<event>
 8    1  0.1162192E+005  0.1043930E+01  0.7957747E-01            NaN
         13   -1    0    0    0    0  0.00000000000E+00  0.00000000000E+00  0.74505805969E-08  0.10566000000E+00  0.10566000000E+00 0.  1.
     999900   -1    0    0    0    0 -0.00000000000E+00 -0.00000000000E+00 -0.74505805969E-08  0.93827000000E+00  0.93827000000E+00 0. -1.
     999902    2    1    2    0    0  0.91401860254E-02 -0.21131320378E-01 -0.65153306383E-02  0.10200025004E+01  0.10197218129E+01 0.  0.
     999903    2    3    3    0    0  0.54260015247E-02  0.22121725118E-01 -0.12693252291E+00  0.13074161561E+00  0.21510287426E-01 0.  0.
         14    1    1    2    0    0 -0.91401860254E-02  0.21131320378E-01  0.65153306383E-02  0.23927499552E-01  0.00000000000E+00 0.  1.
     999901    1    3    3    0    0  0.37141845007E-02 -0.43253045496E-01  0.12041719227E+00  0.88926088484E+00  0.88000000000E+00 0.  1.
        -11    1    4    4    0    0  0.10557966646E-01  0.23087254906E-01 -0.11382693587E+00  0.11662471629E+00  0.51100000000E-03 0. -1.
         11    1    4    4    0    0 -0.51319651212E-02 -0.96552978832E-03 -0.13105587039E-01  0.14116899320E-01  0.51100000000E-03 0.  1.
</event>
<event>
 8    1  0.1162192E+005  0.1043930E+01  0.7957747E-01            NaN
         13   -1    0    0    0    0  0.00000000000E+00  0.00000000000E+00  0.74505805969E-08  0.10566000000E+00  0.10566000000E+00 0. -1.
     999900   -1    0    0    0    0 -0.00000000000E+00 -0.00000000000E+00 -0.74505805969E-08  0.93827000000E+00  0.93827000000E+00 0.  1.
     999902    2    1    2    0    0 -0.13619540650E-01 -0.18984728870E-01  0.17357238572E-02  0.10205008610E+01  0.10202318769E+01 0.  0.
     999903    2    3    3    0    0 -0.11092864161E+00 -0.70848774837E-01  0.10312000556E-01  0.13357781307E+00  0.20297348720E-01 0.  0.
         14    1    1    2    0    0  0.13619540650E-01  0.18984728870E-01 -0.17357238572E-02  0.23429139017E-01  0.00000000000E+00 0.  1.
     999901    1    3    3    0    0  0.97309100957E-01  0.51864045968E-01 -0.85762766986E-02  0.88692304791E+00  0.88000000000E+00 0. -1.
        -11    1    4    4    0    0 -0.33642100415E-01 -0.11147253662E-01  0.78953581503E-03  0.35453302700E-01  0.51100000000E-03 0. -1.
         11    1    4    4    0    0 -0.77286541192E-01 -0.59701521176E-01  0.95224647408E-02  0.98124510372E-01  0.51100000000E-03 0.  1.
</event>
<event>
 8    1  0.1162192E+005  0.1043930E+01  0.7957747E-01            NaN
         13   -1    0    0    0    0  0.00000000000E+00  0.00000000000E+00  0.74505805969E-08  0.10566000000E+00  0.10566000000E+00 0.  1.
     999900   -1    0    0    0    0 -0.00000000000E+00 -0.00000000000E+00 -0.74505805969E-08  0.93827000000E+00  0.93827000000E+00 0.  1.
     999902    2    1    2    0    0  0.66628189666E-02 -0.14466993717E-01 -0.29623724698E-01  0.10102959082E+01  0.10097358912E+01 0.  0.
     999903    2    3    3    0    0  0.11618251852E+00  0.76442717356E-02  0.28069299554E-01  0.12135723898E+00  0.19567354852E-01 0.  0.
         14    1    1    2    0    0 -0.66628189666E-02  0.14466993717E-01  0.29623724698E-01  0.33634091764E-01  0.00000000000E+00 0.  1.
     999901    1    3    3    0    0 -0.10951969955E+00 -0.22111265453E-01 -0.57693024252E-01  0.88893866926E+00  0.88000000000E+00 0.  1.
        -11    1    4    4    0    0  0.57931839021E-01 -0.10409654463E-02  0.52003144516E-02  0.58176335161E-01  0.51100000000E-03 0. -1.
         11    1    4    4    0    0  0.58250679497E-01  0.86852371819E-02  0.22868985102E-01  0.63180903819E-01  0.51100000000E-03 0.  1.
</event>
<event>
 8    1  0.1162192E+005  0.1043930E+01  0.7957747E-01            NaN
         13   -1    0    0    0    0  0.00000000000E+00  0.00000000000E+00  0.74505805969E-08  0.10566000000E+00  0.10566000000E+00 0. -1.
     999900   -1    0    0    0    0 -0.00000000000E+00 -0.00000000000E+00 -0.74505805969E-08  0.93827000000E+00  0.93827000000E+00 0. -1.
     999902    2    1    2    0    0  0.78353799826E-02  0.10960179255E-01  0.16731390031E-01  0.10224484237E+01  0.10222227355E+01 0.  0.
     999903    2    3    3    0    0  0.52634735012E-01  0.92000863216E-01 -0.77110807215E-01  0.13262769305E+00  0.20234975004E-01 0.  0.
         14    1    1    2    0    0 -0.78353799826E-02 -0.10960179255E-01 -0.16731390031E-01  0.21481576319E-01  0.00000000000E+00 0. -1.
     999901    1    3    3    0    0 -0.44799355030E-01 -0.81040683961E-01  0.93842197247E-01  0.88982073063E+00  0.88000000000E+00 0.  1.
        -11    1    4    4    0    0  0.44531263828E-01  0.80318866770E-01 -0.74288936814E-01  0.11812392252E+00  0.51100000000E-03 0. -1.
         11    1    4    4    0    0  0.81034711847E-02  0.11681996446E-01 -0.28218704015E-02  0.14503770536E-01  0.51100000000E-03 0.  1.
</event>
<event>
 8    1  0.1162192E+005  0.1043930E+01  0.7957747E-01            NaN
         13   -1    0    0    0    0  0.00000000000E+00  0.00000000000E+00  0.74505805969E-08  0.10566000000E+00  0.10566000000E+00 0.  1.
     999900   -1    0    0    0    0 -0.00000000000E+00 -0.00000000000E+00 -0.74505805969E-08  0.93827000000E+00  0.93827000000E+00 0. -1.
     999902    2    1    2    0    0 -0.21410341238E-01 -0.11317252749E-01 -0.29169412656E-03  0.10197108339E+01  0.10194231784E+01 0.  0.
     999903    2    3    3    0    0  0.11634445437E+00  0.45761826849E-01 -0.11725812550E-01  0.12709381405E+00  0.19625647279E-01 0.  0.
         14    1    1    2    0    0  0.21410341238E-01  0.11317252749E-01  0.29169412656E-03  0.24219166112E-01  0.00000000000E+00 0. -1.
     999901    1    3    3    0    0 -0.13775479561E+00 -0.57079079598E-01  0.11434118424E-01  0.89261701984E+00  0.88000000000E+00 0. -1.
        -11    1    4    4    0    0  0.75779743346E-01  0.23860198361E-01 -0.15087804590E-01  0.80868915757E-01  0.51100000000E-03 0. -1.
         11    1    4    4    0    0  0.40564711021E-01  0.21901628488E-01  0.33619920395E-02  0.46224898292E-01  0.51100000000E-03 0.  1.
</event>
<event>
 8    1  0.1162192E+005  0.1043930E+01  0.7957747E-01            NaN
         13   -1    0    0    0    0  0.00000000000E+00  0.00000000000E+00  0.74505805969E-08  0.10566000000E+00  0.10566000000E+00 0.  1.
     999900   -1    0    0    0    0 -0.00000000000E+00 -0.00000000000E+00 -0.74505805969E-08  0.93827000000E+00  0.93827000000E+00 0.  1.
     999902    2    1    2    0    0 -0.22372278301E-01 -0.85216229595E-02 -0.33564247399E-02  0.10197555821E+01  0.10194690014E+01 0.  0.
     999903    2    3    3    0    0  0.38331656780E-01  0.27588978468E-01 -0.11927785807E+00  0.12934740492E+00  0.16525014015E-01 0.  0.
         14    1    1    2    0    0  0.22372278301E-01  0.85216229595E-02  0.33564247399E-02  0.24174417910E-01  0.00000000000E+00 0.  1.
     999901    1    3    3    0    0 -0.60703935080E-01 -0.36110601427E-01  0.11592143333E+00  0.89040817717E+00  0.88000000000E+00 0. -1.
        -11    1    4    4    0    0  0.85171611249E-02  0.56794279584E-02 -0.47497936767E-01  0.48591285779E-01  0.51100000000E-03 0.  1.
         11    1    4    4    0    0  0.29814495655E-01  0.21909550510E-01 -0.71779921306E-01  0.80756119139E-01  0.51100000000E-03 0. -1.
</event>
<event>
 8    1  0.1322871E+005  0.1043930E+01  0.7957747E-01            NaN
         13   -1    0    0    0    0  0.00000000000E+00  0.00000000000E+00  0.74505805969E-08  0.10566000000E+00  0.10566000000E+00 0. -1.
     999900   -1    0    0    0    0 -0.00000000000E+00 -0.00000000000E+00 -0.74505805969E-08  0.93827000000E+00  0.93827000000E+00 0. -1.
     999902    2    1    2    0    0 -0.14049905852E-01  0.18960089325E-01  0.74582551314E-02  0.10191810523E+01  0.10188805165E+01 0.  0.
     999903    2    3    3    0    0  0.95778383579E-01 -0.31916204807E-01  0.76092298102E-01  0.12824823649E+00  0.21573813819E-01 0.  0.
         14    1    1    2    0    0  0.14049905852E-01 -0.18960089325E-01 -0.74582551314E-02  0.24748947680E-01  0.00000000000E+00 0. -1.
     999901    1    3    3    0    0 -0.10982828943E+00  0.50876294132E-01 -0.68634042971E-01  0.89093281583E+00  0.88000000000E+00 0. -1.
        -11    1    4    4    0    0  0.50120436546E-01 -0.75302825341E-02  0.45545266361E-01  0.68142466374E-01  0.51100000000E-03 0.  1.
         11    1    4    4    0    0  0.45657947033E-01 -0.24385922273E-01  0.30547031741E-01  0.60105770118E-01  0.51100000000E-03 0. -1.
</event>
<event>
 8    1  0.1162192E+005  0.1043930E+01  0.7957747E-01            NaN
         13   -1    0    0    0    0  0.00000000000E+00  0.00000000000E+00  0.74505805969E-08  0.10566000000E+00  0.10566000000E+00 0. -1.
     999900   -1    0    0    0    0 -0.00000000000E+00 -0.00000000000E+00 -0.74505805969E-08  0.93827000000E+00  0.93827000000E+00 0. -1.
     999902    2    1    2    0    0  0.84637583726E-02 -0.63930662134E-02 -0.21552941582E-01  0.10199084307E+01  0.10196255054E+01 0.  0.
     999903    2    3    3    0    0 -0.10066862630E+00  0.77707623796E-01 -0.10261251415E-01  0.12911647646E+00  0.19827357292E-01 0.  0.
         14    1    1    2    0    0 -0.84637583726E-02  0.63930662134E-02  0.21552941582E-01  0.24021569312E-01  0.00000000000E+00 0. -1.
     999901    1    3    3    0    0  0.10913238467E+00 -0.84100690009E-01 -0.11291690167E-01  0.89079195422E+00  0.88000000000E+00 0. -1.
        -11    1    4    4    0    0 -0.31674687837E-01  0.14418091160E-01  0.96516043444E-03  0.34818958312E-01  0.51100000000E-03 0.  1.
         11    1    4    4    0    0 -0.68993938461E-01  0.63289532636E-01 -0.11226411849E-01  0.94297518152E-01  0.51100000000E-03 0. -1.
</event>
<event>
 8    1  0.1162192E+005  0.1043930E+01  0.7957747E-01            NaN
         13   -1    0    0    0    0  0.00000000000E+00  0.00000000000E+00  0.74505805969E-08  0.10566000000E+00  0.10566000000E+00 0. -1.
     999900   -1    0    0    0    0 -0.00000000000E+00 -0.00000000000E+00 -0.74505805969E-08  0.93827000000E+00  0.93827000000E+00 0.  1.
     999902    2    1    2    0    0 -0.20268382303E-01 -0.99566649699E-02  0.79868360695E-02  0.10199772956E+01  0.10196960093E+01 0.  0.
     999903    2    3    3    0    0  0.11888560794E+00  0.40369474745E-01 -0.89907161063E-02  0.12746130658E+00  0.20051669072E-01 0.  0.
         14    1    1    2    0    0  0.20268382303E-01  0.99566649699E-02 -0.79868360695E-02  0.23952704418E-01  0.00000000000E+00 0.  1.
     999901    1    3    3    0    0 -0.13915399025E+00 -0.50326139715E-01  0.16977552176E-01  0.89251598900E+00  0.88000000000E+00 0. -1.
        -11    1    4    4    0    0  0.16173127598E-01  0.31038447581E-03  0.33388750349E-02  0.16524999314E-01  0.51100000000E-03 0.  1.
         11    1    4    4    0    0  0.10271248035E+00  0.40059090269E-01 -0.12329591141E-01  0.11093630727E+00  0.51100000000E-03 0. -1.
</event>
<event>
 8    1  0.1290012E+005  0.1043930E+01  0.7957747E-01            NaN
         13   -1    0    0    0    0  0.00000000000E+00  0.00000000000E+00  0.74505805969E-08  0.10566000000E+00  0.10566000000E+00 0.  1.
     999900   -1    0    0    0    0 -0.00000000000E+00 -0.00000000000E+00 -0.74505805969E-08  0.93827000000E+00  0.93827000000E+00 0. -1.
     999902    2    1    2    0    0 -0.21456971173E-01 -0.51262626720E-02 -0.73927750880E-02  0.10206634295E+01  0.10203982080E+01 0.  0.
     999903    2    3    3    0    0 -0.55346459861E-01  0.10623662490E+00  0.47617213112E-01  0.13129495185E+00  0.24930188688E-01 0.  0.
         14    1    1    2    0    0  0.21456971173E-01  0.51262626720E-02  0.73927750880E-02  0.23266570533E-01  0.00000000000E+00 0. -1.
     999901    1    3    3    0    0  0.33889488688E-01 -0.11136288757E+00 -0.55009988200E-01  0.88936847761E+00  0.88000000000E+00 0. -1.
        -11    1    4    4    0    0 -0.30016261579E-01  0.70467015628E-01  0.41265768693E-01  0.87004028858E-01  0.51100000000E-03 0. -1.
         11    1    4    4    0    0 -0.25330198282E-01  0.35769609272E-01  0.63514444196E-02  0.44290922994E-01  0.51100000000E-03 0.  1.
</event>
<event>
 8    1  0.1162192E+005  0.1043930E+01  0.7957747E-01            NaN
         13   -1    0    0    0    0  0.00000000000E+00  0.00000000000E+00  0.74505805969E-08  0.10566000000E+00  0.10566000000E+00 0.  1.
     999900   -1    0    0    0    0 -0.00000000000E+00 -0.00000000000E+00 -0.74505805969E-08  0.93827000000E+00  0.93827000000E+00 0.  1.
     999902    2    1    2    0    0  0.13540888644E-01 -0.72029880958E-03  0.20227550445E-01  0.10195778278E+01  0.10192869658E+01 0.  0.
     999903    2    3    3    0    0  0.26631912522E-01 -0.12565683123E+00 -0.88090624116E-02  0.13018273169E+00  0.19262555601E-01 0.  0.
         14    1    1    2    0    0 -0.13540888644E-01  0.72029880958E-03 -0.20227550445E-01  0.24352172237E-01  0.00000000000E+00 0. -1.
     999901    1    3    3    0    0 -0.13091023878E-01  0.12493653242E+00  0.29036612856E-01  0.88939509608E+00  0.88000000000E+00 0. -1.
        -11    1    4    4    0    0  0.14610499566E-01 -0.84391294946E-01  0.26789042911E-02  0.85690110336E-01  0.51100000000E-03 0.  1.
         11    1    4    4    0    0  0.12021412957E-01 -0.41265536288E-01 -0.11487966703E-01  0.44492621350E-01  0.51100000000E-03 0. -1.
</event>
<event>
 8    1  0.1162192E+005  0.1043930E+01  0.7957747E-01            NaN
         13   -1    0    0    0    0  0.00000000000E+00  0.00000000000E+00  0.74505805969E-08  0.10566000000E+00  0.10566000000E+00 0. -1.
     999900   -1    0    0    0    0 -0.00000000000E+00 -0.00000000000E+00 -0.74505805969E-08  0.93827000000E+00  0.93827000000E+00 0.  1.
     999902    2    1    2    0    0  0.84349227054E-02  0.44257891858E-02  0.22752643811E-01  0.10192638627E+01  0.10189653593E+01 0.  0.
     999903    2    3    3    0    0  0.54599116483E-01 -0.63759708964E-01  0.10028346896E+00  0.13202577522E+00  0.18101579166E-01 0.  0.
         14    1    1    2    0    0 -0.84349227054E-02 -0.44257891858E-02 -0.22752643811E-01  0.24666137342E-01  0.00000000000E+00 0.  1.
     999901    1    3    3    0    0 -0.46164193778E-01  0.68185498149E-01 -0.77530825152E-01  0.88723808743E+00  0.88000000000E+00 0.  1.
        -11    1    4    4    0    0  0.10112783574E-01 -0.18701854390E-01  0.35870929363E-01  0.41701468123E-01  0.51100000000E-03 0.  1.
         11    1    4    4    0    0  0.44486332910E-01 -0.45057854574E-01  0.64412539600E-01  0.90324307101E-01  0.51100000000E-03 0. -1.
</event>
<event>
 8    1  0.1162192E+005  0.1043930E+01  0.7957747E-01            NaN
         13   -1    0    0    0    0  0.00000000000E+00  0.00000000000E+00  0.74505805969E-08  0.10566000000E+00  0.10566000000E+00 0. -1.
     999900   -1    0    0    0    0 -0.00000000000E+00 -0.00000000000E+00 -0.74505805969E-08  0.93827000000E+00  0.93827000000E+00 0.  1.
     999902    2    1    2    0    0 -0.16939518322E-01 -0.74631733870E-02  0.17525019507E-01  0.10184393635E+01  0.10181203095E+01 0.  0.
     999903    2    3    3    0    0  0.92698852677E-01  0.76316605287E-01 -0.34423571022E-01  0.12617355127E+00  0.17818004017E-01 0.  0.
         14    1    1    2    0    0  0.16939518322E-01  0.74631733870E-02 -0.17525019507E-01  0.25490636451E-01  0.00000000000E+00 0.  1.
     999901    1    3    3    0    0 -0.10963837100E+00 -0.83779778674E-01  0.51948590528E-01  0.89226581228E+00  0.88000000000E+00 0.  1.
        -11    1    4    4    0    0  0.61022213664E-01  0.50469248672E-01 -0.31353451071E-01  0.85171331074E-01  0.51100000000E-03 0. -1.
         11    1    4    4    0    0  0.31676639013E-01  0.25847356615E-01 -0.30701199507E-02  0.41002220192E-01  0.51100000000E-03 0.  1.
</event>
<event>
 8    1  0.1162192E+005  0.1043930E+01  0.7957747E-01            NaN
         13   -1    0    0    0    0  0.00000000000E+00  0.00000000000E+00  0.74505805969E-08  0.10566000000E+00  0.10566000000E+00 0. -1.
     999900   -1    0    0    0    0 -0.00000000000E+00 -0.00000000000E+00 -0.74505805969E-08  0.93827000000E+00  0.93827000000E+00 0.  1.
     999902    2    1    2    0    0 -0.53899372065E-02  0.11152401655E-01  0.24674565724E-01  0.10163209131E+01  0.10159458336E+01 0.  0.
     999903    2    3    3    0    0  0.11270681424E-01 -0.12249138703E+00 -0.13474201952E-01  0.12525774646E+00  0.19410841686E-01 0.  0.
         14    1    1    2    0    0  0.53899372065E-02 -0.11152401655E-01 -0.24674565724E-01  0.27609086899E-01  0.00000000000E+00 0. -1.
     999901    1    3    3    0    0 -0.16660618630E-01  0.13364378868E+00  0.38148767675E-01  0.89106316664E+00  0.88000000000E+00 0. -1.
        -11    1    4    4    0    0  0.68388654106E-02 -0.88228763031E-01 -0.18309685027E-01  0.90369189401E-01  0.51100000000E-03 0.  1.
         11    1    4    4    0    0  0.44318160132E-02 -0.34262623995E-01  0.48354830757E-02  0.34888557061E-01  0.51100000000E-03 0. -1.
</event>
<event>
 8    1  0.1162192E+005  0.1043930E+01  0.7957747E-01            NaN
         13   -1    0    0    0    0  0.00000000000E+00  0.00000000000E+00  0.74505805969E-08  0.10566000000E+00  0.10566000000E+00 0.  1.
     999900   -1    0    0    0    0 -0.00000000000E+00 -0.00000000000E+00 -0.74505805969E-08  0.93827000000E+00  0.93827000000E+00 0. -1.
     999902    2    1    2    0    0 -0.15877881856E-01  0.12382962151E-01  0.13506211830E-01  0.10196841211E+01  0.10193958232E+01 0.  0.
     999903    2    3    3    0    0  0.10204348609E+00  0.76151059470E-01  0.12616020587E-01  0.12953098168E+00  0.20180543278E-01 0.  0.
         14    1    1    2    0    0  0.15877881856E-01 -0.12382962151E-01 -0.13506211830E-01  0.24245878863E-01  0.00000000000E+00 0.  1.
     999901    1    3    3    0    0 -0.11792136794E+00 -0.63768097319E-01  0.89019124291E-03  0.89015313946E+00  0.88000000000E+00 0.  1.
        -11    1    4    4    0    0  0.62569489873E-01  0.42168521993E-01 -0.18269942137E-02  0.75476647639E-01  0.51100000000E-03 0.  1.
         11    1    4    4    0    0  0.39473996215E-01  0.33982537477E-01  0.14443014801E-01  0.54054334036E-01  0.51100000000E-03 0. -1.
</event>
<event>
 8    1  0.1162192E+005  0.1043930E+01  0.7957747E-01            NaN
         13   -1    0    0    0    0  0.00000000000E+00  0.00000000000E+00  0.74505805969E-08  0.10566000000E+00  0.10566000000E+00 0. -1.
     999900   -1    0    0    0    0 -0.00000000000E+00 -0.00000000000E+00 -0.74505805969E-08  0.93827000000E+00  0.93827000000E+00 0.  1.
     999902    2    1    2    0    0 -0.22148451848E-01 -0.93659599228E-02  0.11151865217E-02  0.10198568040E+01  0.10195726467E+01 0.  0.
     999903    2    3    3    0    0 -0.11206482279E+00 -0.67468240088E-01  0.17291023105E-01  0.13322131723E+00  0.18397063762E-01 0.  0.
         14    1    1    2    0    0  0.22148451848E-01  0.93659599228E-02 -0.11151865217E-02  0.24073195997E-01  0.00000000000E+00 0.  1.
     999901    1    3    3    0    0  0.89916370945E-01  0.58102280165E-01 -0.16175836583E-01  0.88663548678E+00  0.88000000000E+00 0. -1.
        -11    1    4    4    0    0 -0.26965277312E-01 -0.25374202364E-01  0.22905629694E-02  0.37100998987E-01  0.51100000000E-03 0. -1.
         11    1    4    4    0    0 -0.85099545481E-01 -0.42094037724E-01  0.15000460135E-01  0.96120318238E-01  0.51100000000E-03 0.  1.
</event>
<event>
 8    1  0.1162192E+005  0.1043930E+01  0.7957747E-01            NaN
         13   -1    0    0    0    0  0.00000000000E+00  0.00000000000E+00  0.74505805969E-08  0.10566000000E+00  0.10566000000E+00 0. -1.
     999900   -1    0    0    0    0 -0.00000000000E+00 -0.00000000000E+00 -0.74505805969E-08  0.93827000000E+00  0.93827000000E+00 0.  1.
     999902    2    1    2    0    0  0.67625557110E-02 -0.14104051768E-01 -0.18111229284E-01  0.10199994116E+01  0.10197186507E+01 0.  0.
     999903    2    3    3    0    0 -0.91801812744E-01  0.87546315006E-01  0.98723049555E-02  0.12824226415E+00  0.16021417412E-01 0.  0.
         14    1    1    2    0    0 -0.67625557110E-02  0.14104051768E-01  0.18111229284E-01  0.23930588421E-01  0.00000000000E+00 0. -1.
     999901    1    3    3    0    0  0.98564368455E-01 -0.10165036677E+00 -0.27983534239E-01  0.89175714742E+00  0.88000000000E+00 0.  1.
        -11    1    4    4    0    0 -0.40702413694E-01  0.30669566060E-01  0.91264413315E-02  0.51777039460E-01  0.51100000000E-03 0. -1.
         11    1    4    4    0    0 -0.51099399050E-01  0.56876748947E-01  0.74586362403E-03  0.76465224694E-01  0.51100000000E-03 0.  1.
</event>
<event>
 8    1  0.1162192E+005  0.1043930E+01  0.7957747E-01            NaN
         13   -1    0    0    0    0  0.00000000000E+00  0.00000000000E+00  0.74505805969E-08  0.10566000000E+00  0.10566000000E+00 0. -1.
     999900   -1    0    0    0    0 -0.00000000000E+00 -0.00000000000E+00 -0.74505805969E-08  0.93827000000E+00  0.93827000000E+00 0. -1.
     999902    2    1    2    0    0 -0.60460179903E-02  0.10968337185E-01 -0.20644608913E-01  0.10197833930E+01  0.10194974791E+01 0.  0.
     999903    2    3    3    0    0 -0.71259607601E-01  0.86070567699E-01  0.66099323699E-01  0.12994202107E+00  0.54528841629E-02 0.  0.
         14    1    1    2    0    0  0.60460179903E-02 -0.10968337185E-01  0.20644608913E-01  0.24146607035E-01  0.00000000000E+00 0. -1.
     999901    1    3    3    0    0  0.65213589611E-01 -0.75102230514E-01 -0.86743932612E-01  0.88984137190E+00  0.88000000000E+00 0. -1.
        -11    1    4    4    0    0 -0.48929753492E-01  0.55169637393E-01  0.43142080728E-01  0.85435998955E-01  0.51100000000E-03 0.  1.
         11    1    4    4    0    0 -0.22329854109E-01  0.30900930306E-01  0.22957242971E-01  0.44506022111E-01  0.51100000000E-03 0. -1.
</event>
<event>
 8    1  0.1162192E+005  0.1043930E+01  0.7957747E-01            NaN
         13   -1    0    0    0    0  0.00000000000E+00  0.00000000000E+00  0.74505805969E-08  0.10566000000E+00  0.10566000000E+00 0.  1.
     999900   -1    0    0    0    0 -0.00000000000E+00 -0.00000000000E+00 -0.74505805969E-08  0.93827000000E+00  0.93827000000E+00 0.  1.
     999902    2    1    2    0    0 -0.19479280320E-01 -0.14977694843E-01  0.73995384843E-02  0.10182682215E+01  0.10179448139E+01 0.  0.
     999903    2    3    3    0    0 -0.28492070024E-01  0.11319963792E+00 -0.46571353503E-01  0.12730048014E+00  0.20262408498E-01 0.  0.
         14    1    1    2    0    0  0.19479280320E-01  0.14977694843E-01 -0.73995384843E-02  0.25661778473E-01  0.00000000000E+00 0. -1.
     999901    1    3    3    0    0  0.90127897048E-02 -0.12817733276E+00  0.53970891988E-01  0.89096774139E+00  0.88000000000E+00 0. -1.
        -11    1    4    4    0    0 -0.10443096953E-01  0.34383677815E-01 -0.46993001566E-02  0.36244173560E-01  0.51100000000E-03 0.  1.
         11    1    4    4    0    0 -0.18048973071E-01  0.78815960101E-01 -0.41872053347E-01  0.91056306580E-01  0.51100000000E-03 0. -1.
</event>
<event>
 8    1  0.1162192E+005  0.1043930E+01  0.7957747E-01            NaN
         13   -1    0    0    0    0  0.00000000000E+00  0.00000000000E+00  0.74505805969E-08  0.10566000000E+00  0.10566000000E+00 0.  1.
     999900   -1    0    0    0    0 -0.00000000000E+00 -0.00000000000E+00 -0.74505805969E-08  0.93827000000E+00  0.93827000000E+00 0.  1.
     999902    2    1    2    0    0  0.12642131736E-01  0.18675300431E-01  0.74110685797E-02  0.10201915443E+01  0.10199153263E+01 0.  0.
     999903    2    3    3    0    0  0.65721583463E-01 -0.17982547371E-01 -0.10912186875E+00  0.13016842580E+00  0.19837799620E-01 0.  0.
         14    1    1    2    0    0 -0.12642131736E-01 -0.18675300431E-01 -0.74110685797E-02  0.23738455689E-01  0.00000000000E+00 0. -1.
     999901    1    3    3    0    0 -0.53079451727E-01  0.36657847802E-01  0.11653293733E+00  0.89002311851E+00  0.88000000000E+00 0. -1.
        -11    1    4    4    0    0  0.19164634949E-01 -0.12057148760E-01 -0.48268204274E-01  0.53317339898E-01  0.51100000000E-03 0.  1.
         11    1    4    4    0    0  0.46556948514E-01 -0.59253986109E-02 -0.60853664472E-01  0.76851085902E-01  0.51100000000E-03 0. -1.
</event>
<event>
 8    1  0.1162192E+005  0.1043930E+01  0.7957747E-01            NaN
         13   -1    0    0    0    0  0.00000000000E+00  0.00000000000E+00  0.74505805969E-08  0.10566000000E+00  0.10566000000E+00 0.  1.
     999900   -1    0    0    0    0 -0.00000000000E+00 -0.00000000000E+00 -0.74505805969E-08  0.93827000000E+00  0.93827000000E+00 0.  1.
     999902    2    1    2    0    0 -0.20183089193E-01  0.67039294929E-02  0.89475725903E-02  0.10208570978E+01  0.10205963234E+01 0.  0.
     999903    2    3    3    0    0  0.59758692064E-01 -0.28774779071E-01  0.11036101322E+00  0.13072558332E+00  0.22595037258E-01 0.  0.
         14    1    1    2    0    0  0.20183089193E-01 -0.67039294929E-02 -0.89475725903E-02  0.23072902185E-01  0.00000000000E+00 0. -1.
     999901    1    3    3    0    0 -0.79941781257E-01  0.35478708564E-01 -0.10141344063E+00  0.89013151449E+00  0.88000000000E+00 0.  1.
        -11    1    4    4    0    0  0.26808814479E-01 -0.24889809298E-01  0.63898616071E-01  0.73630899746E-01  0.51100000000E-03 0. -1.
         11    1    4    4    0    0  0.32949877585E-01 -0.38849697730E-02  0.46462397148E-01  0.57094683577E-01  0.51100000000E-03 0.  1.
</event>
<event>
 8    1  0.1162192E+005  0.1043930E+01  0.7957747E-01            NaN
         13   -1    0    0    0    0  0.00000000000E+00  0.00000000000E+00  0.74505805969E-08  0.10566000000E+00  0.10566000000E+00 0.  1.
     999900   -1    0    0    0    0 -0.00000000000E+00 -0.00000000000E+00 -0.74505805969E-08  0.93827000000E+00  0.93827000000E+00 0. -1.
     999902    2    1    2    0    0  0.27087548423E-02 -0.25921576117E-01 -0.42363042893E-02  0.10175252327E+01  0.10171825733E+01 0.  0.
     999903    2    3    3    0    0  0.12239628752E+00  0.15055478400E-01  0.26058546090E-01  0.12796241738E+00  0.22086507407E-01 0.  0.
         14    1    1    2    0    0 -0.27087548423E-02  0.25921576117E-01  0.42363042893E-02  0.26404767282E-01  0.00000000000E+00 0.  1.
     999901    1    3    3    0    0 -0.11968753267E+00 -0.40977054517E-01 -0.30294850379E-01  0.88956281534E+00  0.88000000000E+00 0.  1.
        -11    1    4    4    0    0  0.73397150441E-01  0.18477412989E-01  0.10365692151E-01  0.76395452603E-01  0.51100000000E-03 0.  1.
         11    1    4    4    0    0  0.48999137076E-01 -0.34219345885E-02  0.15692853938E-01  0.51566964776E-01  0.51100000000E-03 0. -1.
</event>
<event>
 8    1  0.1162192E+005  0.1043930E+01  0.7957747E-01            NaN
         13   -1    0    0    0    0  0.00000000000E+00  0.00000000000E+00  0.74505805969E-08  0.10566000000E+00  0.10566000000E+00 0.  1.
     999900   -1    0    0    0    0 -0.00000000000E+00 -0.00000000000E+00 -0.74505805969E-08  0.93827000000E+00  0.93827000000E+00 0.  1.
     999902    2    1    2    0    0 -0.83345802014E-03  0.21899730060E-01  0.90868120131E-02  0.10202052665E+01  0.10199293714E+01 0.  0.
     999903    2    3    3    0    0 -0.12833445066E+00 -0.20119506189E-02  0.14651208545E-01  0.13067773226E+00  0.19703619581E-01 0.  0.
         14    1    1    2    0    0  0.83345802014E-03 -0.21899730060E-01 -0.90868120131E-02  0.23724733540E-01  0.00000000000E+00 0.  1.
     999901    1    3    3    0    0  0.12750099264E+00  0.23911680679E-01 -0.55643965316E-02  0.88952753420E+00  0.88000000000E+00 0. -1.
        -11    1    4    4    0    0 -0.11214876109E+00 -0.76128556995E-02  0.96176087329E-02  0.11281870282E+00  0.51100000000E-03 0.  1.
         11    1    4    4    0    0 -0.16185689567E-01  0.56009050805E-02  0.50335998119E-02  0.17859029441E-01  0.51100000000E-03 0. -1.
</event>
<event>
 8    1  0.1162192E+005  0.1043930E+01  0.7957747E-01            NaN
         13   -1    0    0    0    0  0.00000000000E+00  0.00000000000E+00  0.74505805969E-08  0.10566000000E+00  0.10566000000E+00 0.  1.
     999900   -1    0    0    0    0 -0.00000000000E+00 -0.00000000000E+00 -0.74505805969E-08  0.93827000000E+00  0.93827000000E+00 0.  1.
     999902    2    1    2    0    0  0.13614330063E-01 -0.32988595873E-02 -0.19629276843E-01  0.10198148395E+01  0.10195296787E+01 0.  0.
     999903    2    3    3    0    0 -0.10322854660E+00  0.17174777874E-01  0.69578386004E-01  0.12738588725E+00  0.20854415491E-01 0.  0.
         14    1    1    2    0    0 -0.13614330063E-01  0.32988595873E-02  0.19629276843E-01  0.24115160522E-01  0.00000000000E+00 0. -1.
     999901    1    3    3    0    0  0.11684287666E+00 -0.20473637461E-01 -0.89207662846E-01  0.89242895222E+00  0.88000000000E+00 0.  1.
        -11    1    4    4    0    0 -0.23118456770E-01  0.65600934662E-02  0.65841626189E-02  0.24922082339E-01  0.51100000000E-03 0.  1.
         11    1    4    4    0    0 -0.80110089825E-01  0.10614684407E-01  0.62994223385E-01  0.10246380492E+00  0.51100000000E-03 0. -1.
</event>
<event>
 8    1  0.1162192E+005  0.1043930E+01  0.7957747E-01            NaN
         13   -1    0    0    0    0  0.00000000000E+00  0.00000000000E+00  0.74505805969E-08  0.10566000000E+00  0.10566000000E+00 0. -1.
     999900   -1    0    0    0    0 -0.00000000000E+00 -0.00000000000E+00 -0.74505805969E-08  0.93827000000E+00  0.93827000000E+00 0.  1.
     999902    2    1    2    0    0  0.26620826155E-03 -0.72143979017E-02 -0.22534756087E-01  0.10202670831E+01  0.10199926408E+01 0.  0.
     999903    2    3    3    0    0  0.79293526656E-01 -0.79812004481E-01  0.62051189295E-01  0.12972201873E+00  0.17889455597E-01 0.  0.
         14    1    1    2    0    0 -0.26620826155E-03  0.72143979017E-02  0.22534756087E-01  0.23662916892E-01  0.00000000000E+00 0. -1.
     999901    1    3    3    0    0 -0.79027318394E-01  0.72597606579E-01 -0.84585945382E-01  0.89054506438E+00  0.88000000000E+00 0.  1.
        -11    1    4    4    0    0  0.28021137762E-01 -0.39517018234E-01  0.30791618655E-01  0.57403517244E-01  0.51100000000E-03 0. -1.
         11    1    4    4    0    0  0.51272388893E-01 -0.40294986247E-01  0.31259570639E-01  0.72318501485E-01  0.51100000000E-03 0.  1.
</event>
<event>
 8    1  0.1162192E+005  0.1043930E+01  0.7957747E-01            NaN
         13   -1    0    0    0    0  0.00000000000E+00  0.00000000000E+00  0.74505805969E-08  0.10566000000E+00  0.10566000000E+00 0.  1.
     999900   -1    0    0    0    0 -0.00000000000E+00 -0.00000000000E+00 -0.74505805969E-08  0.93827000000E+00  0.93827000000E+00 0. -1.
     999902    2    1    2    0    0 -0.16087595722E-01 -0.13698855017E-01  0.89414002555E-02  0.10209861990E+01  0.10207283677E+01 0.  0.
     999903    2    3    3    0    0 -0.52391431453E-01  0.11461099772E+00  0.28293962060E-01  0.13073010752E+00  0.20230418553E-01 0.  0.
         14    1    1    2    0    0  0.16087595722E-01  0.13698855017E-01 -0.89414002555E-02  0.22943800980E-01  0.00000000000E+00 0. -1.
     999901    1    3    3    0    0  0.36303835730E-01 -0.12830985274E+00 -0.19352561805E-01  0.89025609150E+00  0.88000000000E+00 0.  1.
        -11    1    4    4    0    0 -0.16307036837E-01  0.28125587646E-01  0.15922400146E-01  0.36204310216E-01  0.51100000000E-03 0.  1.
         11    1    4    4    0    0 -0.36084394616E-01  0.86485410078E-01  0.12371561914E-01  0.94525797306E-01  0.51100000000E-03 0. -1.
</event>
<event>
 8    1  0.1162192E+005  0.1043930E+01  0.7957747E-01            NaN
         13   -1    0    0    0    0  0.00000000000E+00  0.00000000000E+00  0.74505805969E-08  0.10566000000E+00  0.10566000000E+00 0. -1.
     999900   -1    0    0    0    0 -0.00000000000E+00 -0.00000000000E+00 -0.74505805969E-08  0.93827000000E+00  0.93827000000E+00 0.  1.
     999902    2    1    2    0    0 -0.24390476295E-02 -0.23037828439E-01 -0.51063427314E-02  0.10202073267E+01  0.10199314802E+01 0.  0.
     999903    2    3    3    0    0  0.10085308842E+00 -0.73150654599E-01  0.35590494457E-01  0.13181732604E+00  0.24223138440E-01 0.  0.
         14    1    1    2    0    0  0.24390476295E-02  0.23037828439E-01  0.51063427314E-02  0.23722673303E-01  0.00000000000E+00 0. -1.
     999901    1    3    3    0    0 -0.10329213605E+00  0.50112826160E-01 -0.40696837188E-01  0.88839000066E+00  0.88000000000E+00 0. -1.
        -11    1    4    4    0    0  0.60066876053E-01 -0.50122087126E-01  0.11278004503E-01  0.79042442543E-01  0.51100000000E-03 0.  1.
         11    1    4    4    0    0  0.40786212367E-01 -0.23028567473E-01  0.24312489953E-01  0.52774883494E-01  0.51100000000E-03 0. -1.
</event>
<event>
 8    1  0.1162192E+005  0.1043930E+01  0.7957747E-01            NaN
         13   -1    0    0    0    0  0.00000000000E+00  0.00000000000E+00  0.74505805969E-08  0.10566000000E+00  0.10566000000E+00 0. -1.
     999900   -1    0    0    0    0 -0.00000000000E+00 -0.00000000000E+00 -0.74505805969E-08  0.93827000000E+00  0.93827000000E+00 0.  1.
     999902    2    1    2    0    0  0.18972359846E-01 -0.13706453000E-01  0.27521461210E-02  0.10203632522E+01  0.10200910621E+01 0.  0.
     999903    2    3    3    0    0  0.61820337161E-01 -0.50909727226E-01  0.10414334079E+00  0.13272582224E+00  0.18887933883E-01 0.  0.
         14    1    1    2    0    0 -0.18972359846E-01  0.13706453000E-01 -0.27521461210E-02  0.23566747765E-01  0.00000000000E+00 0.  1.
     999901    1    3    3    0    0 -0.42847977315E-01  0.37203274225E-01 -0.10139119466E+00  0.88763743000E+00  0.88000000000E+00 0.  1.
        -11    1    4    4    0    0  0.22324844676E-01 -0.27045224959E-01  0.34628226679E-01  0.49287098584E-01  0.51100000000E-03 0. -1.
         11    1    4    4    0    0  0.39495492484E-01 -0.23864502267E-01  0.69515114107E-01  0.83438723656E-01  0.51100000000E-03 0.  1.
</event>
<event>
 8    1  0.1162192E+005  0.1043930E+01  0.7957747E-01            NaN
         13   -1    0    0    0    0  0.00000000000E+00  0.00000000000E+00  0.74505805969E-08  0.10566000000E+00  0.10566000000E+00 0.  1.
     999900   -1    0    0    0    0 -0.00000000000E+00 -0.00000000000E+00 -0.74505805969E-08  0.93827000000E+00  0.93827000000E+00 0. -1.
     999902    2    1    2    0    0 -0.29600772415E-02  0.17736567635E-01  0.14928650207E-01  0.10205588108E+01  0.10202911711E+01 0.  0.
     999903    2    3    3    0    0 -0.72779576210E-01 -0.10036241653E+00  0.30264332470E-01  0.12979660028E+00  0.23701186898E-01 0.  0.
         14    1    1    2    0    0  0.29600772415E-02 -0.17736567635E-01 -0.14928650207E-01  0.23371189224E-01  0.00000000000E+00 0. -1.
     999901    1    3    3    0    0  0.69819498969E-01  0.11809898416E+00 -0.15335682263E-01  0.89076221050E+00  0.88000000000E+00 0.  1.
        -11    1    4    4    0    0 -0.20932241798E-01 -0.31326229928E-01 -0.17326227175E-02  0.37719418483E-01  0.51100000000E-03 0. -1.
         11    1    4    4    0    0 -0.51847334412E-01 -0.69036186597E-01  0.31996955188E-01  0.92077181798E-01  0.51100000000E-03 0.  1.
</event>
<event>
 8    1  0.1162192E+005  0.1043930E+01  0.7957747E-01            NaN
         13   -1    0    0    0    0  0.00000000000E+00  0.00000000000E+00  0.74505805969E-08  0.10566000000E+00  0.10566000000E+00 0.  1.
     999900   -1    0    0    0    0 -0.00000000000E+00 -0.00000000000E+00 -0.74505805969E-08  0.93827000000E+00  0.93827000000E+00 0. -1.
     999902    2    1    2    0    0  0.17770968464E-01  0.85785144254E-02 -0.10908116145E-01  0.10213826004E+01  0.10211336990E+01 0.  0.
     999903    2    3    3    0    0  0.12018357022E+00  0.48752302578E-01  0.26979964214E-01  0.13372400564E+00  0.18256879746E-01 0.  0.
         14    1    1    2    0    0 -0.17770968464E-01 -0.85785144254E-02  0.10908116145E-01  0.22547399578E-01  0.00000000000E+00 0.  1.
     999901    1    3    3    0    0 -0.10241260176E+00 -0.40173788153E-01 -0.37888080360E-01  0.88765859478E+00  0.88000000000E+00 0. -1.
        -11    1    4    4    0    0  0.80204030858E-01  0.41293847670E-01  0.16295794306E-01  0.91671601134E-01  0.51100000000E-03 0.  1.
         11    1    4    4    0    0  0.39979539363E-01  0.74584549079E-02  0.10684169908E-01  0.42052404508E-01  0.51100000000E-03 0. -1.
</event>
<event>
 8    1  0.1162192E+005  0.1043930E+01  0.7957747E-01            NaN
         13   -1    0    0    0    0  0.00000000000E+00  0.00000000000E+00  0.74505805969E-08  0.10566000000E+00  0.10566000000E+00 0.  1.
     999900   -1    0    0    0    0 -0.00000000000E+00 -0.00000000000E+00 -0.74505805969E-08  0.93827000000E+00  0.93827000000E+00 0.  1.
     999902    2    1    2    0    0 -0.18674881674E-01 -0.44998829858E-02  0.12976638373E-01  0.10207482551E+01  0.10204849862E+01 0.  0.
     999903    2    3    3    0    0 -0.76040735832E-01  0.94703152156E-01 -0.45987580548E-01  0.13136146495E+00  0.19750857583E-01 0.  0.
         14    1    1    2    0    0  0.18674881674E-01  0.44998829858E-02 -0.12976638373E-01  0.23181744885E-01  0.00000000000E+00 0. -1.
     999901    1    3    3    0    0  0.57365854158E-01 -0.99203035142E-01  0.58964218921E-01  0.88938679016E+00  0.88000000000E+00 0. -1.
        -11    1    4    4    0    0 -0.61386401014E-01  0.80946336468E-01 -0.45325980536E-01  0.11124434929E+00  0.51100000000E-03 0. -1.
         11    1    4    4    0    0 -0.14654334818E-01  0.13756815688E-01 -0.66160001225E-03  0.20117115658E-01  0.51100000000E-03 0.  1.
</event>
<event>
 8    1  0.1162192E+005  0.1043930E+01  0.7957747E-01            NaN
         13   -1    0    0    0    0  0.00000000000E+00  0.00000000000E+00  0.74505805969E-08  0.10566000000E+00  0.10566000000E+00 0. -1.
     999900   -1    0    0    0    0 -0.00000000000E+00 -0.00000000000E+00 -0.74505805969E-08  0.93827000000E+00  0.93827000000E+00 0.  1.
     999902    2    1    2    0    0  0.11491643363E-01 -0.23592363444E-02 -0.22116039697E-01  0.10188951628E+01  0.10185875562E+01 0.  0.
     999903    2    3    3    0    0 -0.26137176023E-01  0.60305946154E-01 -0.11194919949E+00  0.13130694195E+00  0.19721324087E-01 0.  0.
         14    1    1    2    0    0 -0.11491643363E-01  0.23592363444E-02  0.22116039697E-01  0.25034837231E-01  0.00000000000E+00 0. -1.
     999901    1    3    3    0    0  0.37628819386E-01 -0.62665182499E-01  0.89833159796E-01  0.88758822082E+00  0.88000000000E+00 0. -1.
        -11    1    4    4    0    0 -0.11838713172E-01  0.29385979825E-01 -0.72876291587E-01  0.79466382429E-01  0.51100000000E-03 0.  1.
         11    1    4    4    0    0 -0.14298462851E-01  0.30919966329E-01 -0.39072907906E-01  0.51840559516E-01  0.51100000000E-03 0. -1.
</event>
<event>
 8    1  0.1162192E+005  0.1043930E+01  0.7957747E-01            NaN
         13   -1    0    0    0    0  0.00000000000E+00  0.00000000000E+00  0.74505805969E-08  0.10566000000E+00  0.10566000000E+00 0. -1.
     999900   -1    0    0    0    0 -0.00000000000E+00 -0.00000000000E+00 -0.74505805969E-08  0.93827000000E+00  0.93827000000E+00 0.  1.
     999902    2    1    2    0    0  0.15963326933E-01 -0.14459182370E-01  0.99721158168E-02  0.10201952395E+01  0.10199191085E+01 0.  0.
     999903    2    3    3    0    0 -0.32360764935E-01  0.12137626567E+00  0.18677333835E-01  0.12842045425E+00  0.19067073601E-01 0.  0.
         14    1    1    2    0    0 -0.15963326933E-01  0.14459182370E-01 -0.99721158168E-02  0.23734760488E-01  0.00000000000E+00 0.  1.
     999901    1    3    3    0    0  0.48324091868E-01 -0.13583544804E+00 -0.87052180183E-02  0.89177478526E+00  0.88000000000E+00 0. -1.
        -11    1    4    4    0    0 -0.33074002884E-01  0.10678895375E+00  0.12277123371E-01  0.11246670258E+00  0.51100000000E-03 0. -1.
         11    1    4    4    0    0  0.71323794926E-03  0.14587311926E-01  0.64002104642E-02  0.15953751677E-01  0.51100000000E-03 0.  1.
</event>
<event>
 8    1  0.1162192E+005  0.1043930E+01  0.7957747E-01            NaN
         13   -1    0    0    0    0  0.00000000000E+00  0.00000000000E+00  0.74505805969E-08  0.10566000000E+00  0.10566000000E+00 0. -1.
     999900   -1    0    0    0    0 -0.00000000000E+00 -0.00000000000E+00 -0.74505805969E-08  0.93827000000E+00  0.93827000000E+00 0.  1.
     999902    2    1    2    0    0  0.13798884625E-01  0.18327641244E-01 -0.56963573868E-02  0.10202918923E+01  0.10200180318E+01 0.  0.
     999903    2    3    3    0    0  0.12536820936E+00 -0.13833752657E-01 -0.34258845747E-01  0.13220524939E+00  0.19899719181E-01 0.  0.
         14    1    1    2    0    0 -0.13798884625E-01 -0.18327641244E-01  0.56963573868E-02  0.23638107748E-01  0.00000000000E+00 0. -1.
     999901    1    3    3    0    0 -0.11156932474E+00  0.32161393901E-01  0.28562488360E-01  0.88808664286E+00  0.88000000000E+00 0. -1.
        -11    1    4    4    0    0  0.97797734764E-01 -0.32955061943E-02 -0.30190309447E-01  0.10240592362E+00  0.51100000000E-03 0. -1.
         11    1    4    4    0    0  0.27570474601E-01 -0.10538246463E-01 -0.40685363001E-02  0.29799325779E-01  0.51100000000E-03 0.  1.
</event>
<event>
 8    1  0.1162192E+005  0.1043930E+01  0.7957747E-01            NaN
         13   -1    0    0    0    0  0.00000000000E+00  0.00000000000E+00  0.74505805969E-08  0.10566000000E+00  0.10566000000E+00 0.  1.
     999900   -1    0    0    0    0 -0.00000000000E+00 -0.00000000000E+00 -0.74505805969E-08  0.93827000000E+00  0.93827000000E+00 0. -1.
     999902    2    1    2    0    0 -0.85086946571E-02  0.17276799892E-01  0.14068211987E-01  0.10200804657E+01  0.10198016259E+01 0.  0.
     999903    2    3    3    0    0 -0.73631947963E-01  0.83891715462E-01  0.70414500905E-01  0.13337110552E+00  0.19239702869E-01 0.  0.
         14    1    1    2    0    0  0.85086946571E-02 -0.17276799892E-01 -0.14068211987E-01  0.23849534331E-01  0.00000000000E+00 0. -1.
     999901    1    3    3    0    0  0.65123253306E-01 -0.66614915570E-01 -0.56346288918E-01  0.88670936015E+00  0.88000000000E+00 0. -1.
        -11    1    4    4    0    0 -0.52098367120E-01  0.66501335891E-01  0.44653171438E-01  0.95555399493E-01  0.51100000000E-03 0. -1.
         11    1    4    4    0    0 -0.21533580843E-01  0.17390379572E-01  0.25761329467E-01  0.37815706029E-01  0.51100000000E-03 0.  1.
</event>
<event>
 8    1  0.1162192E+005  0.1043930E+01  0.7957747E-01            NaN
         13   -1    0    0    0    0  0.00000000000E+00  0.00000000000E+00  0.74505805969E-08  0.10566000000E+00  0.10566000000E+00 0.  1.
     999900   -1    0    0    0    0 -0.00000000000E+00 -0.00000000000E+00 -0.74505805969E-08  0.93827000000E+00  0.93827000000E+00 0.  1.
     999902    2    1    2    0    0  0.70943998139E-02 -0.17084868417E-01  0.15708355316E-01  0.10196611792E+01  0.10193723288E+01 0.  0.
     999903    2    3    3    0    0  0.72827983643E-01  0.23979793200E-01 -0.10120667501E+00  0.12855157043E+00  0.20094016792E-01 0.  0.
         14    1    1    2    0    0 -0.70943998139E-02  0.17084868417E-01 -0.15708355316E-01  0.24268820826E-01  0.00000000000E+00 0. -1.
     999901    1    3    3    0    0 -0.65733583829E-01 -0.41064661617E-01  0.11691503032E+00  0.89110960874E+00  0.88000000000E+00 0. -1.
        -11    1    4    4    0    0  0.34940631251E-01  0.16967745223E-01 -0.64726014418E-01  0.75488212018E-01  0.51100000000E-03 0.  1.
         11    1    4    4    0    0  0.37887352392E-01  0.70120479772E-02 -0.36480660590E-01  0.53063358414E-01  0.51100000000E-03 0. -1.
</event>
<event>
 8    1  0.1162192E+005  0.1043930E+01  0.7957747E-01            NaN
         13   -1    0    0    0    0  0.00000000000E+00  0.00000000000E+00  0.74505805969E-08  0.10566000000E+00  0.10566000000E+00 0. -1.
     999900   -1    0    0    0    0 -0.00000000000E+00 -0.00000000000E+00 -0.74505805969E-08  0.93827000000E+00  0.93827000000E+00 0. -1.
     999902    2    1    2    0    0 -0.15977791243E-01  0.18369411855E-01 -0.73305291529E-02  0.10185043877E+01  0.10181869798E+01 0.  0.
     999903    2    3    3    0    0  0.80364964843E-01 -0.90868906135E-01  0.27427478199E-01  0.12585492912E+00  0.19274619244E-01 0.  0.
         14    1    1    2    0    0  0.15977791243E-01 -0.18369411855E-01  0.73305291529E-02  0.25425612334E-01  0.00000000000E+00 0. -1.
     999901    1    3    3    0    0 -0.96342756087E-01  0.10923831799E+00 -0.34758007352E-01  0.89264945855E+00  0.88000000000E+00 0. -1.
        -11    1    4    4    0    0  0.36268817061E-01 -0.34192854591E-01  0.27590903708E-02  0.49924463911E-01  0.51100000000E-03 0.  1.
         11    1    4    4    0    0  0.44096147782E-01 -0.56676051545E-01  0.24668387828E-01  0.75930465209E-01  0.51100000000E-03 0. -1.
</event>
<event>
 8    1  0.1162192E+005  0.1043930E+01  0.7957747E-01            NaN
         13   -1    0    0    0    0  0.00000000000E+00  0.00000000000E+00  0.74505805969E-08  0.10566000000E+00  0.10566000000E+00 0.  1.
     999900   -1    0    0    0    0 -0.00000000000E+00 -0.00000000000E+00 -0.74505805969E-08  0.93827000000E+00  0.93827000000E+00 0. -1.
     999902    2    1    2    0    0 -0.22712394487E-01 -0.65210406809E-03  0.44714401128E-04  0.10212082020E+01  0.10209553917E+01 0.  0.
     999903    2    3    3    0    0 -0.79085528046E-01  0.10094530939E+00  0.29113059947E-01  0.13309507112E+00  0.20548758160E-01 0.  0.
         14    1    1    2    0    0  0.22712394487E-01  0.65210406809E-03 -0.44714401128E-04  0.22721797958E-01  0.00000000000E+00 0. -1.
     999901    1    3    3    0    0  0.56373133559E-01 -0.10159741346E+00 -0.29068345546E-01  0.88811313093E+00  0.88000000000E+00 0.  1.
        -11    1    4    4    0    0 -0.38392945898E-01  0.37266149938E-01  0.48662359737E-02  0.53728256993E-01  0.51100000000E-03 0.  1.
         11    1    4    4    0    0 -0.40692582148E-01  0.63679159452E-01  0.24246823973E-01  0.79366814124E-01  0.51100000000E-03 0. -1.
</event>
<event>
 8    1  0.1162192E+005  0.1043930E+01  0.7957747E-01            NaN
         13   -1    0    0    0    0  0.00000000000E+00  0.00000000000E+00  0.74505805969E-08  0.10566000000E+00  0.10566000000E+00 0.  1.
     999900   -1    0    0    0    0 -0.00000000000E+00 -0.00000000000E+00 -0.74505805969E-08  0.93827000000E+00  0.93827000000E+00 0.  1.
     999902    2    1    2    0    0  0.47658780802E-02  0.51740945632E-02  0.23052016984E-01  0.10198285408E+01  0.10195437079E+01 0.  0.
     999903    2    3    3    0    0 -0.69319812547E-01 -0.89760165357E-01  0.61574331210E-01  0.13079244932E+00  0.21287151971E-01 0.  0.
         14    1    1    2    0    0 -0.47658780802E-02 -0.51740945632E-02 -0.23052016984E-01  0.24101459198E-01  0.00000000000E+00 0. -1.
     999901    1    3    3    0    0  0.74085690627E-01  0.94934259921E-01 -0.38522314226E-01  0.88903609148E+00  0.88000000000E+00 0. -1.
        -11    1    4    4    0    0 -0.22378473645E-01 -0.15484698768E-01  0.18701923440E-01  0.33024158430E-01  0.51100000000E-03 0. -1.
         11    1    4    4    0    0 -0.46941338902E-01 -0.74275466589E-01  0.42872407770E-01  0.97768290892E-01  0.51100000000E-03 0.  1.
</event>
<event>
 8    1  0.1162192E+005  0.1043930E+01  0.7957747E-01            NaN
         13   -1    0    0    0    0  0.00000000000E+00  0.00000000000E+00  0.74505805969E-08  0.10566000000E+00  0.10566000000E+00 0.  1.
     999900   -1    0    0    0    0 -0.00000000000E+00 -0.00000000000E+00 -0.74505805969E-08  0.93827000000E+00  0.93827000000E+00 0.  1.
     999902    2    1    2    0    0  0.10869138656E-01  0.18881066131E-01 -0.87785944395E-02  0.10204417784E+01  0.10201714202E+01 0.  0.
     999903    2    3    3    0    0  0.38054610097E-01 -0.74596135505E-01 -0.98179754845E-01  0.13057122346E+00  0.19920927472E-01 0.  0.
         14    1    1    2    0    0 -0.10869138656E-01 -0.18881066131E-01  0.87785944395E-02  0.23488221595E-01  0.00000000000E+00 0.  1.
     999901    1    3    3    0    0 -0.27185471442E-01  0.93477201636E-01  0.89401160406E-01  0.88987055495E+00  0.88000000000E+00 0. -1.
        -11    1    4    4    0    0  0.31125225887E-01 -0.49983962547E-01 -0.56105652197E-01  0.81334380971E-01  0.51100000000E-03 0. -1.
         11    1    4    4    0    0  0.69293842100E-02 -0.24612172958E-01 -0.42074102648E-01  0.49236842485E-01  0.51100000000E-03 0.  1.
</event>
<event>
 8    1  0.1162192E+005  0.1043930E+01  0.7957747E-01            NaN
         13   -1    0    0    0    0  0.00000000000E+00  0.00000000000E+00  0.74505805969E-08  0.10566000000E+00  0.10566000000E+00 0.  1.
     999900   -1    0    0    0    0 -0.00000000000E+00 -0.00000000000E+00 -0.74505805969E-08  0.93827000000E+00  0.93827000000E+00 0.  1.
     999902    2    1    2    0    0 -0.91226494545E-02 -0.95660674044E-03 -0.73562032833E-02  0.10321719578E+01  0.10321049844E+01 0.  0.
     999903    2    3    3    0    0 -0.88877349140E-01  0.51717698306E-02 -0.10957083511E+00  0.14265175001E+00  0.20440730916E-01 0.  0.
         14    1    1    2    0    0  0.91226494545E-02  0.95660674044E-03  0.73562032833E-02  0.11758042195E-01  0.00000000000E+00 0.  1.
     999901    1    3    3    0    0  0.79754699686E-01 -0.61283765710E-02  0.10221463182E+00  0.88952020780E+00  0.88000000000E+00 0.  1.
        -11    1    4    4    0    0 -0.74438411162E-01  0.61084506735E-02 -0.78402580330E-01  0.10828488329E+00  0.51100000000E-03 0.  1.
         11    1    4    4    0    0 -0.14438937978E-01 -0.93668084288E-03 -0.31168254778E-01  0.34366866716E-01  0.51100000000E-03 0. -1.
</event>
<event>
 8    1  0.1162192E+005  0.1043930E+01  0.7957747E-01            NaN
         13   -1    0    0    0    0  0.00000000000E+00  0.00000000000E+00  0.74505805969E-08  0.10566000000E+00  0.10566000000E+00 0. -1.
     999900   -1    0    0    0    0 -0.00000000000E+00 -0.00000000000E+00 -0.74505805969E-08  0.93827000000E+00  0.93827000000E+00 0.  1.
     999902    2    1    2    0    0 -0.15665100424E-01 -0.14451862959E-02  0.17545019417E-01  0.10203649487E+01  0.10200927982E+01 0.  0.
     999903    2    3    3    0    0  0.43618298680E-02 -0.12256020974E+00  0.42631438580E-01  0.13148967331E+00  0.20786150681E-01 0.  0.
         14    1    1    2    0    0  0.15665100424E-01  0.14451862959E-02 -0.17545019417E-01  0.23565051264E-01  0.00000000000E+00 0.  1.
     999901    1    3    3    0    0 -0.20026930292E-01  0.12111502344E+00 -0.25086419164E-01  0.88887527543E+00  0.88000000000E+00 0. -1.
        -11    1    4    4    0    0 -0.34871162126E-02 -0.18142408016E-01  0.13703418882E-03  0.18482068268E-01  0.51100000000E-03 0. -1.
         11    1    4    4    0    0  0.78489460805E-02 -0.10441780172E+00  0.42494404392E-01  0.11300760504E+00  0.51100000000E-03 0.  1.
</event>
<event>
 8    1  0.1162192E+005  0.1043930E+01  0.7957747E-01            NaN
         13   -1    0    0    0    0  0.00000000000E+00  0.00000000000E+00  0.74505805969E-08  0.10566000000E+00  0.10566000000E+00 0.  1.
     999900   -1    0    0    0    0 -0.00000000000E+00 -0.00000000000E+00 -0.74505805969E-08  0.93827000000E+00  0.93827000000E+00 0.  1.
     999902    2    1    2    0    0  0.10222268472E-01  0.17343309426E-01 -0.12084325408E-01  0.10204498791E+01  0.10201797096E+01 0.  0.
     999903    2    3    3    0    0 -0.31339859703E-01  0.10583351201E+00  0.68370841594E-01  0.13138803634E+00  0.20132685898E-01 0.  0.
         14    1    1    2    0    0 -0.10222268472E-01 -0.17343309426E-01  0.12084325408E-01  0.23480120850E-01  0.00000000000E+00 0.  1.
     999901    1    3    3    0    0  0.41562128175E-01 -0.88490202582E-01 -0.80455167002E-01  0.88906184281E+00  0.88000000000E+00 0.  1.
        -11    1    4    4    0    0 -0.23924582983E-01  0.46752172856E-01  0.28895380530E-01  0.59944603383E-01  0.51100000000E-03 0.  1.
         11    1    4    4    0    0 -0.74152767200E-02  0.59081339152E-01  0.39475461063E-01  0.71443432952E-01  0.51100000000E-03 0. -1.
</event>
<event>
 8    1  0.1162192E+005  0.1043930E+01  0.7957747E-01            NaN
         13   -1    0    0    0    0  0.00000000000E+00  0.00000000000E+00  0.74505805969E-08  0.10566000000E+00  0.10566000000E+00 0.  1.
     999900   -1    0    0    0    0 -0.00000000000E+00 -0.00000000000E+00 -0.74505805969E-08  0.93827000000E+00  0.93827000000E+00 0.  1.
     999902    2    1    2    0    0  0.47665966052E-02 -0.21412412871E-01 -0.10011203333E-01  0.10198170147E+01  0.10195319060E+01 0.  0.
     999903    2    3    3    0    0  0.11747252236E-01  0.12375276911E+00  0.18877707771E-01  0.12742907843E+00  0.20713676161E-01 0.  0.
         14    1    1    2    0    0 -0.47665966052E-02  0.21412412871E-01  0.10011203333E-01  0.24112985305E-01  0.00000000000E+00 0.  1.
     999901    1    3    3    0    0 -0.69806556304E-02 -0.14516518198E+00 -0.28888911105E-01  0.89238793627E+00  0.88000000000E+00 0.  1.
        -11    1    4    4    0    0 -0.17201956441E-02  0.78958192153E-01  0.15848504992E-01  0.80553034782E-01  0.51100000000E-03 0. -1.
         11    1    4    4    0    0  0.13467447880E-01  0.44794576958E-01  0.30292027791E-02  0.46876043644E-01  0.51100000000E-03 0.  1.
</event>
<event>
 8    1  0.1162192E+005  0.1043930E+01  0.7957747E-01            NaN
         13   -1    0    0    0    0  0.00000000000E+00  0.00000000000E+00  0.74505805969E-08  0.10566000000E+00  0.10566000000E+00 0. -1.
     999900   -1    0    0    0    0 -0.00000000000E+00 -0.00000000000E+00 -0.74505805969E-08  0.93827000000E+00  0.93827000000E+00 0. -1.
     999902    2    1    2    0    0 -0.22041465649E-01 -0.47338368184E-02 -0.74842336870E-02  0.10201760704E+01  0.10198994879E+01 0.  0.
     999903    2    3    3    0    0 -0.49075124388E-01  0.67680768051E-01  0.98320911688E-01  0.13047419755E+00  0.19169255456E-01 0.  0.
         14    1    1    2    0    0  0.22041465649E-01  0.47338368184E-02  0.74842336870E-02  0.23753929630E-01  0.00000000000E+00 0. -1.
     999901    1    3    3    0    0  0.27033658739E-01 -0.72414604869E-01 -0.10580514537E+00  0.88970187282E+00  0.88000000000E+00 0. -1.
        -11    1    4    4    0    0 -0.23578264421E-01  0.25067838674E-01  0.27909952957E-01  0.44312048970E-01  0.51100000000E-03 0.  1.
         11    1    4    4    0    0 -0.25496859967E-01  0.42612929377E-01  0.70410958731E-01  0.86162148584E-01  0.51100000000E-03 0. -1.
</event>
<event>
 8    1  0.1162192E+005  0.1043930E+01  0.7957747E-01            NaN
         13   -1    0    0    0    0  0.00000000000E+00  0.00000000000E+00  0.74505805969E-08  0.10566000000E+00  0.10566000000E+00 0.  1.
     999900   -1    0    0    0    0 -0.00000000000E+00 -0.00000000000E+00 -0.74505805969E-08  0.93827000000E+00  0.93827000000E+00 0. -1.
     999902    2    1    2    0    0 -0.44912349436E-02  0.22770230809E-01  0.70462405698E-02  0.10196750189E+01  0.10193865018E+01 0.  0.
     999903    2    3    3    0    0  0.14930744921E-02 -0.90258006431E-01 -0.87254544070E-01  0.12742851015E+00  0.21815882803E-01 0.  0.
         14    1    1    2    0    0  0.44912349436E-02 -0.22770230809E-01 -0.70462405698E-02  0.24254981109E-01  0.00000000000E+00 0.  1.
     999901    1    3    3    0    0 -0.59843094357E-02  0.11302823724E+00  0.94300784640E-01  0.89224650874E+00  0.88000000000E+00 0.  1.
        -11    1    4    4    0    0 -0.64390437901E-02 -0.60167699907E-01 -0.47434042626E-01  0.76888639719E-01  0.51100000000E-03 0. -1.
         11    1    4    4    0    0  0.79321182822E-02 -0.30090306524E-01 -0.39820501444E-01  0.50539870433E-01  0.51100000000E-03 0.  1.
</event>
<event>
 8    1  0.1162192E+005  0.1043930E+01  0.7957747E-01            NaN
         13   -1    0    0    0    0  0.00000000000E+00  0.00000000000E+00  0.74505805969E-08  0.10566000000E+00  0.10566000000E+00 0. -1.
     999900   -1    0    0    0    0 -0.00000000000E+00 -0.00000000000E+00 -0.74505805969E-08  0.93827000000E+00  0.93827000000E+00 0.  1.
     999902    2    1    2    0    0  0.16857825329E-01 -0.10232470911E-01  0.13625672424E-01  0.10199602548E+01  0.10196785634E+01 0.  0.
     999903    2    3    3    0    0 -0.53143743668E-01 -0.32255154979E-01  0.11380444916E+00  0.13124151100E+00  0.20204678835E-01 0.  0.
         14    1    1    2    0    0 -0.16857825329E-01  0.10232470911E-01 -0.13625672424E-01  0.23969745196E-01  0.00000000000E+00 0.  1.
     999901    1    3    3    0    0  0.70001568996E-01  0.22022684068E-01 -0.10017877674E+00  0.88871874380E+00  0.88000000000E+00 0.  1.
        -11    1    4    4    0    0 -0.27233346293E-01 -0.95597647410E-02  0.68448953620E-01  0.74287042106E-01  0.51100000000E-03 0. -1.
         11    1    4    4    0    0 -0.25910397374E-01 -0.22695390238E-01  0.45355495544E-01  0.56954468896E-01  0.51100000000E-03 0.  1.
</event>
<event>
 8    1  0.1162192E+005  0.1043930E+01  0.7957747E-01            NaN
         13   -1    0    0    0    0  0.00000000000E+00  0.00000000000E+00  0.74505805969E-08  0.10566000000E+00  0.10566000000E+00 0.  1.
     999900   -1    0    0    0    0 -0.00000000000E+00 -0.00000000000E+00 -0.74505805969E-08  0.93827000000E+00  0.93827000000E+00 0.  1.
     999902    2    1    2    0    0  0.74398439114E-02  0.63232379865E-02 -0.21385745118E-01  0.10204207527E+01  0.10201499046E+01 0.  0.
     999903    2    3    3    0    0  0.23922683638E-01 -0.12589463561E+00  0.36914762297E-03  0.13012500098E+00  0.22597025115E-01 0.  0.
         14    1    1    2    0    0 -0.74398439114E-02 -0.63232379865E-02  0.21385745118E-01  0.23509247336E-01  0.00000000000E+00 0.  1.
     999901    1    3    3    0    0 -0.16482839727E-01  0.13221787359E+00 -0.21754892740E-01  0.89029575168E+00  0.88000000000E+00 0.  1.
        -11    1    4    4    0    0  0.20935461759E-01 -0.62646123383E-01 -0.67840518006E-02  0.66401165757E-01  0.51100000000E-03 0.  1.
         11    1    4    4    0    0  0.29872218789E-02 -0.63248512223E-01  0.71531994235E-02  0.63723835227E-01  0.51100000000E-03 0. -1.
</event>
<event>
 8    1  0.1162192E+005  0.1043930E+01  0.7957747E-01            NaN
         13   -1    0    0    0    0  0.00000000000E+00  0.00000000000E+00  0.74505805969E-08  0.10566000000E+00  0.10566000000E+00 0.  1.
     999900   -1    0    0    0    0 -0.00000000000E+00 -0.00000000000E+00 -0.74505805969E-08  0.93827000000E+00  0.93827000000E+00 0.  1.
     999902    2    1    2    0    0 -0.18322372376E-01  0.11825044548E-01  0.56667668813E-02  0.10213988381E+01  0.10211502991E+01 0.  0.
     999903    2    3    3    0    0 -0.93641364291E-01 -0.91719029342E-01  0.35523153134E-02  0.13213015169E+00  0.16268761260E-01 0.  0.
         14    1    1    2    0    0  0.18322372376E-01 -0.11825044548E-01 -0.56667668813E-02  0.22531161864E-01  0.00000000000E+00 0. -1.
     999901    1    3    3    0    0  0.75318991915E-01  0.10354407389E+00  0.21144515679E-02  0.88926868644E+00  0.88000000000E+00 0. -1.
        -11    1    4    4    0    0 -0.30318280235E-01 -0.36575957049E-01 -0.47701321561E-02  0.47749492482E-01  0.51100000000E-03 0. -1.
         11    1    4    4    0    0 -0.63323084056E-01 -0.55143072293E-01  0.83224474695E-02  0.84380659212E-01  0.51100000000E-03 0.  1.
</event>
<event>
 8    1  0.1162192E+005  0.1043930E+01  0.7957747E-01            NaN
         13   -1    0    0    0    0  0.00000000000E+00  0.00000000000E+00  0.74505805969E-08  0.10566000000E+00  0.10566000000E+00 0.  1.
     999900   -1    0    0    0    0 -0.00000000000E+00 -0.00000000000E+00 -0.74505805969E-08  0.93827000000E+00  0.93827000000E+00 0.  1.
     999902    2    1    2    0    0  0.84849862387E-02 -0.10911349303E-01 -0.17077983303E-01  0.10219593366E+01  0.10217231404E+01 0.  0.
     999903    2    3    3    0    0 -0.14927499156E-01  0.96319763121E-01  0.82884165264E-01  0.12952497653E+00  0.20164515744E-01 0.  0.
         14    1    1    2    0    0 -0.84849862387E-02  0.10911349303E-01  0.17077983303E-01  0.21970663367E-01  0.00000000000E+00 0. -1.
     999901    1    3    3    0    0  0.23412485395E-01 -0.10723111242E+00 -0.99962148566E-01  0.89243436010E+00  0.88000000000E+00 0.  1.
        -11    1    4    4    0    0 -0.47938050578E-02  0.67244069889E-01  0.66268323003E-01  0.94533048490E-01  0.51100000000E-03 0.  1.
         11    1    4    4    0    0 -0.10133694099E-01  0.29075693233E-01  0.16615842261E-01  0.34991928042E-01  0.51100000000E-03 0. -1.
</event>
<event>
 7    1  0.1162192E+005  0.1043930E+01  0.7957747E-01            NaN
         13   -1    0    0    0    0  0.00000000000E+00  0.00000000000E+00  0.74505805969E-08  0.10566000000E+00  0.10566000000E+00 0.  1.
     999900   -1    0    0    0    0 -0.00000000000E+00 -0.00000000000E+00 -0.74505805969E-08  0.93827000000E+00  0.93827000000E+00 0. -1.
     999903    2    1    2    0    0 -0.26663711646E-01  0.90476184862E-01 -0.59139997935E-01  0.11307277811E+00  0.19774231890E-01 0.  0.
         14    1    1    2    0    0  0.50520114234E-02  0.34539249956E-01 -0.16376855534E-01  0.38557541469E-01  0.00000000000E+00 0.  1.
     999901    1    1    2    0    0  0.21611700223E-01 -0.12501543482E+00  0.75516853469E-01  0.89229968043E+00  0.88000000000E+00 0. -1.
        -11    1    3    3    0    0 -0.65247854780E-02  0.20741339886E-01 -0.44763473214E-02  0.22205287932E-01  0.51100000000E-03 0.  1.
         11    1    3    3    0    0 -0.20138926168E-01  0.69734844976E-01 -0.54663650614E-01  0.90867490173E-01  0.51100000000E-03 0. -1.
</event>
<event>
 8    1  0.1162192E+005  0.1043930E+01  0.7957747E-01            NaN
         13   -1    0    0    0    0  0.00000000000E+00  0.00000000000E+00  0.74505805969E-08  0.10566000000E+00  0.10566000000E+00 0. -1.
     999900   -1    0    0    0    0 -0.00000000000E+00 -0.00000000000E+00 -0.74505805969E-08  0.93827000000E+00  0.93827000000E+00 0.  1.
     999902    2    1    2    0    0 -0.73029270492E-03 -0.77086267210E-02  0.22384027346E-01  0.10202445417E+01  0.10199695701E+01 0.  0.
     999903    2    3    3    0    0  0.92349868503E-01  0.79771431564E-01 -0.36853735332E-01  0.12905107814E+00  0.20099837207E-01 0.  0.
         14    1    1    2    0    0  0.73029270492E-03  0.77086267210E-02 -0.22384027346E-01  0.23685458273E-01  0.00000000000E+00 0.  1.
     999901    1    3    3    0    0 -0.93080161208E-01 -0.87480058285E-01  0.59237762677E-01  0.89119346358E+00  0.88000000000E+00 0. -1.
        -11    1    4    4    0    0  0.10339628025E-01  0.41994871141E-02  0.11531232248E-02  0.11230957834E-01  0.51100000000E-03 0.  1.
         11    1    4    4    0    0  0.82010240479E-01  0.75571944449E-01 -0.38006858556E-01  0.11782012031E+00  0.51100000000E-03 0. -1.
</event>
<event>
 8    1  0.1162192E+005  0.1043930E+01  0.7957747E-01            NaN
         13   -1    0    0    0    0  0.00000000000E+00  0.00000000000E+00  0.74505805969E-08  0.10566000000E+00  0.10566000000E+00 0.  1.
     999900   -1    0    0    0    0 -0.00000000000E+00 -0.00000000000E+00 -0.74505805969E-08  0.93827000000E+00  0.93827000000E+00 0.  1.
     999902    2    1    2    0    0 -0.19181671191E-01  0.15181156641E-01 -0.11425846240E-02  0.10194410326E+01  0.10191468537E+01 0.  0.
     999903    2    3    3    0    0 -0.10980871156E+00 -0.40619199283E-01  0.55834046501E-01  0.13119935562E+00  0.19696641354E-01 0.  0.
         14    1    1    2    0    0  0.19181671191E-01 -0.15181156641E-01  0.11425846240E-02  0.24488967440E-01  0.00000000000E+00 0.  1.
     999901    1    3    3    0    0  0.90627040367E-01  0.55800355924E-01 -0.56976631125E-01  0.88824167694E+00  0.88000000000E+00 0. -1.
        -11    1    4    4    0    0 -0.38444030563E-01 -0.83669011733E-02  0.27107879732E-01  0.47781238847E-01  0.51100000000E-03 0.  1.
         11    1    4    4    0    0 -0.71364680995E-01 -0.32252298109E-01  0.28726166769E-01  0.83418116768E-01  0.51100000000E-03 0. -1.
</event>
<event>
 8    1  0.1162192E+005  0.1043930E+01  0.7957747E-01            NaN
         13   -1    0    0    0    0  0.00000000000E+00  0.00000000000E+00  0.74505805969E-08  0.10566000000E+00  0.10566000000E+00 0.  1.
     999900   -1    0    0    0    0 -0.00000000000E+00 -0.00000000000E+00 -0.74505805969E-08  0.93827000000E+00  0.93827000000E+00 0. -1.
     999902    2    1    2    0    0 -0.33532357551E-02  0.22751950075E-01 -0.55712676065E-02  0.10202670660E+01  0.10199926233E+01 0.  0.
     999903    2    3    3    0    0 -0.84636315580E-01 -0.91027132808E-01 -0.29108784726E-01  0.12891605015E+00  0.17966129668E-01 0.  0.
         14    1    1    2    0    0  0.33532357551E-02 -0.22751950075E-01  0.55712676065E-02  0.23662933989E-01  0.00000000000E+00 0.  1.
     999901    1    3    3    0    0  0.81283079825E-01  0.11377908288E+00  0.23537517120E-01  0.89135101586E+00  0.88000000000E+00 0.  1.
        -11    1    4    4    0    0 -0.22140491621E-01 -0.30612446597E-01 -0.18951127913E-02  0.37830884596E-01  0.51100000000E-03 0. -1.
         11    1    4    4    0    0 -0.62495823959E-01 -0.60414686211E-01 -0.27213671935E-01  0.91085165551E-01  0.51100000000E-03 0.  1.
</event>
<event>
 8    1  0.1162192E+005  0.1043930E+01  0.7957747E-01            NaN
         13   -1    0    0    0    0  0.00000000000E+00  0.00000000000E+00  0.74505805969E-08  0.10566000000E+00  0.10566000000E+00 0.  1.
     999900   -1    0    0    0    0 -0.00000000000E+00 -0.00000000000E+00 -0.74505805969E-08  0.93827000000E+00  0.93827000000E+00 0.  1.
     999902    2    1    2    0    0  0.96655454233E-02  0.17322047203E-01 -0.90055814546E-02  0.10221452213E+01  0.10219130475E+01 0.  0.
     999903    2    3    3    0    0  0.37806444706E-01 -0.84155955471E-01 -0.92201191890E-01  0.13197040425E+00  0.20089193825E-01 0.  0.
         14    1    1    2    0    0 -0.96655454233E-02 -0.17322047203E-01  0.90055814546E-02  0.21784778745E-01  0.00000000000E+00 0.  1.
     999901    1    3    3    0    0 -0.28140899283E-01  0.10147800267E+00  0.83195610435E-01  0.89017481701E+00  0.88000000000E+00 0. -1.
        -11    1    4    4    0    0  0.32034145986E-02 -0.16219913330E-01 -0.79807939709E-02  0.18365773791E-01  0.51100000000E-03 0. -1.
         11    1    4    4    0    0  0.34603030107E-01 -0.67936042141E-01 -0.84220397919E-01  0.11360463046E+00  0.51100000000E-03 0.  1.
</event>
<event>
 8    1  0.1162192E+005  0.1043930E+01  0.7957747E-01            NaN
         13   -1    0    0    0    0  0.00000000000E+00  0.00000000000E+00  0.74505805969E-08  0.10566000000E+00  0.10566000000E+00 0.  1.
     999900   -1    0    0    0    0 -0.00000000000E+00 -0.00000000000E+00 -0.74505805969E-08  0.93827000000E+00  0.93827000000E+00 0. -1.
     999902    2    1    2    0    0 -0.12770113451E-01  0.18918754249E-01  0.51400974609E-02  0.10205330844E+01  0.10202648483E+01 0.  0.
     999903    2    3    3    0    0 -0.88193034177E-01 -0.27014792548E-01  0.92122649218E-01  0.13184614735E+00  0.19723432209E-01 0.  0.
         14    1    1    2    0    0  0.12770113451E-01 -0.18918754249E-01 -0.51400974609E-02  0.23396915647E-01  0.00000000000E+00 0. -1.
     999901    1    3    3    0    0  0.75422920725E-01  0.45933546796E-01 -0.86982551757E-01  0.88868693700E+00  0.88000000000E+00 0. -1.
        -11    1    4    4    0    0 -0.62170255004E-01 -0.19548272263E-01  0.51684181466E-01  0.83179272000E-01  0.51100000000E-03 0. -1.
         11    1    4    4    0    0 -0.26022779173E-01 -0.74665202841E-02  0.40438467752E-01  0.48666875349E-01  0.51100000000E-03 0.  1.
</event>
<event>
 8    1  0.1162192E+005  0.1043930E+01  0.7957747E-01            NaN
         13   -1    0    0    0    0  0.00000000000E+00  0.00000000000E+00  0.74505805969E-08  0.10566000000E+00  0.10566000000E+00 0.  1.
     999900   -1    0    0    0    0 -0.00000000000E+00 -0.00000000000E+00 -0.74505805969E-08  0.93827000000E+00  0.93827000000E+00 0.  1.
     999902    2    1    2    0    0 -0.24380841253E-01  0.15387389828E-03 -0.15639610896E-02  0.10194985639E+01  0.10192057823E+01 0.  0.
     999903    2    3    3    0    0 -0.27365886329E-01 -0.12175496108E+00 -0.35637981588E-01  0.13043629753E+00  0.13053723571E-01 0.  0.
         14    1    1    2    0    0  0.24380841253E-01 -0.15387389828E-03  0.15639610896E-02  0.24431436136E-01  0.00000000000E+00 0. -1.
     999901    1    3    3    0    0  0.29850450759E-02  0.12190883498E+00  0.34074020498E-01  0.88906226633E+00  0.88000000000E+00 0. -1.
        -11    1    4    4    0    0 -0.19639285870E-01 -0.10691103162E+00 -0.29905624648E-01  0.11273986756E+00  0.51100000000E-03 0. -1.
         11    1    4    4    0    0 -0.77266004586E-02 -0.14843929469E-01 -0.57323569396E-02  0.17696429974E-01  0.51100000000E-03 0.  1.
</event>
<event>
 8    1  0.1162192E+005  0.1043930E+01  0.7957747E-01            NaN
         13   -1    0    0    0    0  0.00000000000E+00  0.00000000000E+00  0.74505805969E-08  0.10566000000E+00  0.10566000000E+00 0.  1.
     999900   -1    0    0    0    0 -0.00000000000E+00 -0.00000000000E+00 -0.74505805969E-08  0.93827000000E+00  0.93827000000E+00 0.  1.
     999902    2    1    2    0    0 -0.57710634382E-02  0.19762921500E-01  0.12010598852E-01  0.10200944651E+01  0.10198159564E+01 0.  0.
     999903    2    3    3    0    0  0.73760064375E-01  0.82672045393E-01  0.69170349886E-01  0.13242899021E+00  0.21856027982E-01 0.  0.
         14    1    1    2    0    0  0.57710634382E-02 -0.19762921500E-01 -0.12010598852E-01  0.23835534905E-01  0.00000000000E+00 0. -1.
     999901    1    3    3    0    0 -0.79531127814E-01 -0.62909123893E-01 -0.57159751035E-01  0.88766547488E+00  0.88000000000E+00 0.  1.
        -11    1    4    4    0    0  0.39438845202E-01  0.59861897453E-01  0.45336338705E-01  0.84820481051E-01  0.51100000000E-03 0. -1.
         11    1    4    4    0    0  0.34321219173E-01  0.22810147940E-01  0.23834011181E-01  0.47608509161E-01  0.51100000000E-03 0.  1.
</event>
<event>
 8    1  0.1162192E+005  0.1043930E+01  0.7957747E-01            NaN
         13   -1    0    0    0    0  0.00000000000E+00  0.00000000000E+00  0.74505805969E-08  0.10566000000E+00  0.10566000000E+00 0.  1.
     999900   -1    0    0    0    0 -0.00000000000E+00 -0.00000000000E+00 -0.74505805969E-08  0.93827000000E+00  0.93827000000E+00 0.  1.
     999902    2    1    2    0    0  0.15290602955E-01 -0.10988908892E-01 -0.15058014973E-01  0.10198197849E+01  0.10195347425E+01 0.  0.
     999903    2    3    3    0    0  0.61313822283E-01 -0.10713055691E+00 -0.45016310671E-01  0.13288187688E+00  0.19869170848E-01 0.  0.
         14    1    1    2    0    0 -0.15290602955E-01  0.10988908892E-01  0.15058014973E-01  0.24110215102E-01  0.00000000000E+00 0.  1.
     999901    1    3    3    0    0 -0.46023219328E-01  0.96141648015E-01  0.29958295698E-01  0.88693790802E+00  0.88000000000E+00 0.  1.
        -11    1    4    4    0    0  0.25117973460E-01 -0.38134302599E-01 -0.70463060931E-02  0.46206592344E-01  0.51100000000E-03 0.  1.
         11    1    4    4    0    0  0.36195848822E-01 -0.68996254308E-01 -0.37970004578E-01  0.86675284534E-01  0.51100000000E-03 0. -1.
</event>
<event>
 8    1  0.1162192E+005  0.1043930E+01  0.7957747E-01            NaN
         13   -1    0    0    0    0  0.00000000000E+00  0.00000000000E+00  0.74505805969E-08  0.10566000000E+00  0.10566000000E+00 0. -1.
     999900   -1    0    0    0    0 -0.00000000000E+00 -0.00000000000E+00 -0.74505805969E-08  0.93827000000E+00  0.93827000000E+00 0.  1.
     999902    2    1    2    0    0 -0.14615437238E-01  0.32693580781E-02  0.18097881782E-01  0.10204388733E+01  0.10201684474E+01 0.  0.
     999903    2    3    3    0    0  0.50650357036E-01 -0.11053689117E+00 -0.37553709777E-01  0.12897458019E+00  0.20983284782E-01 0.  0.
         14    1    1    2    0    0  0.14615437238E-01 -0.32693580781E-02 -0.18097881782E-01  0.23491126684E-01  0.00000000000E+00 0.  1.
     999901    1    3    3    0    0 -0.65265794274E-01  0.11380624925E+00  0.55651591559E-01  0.89146429312E+00  0.88000000000E+00 0.  1.
        -11    1    4    4    0    0  0.26069823189E-01 -0.76017032291E-01 -0.30774614387E-01  0.86055580244E-01  0.51100000000E-03 0. -1.
         11    1    4    4    0    0  0.24580533847E-01 -0.34519858880E-01 -0.67790953902E-02  0.42918999949E-01  0.51100000000E-03 0.  1.
</event>
<event>
 8    1  0.1162192E+005  0.1043930E+01  0.7957747E-01            NaN
         13   -1    0    0    0    0  0.00000000000E+00  0.00000000000E+00  0.74505805969E-08  0.10566000000E+00  0.10566000000E+00 0. -1.
     999900   -1    0    0    0    0 -0.00000000000E+00 -0.00000000000E+00 -0.74505805969E-08  0.93827000000E+00  0.93827000000E+00 0.  1.
     999902    2    1    2    0    0 -0.17280658650E-01  0.14405406203E-01  0.68863006130E-02  0.10204021861E+01  0.10201309050E+01 0.  0.
     999903    2    3    3    0    0  0.26419989492E-01 -0.67488241078E-01  0.10604701609E+00  0.12998140713E+00  0.19912760973E-01 0.  0.
         14    1    1    2    0    0  0.17280658650E-01 -0.14405406203E-01 -0.68863006130E-02  0.23527813910E-01  0.00000000000E+00 0.  1.
     999901    1    3    3    0    0 -0.43700648142E-01  0.81893647281E-01 -0.99160715474E-01  0.89042077896E+00  0.88000000000E+00 0.  1.
        -11    1    4    4    0    0  0.20271639567E-01 -0.35206260341E-01  0.71914460185E-01  0.82597644292E-01  0.51100000000E-03 0. -1.
         11    1    4    4    0    0  0.61483499247E-02 -0.32281980737E-01  0.34132555902E-01  0.47383762836E-01  0.51100000000E-03 0.  1.
</event>
<event>
 8    1  0.1162192E+005  0.1043930E+01  0.7957747E-01            NaN
         13   -1    0    0    0    0  0.00000000000E+00  0.00000000000E+00  0.74505805969E-08  0.10566000000E+00  0.10566000000E+00 0.  1.
     999900   -1    0    0    0    0 -0.00000000000E+00 -0.00000000000E+00 -0.74505805969E-08  0.93827000000E+00  0.93827000000E+00 0. -1.
     999902    2    1    2    0    0  0.14257981125E-01  0.19895289614E-01  0.58377846601E-02  0.10187666873E+01  0.10184558758E+01 0.  0.
     999903    2    3    3    0    0 -0.40198606117E-01  0.12320685614E+00  0.63046045168E-02  0.13105106981E+00  0.18405910100E-01 0.  0.
         14    1    1    2    0    0 -0.14257981125E-01 -0.19895289614E-01 -0.58377846601E-02  0.25163312666E-01  0.00000000000E+00 0.  1.
     999901    1    3    3    0    0  0.54456587242E-01 -0.10331156653E+00 -0.46681985674E-03  0.88771561752E+00  0.88000000000E+00 0.  1.
        -11    1    4    4    0    0 -0.30595612205E-02  0.33539534770E-01 -0.12148413062E-02  0.33704573397E-01  0.51100000000E-03 0. -1.
         11    1    4    4    0    0 -0.37139044897E-01  0.89667321372E-01  0.75194458231E-02  0.97346496415E-01  0.51100000000E-03 0.  1.
</event>
<event>
 8    1  0.1162192E+005  0.1043930E+01  0.7957747E-01            NaN
         13   -1    0    0    0    0  0.00000000000E+00  0.00000000000E+00  0.74505805969E-08  0.10566000000E+00  0.10566000000E+00 0. -1.
     999900   -1    0    0    0    0 -0.00000000000E+00 -0.00000000000E+00 -0.74505805969E-08  0.93827000000E+00  0.93827000000E+00 0.  1.
     999902    2    1    2    0    0 -0.15752859027E-01 -0.13049585504E-01 -0.28637564077E-02  0.10232746048E+01  0.10230661130E+01 0.  0.
     999903    2    3    3    0    0 -0.12533550969E+00  0.17925380535E-01 -0.42444582531E-01  0.13505478538E+00  0.20197604093E-01 0.  0.
         14    1    1    2    0    0  0.15752859027E-01  0.13049585504E-01  0.28637564077E-02  0.20655395182E-01  0.00000000000E+00 0.  1.
     999901    1    3    3    0    0  0.10958265066E+00 -0.30974966040E-01  0.39580826123E-01  0.88821981944E+00  0.88000000000E+00 0. -1.
        -11    1    4    4    0    0 -0.76746256521E-01  0.50568670978E-02 -0.17240521024E-01  0.78822943875E-01  0.51100000000E-03 0. -1.
         11    1    4    4    0    0 -0.48589253168E-01  0.12868513438E-01 -0.25204061507E-01  0.56231841505E-01  0.51100000000E-03 0.  1.
</event>
<event>
 8    1  0.1162192E+005  0.1043930E+01  0.7957747E-01            NaN
         13   -1    0    0    0    0  0.00000000000E+00  0.00000000000E+00  0.74505805969E-08  0.10566000000E+00  0.10566000000E+00 0. -1.
     999900   -1    0    0    0    0 -0.00000000000E+00 -0.00000000000E+00 -0.74505805969E-08  0.93827000000E+00  0.93827000000E+00 0.  1.
     999902    2    1    2    0    0 -0.15049365885E-01 -0.19232666591E-05 -0.15401553287E-01  0.10223965084E+01  0.10221697164E+01 0.  0.
     999903    2    3    3    0    0  0.53188417301E-01  0.95099502033E-01 -0.72437226358E-01  0.13281585204E+00  0.22802977199E-01 0.  0.
         14    1    1    2    0    0  0.15049365885E-01  0.19232666591E-05  0.15401553287E-01  0.21533491609E-01  0.00000000000E+00 0. -1.
     999901    1    3    3    0    0 -0.68237783186E-01 -0.95101425300E-01  0.57035673072E-01  0.88958065635E+00  0.88000000000E+00 0.  1.
        -11    1    4    4    0    0  0.33835453980E-01  0.37603345376E-01 -0.35247866085E-01  0.61656489634E-01  0.51100000000E-03 0. -1.
         11    1    4    4    0    0  0.19352963321E-01  0.57496156657E-01 -0.37189360274E-01  0.71159362407E-01  0.51100000000E-03 0.  1.
</event>
<event>
 7    1  0.1162192E+005  0.1043930E+01  0.7957747E-01            NaN
         13   -1    0    0    0    0  0.00000000000E+00  0.00000000000E+00  0.74505805969E-08  0.10566000000E+00  0.10566000000E+00 0.  1.
     999900   -1    0    0    0    0 -0.00000000000E+00 -0.00000000000E+00 -0.74505805969E-08  0.93827000000E+00  0.93827000000E+00 0.  1.
     999902    2    1    2    0    0 -0.16024453993E-03 -0.23354719855E-01 -0.11890620750E-02  0.10205444813E+01  0.10202765095E+01 0.  0.
         14    1    1    2    0    0  0.16024453993E-03  0.23354719855E-01  0.11890620750E-02  0.23385518733E-01  0.00000000000E+00 0.  1.
     999901    1    3    3    0    0 -0.20012951616E-01  0.93517679827E-01  0.80834053510E-02  0.88521828727E+00  0.88000000000E+00 0. -1.
        -11    1    3    3    0    0  0.14417846030E-02 -0.61339762548E-01  0.26404785582E-01  0.66799094567E-01  0.51100000000E-03 0.  1.
         11    1    3    3    0    0  0.18410922474E-01 -0.55532637133E-01 -0.35677253008E-01  0.68527099432E-01  0.51100000000E-03 0. -1.
</event>
<event>
 8    1  0.1162192E+005  0.1043930E+01  0.7957747E-01            NaN
         13   -1    0    0    0    0  0.00000000000E+00  0.00000000000E+00  0.74505805969E-08  0.10566000000E+00  0.10566000000E+00 0.  1.
     999900   -1    0    0    0    0 -0.00000000000E+00 -0.00000000000E+00 -0.74505805969E-08  0.93827000000E+00  0.93827000000E+00 0.  1.
     999902    2    1    2    0    0 -0.15457678023E-01  0.11825948855E-02 -0.17892132499E-01  0.10202558211E+01  0.10199811144E+01 0.  0.
     999903    2    3    3    0    0 -0.67348172663E-01  0.75593987788E-01 -0.84155427327E-01  0.13311406070E+00  0.19672057772E-01 0.  0.
         14    1    1    2    0    0  0.15457678023E-01 -0.11825948855E-02  0.17892132499E-01  0.23674178886E-01  0.00000000000E+00 0.  1.
     999901    1    3    3    0    0  0.51890494640E-01 -0.74411392903E-01  0.66263294827E-01  0.88714176041E+00  0.88000000000E+00 0. -1.
        -11    1    4    4    0    0 -0.36789106020E-01  0.55040536495E-01 -0.56857646165E-01  0.87269422066E-01  0.51100000000E-03 0.  1.
         11    1    4    4    0    0 -0.30559066644E-01  0.20553451293E-01 -0.27297781162E-01  0.45844638635E-01  0.51100000000E-03 0. -1.
</event>
<event>
 8    1  0.1162192E+005  0.1043930E+01  0.7957747E-01            NaN
         13   -1    0    0    0    0  0.00000000000E+00  0.00000000000E+00  0.74505805969E-08  0.10566000000E+00  0.10566000000E+00 0.  1.
     999900   -1    0    0    0    0 -0.00000000000E+00 -0.00000000000E+00 -0.74505805969E-08  0.93827000000E+00  0.93827000000E+00 0. -1.
     999902    2    1    2    0    0  0.20985069183E-01  0.10566123602E-01  0.17349309439E-02  0.10203710085E+01  0.10200989995E+01 0.  0.
     999903    2    3    3    0    0  0.12287339783E+00 -0.42544841155E-01  0.17638551494E-01  0.13275908243E+00  0.20147458095E-01 0.  0.
         14    1    1    2    0    0 -0.20985069183E-01 -0.10566123602E-01 -0.17349309439E-02  0.23558991531E-01  0.00000000000E+00 0.  1.
     999901    1    3    3    0    0 -0.10188832864E+00  0.53110964757E-01 -0.15903620550E-01  0.88761192603E+00  0.88000000000E+00 0. -1.
        -11    1    4    4    0    0  0.55379022320E-01 -0.29806508361E-01  0.87296982375E-02  0.63495927476E-01  0.51100000000E-03 0. -1.
         11    1    4    4    0    0  0.67494375507E-01 -0.12738332794E-01  0.89088532563E-02  0.69263154958E-01  0.51100000000E-03 0.  1.
</event>
<event>
 8    1  0.1162192E+005  0.1043930E+01  0.7957747E-01            NaN
         13   -1    0    0    0    0  0.00000000000E+00  0.00000000000E+00  0.74505805969E-08  0.10566000000E+00  0.10566000000E+00 0. -1.
     999900   -1    0    0    0    0 -0.00000000000E+00 -0.00000000000E+00 -0.74505805969E-08  0.93827000000E+00  0.93827000000E+00 0.  1.
     999902    2    1    2    0    0  0.15825968784E-01  0.10088740587E-02  0.18702399770E-01  0.10194094194E+01  0.10191144713E+01 0.  0.
     999903    2    3    3    0    0  0.10313796100E+00  0.71553230559E-01  0.36344697070E-01  0.13210386840E+00  0.19318158266E-01 0.  0.
         14    1    1    2    0    0 -0.15825968784E-01 -0.10088740587E-02 -0.18702399770E-01  0.24520580580E-01  0.00000000000E+00 0. -1.
     999901    1    3    3    0    0 -0.87311992213E-01 -0.70544356500E-01 -0.17642297300E-01  0.88730555102E+00  0.88000000000E+00 0.  1.
        -11    1    4    4    0    0  0.93455185468E-01  0.61134832280E-01  0.26438048277E-01  0.11476310786E+00  0.51100000000E-03 0.  1.
         11    1    4    4    0    0  0.96827755294E-02  0.10418398279E-01  0.99066487929E-02  0.17340760536E-01  0.51100000000E-03 0. -1.
</event>
<event>
 8    1  0.1162192E+005  0.1043930E+01  0.7957747E-01            NaN
         13   -1    0    0    0    0  0.00000000000E+00  0.00000000000E+00  0.74505805969E-08  0.10566000000E+00  0.10566000000E+00 0.  1.
     999900   -1    0    0    0    0 -0.00000000000E+00 -0.00000000000E+00 -0.74505805969E-08  0.93827000000E+00  0.93827000000E+00 0.  1.
     999902    2    1    2    0    0 -0.14511307799E-02  0.23119726619E-01  0.21806883630E-02  0.10206623628E+01  0.10203971168E+01 0.  0.
     999903    2    3    3    0    0 -0.41201906330E-02 -0.12219072984E+00  0.33201295393E-01  0.12820254258E+00  0.19647276594E-01 0.  0.
         14    1    1    2    0    0  0.14511307799E-02 -0.23119726619E-01 -0.21806883630E-02  0.23267637208E-01  0.00000000000E+00 0.  1.
     999901    1    3    3    0    0  0.26690598532E-02  0.14531045646E+00 -0.31020607030E-01  0.89245982021E+00  0.88000000000E+00 0.  1.
        -11    1    4    4    0    0 -0.11907542033E-01 -0.67250911058E-01  0.19908448978E-01  0.71141282369E-01  0.51100000000E-03 0. -1.
         11    1    4    4    0    0  0.77873513997E-02 -0.54939818784E-01  0.13292846415E-01  0.57061260209E-01  0.51100000000E-03 0.  1.
</event>
<event>
 8    1  0.1162192E+005  0.1043930E+01  0.7957747E-01            NaN
         13   -1    0    0    0    0  0.00000000000E+00  0.00000000000E+00  0.74505805969E-08  0.10566000000E+00  0.10566000000E+00 0. -1.
     999900   -1    0    0    0    0 -0.00000000000E+00 -0.00000000000E+00 -0.74505805969E-08  0.93827000000E+00  0.93827000000E+00 0. -1.
     999902    2    1    2    0    0 -0.99088329478E-03 -0.22153356830E-01  0.98170987213E-02  0.10196786393E+01  0.10193902094E+01 0.  0.
     999903    2    3    3    0    0  0.11737075721E+00 -0.45714803955E-01 -0.28439998800E-01  0.13061833468E+00  0.19661583764E-01 0.  0.
         14    1    1    2    0    0  0.99088329478E-03  0.22153356830E-01 -0.98170987213E-02  0.24251360701E-01  0.00000000000E+00 0. -1.
     999901    1    3    3    0    0 -0.11836164050E+00  0.23561447125E-01  0.38257097521E-01  0.88906030462E+00  0.88000000000E+00 0.  1.
        -11    1    4    4    0    0  0.42025788875E-01 -0.25051590977E-01 -0.16174217341E-01  0.51532665065E-01  0.51100000000E-03 0. -1.
         11    1    4    4    0    0  0.75344968330E-01 -0.20663212978E-01 -0.12265781458E-01  0.79085669619E-01  0.51100000000E-03 0.  1.
</event>
<event>
 8    1  0.1162192E+005  0.1043930E+01  0.7957747E-01            NaN
         13   -1    0    0    0    0  0.00000000000E+00  0.00000000000E+00  0.74505805969E-08  0.10566000000E+00  0.10566000000E+00 0.  1.
     999900   -1    0    0    0    0 -0.00000000000E+00 -0.00000000000E+00 -0.74505805969E-08  0.93827000000E+00  0.93827000000E+00 0. -1.
     999902    2    1    2    0    0 -0.35767472823E-02 -0.14772007786E-01 -0.17098422266E-01  0.10210529071E+01  0.10207965898E+01 0.  0.
     999903    2    3    3    0    0 -0.10753245647E+00 -0.75604837777E-01  0.65300365067E-03  0.13267093082E+00  0.17939586951E-01 0.  0.
         14    1    1    2    0    0  0.35767472823E-02  0.14772007786E-01  0.17098422266E-01  0.22877092891E-01  0.00000000000E+00 0.  1.
     999901    1    3    3    0    0  0.10395570919E+00  0.60832829991E-01 -0.17751425917E-01  0.88838197629E+00  0.88000000000E+00 0. -1.
        -11    1    4    4    0    0 -0.96051866886E-01 -0.62372993913E-01  0.49198111928E-02  0.11463340336E+00  0.51100000000E-03 0.  1.
         11    1    4    4    0    0 -0.11480589585E-01 -0.13231843864E-01 -0.42668075421E-02  0.18037527460E-01  0.51100000000E-03 0. -1.
</event>
<event>
 8    1  0.1162192E+005  0.1043930E+01  0.7957747E-01            NaN
         13   -1    0    0    0    0  0.00000000000E+00  0.00000000000E+00  0.74505805969E-08  0.10566000000E+00  0.10566000000E+00 0. -1.
     999900   -1    0    0    0    0 -0.00000000000E+00 -0.00000000000E+00 -0.74505805969E-08  0.93827000000E+00  0.93827000000E+00 0. -1.
     999902    2    1    2    0    0 -0.25855401236E-01 -0.27338382841E-02  0.19348341085E-01  0.10115211440E+01  0.10110018253E+01 0.  0.
     999903    2    3    3    0    0  0.94368731953E-01 -0.64911365519E-01 -0.29047777031E-01  0.11985861179E+00  0.20084086364E-01 0.  0.
         14    1    1    2    0    0  0.25855401236E-01  0.27338382841E-02 -0.19348341085E-01  0.32408856006E-01  0.00000000000E+00 0. -1.
     999901    1    3    3    0    0 -0.12022413319E+00  0.62177527235E-01  0.48396118116E-01  0.89166253221E+00  0.88000000000E+00 0.  1.
        -11    1    4    4    0    0  0.14984930655E-01 -0.20119966782E-01 -0.76211526613E-02  0.26224116743E-01  0.51100000000E-03 0.  1.
         11    1    4    4    0    0  0.79383801298E-01 -0.44791398737E-01 -0.21426624369E-01  0.93634495044E-01  0.51100000000E-03 0. -1.
</event>
<event>
 8    1  0.1162192E+005  0.1043930E+01  0.7957747E-01            NaN
         13   -1    0    0    0    0  0.00000000000E+00  0.00000000000E+00  0.74505805969E-08  0.10566000000E+00  0.10566000000E+00 0. -1.
     999900   -1    0    0    0    0 -0.00000000000E+00 -0.00000000000E+00 -0.74505805969E-08  0.93827000000E+00  0.93827000000E+00 0. -1.
     999902    2    1    2    0    0  0.19706257645E-02  0.19398241801E-01 -0.83930508797E-02  0.10227022245E+01  0.10224818930E+01 0.  0.
     999903    2    3    3    0    0  0.82105513273E-01  0.46716688440E-01  0.91515606171E-01  0.13301147063E+00  0.19828788581E-01 0.  0.
         14    1    1    2    0    0 -0.19706257645E-02 -0.19398241801E-01  0.83930508797E-02  0.21227775530E-01  0.00000000000E+00 0. -1.
     999901    1    3    3    0    0 -0.80134887509E-01 -0.27318446640E-01 -0.99908657051E-01  0.88969075384E+00  0.88000000000E+00 0. -1.
        -11    1    4    4    0    0  0.73834337516E-01  0.44088249707E-01  0.73983012105E-01  0.11344174875E+00  0.51100000000E-03 0. -1.
         11    1    4    4    0    0  0.82711757573E-02  0.26284387337E-02  0.17532594066E-01  0.19569721875E-01  0.51100000000E-03 0.  1.
</event>
<event>
 8    1  0.1162192E+005  0.1043930E+01  0.7957747E-01            NaN
         13   -1    0    0    0    0  0.00000000000E+00  0.00000000000E+00  0.74505805969E-08  0.10566000000E+00  0.10566000000E+00 0.  1.
     999900   -1    0    0    0    0 -0.00000000000E+00 -0.00000000000E+00 -0.74505805969E-08  0.93827000000E+00  0.93827000000E+00 0.  1.
     999902    2    1    2    0    0  0.13108936662E-01 -0.11946003544E-01 -0.13276434672E-01  0.10217756564E+01  0.10215354508E+01 0.  0.
     999903    2    3    3    0    0 -0.82362704573E-01 -0.84646969300E-01  0.53170468293E-01  0.13114921644E+00  0.20598392146E-01 0.  0.
         14    1    1    2    0    0 -0.13108936662E-01  0.11946003544E-01  0.13276434672E-01  0.22154343563E-01  0.00000000000E+00 0. -1.
     999901    1    3    3    0    0  0.95471641235E-01  0.72700965756E-01 -0.66446902966E-01  0.89062643999E+00  0.88000000000E+00 0. -1.
        -11    1    4    4    0    0 -0.15657155787E-01 -0.26152140315E-01  0.76450552445E-02  0.31429110091E-01  0.51100000000E-03 0. -1.
         11    1    4    4    0    0 -0.66705548785E-01 -0.58494828985E-01  0.45525413049E-01  0.99720106353E-01  0.51100000000E-03 0.  1.
</event>
<event>
 8    1  0.1162192E+005  0.1043930E+01  0.7957747E-01            NaN
         13   -1    0    0    0    0  0.00000000000E+00  0.00000000000E+00  0.74505805969E-08  0.10566000000E+00  0.10566000000E+00 0. -1.
     999900   -1    0    0    0    0 -0.00000000000E+00 -0.00000000000E+00 -0.74505805969E-08  0.93827000000E+00  0.93827000000E+00 0. -1.
     999902    2    1    2    0    0 -0.72887976854E-02  0.10551319262E-01 -0.19438155981E-01  0.10206426898E+01  0.10203769898E+01 0.  0.
     999903    2    3    3    0    0 -0.62062395585E-01  0.11469413031E+00  0.10624594697E-01  0.13230174109E+00  0.19605718812E-01 0.  0.
         14    1    1    2    0    0  0.72887976854E-02 -0.10551319262E-01  0.19438155981E-01  0.23287310231E-01  0.00000000000E+00 0. -1.
     999901    1    3    3    0    0  0.54773597899E-01 -0.10414281105E+00 -0.30062750678E-01  0.88834094868E+00  0.88000000000E+00 0. -1.
        -11    1    4    4    0    0 -0.15494558855E-01  0.13888286033E-01  0.90549322448E-03  0.20833791830E-01  0.51100000000E-03 0.  1.
         11    1    4    4    0    0 -0.46567836730E-01  0.10080584428E+00  0.97191014726E-02  0.11146794926E+00  0.51100000000E-03 0. -1.
</event>
<event>
 8    1  0.1162192E+005  0.1043930E+01  0.7957747E-01            NaN
         13   -1    0    0    0    0  0.00000000000E+00  0.00000000000E+00  0.74505805969E-08  0.10566000000E+00  0.10566000000E+00 0.  1.
     999900   -1    0    0    0    0 -0.00000000000E+00 -0.00000000000E+00 -0.74505805969E-08  0.93827000000E+00  0.93827000000E+00 0.  1.
     999902    2    1    2    0    0 -0.13227867746E-02 -0.79329512847E-02 -0.25637246921E-01  0.10170608744E+01  0.10167058927E+01 0.  0.
     999903    2    3    3    0    0  0.10279422902E+00  0.59817128934E-01 -0.43288794857E-01  0.12816155305E+00  0.20167337143E-01 0.  0.
         14    1    1    2    0    0  0.13227867746E-02  0.79329512847E-02  0.25637246921E-01  0.26869125602E-01  0.00000000000E+00 0.  1.
     999901    1    3    3    0    0 -0.10411701579E+00 -0.67750080218E-01  0.17651547937E-01  0.88889932135E+00  0.88000000000E+00 0.  1.
        -11    1    4    4    0    0  0.30538184500E-01  0.15735843360E-01 -0.22284265164E-01  0.40951765209E-01  0.51100000000E-03 0. -1.
         11    1    4    4    0    0  0.72256044515E-01  0.44081285574E-01 -0.21004529694E-01  0.87209787842E-01  0.51100000000E-03 0.  1.
</event>
<event>
 8    1  0.1162192E+005  0.1043930E+01  0.7957747E-01            NaN
         13   -1    0    0    0    0  0.00000000000E+00  0.00000000000E+00  0.74505805969E-08  0.10566000000E+00  0.10566000000E+00 0. -1.
     999900   -1    0    0    0    0 -0.00000000000E+00 -0.00000000000E+00 -0.74505805969E-08  0.93827000000E+00  0.93827000000E+00 0.  1.
     999902    2    1    2    0    0 -0.11115068897E-02 -0.10289613831E-02  0.23681161858E-01  0.10202004480E+01  0.10199244396E+01 0.  0.
     999903    2    3    3    0    0 -0.72751658314E-01 -0.10512739766E+00 -0.14603925929E-01  0.13034959331E+00  0.20812695557E-01 0.  0.
         14    1    1    2    0    0  0.11115068897E-02  0.10289613831E-02 -0.23681161858E-01  0.23729551956E-01  0.00000000000E+00 0.  1.
     999901    1    3    3    0    0  0.71640151425E-01  0.10409843628E+00  0.38285087787E-01  0.88985085474E+00  0.88000000000E+00 0. -1.
        -11    1    4    4    0    0 -0.37820629102E-01 -0.51061421965E-01  0.29994064033E-02  0.63615456915E-01  0.51100000000E-03 0.  1.
         11    1    4    4    0    0 -0.34931029212E-01 -0.54065975694E-01 -0.17603332332E-01  0.66734136391E-01  0.51100000000E-03 0. -1.
</event>
<event>
 8    1  0.1162192E+005  0.1043930E+01  0.7957747E-01            NaN
         13   -1    0    0    0    0  0.00000000000E+00  0.00000000000E+00  0.74505805969E-08  0.10566000000E+00  0.10566000000E+00 0.  1.
     999900   -1    0    0    0    0 -0.00000000000E+00 -0.00000000000E+00 -0.74505805969E-08  0.93827000000E+00  0.93827000000E+00 0.  1.
     999902    2    1    2    0    0 -0.18973189151E-01 -0.52249256089E-02 -0.12390019625E-01  0.10206750147E+01  0.10204100604E+01 0.  0.
     999903    2    3    3    0    0 -0.50626069047E-01 -0.99504685385E-01 -0.69780835489E-01  0.13321556006E+00  0.20318443856E-01 0.  0.
         14    1    1    2    0    0  0.18973189151E-01  0.52249256089E-02  0.12390019625E-01  0.23254985282E-01  0.00000000000E+00 0.  1.
     999901    1    3    3    0    0  0.31652879896E-01  0.94279759776E-01  0.57390815865E-01  0.88745945465E+00  0.88000000000E+00 0. -1.
        -11    1    4    4    0    0 -0.16950058805E-01 -0.55245576133E-01 -0.33206513868E-01  0.66650670364E-01  0.51100000000E-03 0. -1.
         11    1    4    4    0    0 -0.33676010242E-01 -0.44259109253E-01 -0.36574321621E-01  0.66564889700E-01  0.51100000000E-03 0.  1.
</event>
<event>
 8    1  0.1162192E+005  0.1043930E+01  0.7957747E-01            NaN
         13   -1    0    0    0    0  0.00000000000E+00  0.00000000000E+00  0.74505805969E-08  0.10566000000E+00  0.10566000000E+00 0.  1.
     999900   -1    0    0    0    0 -0.00000000000E+00 -0.00000000000E+00 -0.74505805969E-08  0.93827000000E+00  0.93827000000E+00 0. -1.
     999902    2    1    2    0    0 -0.12103068846E-01  0.19397093219E-01  0.69715916578E-02  0.10200273936E+01  0.10197472967E+01 0.  0.
     999903    2    3    3    0    0 -0.53669478647E-01  0.79157149433E-01  0.90319467412E-01  0.13309678804E+00  0.20270213345E-01 0.  0.
         14    1    1    2    0    0  0.12103068846E-01 -0.19397093219E-01 -0.69715916578E-02  0.23902606366E-01  0.00000000000E+00 0.  1.
     999901    1    3    3    0    0  0.41566409801E-01 -0.59760056214E-01 -0.83347875754E-01  0.88693060559E+00  0.88000000000E+00 0. -1.
        -11    1    4    4    0    0 -0.53009764249E-01  0.66413550737E-01  0.79241378079E-01  0.11619058459E+00  0.51100000000E-03 0.  1.
         11    1    4    4    0    0 -0.65971439863E-03  0.12743598696E-01  0.11078089333E-01  0.16906203449E-01  0.51100000000E-03 0. -1.
</event>
<event>
 8    1  0.1162192E+005  0.1043930E+01  0.7957747E-01            NaN
         13   -1    0    0    0    0  0.00000000000E+00  0.00000000000E+00  0.74505805969E-08  0.10566000000E+00  0.10566000000E+00 0.  1.
     999900   -1    0    0    0    0 -0.00000000000E+00 -0.00000000000E+00 -0.74505805969E-08  0.93827000000E+00  0.93827000000E+00 0. -1.
     999902    2    1    2    0    0  0.16359849960E-01  0.40064311490E-02 -0.16396182732E-01  0.10204240223E+01  0.10201532504E+01 0.  0.
     999903    2    3    3    0    0  0.21123675394E-01  0.64301520773E-01  0.10866056677E+00  0.12952706837E+00  0.19729354613E-01 0.  0.
         14    1    1    2    0    0 -0.16359849960E-01 -0.40064311490E-02  0.16396182732E-01  0.23505977739E-01  0.00000000000E+00 0.  1.
     999901    1    3    3    0    0 -0.47638254337E-02 -0.60295089624E-01 -0.12505674950E+00  0.89089695390E+00  0.88000000000E+00 0. -1.
        -11    1    4    4    0    0 -0.35528095147E-02  0.10532199983E-01  0.21064470707E-01  0.23822735761E-01  0.51100000000E-03 0. -1.
         11    1    4    4    0    0  0.24676484909E-01  0.53769320790E-01  0.87596096059E-01  0.10570433260E+00  0.51100000000E-03 0.  1.
</event>
<event>
 8    1  0.1162192E+005  0.1043930E+01  0.7957747E-01            NaN
         13   -1    0    0    0    0  0.00000000000E+00  0.00000000000E+00  0.74505805969E-08  0.10566000000E+00  0.10566000000E+00 0. -1.
     999900   -1    0    0    0    0 -0.00000000000E+00 -0.00000000000E+00 -0.74505805969E-08  0.93827000000E+00  0.93827000000E+00 0.  1.
     999902    2    1    2    0    0 -0.24378819296E-01  0.44779473644E-02 -0.90556624433E-02  0.10175409139E+01  0.10171986667E+01 0.  0.
     999903    2    3    3    0    0  0.24618415334E-01  0.55178729935E-01  0.10909541172E+00  0.12684962356E+00  0.23200420865E-01 0.  0.
         14    1    1    2    0    0  0.24378819296E-01 -0.44779473644E-02  0.90556624433E-02  0.26389086100E-01  0.00000000000E+00 0.  1.
     999901    1    3    3    0    0 -0.48997234630E-01 -0.50700782570E-01 -0.11815107417E+00  0.89069129034E+00  0.88000000000E+00 0.  1.
        -11    1    4    4    0    0  0.11145796196E-01  0.41392194473E-02  0.18560148886E-01  0.22047724558E-01  0.51100000000E-03 0. -1.
         11    1    4    4    0    0  0.13472619137E-01  0.51039510488E-01  0.90535262838E-01  0.10480189901E+00  0.51100000000E-03 0.  1.
</event>
<event>
 8    1  0.1162192E+005  0.1043930E+01  0.7957747E-01            NaN
         13   -1    0    0    0    0  0.00000000000E+00  0.00000000000E+00  0.74505805969E-08  0.10566000000E+00  0.10566000000E+00 0. -1.
     999900   -1    0    0    0    0 -0.00000000000E+00 -0.00000000000E+00 -0.74505805969E-08  0.93827000000E+00  0.93827000000E+00 0.  1.
     999902    2    1    2    0    0  0.13947026416E-01 -0.17006767191E-01 -0.70183918056E-02  0.10208430448E+01  0.10205819490E+01 0.  0.
     999903    2    3    3    0    0 -0.33401395037E-01  0.24835142725E-01  0.12044714379E+00  0.12941717510E+00  0.22557775986E-01 0.  0.
         14    1    1    2    0    0 -0.13947026416E-01  0.17006767191E-01  0.70183918056E-02  0.23086955184E-01  0.00000000000E+00 0. -1.
     999901    1    3    3    0    0  0.47348421453E-01 -0.41841909916E-01 -0.12746553560E+00  0.89142586972E+00  0.88000000000E+00 0.  1.
        -11    1    4    4    0    0 -0.23396840252E-02  0.14329320761E-01  0.35264227516E-01  0.38139617435E-01  0.51100000000E-03 0. -1.
         11    1    4    4    0    0 -0.31061711012E-01  0.10505821964E-01  0.85182916277E-01  0.91277557661E-01  0.51100000000E-03 0.  1.
</event>
<event>
 8    1  0.1162192E+005  0.1043930E+01  0.7957747E-01            NaN
         13   -1    0    0    0    0  0.00000000000E+00  0.00000000000E+00  0.74505805969E-08  0.10566000000E+00  0.10566000000E+00 0.  1.
     999900   -1    0    0    0    0 -0.00000000000E+00 -0.00000000000E+00 -0.74505805969E-08  0.93827000000E+00  0.93827000000E+00 0. -1.
     999902    2    1    2    0    0 -0.14384394000E-02 -0.23198500335E-01  0.62020441183E-03  0.10206786736E+01  0.10204138036E+01 0.  0.
     999903    2    3    3    0    0 -0.22950137936E-01 -0.41006675398E-01 -0.12176024631E+00  0.13177099618E+00  0.18159889710E-01 0.  0.
         14    1    1    2    0    0  0.14384394000E-02  0.23198500335E-01 -0.62020441183E-03  0.23251326396E-01  0.00000000000E+00 0. -1.
     999901    1    3    3    0    0  0.21511698536E-01  0.17808175063E-01  0.12238045072E+00  0.88890767743E+00  0.88000000000E+00 0.  1.
        -11    1    4    4    0    0 -0.14427153000E-01 -0.38912314573E-01 -0.97459218495E-01  0.10592861445E+00  0.51100000000E-03 0. -1.
         11    1    4    4    0    0 -0.85229849368E-02 -0.20943608250E-02 -0.24301027810E-01  0.25842381723E-01  0.51100000000E-03 0.  1.
</event>
<event>
 7    1  0.1944649E+005  0.1043930E+01  0.7957747E-01            NaN
         13   -1    0    0    0    0  0.00000000000E+00  0.00000000000E+00  0.74505805969E-08  0.10566000000E+00  0.10566000000E+00 0.  1.
     999900   -1    0    0    0    0 -0.00000000000E+00 -0.00000000000E+00 -0.74505805969E-08  0.93827000000E+00  0.93827000000E+00 0.  1.
     999903    2    1    2    0    0  0.69906208600E-01 -0.25017416755E-01  0.12208027655E-01  0.77780889667E-01  0.19699789750E-01 0.  0.
         14    1    1    2    0    0  0.26692025136E-01  0.59395156635E-01 -0.45715883268E-01  0.79562496320E-01  0.00000000000E+00 0. -1.
     999901    1    1    2    0    0 -0.96598233737E-01 -0.34377739880E-01  0.33507855613E-01  0.88658661401E+00  0.88000000000E+00 0. -1.
        -11    1    3    3    0    0  0.42205308418E-01 -0.25009236461E-01  0.91468791029E-02  0.49906677763E-01  0.51100000000E-03 0.  1.
         11    1    3    3    0    0  0.27700900182E-01 -0.81802947741E-05  0.30611485520E-02  0.27874211904E-01  0.51100000000E-03 0. -1.
</event>
<event>
 8    1  0.1162192E+005  0.1043930E+01  0.7957747E-01            NaN
         13   -1    0    0    0    0  0.00000000000E+00  0.00000000000E+00  0.74505805969E-08  0.10566000000E+00  0.10566000000E+00 0. -1.
     999900   -1    0    0    0    0 -0.00000000000E+00 -0.00000000000E+00 -0.74505805969E-08  0.93827000000E+00  0.93827000000E+00 0. -1.
     999902    2    1    2    0    0  0.14750398899E-01 -0.10962129361E-01 -0.14667285769E-01  0.10204167735E+01  0.10201458326E+01 0.  0.
     999903    2    3    3    0    0  0.80599511962E-02 -0.13028125734E+00  0.33210988968E-02  0.13215701513E+00  0.20402894926E-01 0.  0.
         14    1    1    2    0    0 -0.14750398899E-01  0.10962129361E-01  0.14667285769E-01  0.23513226483E-01  0.00000000000E+00 0. -1.
     999901    1    3    3    0    0  0.66904477025E-02  0.11931912798E+00 -0.17988384666E-01  0.88825975839E+00  0.88000000000E+00 0.  1.
        -11    1    4    4    0    0 -0.59348655941E-02 -0.18012761328E-01  0.86201061646E-03  0.18991745143E-01  0.51100000000E-03 0. -1.
         11    1    4    4    0    0  0.13994816790E-01 -0.11226849602E+00  0.24590882803E-02  0.11316526998E+00  0.51100000000E-03 0.  1.
</event>
<event>
 8    1  0.1162192E+005  0.1043930E+01  0.7957747E-01            NaN
         13   -1    0    0    0    0  0.00000000000E+00  0.00000000000E+00  0.74505805969E-08  0.10566000000E+00  0.10566000000E+00 0. -1.
     999900   -1    0    0    0    0 -0.00000000000E+00 -0.00000000000E+00 -0.74505805969E-08  0.93827000000E+00  0.93827000000E+00 0. -1.
     999902    2    1    2    0    0  0.10460849054E-02 -0.25428045988E-01 -0.54816630773E-02  0.10178967819E+01  0.10175638211E+01 0.  0.
     999903    2    3    3    0    0  0.79415439371E-01 -0.26767827050E-01  0.95851389360E-01  0.12862070648E+00  0.18233724742E-01 0.  0.
         14    1    1    2    0    0 -0.10460849054E-02  0.25428045988E-01  0.54816630773E-02  0.26033218135E-01  0.00000000000E+00 0. -1.
     999901    1    3    3    0    0 -0.78369354466E-01  0.13397810622E-02 -0.10133305244E+00  0.88927607538E+00  0.88000000000E+00 0.  1.
        -11    1    4    4    0    0  0.11523658226E-02  0.11035490781E-02 -0.12634470060E-03  0.16801343816E-02  0.51100000000E-03 0.  1.
         11    1    4    4    0    0  0.78263073549E-01 -0.27871376128E-01  0.95977734061E-01  0.12694057210E+00  0.51100000000E-03 0. -1.
</event>
<event>
 8    1  0.1162192E+005  0.1043930E+01  0.7957747E-01            NaN
         13   -1    0    0    0    0  0.00000000000E+00  0.00000000000E+00  0.74505805969E-08  0.10566000000E+00  0.10566000000E+00 0. -1.
     999900   -1    0    0    0    0 -0.00000000000E+00 -0.00000000000E+00 -0.74505805969E-08  0.93827000000E+00  0.93827000000E+00 0.  1.
     999902    2    1    2    0    0  0.10738548926E-01 -0.23533830480E-02 -0.20670943250E-01  0.10205175516E+01  0.10202489551E+01 0.  0.
     999903    2    3    3    0    0 -0.39180632564E-01  0.11534193328E+00 -0.44141975916E-01  0.13096991290E+00  0.19123820335E-01 0.  0.
         14    1    1    2    0    0 -0.10738548926E-01  0.23533830480E-02  0.20670943250E-01  0.23412448391E-01  0.00000000000E+00 0. -1.
     999901    1    3    3    0    0  0.49919181489E-01 -0.11769531633E+00  0.23471032666E-01  0.88954763871E+00  0.88000000000E+00 0. -1.
        -11    1    4    4    0    0 -0.26021654470E-01  0.64013002326E-01 -0.15838797004E-01  0.70893720313E-01  0.51100000000E-03 0.  1.
         11    1    4    4    0    0 -0.13158978093E-01  0.51328930958E-01 -0.28303178912E-01  0.60076192583E-01  0.51100000000E-03 0. -1.
</event>
<event>
 8    1  0.1162192E+005  0.1043930E+01  0.7957747E-01            NaN
         13   -1    0    0    0    0  0.00000000000E+00  0.00000000000E+00  0.74505805969E-08  0.10566000000E+00  0.10566000000E+00 0.  1.
     999900   -1    0    0    0    0 -0.00000000000E+00 -0.00000000000E+00 -0.74505805969E-08  0.93827000000E+00  0.93827000000E+00 0. -1.
     999902    2    1    2    0    0  0.16560631110E-01 -0.17919988378E-01  0.16639226904E-02  0.10194729126E+01  0.10191795084E+01 0.  0.
     999903    2    3    3    0    0  0.13043842906E+00  0.95632216551E-03 -0.16617104651E-02  0.13192825016E+00  0.19677489189E-01 0.  0.
         14    1    1    2    0    0 -0.16560631110E-01  0.17919988378E-01 -0.16639226904E-02  0.24457087418E-01  0.00000000000E+00 0.  1.
     999901    1    3    3    0    0 -0.11387779795E+00 -0.18876310544E-01  0.33256331555E-02  0.88754466243E+00  0.88000000000E+00 0.  1.
        -11    1    4    4    0    0  0.69852860580E-01 -0.90815983371E-02 -0.28982482982E-02  0.70502188078E-01  0.51100000000E-03 0. -1.
         11    1    4    4    0    0  0.60585568477E-01  0.10037920503E-01  0.12365378331E-02  0.61426062078E-01  0.51100000000E-03 0.  1.
</event>
<event>
 8    1  0.1162192E+005  0.1043930E+01  0.7957747E-01            NaN
         13   -1    0    0    0    0  0.00000000000E+00  0.00000000000E+00  0.74505805969E-08  0.10566000000E+00  0.10566000000E+00 0.  1.
     999900   -1    0    0    0    0 -0.00000000000E+00 -0.00000000000E+00 -0.74505805969E-08  0.93827000000E+00  0.93827000000E+00 0. -1.
     999902    2    1    2    0    0  0.18636196755E-01 -0.12019869642E-01  0.58178709727E-02  0.10210033186E+01  0.10207458763E+01 0.  0.
     999903    2    3    3    0    0 -0.81542019824E-01  0.89728744194E-01 -0.37998806632E-01  0.12841810885E+00  0.18626670219E-01 0.  0.
         14    1    1    2    0    0 -0.18636196755E-01  0.12019869642E-01 -0.58178709727E-02  0.22926681363E-01  0.00000000000E+00 0. -1.
     999901    1    3    3    0    0  0.10017821658E+00 -0.10174861384E+00  0.43816677605E-01  0.89258520979E+00  0.88000000000E+00 0. -1.
        -11    1    4    4    0    0 -0.40752874454E-01  0.40611081113E-01 -0.87777642275E-02  0.58201090636E-01  0.51100000000E-03 0. -1.
         11    1    4    4    0    0 -0.40789145370E-01  0.49117663081E-01 -0.29221042404E-01  0.70217018213E-01  0.51100000000E-03 0.  1.
</event>
<event>
 8    1  0.1162192E+005  0.1043930E+01  0.7957747E-01            NaN
         13   -1    0    0    0    0  0.00000000000E+00  0.00000000000E+00  0.74505805969E-08  0.10566000000E+00  0.10566000000E+00 0. -1.
     999900   -1    0    0    0    0 -0.00000000000E+00 -0.00000000000E+00 -0.74505805969E-08  0.93827000000E+00  0.93827000000E+00 0. -1.
     999902    2    1    2    0    0  0.15720012399E-01 -0.31190632685E-02  0.17180406363E-01  0.10204350280E+01  0.10201645126E+01 0.  0.
     999903    2    3    3    0    0 -0.56221719389E-01  0.11274034789E+00 -0.19967041158E-01  0.12915563929E+00  0.20278773448E-01 0.  0.
         14    1    1    2    0    0 -0.15720012399E-01  0.31190632685E-02 -0.17180406363E-01  0.23494971979E-01  0.00000000000E+00 0.  1.
     999901    1    3    3    0    0  0.71941731789E-01 -0.11585941116E+00  0.37147447521E-01  0.89127938874E+00  0.88000000000E+00 0.  1.
        -11    1    4    4    0    0 -0.18255988309E-01  0.59278210941E-01 -0.10047010852E-01  0.62836223228E-01  0.51100000000E-03 0. -1.
         11    1    4    4    0    0 -0.37965731081E-01  0.53462136951E-01 -0.99200303061E-02  0.66319416057E-01  0.51100000000E-03 0.  1.
</event>
<event>
 8    1  0.1162192E+005  0.1043930E+01  0.7957747E-01            NaN
         13   -1    0    0    0    0  0.00000000000E+00  0.00000000000E+00  0.74505805969E-08  0.10566000000E+00  0.10566000000E+00 0. -1.
     999900   -1    0    0    0    0 -0.00000000000E+00 -0.00000000000E+00 -0.74505805969E-08  0.93827000000E+00  0.93827000000E+00 0.  1.
     999902    2    1    2    0    0  0.14733523531E-01 -0.17241547405E-01  0.69437415130E-02  0.10202115848E+01  0.10199358385E+01 0.  0.
     999903    2    3    3    0    0  0.11195073031E+00  0.48969820200E-01 -0.44035203710E-01  0.13092311455E+00  0.16454587518E-01 0.  0.
         14    1    1    2    0    0 -0.14733523531E-01  0.17241547405E-01 -0.69437415130E-02  0.23718415183E-01  0.00000000000E+00 0.  1.
     999901    1    3    3    0    0 -0.97217206779E-01 -0.66211367606E-01  0.50978945223E-01  0.88928847027E+00  0.88000000000E+00 0.  1.
        -11    1    4    4    0    0  0.19753822277E-01  0.73345340757E-02 -0.14333647889E-01  0.25489673742E-01  0.51100000000E-03 0.  1.
         11    1    4    4    0    0  0.92196908033E-01  0.41635286124E-01 -0.29701555821E-01  0.10543344081E+00  0.51100000000E-03 0. -1.
</event>
<event>
 8    1  0.1162192E+005  0.1043930E+01  0.7957747E-01            NaN
         13   -1    0    0    0    0  0.00000000000E+00  0.00000000000E+00  0.74505805969E-08  0.10566000000E+00  0.10566000000E+00 0.  1.
     999900   -1    0    0    0    0 -0.00000000000E+00 -0.00000000000E+00 -0.74505805969E-08  0.93827000000E+00  0.93827000000E+00 0. -1.
     999902    2    1    2    0    0 -0.21902842808E-01  0.58041543195E-02  0.58136315500E-02  0.10205372438E+01  0.10202691042E+01 0.  0.
     999903    2    3    3    0    0 -0.11904765196E+00 -0.55776148918E-01 -0.74454674841E-02  0.13295341599E+00  0.18380794645E-01 0.  0.
         14    1    1    2    0    0  0.21902842808E-01 -0.58041543195E-02 -0.58136315500E-02  0.23392756192E-01  0.00000000000E+00 0.  1.
     999901    1    3    3    0    0  0.97144809155E-01  0.61580303238E-01  0.13259099034E-01  0.88758382782E+00  0.88000000000E+00 0. -1.
        -11    1    4    4    0    0 -0.79925424988E-01 -0.34358402429E-01 -0.13145344207E-01  0.87986559043E-01  0.51100000000E-03 0. -1.
         11    1    4    4    0    0 -0.39122226976E-01 -0.21417746490E-01  0.56998767227E-02  0.44966856949E-01  0.51100000000E-03 0.  1.
</event>
<event>
 8    1  0.1162192E+005  0.1043930E+01  0.7957747E-01            NaN
         13   -1    0    0    0    0  0.00000000000E+00  0.00000000000E+00  0.74505805969E-08  0.10566000000E+00  0.10566000000E+00 0.  1.
     999900   -1    0    0    0    0 -0.00000000000E+00 -0.00000000000E+00 -0.74505805969E-08  0.93827000000E+00  0.93827000000E+00 0. -1.
     999902    2    1    2    0    0  0.22696101413E-01 -0.39908797455E-02  0.23411916896E-02  0.10207670702E+01  0.10205042333E+01 0.  0.
     999903    2    3    3    0    0  0.63808261034E-01 -0.11449020020E+00  0.95536564064E-02  0.13287499950E+00  0.19621239041E-01 0.  0.
         14    1    1    2    0    0 -0.22696101413E-01  0.39908797455E-02 -0.23411916896E-02  0.23162929846E-01  0.00000000000E+00 0. -1.
     999901    1    3    3    0    0 -0.41112159621E-01  0.11049932046E+00 -0.72124647169E-02  0.88789207066E+00  0.88000000000E+00 0. -1.
        -11    1    4    4    0    0  0.49760869017E-01 -0.71605359109E-01  0.28145483383E-02  0.87244795500E-01  0.51100000000E-03 0. -1.
         11    1    4    4    0    0  0.14047392017E-01 -0.42884841095E-01  0.67391080681E-02  0.45630203997E-01  0.51100000000E-03 0.  1.
</event>
<event>
 8    1  0.1162192E+005  0.1043930E+01  0.7957747E-01            NaN
         13   -1    0    0    0    0  0.00000000000E+00  0.00000000000E+00  0.74505805969E-08  0.10566000000E+00  0.10566000000E+00 0. -1.
     999900   -1    0    0    0    0 -0.00000000000E+00 -0.00000000000E+00 -0.74505805969E-08  0.93827000000E+00  0.93827000000E+00 0. -1.
     999902    2    1    2    0    0 -0.36600781875E-02  0.23912665438E-01  0.74001346633E-03  0.10197275340E+01  0.10194402799E+01 0.  0.
     999903    2    3    3    0    0  0.48054519441E-01  0.48977713678E-01 -0.10987594793E+00  0.13094266286E+00  0.19110304755E-01 0.  0.
         14    1    1    2    0    0  0.36600781875E-02 -0.23912665438E-01 -0.74001346633E-03  0.24202466002E-01  0.00000000000E+00 0. -1.
     999901    1    3    3    0    0 -0.51714597629E-01 -0.25065048240E-01  0.11061596139E+00  0.88878487114E+00  0.88000000000E+00 0.  1.
        -11    1    4    4    0    0  0.21102481167E-01  0.34882543622E-01 -0.60884787199E-01  0.73275678053E-01  0.51100000000E-03 0. -1.
         11    1    4    4    0    0  0.26952038274E-01  0.14095170056E-01 -0.48991160728E-01  0.57666984805E-01  0.51100000000E-03 0.  1.
</event>
<event>
 8    1  0.1162192E+005  0.1043930E+01  0.7957747E-01            NaN
         13   -1    0    0    0    0  0.00000000000E+00  0.00000000000E+00  0.74505805969E-08  0.10566000000E+00  0.10566000000E+00 0.  1.
     999900   -1    0    0    0    0 -0.00000000000E+00 -0.00000000000E+00 -0.74505805969E-08  0.93827000000E+00  0.93827000000E+00 0.  1.
     999902    2    1    2    0    0 -0.56189321695E-02 -0.20535844184E-01  0.11366891357E-01  0.10197949733E+01  0.10195093369E+01 0.  0.
     999903    2    3    3    0    0  0.10906969281E+00 -0.92807010106E-02 -0.65058847752E-01  0.12899698691E+00  0.20621339907E-01 0.  0.
         14    1    1    2    0    0  0.56189321695E-02  0.20535844184E-01 -0.11366891357E-01  0.24135026708E-01  0.00000000000E+00 0.  1.
     999901    1    3    3    0    0 -0.11468862498E+00 -0.11255143174E-01  0.76425739109E-01  0.89079798638E+00  0.88000000000E+00 0. -1.
        -11    1    4    4    0    0  0.55816106765E-01 -0.14330064887E-01 -0.38184102380E-01  0.69130856567E-01  0.51100000000E-03 0.  1.
         11    1    4    4    0    0  0.53253586045E-01  0.50493638768E-02 -0.26874745372E-01  0.59866130341E-01  0.51100000000E-03 0. -1.
</event>
<event>
 8    1  0.1162192E+005  0.1043930E+01  0.7957747E-01            NaN
         13   -1    0    0    0    0  0.00000000000E+00  0.00000000000E+00  0.74505805969E-08  0.10566000000E+00  0.10566000000E+00 0.  1.
     999900   -1    0    0    0    0 -0.00000000000E+00 -0.00000000000E+00 -0.74505805969E-08  0.93827000000E+00  0.93827000000E+00 0.  1.
     999902    2    1    2    0    0 -0.11397456127E-01 -0.18093204325E-01 -0.94850621583E-02  0.10205369999E+01  0.10202688546E+01 0.  0.
     999903    2    3    3    0    0  0.65868451622E-01 -0.10688171854E+00  0.34008595978E-01  0.13163592608E+00  0.20225670755E-01 0.  0.
         14    1    1    2    0    0  0.11397456127E-01  0.18093204325E-01  0.94850621583E-02  0.23393000087E-01  0.00000000000E+00 0.  1.
     999901    1    3    3    0    0 -0.77265907749E-01  0.88788514219E-01 -0.43493658136E-01  0.88890107383E+00  0.88000000000E+00 0.  1.
        -11    1    4    4    0    0  0.28617035999E-01 -0.30123114207E-01  0.69741366019E-02  0.42133555051E-01  0.51100000000E-03 0. -1.
         11    1    4    4    0    0  0.37251415623E-01 -0.76758604337E-01  0.27034459376E-01  0.89502371033E-01  0.51100000000E-03 0.  1.
</event>
<event>
 8    1  0.1162192E+005  0.1043930E+01  0.7957747E-01            NaN
         13   -1    0    0    0    0  0.00000000000E+00  0.00000000000E+00  0.74505805969E-08  0.10566000000E+00  0.10566000000E+00 0. -1.
     999900   -1    0    0    0    0 -0.00000000000E+00 -0.00000000000E+00 -0.74505805969E-08  0.93827000000E+00  0.93827000000E+00 0. -1.
     999902    2    1    2    0    0  0.19233005191E-01 -0.96313617854E-02 -0.24789461822E-02  0.10222778224E+01  0.10220484966E+01 0.  0.
     999903    2    3    3    0    0  0.22499167135E-01  0.92758931356E-01 -0.89266169927E-01  0.13209443564E+00  0.19236916750E-01 0.  0.
         14    1    1    2    0    0 -0.19233005191E-01  0.96313617854E-02  0.24789461822E-02  0.21652177551E-01  0.00000000000E+00 0.  1.
     999901    1    3    3    0    0 -0.32661619437E-02 -0.10239029314E+00  0.86787223745E-01  0.89018338681E+00  0.88000000000E+00 0.  1.
        -11    1    4    4    0    0  0.53592364481E-02  0.58116757401E-01 -0.59103323785E-01  0.83064691112E-01  0.51100000000E-03 0.  1.
         11    1    4    4    0    0  0.17139930686E-01  0.34642173955E-01 -0.30162846142E-01  0.49029744530E-01  0.51100000000E-03 0. -1.
</event>
<event>
 8    1  0.1162192E+005  0.1043930E+01  0.7957747E-01            NaN
         13   -1    0    0    0    0  0.00000000000E+00  0.00000000000E+00  0.74505805969E-08  0.10566000000E+00  0.10566000000E+00 0.  1.
     999900   -1    0    0    0    0 -0.00000000000E+00 -0.00000000000E+00 -0.74505805969E-08  0.93827000000E+00  0.93827000000E+00 0. -1.
     999902    2    1    2    0    0 -0.24150881917E-02 -0.44494238026E-02 -0.26636447259E-01  0.10168167127E+01  0.10164551623E+01 0.  0.
     999903    2    3    3    0    0 -0.11708791910E+00 -0.25915889806E-01 -0.42958038490E-01  0.12896702859E+00  0.20146643617E-01 0.  0.
         14    1    1    2    0    0  0.24150881917E-02  0.44494238026E-02  0.26636447259E-01  0.27113287254E-01  0.00000000000E+00 0.  1.
     999901    1    3    3    0    0  0.11467283091E+00  0.21466466003E-01  0.16321591231E-01  0.88784968415E+00  0.88000000000E+00 0.  1.
        -11    1    4    4    0    0 -0.88388930955E-01 -0.20276887459E-01 -0.41355595829E-01  0.99670967226E-01  0.51100000000E-03 0.  1.
         11    1    4    4    0    0 -0.28698988146E-01 -0.56390023467E-02 -0.16024426614E-02  0.29296061366E-01  0.51100000000E-03 0. -1.
</event>
<event>
 8    1  0.1162192E+005  0.1043930E+01  0.7957747E-01            NaN
         13   -1    0    0    0    0  0.00000000000E+00  0.00000000000E+00  0.74505805969E-08  0.10566000000E+00  0.10566000000E+00 0. -1.
     999900   -1    0    0    0    0 -0.00000000000E+00 -0.00000000000E+00 -0.74505805969E-08  0.93827000000E+00  0.93827000000E+00 0. -1.
     999902    2    1    2    0    0  0.10994006649E-01 -0.16105375806E-02 -0.20909844455E-01  0.10202512414E+01  0.10199764272E+01 0.  0.
     999903    2    3    3    0    0 -0.66822573733E-01  0.91873412489E-01 -0.62011871161E-01  0.13093462416E+00  0.19809678372E-01 0.  0.
         14    1    1    2    0    0 -0.10994006649E-01  0.16105375806E-02  0.20909844455E-01  0.23678758595E-01  0.00000000000E+00 0. -1.
     999901    1    3    3    0    0  0.77816580382E-01 -0.93483950069E-01  0.41102026706E-01  0.88931661724E+00  0.88000000000E+00 0. -1.
        -11    1    4    4    0    0 -0.27360398782E-01  0.43299846443E-01 -0.17478732122E-01  0.54122410526E-01  0.51100000000E-03 0. -1.
         11    1    4    4    0    0 -0.39462174951E-01  0.48573566046E-01 -0.44533139038E-01  0.76812213637E-01  0.51100000000E-03 0.  1.
</event>
<event>
 8    1  0.1162192E+005  0.1043930E+01  0.7957747E-01            NaN
         13   -1    0    0    0    0  0.00000000000E+00  0.00000000000E+00  0.74505805969E-08  0.10566000000E+00  0.10566000000E+00 0. -1.
     999900   -1    0    0    0    0 -0.00000000000E+00 -0.00000000000E+00 -0.74505805969E-08  0.93827000000E+00  0.93827000000E+00 0. -1.
     999902    2    1    2    0    0 -0.43715099550E-03  0.83428116378E-02  0.21493275373E-01  0.10208701975E+01  0.10206097225E+01 0.  0.
     999903    2    3    3    0    0  0.85418434994E-01  0.21549109094E-01  0.98025394806E-01  0.13328766426E+00  0.19898499358E-01 0.  0.
         14    1    1    2    0    0  0.43715099550E-03 -0.83428116378E-02 -0.21493275373E-01  0.23059802542E-01  0.00000000000E+00 0.  1.
     999901    1    3    3    0    0 -0.85855585989E-01 -0.13206297456E-01 -0.76532119433E-01  0.88758253320E+00  0.88000000000E+00 0. -1.
        -11    1    4    4    0    0  0.40661225149E-01  0.49311013846E-02  0.57874804005E-01  0.70904196287E-01  0.51100000000E-03 0.  1.
         11    1    4    4    0    0  0.44757209845E-01  0.16618007709E-01  0.40150590802E-01  0.62383467971E-01  0.51100000000E-03 0. -1.
</event>
<event>
 8    1  0.1162192E+005  0.1043930E+01  0.7957747E-01            NaN
         13   -1    0    0    0    0  0.00000000000E+00  0.00000000000E+00  0.74505805969E-08  0.10566000000E+00  0.10566000000E+00 0.  1.
     999900   -1    0    0    0    0 -0.00000000000E+00 -0.00000000000E+00 -0.74505805969E-08  0.93827000000E+00  0.93827000000E+00 0. -1.
     999902    2    1    2    0    0 -0.17592536799E-02 -0.49758803935E-02  0.21717614127E-01  0.10215802993E+01  0.10213357914E+01 0.  0.
     999903    2    3    3    0    0 -0.92083986791E-01  0.88527010976E-01  0.27008608021E-01  0.13201335816E+00  0.19533804792E-01 0.  0.
         14    1    1    2    0    0  0.17592536799E-02  0.49758803935E-02 -0.21717614127E-01  0.22349700727E-01  0.00000000000E+00 0. -1.
     999901    1    3    3    0    0  0.90324733112E-01 -0.93502891369E-01 -0.52909938937E-02  0.88956694111E+00  0.88000000000E+00 0. -1.
        -11    1    4    4    0    0 -0.59512409425E-01  0.44370781478E-01  0.18272460859E-01  0.76450226104E-01  0.51100000000E-03 0. -1.
         11    1    4    4    0    0 -0.32571577367E-01  0.44156229497E-01  0.87361471620E-02  0.55563132055E-01  0.51100000000E-03 0.  1.
</event>
<event>
 8    1  0.1162192E+005  0.1043930E+01  0.7957747E-01            NaN
         13   -1    0    0    0    0  0.00000000000E+00  0.00000000000E+00  0.74505805969E-08  0.10566000000E+00  0.10566000000E+00 0. -1.
     999900   -1    0    0    0    0 -0.00000000000E+00 -0.00000000000E+00 -0.74505805969E-08  0.93827000000E+00  0.93827000000E+00 0.  1.
     999902    2    1    2    0    0 -0.22164012161E-01  0.67174543075E-02 -0.52229291318E-02  0.10201887571E+01  0.10199124734E+01 0.  0.
     999903    2    3    3    0    0 -0.46271598350E-01 -0.11928931611E+00  0.16218822828E-01  0.13062783693E+00  0.20726307336E-01 0.  0.
         14    1    1    2    0    0  0.22164012161E-01 -0.67174543075E-02  0.52229291318E-02  0.23741242937E-01  0.00000000000E+00 0.  1.
     999901    1    3    3    0    0  0.24107586188E-01  0.12600677041E+00 -0.21441751960E-01  0.88956092013E+00  0.88000000000E+00 0.  1.
        -11    1    4    4    0    0 -0.15793519447E-01 -0.66730678089E-01  0.12899883430E-01  0.69778841838E-01  0.51100000000E-03 0. -1.
         11    1    4    4    0    0 -0.30478078902E-01 -0.52558638018E-01  0.33189393976E-02  0.60848995091E-01  0.51100000000E-03 0.  1.
</event>
<event>
 8    1  0.1162192E+005  0.1043930E+01  0.7957747E-01            NaN
         13   -1    0    0    0    0  0.00000000000E+00  0.00000000000E+00  0.74505805969E-08  0.10566000000E+00  0.10566000000E+00 0. -1.
     999900   -1    0    0    0    0 -0.00000000000E+00 -0.00000000000E+00 -0.74505805969E-08  0.93827000000E+00  0.93827000000E+00 0.  1.
     999902    2    1    2    0    0 -0.11747754130E-01 -0.51109374305E-02  0.21946871387E-01  0.10185174721E+01  0.10182003951E+01 0.  0.
     999903    2    3    3    0    0  0.45432033876E-01 -0.93905049702E-01 -0.70891200191E-01  0.12735372172E+00  0.17640297888E-01 0.  0.
         14    1    1    2    0    0  0.11747754130E-01  0.51109374305E-02 -0.21946871387E-01  0.25412527859E-01  0.00000000000E+00 0.  1.
     999901    1    3    3    0    0 -0.57179788006E-01  0.88794112272E-01  0.92838071578E-01  0.89116375042E+00  0.88000000000E+00 0. -1.
        -11    1    4    4    0    0  0.13249308965E-01 -0.14899516561E-01 -0.85898930271E-02  0.21716057768E-01  0.51100000000E-03 0.  1.
         11    1    4    4    0    0  0.32182724911E-01 -0.79005533141E-01 -0.62301307164E-01  0.10563766395E+00  0.51100000000E-03 0. -1.
</event>
<event>
 8    1  0.1162192E+005  0.1043930E+01  0.7957747E-01            NaN
         13   -1    0    0    0    0  0.00000000000E+00  0.00000000000E+00  0.74505805969E-08  0.10566000000E+00  0.10566000000E+00 0. -1.
     999900   -1    0    0    0    0 -0.00000000000E+00 -0.00000000000E+00 -0.74505805969E-08  0.93827000000E+00  0.93827000000E+00 0. -1.
     999902    2    1    2    0    0  0.75832608776E-02 -0.50531886021E-02 -0.21413888016E-01  0.10206578028E+01  0.10203924516E+01 0.  0.
     999903    2    3    3    0    0  0.58497266158E-01  0.10869524242E+00 -0.41289715497E-01  0.13165499632E+00  0.19789178268E-01 0.  0.
         14    1    1    2    0    0 -0.75832608776E-02  0.50531886021E-02  0.21413888016E-01  0.23272197158E-01  0.00000000000E+00 0. -1.
     999901    1    3    3    0    0 -0.50914005281E-01 -0.11374843102E+00  0.19875827481E-01  0.88900280653E+00  0.88000000000E+00 0.  1.
        -11    1    4    4    0    0  0.45081012616E-01  0.78145683733E-01 -0.38752904968E-01  0.98189074490E-01  0.51100000000E-03 0. -1.
         11    1    4    4    0    0  0.13416253542E-01  0.30549558686E-01 -0.25368105287E-02  0.33465921826E-01  0.51100000000E-03 0.  1.
</event>
<event>
 8    1  0.1162192E+005  0.1043930E+01  0.7957747E-01            NaN
         13   -1    0    0    0    0  0.00000000000E+00  0.00000000000E+00  0.74505805969E-08  0.10566000000E+00  0.10566000000E+00 0.  1.
     999900   -1    0    0    0    0 -0.00000000000E+00 -0.00000000000E+00 -0.74505805969E-08  0.93827000000E+00  0.93827000000E+00 0. -1.
     999902    2    1    2    0    0 -0.43195418400E-02  0.20902093783E-01  0.10124793568E-01  0.10203065496E+01  0.10200330326E+01 0.  0.
     999903    2    3    3    0    0 -0.38451317269E-01 -0.11303693698E+00 -0.41725274273E-01  0.12801003404E+00  0.19741260884E-01 0.  0.
         14    1    1    2    0    0  0.43195418400E-02 -0.20902093783E-01 -0.10124793568E-01  0.23623450447E-01  0.00000000000E+00 0. -1.
     999901    1    3    3    0    0  0.34131775429E-01  0.13393903076E+00  0.51850067841E-01  0.89229651551E+00  0.88000000000E+00 0.  1.
        -11    1    4    4    0    0 -0.28889766716E-01 -0.88441653847E-01 -0.40816049377E-01  0.10160096340E+00  0.51100000000E-03 0. -1.
         11    1    4    4    0    0 -0.95615505530E-02 -0.24595283132E-01 -0.90922489570E-03  0.26409070643E-01  0.51100000000E-03 0.  1.
</event>
<event>
 8    1  0.1162192E+005  0.1043930E+01  0.7957747E-01            NaN
         13   -1    0    0    0    0  0.00000000000E+00  0.00000000000E+00  0.74505805969E-08  0.10566000000E+00  0.10566000000E+00 0.  1.
     999900   -1    0    0    0    0 -0.00000000000E+00 -0.00000000000E+00 -0.74505805969E-08  0.93827000000E+00  0.93827000000E+00 0.  1.
     999902    2    1    2    0    0  0.11141589854E-01  0.15994427018E-01 -0.13624504221E-01  0.10201479935E+01  0.10198707490E+01 0.  0.
     999903    2    3    3    0    0 -0.10197767214E+00 -0.28780864401E-01 -0.72338727991E-01  0.12984009490E+00  0.19944295027E-01 0.  0.
         14    1    1    2    0    0 -0.11141589854E-01 -0.15994427018E-01  0.13624504221E-01  0.23782006546E-01  0.00000000000E+00 0. -1.
     999901    1    3    3    0    0  0.11311926200E+00  0.44775291418E-01  0.58714223770E-01  0.89030789856E+00  0.88000000000E+00 0. -1.
        -11    1    4    4    0    0 -0.33899291491E-01 -0.83136230651E-02 -0.35438131269E-01  0.49743346901E-01  0.51100000000E-03 0.  1.
         11    1    4    4    0    0 -0.68078380654E-01 -0.20467241336E-01 -0.36900596722E-01  0.80096747997E-01  0.51100000000E-03 0. -1.
</event>
<event>
 8    1  0.1162192E+005  0.1043930E+01  0.7957747E-01            NaN
         13   -1    0    0    0    0  0.00000000000E+00  0.00000000000E+00  0.74505805969E-08  0.10566000000E+00  0.10566000000E+00 0.  1.
     999900   -1    0    0    0    0 -0.00000000000E+00 -0.00000000000E+00 -0.74505805969E-08  0.93827000000E+00  0.93827000000E+00 0. -1.
     999902    2    1    2    0    0 -0.23941601462E-01  0.17221716939E-01 -0.21865771582E-01  0.10072162453E+01  0.10065469016E+01 0.  0.
     999903    2    3    3    0    0  0.10026607702E+00 -0.11197880351E-01  0.51102918414E-01  0.11505053728E+00  0.21129106283E-01 0.  0.
         14    1    1    2    0    0  0.23941601462E-01 -0.17221716939E-01  0.21865771582E-01  0.36713754667E-01  0.00000000000E+00 0.  1.
     999901    1    3    3    0    0 -0.12420767848E+00  0.28419597289E-01 -0.72968689995E-01  0.89216570805E+00  0.88000000000E+00 0. -1.
        -11    1    4    4    0    0  0.19750570647E-01  0.11125060837E-02  0.18745028313E-02  0.19877061969E-01  0.51100000000E-03 0.  1.
         11    1    4    4    0    0  0.80515506376E-01 -0.12310386434E-01  0.49228415582E-01  0.95173475312E-01  0.51100000000E-03 0. -1.
</event>
<event>
 8    1  0.1162192E+005  0.1043930E+01  0.7957747E-01            NaN
         13   -1    0    0    0    0  0.00000000000E+00  0.00000000000E+00  0.74505805969E-08  0.10566000000E+00  0.10566000000E+00 0. -1.
     999900   -1    0    0    0    0 -0.00000000000E+00 -0.00000000000E+00 -0.74505805969E-08  0.93827000000E+00  0.93827000000E+00 0. -1.
     999902    2    1    2    0    0  0.14700603262E-02  0.23386371453E-01  0.34770902172E-02  0.10202408969E+01  0.10199658397E+01 0.  0.
     999903    2    3    3    0    0 -0.85027167515E-03 -0.11182847544E+00 -0.58316197207E-01  0.12776857293E+00  0.20437673361E-01 0.  0.
         14    1    1    2    0    0 -0.14700603262E-02 -0.23386371453E-01 -0.34770902172E-02  0.23689103054E-01  0.00000000000E+00 0.  1.
     999901    1    3    3    0    0  0.23203320013E-02  0.13521484689E+00  0.61793287424E-01  0.89247232401E+00  0.88000000000E+00 0.  1.
        -11    1    4    4    0    0 -0.56002645879E-02 -0.82186555335E-01 -0.33946895386E-01  0.89099077822E-01  0.51100000000E-03 0. -1.
         11    1    4    4    0    0  0.47499929128E-02 -0.29641920100E-01 -0.24369301820E-01  0.38669495110E-01  0.51100000000E-03 0.  1.
</event>
<event>
 8    1  0.1735123E+005  0.1043930E+01  0.7957747E-01            NaN
         13   -1    0    0    0    0  0.00000000000E+00  0.00000000000E+00  0.74505805969E-08  0.10566000000E+00  0.10566000000E+00 0. -1.
     999900   -1    0    0    0    0 -0.00000000000E+00 -0.00000000000E+00 -0.74505805969E-08  0.93827000000E+00  0.93827000000E+00 0. -1.
     999902    2    1    2    0    0 -0.17387563999E-01 -0.12150957483E-01 -0.97735010529E-02  0.10205741769E+01  0.10203068931E+01 0.  0.
     999903    2    3    3    0    0  0.51434043493E-01  0.36317921167E-01 -0.11269971457E+00  0.13058572120E+00  0.19671113109E-01 0.  0.
         14    1    1    2    0    0  0.17387563999E-01  0.12150957483E-01  0.97735010529E-02  0.23355823094E-01  0.00000000000E+00 0. -1.
     999901    1    3    3    0    0 -0.68821607492E-01 -0.48468878651E-01  0.10292621351E+00  0.88998845570E+00  0.88000000000E+00 0.  1.
        -11    1    4    4    0    0  0.26714611505E-01  0.29331574385E-01 -0.59635112574E-01  0.71628342829E-01  0.51100000000E-03 0.  1.
         11    1    4    4    0    0  0.24719431988E-01  0.69863467828E-02 -0.53064601992E-01  0.58957378374E-01  0.51100000000E-03 0. -1.
</event>
<event>
 8    1  0.1162192E+005  0.1043930E+01  0.7957747E-01            NaN
         13   -1    0    0    0    0  0.00000000000E+00  0.00000000000E+00  0.74505805969E-08  0.10566000000E+00  0.10566000000E+00 0. -1.
     999900   -1    0    0    0    0 -0.00000000000E+00 -0.00000000000E+00 -0.74505805969E-08  0.93827000000E+00  0.93827000000E+00 0.  1.
     999902    2    1    2    0    0  0.80775650253E-03 -0.28462506116E-01  0.47470275340E-02  0.10150630467E+01  0.10146524960E+01 0.  0.
     999903    2    3    3    0    0  0.89211784543E-02  0.11391669991E+00  0.40630934470E-01  0.12286053562E+00  0.19678323968E-01 0.  0.
         14    1    1    2    0    0 -0.80775650253E-03  0.28462506116E-01 -0.47470275340E-02  0.28866953345E-01  0.00000000000E+00 0.  1.
     999901    1    3    3    0    0 -0.81134219518E-02 -0.14237920602E+00 -0.35883906936E-01  0.89220251104E+00  0.88000000000E+00 0.  1.
        -11    1    4    4    0    0  0.49009668361E-02  0.85304705674E-01  0.38973639359E-01  0.93915483132E-01  0.51100000000E-03 0.  1.
         11    1    4    4    0    0  0.40202116182E-02  0.28611994232E-01  0.16572951112E-02  0.28945052487E-01  0.51100000000E-03 0. -1.
</event>
<event>
 8    1  0.1162192E+005  0.1043930E+01  0.7957747E-01            NaN
         13   -1    0    0    0    0  0.00000000000E+00  0.00000000000E+00  0.74505805969E-08  0.10566000000E+00  0.10566000000E+00 0. -1.
     999900   -1    0    0    0    0 -0.00000000000E+00 -0.00000000000E+00 -0.74505805969E-08  0.93827000000E+00  0.93827000000E+00 0. -1.
     999902    2    1    2    0    0  0.12477862356E-01 -0.94578643467E-03 -0.20028668082E-01  0.10203134993E+01  0.10200401451E+01 0.  0.
     999903    2    3    3    0    0 -0.10100724594E+00 -0.32063192545E-01 -0.73901715151E-01  0.13084766634E+00  0.20715603671E-01 0.  0.
         14    1    1    2    0    0 -0.12477862356E-01  0.94578643467E-03  0.20028668082E-01  0.23616500717E-01  0.00000000000E+00 0. -1.
     999901    1    3    3    0    0  0.11348510830E+00  0.31117406111E-01  0.53873047068E-01  0.88946583294E+00  0.88000000000E+00 0.  1.
        -11    1    4    4    0    0 -0.64198551376E-01 -0.28936893872E-01 -0.54967623573E-01  0.89333636375E-01  0.51100000000E-03 0.  1.
         11    1    4    4    0    0 -0.36808694568E-01 -0.31262986735E-02 -0.18934091578E-01  0.41514029967E-01  0.51100000000E-03 0. -1.
</event>
<event>
 8    1  0.1162192E+005  0.1043930E+01  0.7957747E-01            NaN
         13   -1    0    0    0    0  0.00000000000E+00  0.00000000000E+00  0.74505805969E-08  0.10566000000E+00  0.10566000000E+00 0.  1.
     999900   -1    0    0    0    0 -0.00000000000E+00 -0.00000000000E+00 -0.74505805969E-08  0.93827000000E+00  0.93827000000E+00 0. -1.
     999902    2    1    2    0    0  0.13780460391E-01 -0.20162041898E-01 -0.13493494759E-02  0.10194712640E+01  0.10191778198E+01 0.  0.
     999903    2    3    3    0    0 -0.31739713817E-01  0.44284316771E-01 -0.11477291337E+00  0.12869052542E+00  0.20491938478E-01 0.  0.
         14    1    1    2    0    0 -0.13780460391E-01  0.20162041898E-01  0.13493494759E-02  0.24458735988E-01  0.00000000000E+00 0.  1.
     999901    1    3    3    0    0  0.45520174208E-01 -0.64446358669E-01  0.11342356390E+00  0.89078073860E+00  0.88000000000E+00 0.  1.
        -11    1    4    4    0    0 -0.10720209573E-01  0.24878613486E-01 -0.74614571343E-01  0.79381759114E-01  0.51100000000E-03 0. -1.
         11    1    4    4    0    0 -0.21019504243E-01  0.19405703285E-01 -0.40158342031E-01  0.49308766303E-01  0.51100000000E-03 0.  1.
</event>
<event>
 8    1  0.1162192E+005  0.1043930E+01  0.7957747E-01            NaN
         13   -1    0    0    0    0  0.00000000000E+00  0.00000000000E+00  0.74505805969E-08  0.10566000000E+00  0.10566000000E+00 0.  1.
     999900   -1    0    0    0    0 -0.00000000000E+00 -0.00000000000E+00 -0.74505805969E-08  0.93827000000E+00  0.93827000000E+00 0.  1.
     999902    2    1    2    0    0 -0.11364866962E-02 -0.17330037053E-01 -0.14380941786E-01  0.10213815350E+01  0.10211326098E+01 0.  0.
     999903    2    3    3    0    0 -0.34576697516E-01  0.12318881563E+00 -0.65307208729E-02  0.12957134130E+00  0.19366204146E-01 0.  0.
         14    1    1    2    0    0  0.11364866962E-02  0.17330037053E-01  0.14380941786E-01  0.22548464980E-01  0.00000000000E+00 0.  1.
     999901    1    3    3    0    0  0.33440210820E-01 -0.14051885268E+00 -0.78502209133E-02  0.89181019372E+00  0.88000000000E+00 0.  1.
        -11    1    4    4    0    0  0.10503831833E-02  0.20254948063E-01  0.15368443857E-02  0.20346725474E-01  0.51100000000E-03 0.  1.
         11    1    4    4    0    0 -0.35627080700E-01  0.10293386757E+00 -0.80675652586E-02  0.10922461582E+00  0.51100000000E-03 0. -1.
</event>
<event>
 8    1  0.1162192E+005  0.1043930E+01  0.7957747E-01            NaN
         13   -1    0    0    0    0  0.00000000000E+00  0.00000000000E+00  0.74505805969E-08  0.10566000000E+00  0.10566000000E+00 0.  1.
     999900   -1    0    0    0    0 -0.00000000000E+00 -0.00000000000E+00 -0.74505805969E-08  0.93827000000E+00  0.93827000000E+00 0. -1.
     999902    2    1    2    0    0 -0.54364333751E-02 -0.17920590325E-01 -0.14084207719E-01  0.10204978155E+01  0.10202287607E+01 0.  0.
     999903    2    3    3    0    0  0.35142998913E-01 -0.40093672629E-01 -0.12004744636E+00  0.13293568025E+00  0.20444381847E-01 0.  0.
         14    1    1    2    0    0  0.54364333751E-02  0.17920590325E-01  0.14084207719E-01  0.23432184544E-01  0.00000000000E+00 0.  1.
     999901    1    3    3    0    0 -0.40579432288E-01  0.22173082304E-01  0.10596323864E+00  0.88756213520E+00  0.88000000000E+00 0.  1.
        -11    1    4    4    0    0  0.30875988438E-01 -0.24492792513E-01 -0.97648228916E-01  0.10530271259E+00  0.51100000000E-03 0. -1.
         11    1    4    4    0    0  0.42670104753E-02 -0.15600880116E-01 -0.22399217443E-01  0.27632967663E-01  0.51100000000E-03 0.  1.
</event>
<event>
 8    1  0.1162192E+005  0.1043930E+01  0.7957747E-01            NaN
         13   -1    0    0    0    0  0.00000000000E+00  0.00000000000E+00  0.74505805969E-08  0.10566000000E+00  0.10566000000E+00 0. -1.
     999900   -1    0    0    0    0 -0.00000000000E+00 -0.00000000000E+00 -0.74505805969E-08  0.93827000000E+00  0.93827000000E+00 0. -1.
     999902    2    1    2    0    0  0.97515722292E-02  0.18838032203E-01  0.81745719391E-02  0.10211970230E+01  0.10209439610E+01 0.  0.
     999903    2    3    3    0    0  0.68106026315E-01 -0.85533207492E-01 -0.67162798911E-01  0.12992023239E+00  0.20348582787E-01 0.  0.
         14    1    1    2    0    0 -0.97515722292E-02 -0.18838032203E-01 -0.81745719391E-02  0.22732977030E-01  0.00000000000E+00 0.  1.
     999901    1    3    3    0    0 -0.58354454086E-01  0.10437123970E+00  0.75337370850E-01  0.89127679058E+00  0.88000000000E+00 0.  1.
        -11    1    4    4    0    0  0.48696068095E-01 -0.73612563905E-01 -0.56194232522E-01  0.10463350086E+00  0.51100000000E-03 0. -1.
         11    1    4    4    0    0  0.19409958220E-01 -0.11920643588E-01 -0.10968566389E-01  0.25286731526E-01  0.51100000000E-03 0.  1.
</event>
<event>
 8    1  0.1162192E+005  0.1043930E+01  0.7957747E-01            NaN
         13   -1    0    0    0    0  0.00000000000E+00  0.00000000000E+00  0.74505805969E-08  0.10566000000E+00  0.10566000000E+00 0. -1.
     999900   -1    0    0    0    0 -0.00000000000E+00 -0.00000000000E+00 -0.74505805969E-08  0.93827000000E+00  0.93827000000E+00 0.  1.
     999902    2    1    2    0    0  0.12465461630E-01  0.11055117366E-01  0.17512475128E-01  0.10197579058E+01  0.10194713808E+01 0.  0.
     999903    2    3    3    0    0  0.76886242592E-01 -0.10033384755E+00  0.23469326348E-01  0.13038002063E+00  0.21674068295E-01 0.  0.
         14    1    1    2    0    0 -0.12465461630E-01 -0.11055117366E-01 -0.17512475128E-01  0.24172094215E-01  0.00000000000E+00 0.  1.
     999901    1    3    3    0    0 -0.64420780963E-01  0.11138896492E+00 -0.59568512195E-02  0.88937788515E+00  0.88000000000E+00 0.  1.
        -11    1    4    4    0    0  0.67381305640E-01 -0.73893026027E-01  0.15740682290E-01  0.10123462770E+00  0.51100000000E-03 0.  1.
         11    1    4    4    0    0  0.95049369527E-02 -0.26440821523E-01  0.77286440582E-02  0.29145392934E-01  0.51100000000E-03 0. -1.
</event>
<event>
 8    1  0.1162192E+005  0.1043930E+01  0.7957747E-01            NaN
         13   -1    0    0    0    0  0.00000000000E+00  0.00000000000E+00  0.74505805969E-08  0.10566000000E+00  0.10566000000E+00 0. -1.
     999900   -1    0    0    0    0 -0.00000000000E+00 -0.00000000000E+00 -0.74505805969E-08  0.93827000000E+00  0.93827000000E+00 0. -1.
     999902    2    1    2    0    0 -0.18603146217E-01 -0.13222277611E-01 -0.58049724559E-02  0.10203799813E+01  0.10201081820E+01 0.  0.
     999903    2    3    3    0    0 -0.72053343130E-01 -0.73026796753E-02  0.10818757057E+00  0.13139951750E+00  0.17783964346E-01 0.  0.
         14    1    1    2    0    0  0.18603146217E-01  0.13222277611E-01  0.58049724559E-02  0.23550018675E-01  0.00000000000E+00 0.  1.
     999901    1    3    3    0    0  0.53450196913E-01 -0.59195979361E-02 -0.11399254303E+00  0.88898046382E+00  0.88000000000E+00 0. -1.
        -11    1    4    4    0    0 -0.18125690255E-01 -0.49616790408E-02  0.41816880781E-01  0.45848353792E-01  0.51100000000E-03 0. -1.
         11    1    4    4    0    0 -0.53927652875E-01 -0.23410006345E-02  0.66370689788E-01  0.85551163712E-01  0.51100000000E-03 0.  1.
</event>
<event>
 8    1  0.1162192E+005  0.1043930E+01  0.7957747E-01            NaN
         13   -1    0    0    0    0  0.00000000000E+00  0.00000000000E+00  0.74505805969E-08  0.10566000000E+00  0.10566000000E+00 0.  1.
     999900   -1    0    0    0    0 -0.00000000000E+00 -0.00000000000E+00 -0.74505805969E-08  0.93827000000E+00  0.93827000000E+00 0.  1.
     999902    2    1    2    0    0  0.43813411750E-02  0.14257978219E-02 -0.23592790047E-01  0.10198915144E+01  0.10196081857E+01 0.  0.
     999903    2    3    3    0    0  0.12209820698E+00  0.21780857761E-01  0.33210026354E-01  0.13000492107E+00  0.20395973578E-01 0.  0.
         14    1    1    2    0    0 -0.43813411750E-02 -0.14257978219E-02  0.23592790047E-01  0.24038485646E-01  0.00000000000E+00 0.  1.
     999901    1    3    3    0    0 -0.11771686581E+00 -0.20355059939E-01 -0.56802816401E-01  0.88988659329E+00  0.88000000000E+00 0.  1.
        -11    1    4    4    0    0  0.11534465947E+00  0.24701146682E-01  0.28852705449E-01  0.12143836646E+00  0.51100000000E-03 0.  1.
         11    1    4    4    0    0  0.67535475142E-02 -0.29202889209E-02  0.43573209050E-02  0.85665546094E-02  0.51100000000E-03 0. -1.
</event>
<event>
 8    1  0.1162192E+005  0.1043930E+01  0.7957747E-01            NaN
         13   -1    0    0    0    0  0.00000000000E+00  0.00000000000E+00  0.74505805969E-08  0.10566000000E+00  0.10566000000E+00 0. -1.
     999900   -1    0    0    0    0 -0.00000000000E+00 -0.00000000000E+00 -0.74505805969E-08  0.93827000000E+00  0.93827000000E+00 0.  1.
     999902    2    1    2    0    0 -0.27028584852E-01 -0.16240532990E-01  0.10580682661E-03  0.10123973105E+01  0.10119061240E+01 0.  0.
     999903    2    3    3    0    0 -0.30926556586E-01 -0.27596261340E-01  0.11606837143E+00  0.12470847813E+00  0.19035023800E-01 0.  0.
         14    1    1    2    0    0  0.27028584852E-01  0.16240532990E-01 -0.10580682661E-03  0.31532689482E-01  0.00000000000E+00 0. -1.
     999901    1    3    3    0    0  0.38979717344E-02  0.11355728350E-01 -0.11596256460E+00  0.88768883238E+00  0.88000000000E+00 0.  1.
        -11    1    4    4    0    0 -0.32853060912E-01 -0.21952427905E-01  0.97667113585E-01  0.10535824078E+00  0.51100000000E-03 0.  1.
         11    1    4    4    0    0  0.19265043256E-02 -0.56438334348E-02  0.18401257840E-01  0.19350237359E-01  0.51100000000E-03 0. -1.
</event>
<event>
 8    1  0.1162192E+005  0.1043930E+01  0.7957747E-01            NaN
         13   -1    0    0    0    0  0.00000000000E+00  0.00000000000E+00  0.74505805969E-08  0.10566000000E+00  0.10566000000E+00 0. -1.
     999900   -1    0    0    0    0 -0.00000000000E+00 -0.00000000000E+00 -0.74505805969E-08  0.93827000000E+00  0.93827000000E+00 0. -1.
     999902    2    1    2    0    0  0.13674553858E-01  0.16123991316E-01 -0.10647281949E-01  0.10202584742E+01  0.10199838298E+01 0.  0.
     999903    2    3    3    0    0 -0.24602967030E-01  0.15405958408E-01  0.12458248838E+00  0.12910597608E+00  0.17461589515E-01 0.  0.
         14    1    1    2    0    0 -0.13674553858E-01 -0.16123991316E-01  0.10647281949E-01  0.23671525766E-01  0.00000000000E+00 0. -1.
     999901    1    3    3    0    0  0.38277520888E-01  0.71803290887E-03 -0.13522977033E+00  0.89115249815E+00  0.88000000000E+00 0. -1.
        -11    1    4    4    0    0 -0.11106958724E-01  0.15939057573E-01  0.58120503643E-01  0.61283539006E-01  0.51100000000E-03 0.  1.
         11    1    4    4    0    0 -0.13496008306E-01 -0.53309916571E-03  0.66461984737E-01  0.67822437078E-01  0.51100000000E-03 0. -1.
</event>
<event>
 8    1  0.1162192E+005  0.1043930E+01  0.7957747E-01            NaN
         13   -1    0    0    0    0  0.00000000000E+00  0.00000000000E+00  0.74505805969E-08  0.10566000000E+00  0.10566000000E+00 0.  1.
     999900   -1    0    0    0    0 -0.00000000000E+00 -0.00000000000E+00 -0.74505805969E-08  0.93827000000E+00  0.93827000000E+00 0. -1.
     999902    2    1    2    0    0  0.67973424667E-03  0.14139550314E-01 -0.18962746808E-01  0.10202662157E+01  0.10199917530E+01 0.  0.
     999903    2    3    3    0    0  0.74081453329E-01 -0.89134965747E-01 -0.56876967407E-01  0.13038368065E+00  0.18215677658E-01 0.  0.
         14    1    1    2    0    0 -0.67973424667E-03 -0.14139550314E-01  0.18962746808E-01  0.23663784317E-01  0.00000000000E+00 0.  1.
     999901    1    3    3    0    0 -0.73401719082E-01  0.10327451606E+00  0.37914220599E-01  0.88988253503E+00  0.88000000000E+00 0. -1.
        -11    1    4    4    0    0  0.53745575957E-02 -0.16338939987E-01 -0.76001016810E-02  0.18811419292E-01  0.51100000000E-03 0.  1.
         11    1    4    4    0    0  0.68706895733E-01 -0.72796025761E-01 -0.49276865726E-01  0.11157226136E+00  0.51100000000E-03 0. -1.
</event>
<event>
 8    1  0.1162192E+005  0.1043930E+01  0.7957747E-01            NaN
         13   -1    0    0    0    0  0.00000000000E+00  0.00000000000E+00  0.74505805969E-08  0.10566000000E+00  0.10566000000E+00 0.  1.
     999900   -1    0    0    0    0 -0.00000000000E+00 -0.00000000000E+00 -0.74505805969E-08  0.93827000000E+00  0.93827000000E+00 0.  1.
     999902    2    1    2    0    0 -0.17325264968E-03 -0.14610735427E-01 -0.13596064099E-01  0.10239711282E+01  0.10237765942E+01 0.  0.
     999903    2    3    3    0    0  0.20692692620E-01 -0.11644248936E+00 -0.64993326216E-01  0.13636379812E+00  0.19593675764E-01 0.  0.
         14    1    1    2    0    0  0.17325264968E-03  0.14610735427E-01  0.13596064099E-01  0.19958871841E-01  0.00000000000E+00 0.  1.
     999901    1    3    3    0    0 -0.20865945270E-01  0.10183175393E+00  0.51397262117E-01  0.88760733004E+00  0.88000000000E+00 0. -1.
        -11    1    4    4    0    0  0.86008307377E-02 -0.25446765649E-01 -0.23216568640E-01  0.35507497121E-01  0.51100000000E-03 0. -1.
         11    1    4    4    0    0  0.12091861883E-01 -0.90995723709E-01 -0.41776757576E-01  0.10085630100E+00  0.51100000000E-03 0.  1.
</event>
<event>
 8    1  0.1162192E+005  0.1043930E+01  0.7957747E-01            NaN
         13   -1    0    0    0    0  0.00000000000E+00  0.00000000000E+00  0.74505805969E-08  0.10566000000E+00  0.10566000000E+00 0.  1.
     999900   -1    0    0    0    0 -0.00000000000E+00 -0.00000000000E+00 -0.74505805969E-08  0.93827000000E+00  0.93827000000E+00 0. -1.
     999902    2    1    2    0    0  0.62940201906E-02  0.52586355374E-02 -0.68129743687E-02  0.10332677039E+01  0.10332126903E+01 0.  0.
     999903    2    3    3    0    0  0.13150623015E+00 -0.51385034769E-01 -0.19333355699E-02  0.14258795576E+00  0.19831212146E-01 0.  0.
         14    1    1    2    0    0 -0.62940201906E-02 -0.52586355374E-02  0.68129743687E-02  0.10662296077E-01  0.00000000000E+00 0.  1.
     999901    1    3    3    0    0 -0.12521220996E+00  0.56643670307E-01 -0.48796387988E-02  0.89067974816E+00  0.88000000000E+00 0. -1.
        -11    1    4    4    0    0  0.65759504014E-01 -0.18096848573E-01  0.59866271730E-02  0.68468307431E-01  0.51100000000E-03 0.  1.
         11    1    4    4    0    0  0.65746726137E-01 -0.33288186196E-01 -0.79199627429E-02  0.74119648332E-01  0.51100000000E-03 0. -1.
</event>
<event>
 8    1  0.1162192E+005  0.1043930E+01  0.7957747E-01            NaN
         13   -1    0    0    0    0  0.00000000000E+00  0.00000000000E+00  0.74505805969E-08  0.10566000000E+00  0.10566000000E+00 0. -1.
     999900   -1    0    0    0    0 -0.00000000000E+00 -0.00000000000E+00 -0.74505805969E-08  0.93827000000E+00  0.93827000000E+00 0.  1.
     999902    2    1    2    0    0 -0.60221901563E-02  0.18086379049E-01 -0.12960852127E-01  0.10208785886E+01  0.10206183053E+01 0.  0.
     999903    2    3    3    0    0 -0.71744792279E-01  0.64095107156E-01 -0.90680214137E-01  0.13381795776E+00  0.20708611791E-01 0.  0.
         14    1    1    2    0    0  0.60221901563E-02 -0.18086379049E-01  0.12960852127E-01  0.23051411437E-01  0.00000000000E+00 0. -1.
     999901    1    3    3    0    0  0.65722602123E-01 -0.46008728107E-01  0.77719362009E-01  0.88706063080E+00  0.88000000000E+00 0. -1.
        -11    1    4    4    0    0 -0.28591796115E-01  0.28132806489E-01 -0.51722219925E-01  0.65455288258E-01  0.51100000000E-03 0.  1.
         11    1    4    4    0    0 -0.43152996164E-01  0.35962300666E-01 -0.38957994212E-01  0.68362669500E-01  0.51100000000E-03 0. -1.
</event>
<event>
 8    1  0.1162192E+005  0.1043930E+01  0.7957747E-01            NaN
         13   -1    0    0    0    0  0.00000000000E+00  0.00000000000E+00  0.74505805969E-08  0.10566000000E+00  0.10566000000E+00 0. -1.
     999900   -1    0    0    0    0 -0.00000000000E+00 -0.00000000000E+00 -0.74505805969E-08  0.93827000000E+00  0.93827000000E+00 0. -1.
     999902    2    1    2    0    0  0.81695082522E-02  0.18905030316E-01 -0.90233829549E-02  0.10214452835E+01  0.10211977794E+01 0.  0.
     999903    2    3    3    0    0  0.13328104842E-01  0.90579855343E-01  0.93809994654E-01  0.13254787929E+00  0.19653921578E-01 0.  0.
         14    1    1    2    0    0 -0.81695082522E-02 -0.18905030316E-01  0.90233829549E-02  0.22484716504E-01  0.00000000000E+00 0.  1.
     999901    1    3    3    0    0 -0.51585965898E-02 -0.71674825027E-01 -0.10283337761E+00  0.88889740421E+00  0.88000000000E+00 0. -1.
        -11    1    4    4    0    0  0.28364779415E-03  0.57951844189E-01  0.65180549640E-01  0.87219618627E-01  0.51100000000E-03 0. -1.
         11    1    4    4    0    0  0.13044457048E-01  0.32628011154E-01  0.28629445014E-01  0.45328260659E-01  0.51100000000E-03 0.  1.
</event>
<event>
 8    1  0.1174809E+005  0.1043930E+01  0.7957747E-01            NaN
         13   -1    0    0    0    0  0.00000000000E+00  0.00000000000E+00  0.74505805969E-08  0.10566000000E+00  0.10566000000E+00 0.  1.
     999900   -1    0    0    0    0 -0.00000000000E+00 -0.00000000000E+00 -0.74505805969E-08  0.93827000000E+00  0.93827000000E+00 0.  1.
     999902    2    1    2    0    0 -0.66177650082E-02  0.62342276708E-03  0.22745547346E-01  0.10202330932E+01  0.10199578526E+01 0.  0.
     999903    2    3    3    0    0  0.94747693996E-01 -0.29117135930E-01  0.84638181727E-01  0.13175678211E+00  0.19269008881E-01 0.  0.
         14    1    1    2    0    0  0.66177650082E-02 -0.62342276708E-03 -0.22745547346E-01  0.23696906839E-01  0.00000000000E+00 0. -1.
     999901    1    3    3    0    0 -0.10136545900E+00  0.29740558697E-01 -0.61892634381E-01  0.88847631105E+00  0.88000000000E+00 0.  1.
        -11    1    4    4    0    0  0.40295487211E-01 -0.19494183073E-01  0.46730222614E-01  0.64712628519E-01  0.51100000000E-03 0.  1.
         11    1    4    4    0    0  0.54452206786E-01 -0.96229528567E-02  0.37907959113E-01  0.67044153590E-01  0.51100000000E-03 0. -1.
</event>
<event>
 8    1  0.1162192E+005  0.1043930E+01  0.7957747E-01            NaN
         13   -1    0    0    0    0  0.00000000000E+00  0.00000000000E+00  0.74505805969E-08  0.10566000000E+00  0.10566000000E+00 0. -1.
     999900   -1    0    0    0    0 -0.00000000000E+00 -0.00000000000E+00 -0.74505805969E-08  0.93827000000E+00  0.93827000000E+00 0.  1.
     999902    2    1    2    0    0 -0.13984157591E-01 -0.13278981453E-01  0.81364820309E-02  0.10229993920E+01  0.10227852490E+01 0.  0.
     999903    2    3    3    0    0  0.12579493898E+00 -0.19832311616E-01  0.19144813467E-01  0.13187520012E+00  0.28405233099E-01 0.  0.
         14    1    1    2    0    0  0.13984157591E-01  0.13278981453E-01 -0.81364820309E-02  0.20930608013E-01  0.00000000000E+00 0.  1.
     999901    1    3    3    0    0 -0.13977909657E+00  0.65533301625E-02 -0.11008331436E-01  0.89112419187E+00  0.88000000000E+00 0. -1.
        -11    1    4    4    0    0  0.41197223352E-01  0.48902195290E-02 -0.84892346369E-03  0.41498280097E-01  0.51100000000E-03 0. -1.
         11    1    4    4    0    0  0.84597715624E-01 -0.24722531145E-01  0.19993736931E-01  0.90376920021E-01  0.51100000000E-03 0.  1.
</event>
<event>
 8    1  0.1162192E+005  0.1043930E+01  0.7957747E-01            NaN
         13   -1    0    0    0    0  0.00000000000E+00  0.00000000000E+00  0.74505805969E-08  0.10566000000E+00  0.10566000000E+00 0. -1.
     999900   -1    0    0    0    0 -0.00000000000E+00 -0.00000000000E+00 -0.74505805969E-08  0.93827000000E+00  0.93827000000E+00 0. -1.
     999902    2    1    2    0    0 -0.12130593993E-02 -0.41888393406E-02 -0.26510813370E-01  0.10170628990E+01  0.10167079716E+01 0.  0.
     999903    2    3    3    0    0 -0.65488459027E-01  0.10708900743E+00 -0.11039879239E-01  0.12759483555E+00  0.20044184837E-01 0.  0.
         14    1    1    2    0    0  0.12130593993E-02  0.41888393406E-02  0.26510813370E-01  0.26867100954E-01  0.00000000000E+00 0. -1.
     999901    1    3    3    0    0  0.64275399627E-01 -0.11127784678E+00 -0.15470934132E-01  0.88946806350E+00  0.88000000000E+00 0.  1.
        -11    1    4    4    0    0 -0.17111441297E-01  0.14184275497E-01 -0.41988257094E-02  0.22624905590E-01  0.51100000000E-03 0.  1.
         11    1    4    4    0    0 -0.48377017730E-01  0.92904731938E-01 -0.68410535292E-02  0.10496992996E+00  0.51100000000E-03 0. -1.
</event>
<event>
 8    1  0.1162192E+005  0.1043930E+01  0.7957747E-01            NaN
         13   -1    0    0    0    0  0.00000000000E+00  0.00000000000E+00  0.74505805969E-08  0.10566000000E+00  0.10566000000E+00 0.  1.
     999900   -1    0    0    0    0 -0.00000000000E+00 -0.00000000000E+00 -0.74505805969E-08  0.93827000000E+00  0.93827000000E+00 0.  1.
     999902    2    1    2    0    0 -0.78146379443E-02 -0.19497484690E-01 -0.23792645864E-02  0.10227904310E+01  0.10225719459E+01 0.  0.
     999903    2    3    3    0    0 -0.22890699685E-01  0.20920660427E-02 -0.12970541156E+00  0.13323697901E+00  0.20005947003E-01 0.  0.
         14    1    1    2    0    0  0.78146379443E-02  0.19497484690E-01  0.23792645864E-02  0.21139568951E-01  0.00000000000E+00 0. -1.
     999901    1    3    3    0    0  0.15076061741E-01 -0.21589550733E-01  0.12732614697E+00  0.88955345204E+00  0.88000000000E+00 0. -1.
        -11    1    4    4    0    0 -0.23718737017E-01 -0.44947615728E-03 -0.79692576504E-01  0.83150155655E-01  0.51100000000E-03 0.  1.
         11    1    4    4    0    0  0.82803733201E-03  0.25415421999E-02 -0.50012835052E-01  0.50086823352E-01  0.51100000000E-03 0. -1.
</event>
<event>
 8    1  0.1174159E+005  0.1043930E+01  0.7957747E-01            NaN
         13   -1    0    0    0    0  0.00000000000E+00  0.00000000000E+00  0.74505805969E-08  0.10566000000E+00  0.10566000000E+00 0. -1.
     999900   -1    0    0    0    0 -0.00000000000E+00 -0.00000000000E+00 -0.74505805969E-08  0.93827000000E+00  0.93827000000E+00 0. -1.
     999902    2    1    2    0    0 -0.16485155999E-01  0.14022416073E-01 -0.96365442796E-02  0.10202392527E+01  0.10199641569E+01 0.  0.
     999903    2    3    3    0    0 -0.62284961282E-02 -0.76912169273E-01 -0.10349657175E+00  0.13052918611E+00  0.19288652488E-01 0.  0.
         14    1    1    2    0    0  0.16485155999E-01 -0.14022416073E-01  0.96365442796E-02  0.23690747276E-01  0.00000000000E+00 0. -1.
     999901    1    3    3    0    0 -0.10256659870E-01  0.90934585346E-01  0.93860027473E-01  0.88971006662E+00  0.88000000000E+00 0.  1.
        -11    1    4    4    0    0 -0.70043591937E-02 -0.55023877910E-01 -0.59295614772E-01  0.81196793287E-01  0.51100000000E-03 0. -1.
         11    1    4    4    0    0  0.77586306544E-03 -0.21888291364E-01 -0.44200956980E-01  0.49332392819E-01  0.51100000000E-03 0.  1.
</event>
<event>
 8    1  0.1162192E+005  0.1043930E+01  0.7957747E-01            NaN
         13   -1    0    0    0    0  0.00000000000E+00  0.00000000000E+00  0.74505805969E-08  0.10566000000E+00  0.10566000000E+00 0.  1.
     999900   -1    0    0    0    0 -0.00000000000E+00 -0.00000000000E+00 -0.74505805969E-08  0.93827000000E+00  0.93827000000E+00 0. -1.
     999902    2    1    2    0    0 -0.52295091570E-03 -0.26159484492E-02 -0.23669851639E-01  0.10201102909E+01  0.10198321563E+01 0.  0.
     999903    2    3    3    0    0 -0.65550127728E-01  0.10569711136E+00 -0.24367449022E-01  0.13108794065E+00  0.33489953968E-01 0.  0.
         14    1    1    2    0    0  0.52295091570E-03  0.26159484492E-02  0.23669851639E-01  0.23819709078E-01  0.00000000000E+00 0.  1.
     999901    1    3    3    0    0  0.65027176812E-01 -0.10831305981E+00  0.69759738290E-03  0.88902235028E+00  0.88000000000E+00 0.  1.
        -11    1    4    4    0    0 -0.55056783359E-01  0.60049545690E-01 -0.99357952190E-02  0.82074225425E-01  0.51100000000E-03 0. -1.
         11    1    4    4    0    0 -0.10493344369E-01  0.45647565666E-01 -0.14431653803E-01  0.49013715221E-01  0.51100000000E-03 0.  1.
</event>
<event>
 8    1  0.1162192E+005  0.1043930E+01  0.7957747E-01            NaN
         13   -1    0    0    0    0  0.00000000000E+00  0.00000000000E+00  0.74505805969E-08  0.10566000000E+00  0.10566000000E+00 0. -1.
     999900   -1    0    0    0    0 -0.00000000000E+00 -0.00000000000E+00 -0.74505805969E-08  0.93827000000E+00  0.93827000000E+00 0.  1.
     999902    2    1    2    0    0 -0.13113976868E-01 -0.40428598062E-02 -0.19385793331E-01  0.10201785771E+01  0.10199020537E+01 0.  0.
     999903    2    3    3    0    0 -0.97283993108E-01 -0.48356230021E-01  0.69725082796E-01  0.13057809678E+00  0.19660922951E-01 0.  0.
         14    1    1    2    0    0  0.13113976868E-01  0.40428598062E-02  0.19385793331E-01  0.23751422858E-01  0.00000000000E+00 0. -1.
     999901    1    3    3    0    0  0.84170016240E-01  0.44313370214E-01 -0.89110876128E-01  0.88960048036E+00  0.88000000000E+00 0.  1.
        -11    1    4    4    0    0 -0.20341416513E-01 -0.20345620611E-02  0.15574290741E-01  0.25704713996E-01  0.51100000000E-03 0. -1.
         11    1    4    4    0    0 -0.76942576595E-01 -0.46321667959E-01  0.54150792055E-01  0.10487338278E+00  0.51100000000E-03 0.  1.
</event>
<event>
 8    1  0.1162192E+005  0.1043930E+01  0.7957747E-01            NaN
         13   -1    0    0    0    0  0.00000000000E+00  0.00000000000E+00  0.74505805969E-08  0.10566000000E+00  0.10566000000E+00 0. -1.
     999900   -1    0    0    0    0 -0.00000000000E+00 -0.00000000000E+00 -0.74505805969E-08  0.93827000000E+00  0.93827000000E+00 0. -1.
     999902    2    1    2    0    0 -0.19655286939E-01  0.19127399581E-02  0.13608175918E-01  0.10199472702E+01  0.10196652699E+01 0.  0.
     999903    2    3    3    0    0 -0.41795802227E-01 -0.12869970650E-01  0.12355632038E+00  0.13270585689E+00  0.20788336119E-01 0.  0.
         14    1    1    2    0    0  0.19655286939E-01 -0.19127399581E-02 -0.13608175918E-01  0.23982729840E-01  0.00000000000E+00 0. -1.
     999901    1    3    3    0    0  0.22140515288E-01  0.14782710608E-01 -0.10994814446E+00  0.88724141327E+00  0.88000000000E+00 0. -1.
        -11    1    4    4    0    0 -0.24379131461E-01 -0.59544342440E-02  0.97028954381E-01  0.10022313329E+00  0.51100000000E-03 0.  1.
         11    1    4    4    0    0 -0.17416670766E-01 -0.69155364056E-02  0.26527366000E-01  0.32482723596E-01  0.51100000000E-03 0. -1.
</event>
<event>
 8    1  0.1162192E+005  0.1043930E+01  0.7957747E-01            NaN
         13   -1    0    0    0    0  0.00000000000E+00  0.00000000000E+00  0.74505805969E-08  0.10566000000E+00  0.10566000000E+00 0.  1.
     999900   -1    0    0    0    0 -0.00000000000E+00 -0.00000000000E+00 -0.74505805969E-08  0.93827000000E+00  0.93827000000E+00 0.  1.
     999902    2    1    2    0    0 -0.22801948630E-01 -0.66060605894E-02 -0.14087270183E-02  0.10201486331E+01  0.10198714038E+01 0.  0.
     999903    2    3    3    0    0 -0.11259979352E+00 -0.58943232630E-01 -0.35428769710E-01  0.13337910512E+00  0.19538929998E-01 0.  0.
         14    1    1    2    0    0  0.22801948630E-01  0.66060605894E-02  0.14087270183E-02  0.23781366859E-01  0.00000000000E+00 0. -1.
     999901    1    3    3    0    0  0.89797844890E-01  0.52337172040E-01  0.34020042692E-01  0.88676952802E+00  0.88000000000E+00 0. -1.
        -11    1    4    4    0    0 -0.34374265226E-01 -0.21955800629E-01 -0.20199534069E-01  0.45518453276E-01  0.51100000000E-03 0. -1.
         11    1    4    4    0    0 -0.78225528295E-01 -0.36987432001E-01 -0.15229235642E-01  0.87860651843E-01  0.51100000000E-03 0.  1.
</event>
<event>
 8    1  0.1162192E+005  0.1043930E+01  0.7957747E-01            NaN
         13   -1    0    0    0    0  0.00000000000E+00  0.00000000000E+00  0.74505805969E-08  0.10566000000E+00  0.10566000000E+00 0.  1.
     999900   -1    0    0    0    0 -0.00000000000E+00 -0.00000000000E+00 -0.74505805969E-08  0.93827000000E+00  0.93827000000E+00 0.  1.
     999902    2    1    2    0    0  0.20308168349E-01 -0.10072154175E-01 -0.73116002734E-02  0.10201113206E+01  0.10198332103E+01 0.  0.
     999903    2    3    3    0    0 -0.21206844501E-01  0.48136847591E-01  0.11514408459E+00  0.12875999873E+00  0.23539131435E-01 0.  0.
         14    1    1    2    0    0 -0.20308168349E-01  0.10072154175E-01  0.73116002734E-02  0.23818679434E-01  0.00000000000E+00 0.  1.
     999901    1    3    3    0    0  0.41515012850E-01 -0.58209001767E-01 -0.12245568486E+00  0.89135132183E+00  0.88000000000E+00 0.  1.
        -11    1    4    4    0    0 -0.71794732537E-02  0.25042781338E-01  0.31621475916E-01  0.40973950181E-01  0.51100000000E-03 0. -1.
         11    1    4    4    0    0 -0.14027371247E-01  0.23094066253E-01  0.83522608670E-01  0.87786048551E-01  0.51100000000E-03 0.  1.
</event>
<event>
 8    1  0.1162192E+005  0.1043930E+01  0.7957747E-01            NaN
         13   -1    0    0    0    0  0.00000000000E+00  0.00000000000E+00  0.74505805969E-08  0.10566000000E+00  0.10566000000E+00 0.  1.
     999900   -1    0    0    0    0 -0.00000000000E+00 -0.00000000000E+00 -0.74505805969E-08  0.93827000000E+00  0.93827000000E+00 0. -1.
     999902    2    1    2    0    0  0.10803400170E-01  0.16995010132E-03  0.20566352510E-01  0.10206981857E+01  0.10204337652E+01 0.  0.
     999903    2    3    3    0    0 -0.36596031732E-01 -0.48771863317E-01  0.11638148951E+00  0.13287920209E+00  0.19856159222E-01 0.  0.
         14    1    1    2    0    0 -0.10803400170E-01 -0.16995010132E-03 -0.20566352510E-01  0.23231814260E-01  0.00000000000E+00 0. -1.
     999901    1    3    3    0    0  0.47399431903E-01  0.48941813418E-01 -0.95815136997E-01  0.88781898365E+00  0.88000000000E+00 0. -1.
        -11    1    4    4    0    0 -0.29723247067E-01 -0.23391282419E-01  0.68596457933E-01  0.78334913489E-01  0.51100000000E-03 0. -1.
         11    1    4    4    0    0 -0.68727846658E-02 -0.25380580899E-01  0.47785031574E-01  0.54544288604E-01  0.51100000000E-03 0.  1.
</event>
<event>
 8    1  0.1162192E+005  0.1043930E+01  0.7957747E-01            NaN
         13   -1    0    0    0    0  0.00000000000E+00  0.00000000000E+00  0.74505805969E-08  0.10566000000E+00  0.10566000000E+00 0. -1.
     999900   -1    0    0    0    0 -0.00000000000E+00 -0.00000000000E+00 -0.74505805969E-08  0.93827000000E+00  0.93827000000E+00 0.  1.
     999902    2    1    2    0    0 -0.62771676296E-02  0.17233190247E-01 -0.15169182307E-01  0.10201289544E+01  0.10198512606E+01 0.  0.
     999903    2    3    3    0    0  0.11981908441E+00 -0.34081499263E-01 -0.29275603022E-01  0.12954911338E+00  0.20192827013E-01 0.  0.
         14    1    1    2    0    0  0.62771676296E-02 -0.17233190247E-01  0.15169182307E-01  0.23801045594E-01  0.00000000000E+00 0. -1.
     999901    1    3    3    0    0 -0.12609625204E+00  0.51314689509E-01  0.14106420715E-01  0.89057984103E+00  0.88000000000E+00 0. -1.
        -11    1    4    4    0    0  0.47466181162E-01 -0.48978833068E-02 -0.57813709438E-02  0.48069876076E-01  0.51100000000E-03 0.  1.
         11    1    4    4    0    0  0.72352903253E-01 -0.29183615956E-01 -0.23494232078E-01  0.81479237302E-01  0.51100000000E-03 0. -1.
</event>
<event>
 8    1  0.1162192E+005  0.1043930E+01  0.7957747E-01            NaN
         13   -1    0    0    0    0  0.00000000000E+00  0.00000000000E+00  0.74505805969E-08  0.10566000000E+00  0.10566000000E+00 0.  1.
     999900   -1    0    0    0    0 -0.00000000000E+00 -0.00000000000E+00 -0.74505805969E-08  0.93827000000E+00  0.93827000000E+00 0. -1.
     999902    2    1    2    0    0  0.21665793500E-01  0.29736206579E-02  0.87018751420E-02  0.10203933975E+01  0.10201219113E+01 0.  0.
     999903    2    3    3    0    0  0.78513605110E-01  0.70031747851E-01  0.78293037838E-01  0.13327931459E+00  0.23764343672E-01 0.  0.
         14    1    1    2    0    0 -0.21665793500E-01 -0.29736206579E-02 -0.87018751420E-02  0.23536602533E-01  0.00000000000E+00 0. -1.
     999901    1    3    3    0    0 -0.56847811610E-01 -0.67058127193E-01 -0.69591162696E-01  0.88711408287E+00  0.88000000000E+00 0. -1.
        -11    1    4    4    0    0  0.25571902510E-01  0.98824312543E-02  0.24460197923E-01  0.36744347169E-01  0.51100000000E-03 0. -1.
         11    1    4    4    0    0  0.52941702600E-01  0.60149316597E-01  0.53832839915E-01  0.96534967424E-01  0.51100000000E-03 0.  1.
</event>
<event>
 8    1  0.1162192E+005  0.1043930E+01  0.7957747E-01            NaN
         13   -1    0    0    0    0  0.00000000000E+00  0.00000000000E+00  0.74505805969E-08  0.10566000000E+00  0.10566000000E+00 0.  1.
     999900   -1    0    0    0    0 -0.00000000000E+00 -0.00000000000E+00 -0.74505805969E-08  0.93827000000E+00  0.93827000000E+00 0.  1.
     999902    2    1    2    0    0 -0.66273147889E-02  0.19744771423E-01 -0.13974669587E-01  0.10188487582E+01  0.10185399960E+01 0.  0.
     999903    2    3    3    0    0  0.88300533315E-01 -0.25814581890E-01 -0.89205893745E-01  0.12938448792E+00  0.17868335535E-01 0.  0.
         14    1    1    2    0    0  0.66273147889E-02 -0.19744771423E-01  0.13974669587E-01  0.25081241793E-01  0.00000000000E+00 0.  1.
     999901    1    3    3    0    0 -0.94927848104E-01  0.45559353312E-01  0.75231224159E-01  0.88946427028E+00  0.88000000000E+00 0. -1.
        -11    1    4    4    0    0  0.77443496345E-01 -0.28017752921E-01 -0.81601058391E-01  0.11593741181E+00  0.51100000000E-03 0. -1.
         11    1    4    4    0    0  0.10857036970E-01  0.22031710314E-02 -0.76048353545E-02  0.13447076118E-01  0.51100000000E-03 0.  1.
</event>
<event>
 8    1  0.1162192E+005  0.1043930E+01  0.7957747E-01            NaN
         13   -1    0    0    0    0  0.00000000000E+00  0.00000000000E+00  0.74505805969E-08  0.10566000000E+00  0.10566000000E+00 0. -1.
     999900   -1    0    0    0    0 -0.00000000000E+00 -0.00000000000E+00 -0.74505805969E-08  0.93827000000E+00  0.93827000000E+00 0.  1.
     999902    2    1    2    0    0 -0.89348864157E-02  0.18367305055E-02  0.22589231820E-01  0.10195685721E+01  0.10192774863E+01 0.  0.
     999903    2    3    3    0    0  0.63800507158E-01 -0.93522480966E-01 -0.56011812244E-01  0.12796218990E+00  0.20494871859E-01 0.  0.
         14    1    1    2    0    0  0.89348864157E-02 -0.18367305055E-02 -0.22589231820E-01  0.24361427881E-01  0.00000000000E+00 0.  1.
     999901    1    3    3    0    0 -0.72735393574E-01  0.95359211472E-01  0.78601044064E-01  0.89160638222E+00  0.88000000000E+00 0. -1.
        -11    1    4    4    0    0  0.37518786599E-01 -0.70499612040E-01 -0.35069919011E-01  0.87223935855E-01  0.51100000000E-03 0.  1.
         11    1    4    4    0    0  0.26281720559E-01 -0.23022868927E-01 -0.20941893233E-01  0.40738254041E-01  0.51100000000E-03 0. -1.
</event>
<event>
 8    1  0.1162192E+005  0.1043930E+01  0.7957747E-01            NaN
         13   -1    0    0    0    0  0.00000000000E+00  0.00000000000E+00  0.74505805969E-08  0.10566000000E+00  0.10566000000E+00 0. -1.
     999900   -1    0    0    0    0 -0.00000000000E+00 -0.00000000000E+00 -0.74505805969E-08  0.93827000000E+00  0.93827000000E+00 0.  1.
     999902    2    1    2    0    0 -0.77199450730E-02 -0.21821493613E-01 -0.26462143647E-02  0.10206324124E+01  0.10203664752E+01 0.  0.
     999903    2    3    3    0    0  0.96386292534E-01 -0.27226499176E-01  0.81439352050E-01  0.13049888017E+00  0.19130865597E-01 0.  0.
         14    1    1    2    0    0  0.77199450730E-02  0.21821493613E-01  0.26462143647E-02  0.23297587555E-01  0.00000000000E+00 0. -1.
     999901    1    3    3    0    0 -0.10410623761E+00  0.54050055636E-02 -0.84085566415E-01  0.89013353227E+00  0.88000000000E+00 0.  1.
        -11    1    4    4    0    0  0.18802353287E-02 -0.21206326234E-02  0.71081460047E-02  0.76693694812E-02  0.51100000000E-03 0. -1.
         11    1    4    4    0    0  0.94506057205E-01 -0.25105866553E-01  0.74331206046E-01  0.12282951069E+00  0.51100000000E-03 0.  1.
</event>
<event>
 8    1  0.1162192E+005  0.1043930E+01  0.7957747E-01            NaN
         13   -1    0    0    0    0  0.00000000000E+00  0.00000000000E+00  0.74505805969E-08  0.10566000000E+00  0.10566000000E+00 0. -1.
     999900   -1    0    0    0    0 -0.00000000000E+00 -0.00000000000E+00 -0.74505805969E-08  0.93827000000E+00  0.93827000000E+00 0. -1.
     999902    2    1    2    0    0  0.77246741648E-02 -0.12712700614E-01  0.18539859605E-01  0.10201600664E+01  0.10198831067E+01 0.  0.
     999903    2    3    3    0    0  0.69973120356E-01  0.52517048304E-01 -0.91984243105E-01  0.12867514425E+00  0.21021746652E-01 0.  0.
         14    1    1    2    0    0 -0.77246741648E-02  0.12712700614E-01 -0.18539859605E-01  0.23769933572E-01  0.00000000000E+00 0.  1.
     999901    1    3    3    0    0 -0.62248446191E-01 -0.65229748918E-01  0.11052410271E+00  0.89148492218E+00  0.88000000000E+00 0.  1.
        -11    1    4    4    0    0  0.56978118918E-01  0.34318377184E-01 -0.59569377739E-01  0.89291818959E-01  0.51100000000E-03 0. -1.
         11    1    4    4    0    0  0.12995001438E-01  0.18198671120E-01 -0.32414865366E-01  0.39383325287E-01  0.51100000000E-03 0.  1.
</event>
<event>
 8    1  0.1162192E+005  0.1043930E+01  0.7957747E-01            NaN
         13   -1    0    0    0    0  0.00000000000E+00  0.00000000000E+00  0.74505805969E-08  0.10566000000E+00  0.10566000000E+00 0. -1.
     999900   -1    0    0    0    0 -0.00000000000E+00 -0.00000000000E+00 -0.74505805969E-08  0.93827000000E+00  0.93827000000E+00 0.  1.
     999902    2    1    2    0    0 -0.32521342951E-02  0.31712144510E-02 -0.23957992147E-01  0.10195452021E+01  0.10192535508E+01 0.  0.
     999903    2    3    3    0    0  0.43918561941E-01 -0.12005786347E+00 -0.43796354523E-02  0.12949251142E+00  0.20159331406E-01 0.  0.
         14    1    1    2    0    0  0.32521342951E-02 -0.31712144510E-02  0.23957992147E-01  0.24384797852E-01  0.00000000000E+00 0. -1.
     999901    1    3    3    0    0 -0.47170696237E-01  0.12322907792E+00 -0.19578356695E-01  0.89005269073E+00  0.88000000000E+00 0.  1.
        -11    1    4    4    0    0  0.36314937277E-01 -0.10765136368E+00  0.19176932416E-02  0.11362891111E+00  0.51100000000E-03 0.  1.
         11    1    4    4    0    0  0.76036246644E-02 -0.12406499790E-01 -0.62973286939E-02  0.15863600309E-01  0.51100000000E-03 0. -1.
</event>
<event>
 8    1  0.1162192E+005  0.1043930E+01  0.7957747E-01            NaN
         13   -1    0    0    0    0  0.00000000000E+00  0.00000000000E+00  0.74505805969E-08  0.10566000000E+00  0.10566000000E+00 0.  1.
     999900   -1    0    0    0    0 -0.00000000000E+00 -0.00000000000E+00 -0.74505805969E-08  0.93827000000E+00  0.93827000000E+00 0.  1.
     999902    2    1    2    0    0  0.20453111915E-01  0.90068189458E-02  0.16928634199E-01  0.10158937515E+01  0.10155068110E+01 0.  0.
     999903    2    3    3    0    0  0.12476956589E+00  0.11658685961E-01 -0.23135648181E-01  0.12882323474E+00  0.18889098978E-01 0.  0.
         14    1    1    2    0    0 -0.20453111915E-01 -0.90068189458E-02 -0.16928634199E-01  0.28036248508E-01  0.00000000000E+00 0. -1.
     999901    1    3    3    0    0 -0.10431645398E+00 -0.26518670148E-02  0.40064282381E-01  0.88707051675E+00  0.88000000000E+00 0. -1.
        -11    1    4    4    0    0  0.10031751800E+00  0.15985156710E-01 -0.22123133984E-01  0.10396549346E+00  0.51100000000E-03 0. -1.
         11    1    4    4    0    0  0.24452047894E-01 -0.43264707495E-02 -0.10125141977E-02  0.24857741276E-01  0.51100000000E-03 0.  1.
</event>
<event>
 8    1  0.1162192E+005  0.1043930E+01  0.7957747E-01            NaN
         13   -1    0    0    0    0  0.00000000000E+00  0.00000000000E+00  0.74505805969E-08  0.10566000000E+00  0.10566000000E+00 0. -1.
     999900   -1    0    0    0    0 -0.00000000000E+00 -0.00000000000E+00 -0.74505805969E-08  0.93827000000E+00  0.93827000000E+00 0.  1.
     999902    2    1    2    0    0 -0.21896158217E-01  0.16866739363E-02  0.62159010362E-02  0.10211062396E+01  0.10208511294E+01 0.  0.
     999903    2    3    3    0    0  0.10353432293E+00  0.69312136783E-01 -0.27273485085E-01  0.12901456952E+00  0.19426472372E-01 0.  0.
         14    1    1    2    0    0  0.21896158217E-01 -0.16866739363E-02 -0.62159010362E-02  0.22823760411E-01  0.00000000000E+00 0.  1.
     999901    1    3    3    0    0 -0.12543048115E+00 -0.67625462847E-01  0.33489386121E-01  0.89209167007E+00  0.88000000000E+00 0. -1.
        -11    1    4    4    0    0  0.58281939631E-02  0.10269217575E-01 -0.94538140428E-03  0.11856624371E-01  0.51100000000E-03 0. -1.
         11    1    4    4    0    0  0.97706128969E-01  0.59042919208E-01 -0.26328103681E-01  0.11715794515E+00  0.51100000000E-03 0.  1.
</event>
<event>
 8    1  0.1162192E+005  0.1043930E+01  0.7957747E-01            NaN
         13   -1    0    0    0    0  0.00000000000E+00  0.00000000000E+00  0.74505805969E-08  0.10566000000E+00  0.10566000000E+00 0. -1.
     999900   -1    0    0    0    0 -0.00000000000E+00 -0.00000000000E+00 -0.74505805969E-08  0.93827000000E+00  0.93827000000E+00 0.  1.
     999902    2    1    2    0    0 -0.15974880035E-01 -0.16468995240E-01 -0.29002627199E-02  0.10208034758E+01  0.10205414740E+01 0.  0.
     999903    2    3    3    0    0 -0.62870175761E-01  0.32590503333E-02  0.11381744652E+00  0.13164016789E+00  0.20284039547E-01 0.  0.
         14    1    1    2    0    0  0.15974880035E-01  0.16468995240E-01  0.29002627199E-02  0.23126524170E-01  0.00000000000E+00 0. -1.
     999901    1    3    3    0    0  0.46895295726E-01 -0.19728045574E-01 -0.11671770924E+00  0.88916330794E+00  0.88000000000E+00 0.  1.
        -11    1    4    4    0    0 -0.52397813369E-01  0.69653529441E-02  0.78708544596E-01  0.94812146379E-01  0.51100000000E-03 0. -1.
         11    1    4    4    0    0 -0.10472362392E-01 -0.37063026107E-02  0.35108901921E-01  0.36828021508E-01  0.51100000000E-03 0.  1.
</event>
<event>
 8    1  0.1162192E+005  0.1043930E+01  0.7957747E-01            NaN
         13   -1    0    0    0    0  0.00000000000E+00  0.00000000000E+00  0.74505805969E-08  0.10566000000E+00  0.10566000000E+00 0. -1.
     999900   -1    0    0    0    0 -0.00000000000E+00 -0.00000000000E+00 -0.74505805969E-08  0.93827000000E+00  0.93827000000E+00 0.  1.
     999902    2    1    2    0    0  0.20495515861E-01 -0.74156140869E-02 -0.12491393985E-01  0.10188084470E+01  0.10184986790E+01 0.  0.
     999903    2    3    3    0    0  0.94653284981E-01 -0.10362984498E-01 -0.89688136478E-01  0.13231682335E+00  0.19928474860E-01 0.  0.
         14    1    1    2    0    0 -0.20495515861E-01  0.74156140869E-02  0.12491393985E-01  0.25121553024E-01  0.00000000000E+00 0.  1.
     999901    1    3    3    0    0 -0.74157769120E-01  0.29473704107E-02  0.77196742493E-01  0.88649162363E+00  0.88000000000E+00 0. -1.
        -11    1    4    4    0    0  0.58171429990E-01 -0.15916437609E-01 -0.57965018637E-01  0.83650778596E-01  0.51100000000E-03 0.  1.
         11    1    4    4    0    0  0.36481854991E-01  0.55534531115E-02 -0.31723117841E-01  0.48666044750E-01  0.51100000000E-03 0. -1.
</event>
<event>
 8    1  0.1162192E+005  0.1043930E+01  0.7957747E-01            NaN
         13   -1    0    0    0    0  0.00000000000E+00  0.00000000000E+00  0.74505805969E-08  0.10566000000E+00  0.10566000000E+00 0. -1.
     999900   -1    0    0    0    0 -0.00000000000E+00 -0.00000000000E+00 -0.74505805969E-08  0.93827000000E+00  0.93827000000E+00 0.  1.
     999902    2    1    2    0    0  0.15329790594E-01  0.16894049894E-01  0.17782036494E-01  0.10150057503E+01  0.10145935446E+01 0.  0.
     999903    2    3    3    0    0  0.79959887129E-01  0.96847973094E-01  0.23775877118E-01  0.12900032965E+00  0.17397680165E-01 0.  0.
         14    1    1    2    0    0 -0.15329790594E-01 -0.16894049894E-01 -0.17782036494E-01  0.28924249746E-01  0.00000000000E+00 0.  1.
     999901    1    3    3    0    0 -0.64630096535E-01 -0.79953923200E-01 -0.59938406239E-02  0.88600542060E+00  0.88000000000E+00 0.  1.
        -11    1    4    4    0    0  0.21764708034E-01  0.35759494615E-01  0.13585983449E-01  0.44014588925E-01  0.51100000000E-03 0.  1.
         11    1    4    4    0    0  0.58195179095E-01  0.61088478479E-01  0.10189893669E-01  0.84985740726E-01  0.51100000000E-03 0. -1.
</event>
<event>
 8    1  0.1162192E+005  0.1043930E+01  0.7957747E-01            NaN
         13   -1    0    0    0    0  0.00000000000E+00  0.00000000000E+00  0.74505805969E-08  0.10566000000E+00  0.10566000000E+00 0.  1.
     999900   -1    0    0    0    0 -0.00000000000E+00 -0.00000000000E+00 -0.74505805969E-08  0.93827000000E+00  0.93827000000E+00 0. -1.
     999902    2    1    2    0    0 -0.69093505040E-02  0.19425194804E-01 -0.11436889494E-01  0.10203528976E+01  0.10200804654E+01 0.  0.
     999903    2    3    3    0    0  0.57763091607E-02  0.12968285313E+00  0.19400390952E-01  0.13284593138E+00  0.20509952980E-01 0.  0.
         14    1    1    2    0    0  0.69093505040E-02 -0.19425194804E-01  0.11436889494E-01  0.23577102427E-01  0.00000000000E+00 0.  1.
     999901    1    3    3    0    0 -0.12685659665E-01 -0.11025765832E+00 -0.30837280445E-01  0.88750696620E+00  0.88000000000E+00 0.  1.
        -11    1    4    4    0    0  0.10665198082E-01  0.10617634236E+00  0.10470060061E-01  0.10722427620E+00  0.51100000000E-03 0. -1.
         11    1    4    4    0    0 -0.48888889210E-02  0.23506510768E-01  0.89303308907E-02  0.25621655180E-01  0.51100000000E-03 0.  1.
</event>
<event>
 8    1  0.1162192E+005  0.1043930E+01  0.7957747E-01            NaN
         13   -1    0    0    0    0  0.00000000000E+00  0.00000000000E+00  0.74505805969E-08  0.10566000000E+00  0.10566000000E+00 0. -1.
     999900   -1    0    0    0    0 -0.00000000000E+00 -0.00000000000E+00 -0.74505805969E-08  0.93827000000E+00  0.93827000000E+00 0. -1.
     999902    2    1    2    0    0  0.98522014343E-03  0.49218492236E-02 -0.22994031524E-01  0.10203944791E+01  0.10201230182E+01 0.  0.
     999903    2    3    3    0    0 -0.79265814266E-01 -0.38899053490E-01 -0.96684911534E-01  0.13259334943E+00  0.20900203857E-01 0.  0.
         14    1    1    2    0    0 -0.98522014343E-03 -0.49218492236E-02  0.22994031524E-01  0.23535520904E-01  0.00000000000E+00 0. -1.
     999901    1    3    3    0    0  0.80251034409E-01  0.43820902714E-01  0.73690880010E-01  0.88780112967E+00  0.88000000000E+00 0.  1.
        -11    1    4    4    0    0 -0.60696067654E-01 -0.19428114753E-01 -0.70684033845E-01  0.95173305255E-01  0.51100000000E-03 0.  1.
         11    1    4    4    0    0 -0.18569746612E-01 -0.19470938737E-01 -0.26000877689E-01  0.37420044176E-01  0.51100000000E-03 0. -1.
</event>
<event>
 8    1  0.1162192E+005  0.1043930E+01  0.7957747E-01            NaN
         13   -1    0    0    0    0  0.00000000000E+00  0.00000000000E+00  0.74505805969E-08  0.10566000000E+00  0.10566000000E+00 0. -1.
     999900   -1    0    0    0    0 -0.00000000000E+00 -0.00000000000E+00 -0.74505805969E-08  0.93827000000E+00  0.93827000000E+00 0.  1.
     999902    2    1    2    0    0 -0.13964543818E-01  0.17852126241E-01 -0.57677085307E-02  0.10205425385E+01  0.10202745216E+01 0.  0.
     999903    2    3    3    0    0 -0.34192477768E-01  0.79621981830E-01  0.97679952005E-01  0.13210227438E+00  0.20021297334E-01 0.  0.
         14    1    1    2    0    0  0.13964543818E-01 -0.17852126241E-01  0.57677085307E-02  0.23387461535E-01  0.00000000000E+00 0. -1.
     999901    1    3    3    0    0  0.20227933950E-01 -0.61769855590E-01 -0.10344766054E+00  0.88844026408E+00  0.88000000000E+00 0.  1.
        -11    1    4    4    0    0 -0.21009718555E-01  0.49299822085E-01  0.45376378896E-01  0.70222201718E-01  0.51100000000E-03 0. -1.
         11    1    4    4    0    0 -0.13182759214E-01  0.30322159745E-01  0.52303573109E-01  0.61880072665E-01  0.51100000000E-03 0.  1.
</event>
<event>
 8    1  0.1162192E+005  0.1043930E+01  0.7957747E-01            NaN
         13   -1    0    0    0    0  0.00000000000E+00  0.00000000000E+00  0.74505805969E-08  0.10566000000E+00  0.10566000000E+00 0.  1.
     999900   -1    0    0    0    0 -0.00000000000E+00 -0.00000000000E+00 -0.74505805969E-08  0.93827000000E+00  0.93827000000E+00 0.  1.
     999902    2    1    2    0    0 -0.21228343304E-01 -0.79801102882E-03 -0.10544983863E-01  0.10202134221E+01  0.10199377190E+01 0.  0.
     999903    2    3    3    0    0  0.21440157795E-01 -0.11392141288E+00  0.54778575081E-01  0.12954812451E+00  0.18554126168E-01 0.  0.
         14    1    1    2    0    0  0.21228343304E-01  0.79801102882E-03  0.10544983863E-01  0.23716577866E-01  0.00000000000E+00 0.  1.
     999901    1    3    3    0    0 -0.42668501099E-01  0.11312340185E+00 -0.65323558944E-01  0.89066529762E+00  0.88000000000E+00 0.  1.
        -11    1    4    4    0    0  0.24027468028E-01 -0.86218129352E-01  0.39960903073E-01  0.98020507774E-01  0.51100000000E-03 0.  1.
         11    1    4    4    0    0 -0.25873102328E-02 -0.27703283528E-01  0.14817672008E-01  0.31527616739E-01  0.51100000000E-03 0. -1.
</event>
<event>
 8    1  0.1162192E+005  0.1043930E+01  0.7957747E-01            NaN
         13   -1    0    0    0    0  0.00000000000E+00  0.00000000000E+00  0.74505805969E-08  0.10566000000E+00  0.10566000000E+00 0. -1.
     999900   -1    0    0    0    0 -0.00000000000E+00 -0.00000000000E+00 -0.74505805969E-08  0.93827000000E+00  0.93827000000E+00 0. -1.
     999902    2    1    2    0    0 -0.17585623374E-01 -0.11394459439E-01  0.99550806488E-02  0.10207310456E+01  0.10204673811E+01 0.  0.
     999903    2    3    3    0    0 -0.49054447888E-03  0.67570214313E-01 -0.10823416394E+00  0.12916144148E+00  0.20051663912E-01 0.  0.
         14    1    1    2    0    0  0.17585623374E-01  0.11394459439E-01 -0.99550806488E-02  0.23198954418E-01  0.00000000000E+00 0.  1.
     999901    1    3    3    0    0 -0.17095078895E-01 -0.78964673752E-01  0.11818924459E+00  0.89156960410E+00  0.88000000000E+00 0.  1.
        -11    1    4    4    0    0 -0.63273914312E-02  0.20810760355E-01 -0.22310222023E-01  0.31162970920E-01  0.51100000000E-03 0.  1.
         11    1    4    4    0    0  0.58368469523E-02  0.46759453958E-01 -0.85923941915E-01  0.97998470560E-01  0.51100000000E-03 0. -1.
</event>
<event>
 8    1  0.1162192E+005  0.1043930E+01  0.7957747E-01            NaN
         13   -1    0    0    0    0  0.00000000000E+00  0.00000000000E+00  0.74505805969E-08  0.10566000000E+00  0.10566000000E+00 0. -1.
     999900   -1    0    0    0    0 -0.00000000000E+00 -0.00000000000E+00 -0.74505805969E-08  0.93827000000E+00  0.93827000000E+00 0.  1.
     999902    2    1    2    0    0 -0.11744885290E-01 -0.17217885915E-01  0.10805686161E-01  0.10204531863E+01  0.10201830937E+01 0.  0.
     999903    2    3    3    0    0 -0.54028481650E-01  0.11275806479E+00  0.28980578105E-01  0.12971642558E+00  0.18788803916E-01 0.  0.
         14    1    1    2    0    0  0.11744885290E-01  0.17217885915E-01 -0.10805686161E-01  0.23476813652E-01  0.00000000000E+00 0. -1.
     999901    1    3    3    0    0  0.42283596360E-01 -0.12997595071E+00 -0.18174891944E-01  0.89073676077E+00  0.88000000000E+00 0. -1.
        -11    1    4    4    0    0 -0.16462836191E-01  0.18349256663E-01  0.83588155269E-02  0.26035574001E-01  0.51100000000E-03 0.  1.
         11    1    4    4    0    0 -0.37565645459E-01  0.94408808131E-01  0.20621762578E-01  0.10368085158E+00  0.51100000000E-03 0. -1.
</event>
<event>
 8    1  0.1162192E+005  0.1043930E+01  0.7957747E-01            NaN
         13   -1    0    0    0    0  0.00000000000E+00  0.00000000000E+00  0.74505805969E-08  0.10566000000E+00  0.10566000000E+00 0. -1.
     999900   -1    0    0    0    0 -0.00000000000E+00 -0.00000000000E+00 -0.74505805969E-08  0.93827000000E+00  0.93827000000E+00 0. -1.
     999902    2    1    2    0    0  0.97974285296E-02  0.20601255922E-01 -0.38439161468E-03  0.10211144547E+01  0.10208595302E+01 0.  0.
     999903    2    3    3    0    0  0.12636780152E+00  0.30128331513E-01 -0.19773774395E-01  0.13316436307E+00  0.21568676759E-01 0.  0.
         14    1    1    2    0    0 -0.97974285296E-02 -0.20601255922E-01  0.38439161468E-03  0.22815545321E-01  0.00000000000E+00 0.  1.
     999901    1    3    3    0    0 -0.11657037299E+00 -0.95270755910E-02  0.19389382781E-01  0.88795009161E+00  0.88000000000E+00 0. -1.
        -11    1    4    4    0    0  0.10765096611E+00  0.27550110747E-01 -0.24259556090E-01  0.11373885127E+00  0.51100000000E-03 0.  1.
         11    1    4    4    0    0  0.18716835411E-01  0.25782207663E-02  0.44857816946E-02  0.19425511796E-01  0.51100000000E-03 0. -1.
</event>
<event>
 8    1  0.1162192E+005  0.1043930E+01  0.7957747E-01            NaN
         13   -1    0    0    0    0  0.00000000000E+00  0.00000000000E+00  0.74505805969E-08  0.10566000000E+00  0.10566000000E+00 0. -1.
     999900   -1    0    0    0    0 -0.00000000000E+00 -0.00000000000E+00 -0.74505805969E-08  0.93827000000E+00  0.93827000000E+00 0.  1.
     999902    2    1    2    0    0  0.26144050777E-02 -0.10518444177E-01  0.20826273420E-01  0.10204522138E+01  0.10201820985E+01 0.  0.
     999903    2    3    3    0    0 -0.80984493995E-01  0.28235853161E-01 -0.93277586556E-01  0.12831412897E+00  0.20200392765E-01 0.  0.
         14    1    1    2    0    0 -0.26144050777E-02  0.10518444177E-01 -0.20826273420E-01  0.23477786232E-01  0.00000000000E+00 0.  1.
     999901    1    3    3    0    0  0.83598899073E-01 -0.38754297338E-01  0.11410385998E+00  0.89213808480E+00  0.88000000000E+00 0. -1.
        -11    1    4    4    0    0 -0.74772593361E-01  0.19388191510E-01 -0.83094209593E-01  0.11345374157E+00  0.51100000000E-03 0.  1.
         11    1    4    4    0    0 -0.62119006341E-02  0.88476616512E-02 -0.10183376962E-01  0.14860387395E-01  0.51100000000E-03 0. -1.
</event>
<event>
 8    1  0.1162192E+005  0.1043930E+01  0.7957747E-01            NaN
         13   -1    0    0    0    0  0.00000000000E+00  0.00000000000E+00  0.74505805969E-08  0.10566000000E+00  0.10566000000E+00 0. -1.
     999900   -1    0    0    0    0 -0.00000000000E+00 -0.00000000000E+00 -0.74505805969E-08  0.93827000000E+00  0.93827000000E+00 0. -1.
     999902    2    1    2    0    0 -0.64729564403E-02 -0.16132155652E-01 -0.18733797960E-01  0.10183741632E+01  0.10180534541E+01 0.  0.
     999903    2    3    3    0    0 -0.49935624382E-02 -0.12590370344E+00 -0.31799064656E-01  0.13145664584E+00  0.19824001068E-01 0.  0.
         14    1    1    2    0    0  0.64729564403E-02  0.16132155652E-01  0.18733797960E-01  0.25555836849E-01  0.00000000000E+00 0. -1.
     999901    1    3    3    0    0 -0.14793940021E-02  0.10977154779E+00  0.13065266696E-01  0.88691751731E+00  0.88000000000E+00 0.  1.
        -11    1    4    4    0    0 -0.56903887704E-02 -0.10849324602E+00 -0.20165247497E-01  0.11049915513E+00  0.51100000000E-03 0.  1.
         11    1    4    4    0    0  0.69682633223E-03 -0.17410457419E-01 -0.11633817159E-01  0.20957490717E-01  0.51100000000E-03 0. -1.
</event>
<event>
 8    1  0.1162192E+005  0.1043930E+01  0.7957747E-01            NaN
         13   -1    0    0    0    0  0.00000000000E+00  0.00000000000E+00  0.74505805969E-08  0.10566000000E+00  0.10566000000E+00 0. -1.
     999900   -1    0    0    0    0 -0.00000000000E+00 -0.00000000000E+00 -0.74505805969E-08  0.93827000000E+00  0.93827000000E+00 0. -1.
     999902    2    1    2    0    0 -0.15037690058E-01  0.12931697589E-01  0.13276512047E-01  0.10200631465E+01  0.10197838968E+01 0.  0.
     999903    2    3    3    0    0  0.11145378343E-01 -0.11389935899E+00 -0.54994654237E-01  0.12796863236E+00  0.15946016291E-01 0.  0.
         14    1    1    2    0    0  0.15037690058E-01 -0.12931697589E-01 -0.13276512047E-01  0.23866853520E-01  0.00000000000E+00 0.  1.
     999901    1    3    3    0    0 -0.26183068401E-01  0.12683105658E+00  0.68271166284E-01  0.89209451412E+00  0.88000000000E+00 0.  1.
        -11    1    4    4    0    0  0.31273492652E-02 -0.54887560718E-01 -0.34868105367E-01  0.65103536985E-01  0.51100000000E-03 0. -1.
         11    1    4    4    0    0  0.80180290782E-02 -0.59011798273E-01 -0.20126548870E-01  0.62865095371E-01  0.51100000000E-03 0.  1.
</event>
<event>
 8    1  0.1162192E+005  0.1043930E+01  0.7957747E-01            NaN
         13   -1    0    0    0    0  0.00000000000E+00  0.00000000000E+00  0.74505805969E-08  0.10566000000E+00  0.10566000000E+00 0. -1.
     999900   -1    0    0    0    0 -0.00000000000E+00 -0.00000000000E+00 -0.74505805969E-08  0.93827000000E+00  0.93827000000E+00 0.  1.
     999902    2    1    2    0    0  0.17471950551E-02 -0.81005685376E-02  0.22665271039E-01  0.10197973165E+01  0.10195117362E+01 0.  0.
     999903    2    3    3    0    0 -0.11339027912E+00  0.76733117936E-02  0.61680869568E-01  0.13129989378E+00  0.22779317888E-01 0.  0.
         14    1    1    2    0    0 -0.17471950551E-02  0.81005685376E-02 -0.22665271039E-01  0.24132683490E-01  0.00000000000E+00 0.  1.
     999901    1    3    3    0    0  0.11513747418E+00 -0.15773880331E-01 -0.39015598529E-01  0.88849742273E+00  0.88000000000E+00 0.  1.
        -11    1    4    4    0    0 -0.94984624430E-01 -0.17584247431E-03  0.56886120692E-01  0.11071766637E+00  0.51100000000E-03 0. -1.
         11    1    4    4    0    0 -0.18405654693E-01  0.78491542679E-02  0.47947488762E-02  0.20582227411E-01  0.51100000000E-03 0.  1.
</event>
<event>
 8    1  0.1162192E+005  0.1043930E+01  0.7957747E-01            NaN
         13   -1    0    0    0    0  0.00000000000E+00  0.00000000000E+00  0.74505805969E-08  0.10566000000E+00  0.10566000000E+00 0.  1.
     999900   -1    0    0    0    0 -0.00000000000E+00 -0.00000000000E+00 -0.74505805969E-08  0.93827000000E+00  0.93827000000E+00 0. -1.
     999902    2    1    2    0    0  0.17527970230E-01  0.10414936219E-01  0.12568627693E-01  0.10199785692E+01  0.10196973132E+01 0.  0.
     999903    2    3    3    0    0 -0.31921893257E-01 -0.62340123324E-01 -0.10503900446E+00  0.12780698095E+00  0.19903107194E-01 0.  0.
         14    1    1    2    0    0 -0.17527970230E-01 -0.10414936219E-01 -0.12568627693E-01  0.23951430832E-01  0.00000000000E+00 0. -1.
     999901    1    3    3    0    0  0.49449863486E-01  0.72755059543E-01  0.11760763215E+00  0.89217158822E+00  0.88000000000E+00 0.  1.
        -11    1    4    4    0    0 -0.23754417098E-01 -0.33257164307E-01 -0.46344360021E-01  0.61792978049E-01  0.51100000000E-03 0.  1.
         11    1    4    4    0    0 -0.81674761591E-02 -0.29082959018E-01 -0.58694644437E-01  0.66014002898E-01  0.51100000000E-03 0. -1.
</event>
<event>
 8    1  0.1162192E+005  0.1043930E+01  0.7957747E-01            NaN
         13   -1    0    0    0    0  0.00000000000E+00  0.00000000000E+00  0.74505805969E-08  0.10566000000E+00  0.10566000000E+00 0.  1.
     999900   -1    0    0    0    0 -0.00000000000E+00 -0.00000000000E+00 -0.74505805969E-08  0.93827000000E+00  0.93827000000E+00 0. -1.
     999902    2    1    2    0    0  0.55989703587E-02 -0.16095966022E-01  0.15524201452E-01  0.10208772470E+01  0.10206169330E+01 0.  0.
     999903    2    3    3    0    0 -0.13145170897E-01  0.12049647753E+00  0.41795824049E-01  0.12975490037E+00  0.19931047282E-01 0.  0.
         14    1    1    2    0    0 -0.55989703587E-02  0.16095966022E-01 -0.15524201452E-01  0.23052753024E-01  0.00000000000E+00 0.  1.
     999901    1    3    3    0    0  0.18744141256E-01 -0.13659244356E+00 -0.26271622597E-01  0.89112234661E+00  0.88000000000E+00 0. -1.
        -11    1    4    4    0    0 -0.12788841068E-01  0.94986853891E-01  0.40941328990E-01  0.10422336786E+00  0.51100000000E-03 0. -1.
         11    1    4    4    0    0 -0.35632982892E-03  0.25509623644E-01  0.85449505935E-03  0.25531532508E-01  0.51100000000E-03 0.  1.
</event>
<event>
 8    1  0.1162192E+005  0.1043930E+01  0.7957747E-01            NaN
         13   -1    0    0    0    0  0.00000000000E+00  0.00000000000E+00  0.74505805969E-08  0.10566000000E+00  0.10566000000E+00 0.  1.
     999900   -1    0    0    0    0 -0.00000000000E+00 -0.00000000000E+00 -0.74505805969E-08  0.93827000000E+00  0.93827000000E+00 0. -1.
     999902    2    1    2    0    0  0.19440669230E-01 -0.86360429749E-02  0.14087022643E-01  0.10184159830E+01  0.10180963360E+01 0.  0.
     999903    2    3    3    0    0 -0.11776828729E+00  0.23221052292E-01 -0.32251995261E-01  0.12600997847E+00  0.20730092039E-01 0.  0.
         14    1    1    2    0    0 -0.19440669230E-01  0.86360429749E-02 -0.14087022643E-01  0.25514017036E-01  0.00000000000E+00 0. -1.
     999901    1    3    3    0    0  0.13720895652E+00 -0.31857095267E-01  0.46339017904E-01  0.89240600449E+00  0.88000000000E+00 0. -1.
        -11    1    4    4    0    0 -0.30915298394E-01 -0.28313178585E-02 -0.10303794880E-01  0.32713931979E-01  0.51100000000E-03 0. -1.
         11    1    4    4    0    0 -0.86852988896E-01  0.26052370150E-01 -0.21948200381E-01  0.93296046495E-01  0.51100000000E-03 0.  1.
</event>
<event>
 8    1  0.1162192E+005  0.1043930E+01  0.7957747E-01            NaN
         13   -1    0    0    0    0  0.00000000000E+00  0.00000000000E+00  0.74505805969E-08  0.10566000000E+00  0.10566000000E+00 0.  1.
     999900   -1    0    0    0    0 -0.00000000000E+00 -0.00000000000E+00 -0.74505805969E-08  0.93827000000E+00  0.93827000000E+00 0.  1.
     999902    2    1    2    0    0 -0.88679300158E-03  0.17362999843E-01  0.16202323476E-01  0.10201649952E+01  0.10198881517E+01 0.  0.
     999903    2    3    3    0    0  0.51640710584E-01  0.88825994438E-01 -0.78308069406E-01  0.13067170544E+00  0.19649951431E-01 0.  0.
         14    1    1    2    0    0  0.88679300158E-03 -0.17362999843E-01 -0.16202323476E-01  0.23765004763E-01  0.00000000000E+00 0. -1.
     999901    1    3    3    0    0 -0.52527503586E-01 -0.71462994595E-01  0.94510392882E-01  0.88949328980E+00  0.88000000000E+00 0.  1.
        -11    1    4    4    0    0  0.29240094002E-01  0.67931362550E-01 -0.56286479535E-01  0.92941282618E-01  0.51100000000E-03 0. -1.
         11    1    4    4    0    0  0.22400616582E-01  0.20894631888E-01 -0.22021589871E-01  0.37730422823E-01  0.51100000000E-03 0.  1.
</event>
<event>
 8    1  0.1162192E+005  0.1043930E+01  0.7957747E-01            NaN
         13   -1    0    0    0    0  0.00000000000E+00  0.00000000000E+00  0.74505805969E-08  0.10566000000E+00  0.10566000000E+00 0. -1.
     999900   -1    0    0    0    0 -0.00000000000E+00 -0.00000000000E+00 -0.74505805969E-08  0.93827000000E+00  0.93827000000E+00 0.  1.
     999902    2    1    2    0    0 -0.93774650763E-02  0.20482619721E-01 -0.89356059507E-02  0.10196953220E+01  0.10194072936E+01 0.  0.
     999903    2    3    3    0    0  0.47926802303E-01  0.22120184078E-01 -0.11825406238E+00  0.13108011534E+00  0.20290205640E-01 0.  0.
         14    1    1    2    0    0  0.93774650763E-02 -0.20482619721E-01  0.89356059507E-02  0.24234677956E-01  0.00000000000E+00 0. -1.
     999901    1    3    3    0    0 -0.57304267380E-01 -0.16375643562E-02  0.10931845643E+00  0.88861520671E+00  0.88000000000E+00 0. -1.
        -11    1    4    4    0    0  0.28251701098E-01  0.21654452092E-01 -0.88614039923E-01  0.95497555481E-01  0.51100000000E-03 0.  1.
         11    1    4    4    0    0  0.19675101205E-01  0.46573198594E-03 -0.29640022455E-01  0.35582559855E-01  0.51100000000E-03 0. -1.
</event>
<event>
 8    1  0.1162192E+005  0.1043930E+01  0.7957747E-01            NaN
         13   -1    0    0    0    0  0.00000000000E+00  0.00000000000E+00  0.74505805969E-08  0.10566000000E+00  0.10566000000E+00 0. -1.
     999900   -1    0    0    0    0 -0.00000000000E+00 -0.00000000000E+00 -0.74505805969E-08  0.93827000000E+00  0.93827000000E+00 0.  1.
     999902    2    1    2    0    0  0.18926569734E-01 -0.97858388875E-02  0.42260655867E-02  0.10222081834E+01  0.10219773642E+01 0.  0.
     999903    2    3    3    0    0 -0.12830603563E+00 -0.61726663479E-03  0.24885853744E-02  0.12992766609E+00  0.20302353589E-01 0.  0.
         14    1    1    2    0    0 -0.18926569734E-01  0.97858388875E-02 -0.42260655867E-02  0.21721816567E-01  0.00000000000E+00 0.  1.
     999901    1    3    3    0    0  0.14723260536E+00 -0.91685722528E-02  0.17374802123E-02  0.89228051735E+00  0.88000000000E+00 0. -1.
        -11    1    4    4    0    0 -0.63946339179E-01  0.68537849268E-02  0.84173301258E-02  0.64863096054E-01  0.51100000000E-03 0. -1.
         11    1    4    4    0    0 -0.64359696448E-01 -0.74710515616E-02 -0.59287447514E-02  0.65064570033E-01  0.51100000000E-03 0.  1.
</event>
<event>
 8    1  0.1162192E+005  0.1043930E+01  0.7957747E-01            NaN
         13   -1    0    0    0    0  0.00000000000E+00  0.00000000000E+00  0.74505805969E-08  0.10566000000E+00  0.10566000000E+00 0.  1.
     999900   -1    0    0    0    0 -0.00000000000E+00 -0.00000000000E+00 -0.74505805969E-08  0.93827000000E+00  0.93827000000E+00 0. -1.
     999902    2    1    2    0    0 -0.11283464758E-01  0.41793309345E-02  0.20403932382E-01  0.10202423695E+01  0.10199673468E+01 0.  0.
     999903    2    3    3    0    0 -0.37667686119E-01  0.10559547981E+00 -0.62677405002E-01  0.13013907713E+00  0.20939492968E-01 0.  0.
         14    1    1    2    0    0  0.11283464758E-01 -0.41793309345E-02 -0.20403932382E-01  0.23687630541E-01  0.00000000000E+00 0. -1.
     999901    1    3    3    0    0  0.26384221361E-01 -0.10141614887E+00  0.83081337384E-01  0.89010329233E+00  0.88000000000E+00 0.  1.
        -11    1    4    4    0    0 -0.71009811847E-02  0.41199464516E-01 -0.31434638466E-01  0.52308865661E-01  0.51100000000E-03 0. -1.
         11    1    4    4    0    0 -0.30566704934E-01  0.64396015291E-01 -0.31242766536E-01  0.77830211471E-01  0.51100000000E-03 0.  1.
</event>
<event>
 8    1  0.1162192E+005  0.1043930E+01  0.7957747E-01            NaN
         13   -1    0    0    0    0  0.00000000000E+00  0.00000000000E+00  0.74505805969E-08  0.10566000000E+00  0.10566000000E+00 0. -1.
     999900   -1    0    0    0    0 -0.00000000000E+00 -0.00000000000E+00 -0.74505805969E-08  0.93827000000E+00  0.93827000000E+00 0.  1.
     999902    2    1    2    0    0  0.83576478062E-02  0.11331311261E-01 -0.19492921331E-01  0.10198837347E+01  0.10196002204E+01 0.  0.
     999903    2    3    3    0    0  0.10300493111E+00  0.66770884051E-01  0.41207905136E-01  0.13099890259E+00  0.19855836486E-01 0.  0.
         14    1    1    2    0    0 -0.83576478062E-02 -0.11331311261E-01  0.19492921331E-01  0.24046265277E-01  0.00000000000E+00 0. -1.
     999901    1    3    3    0    0 -0.94647283308E-01 -0.55439572790E-01 -0.60700826467E-01  0.88888483214E+00  0.88000000000E+00 0.  1.
        -11    1    4    4    0    0  0.30316414157E-01  0.11603754855E-01  0.16712606167E-01  0.36514441252E-01  0.51100000000E-03 0.  1.
         11    1    4    4    0    0  0.72688516956E-01  0.55167129196E-01  0.24495298969E-01  0.94484461334E-01  0.51100000000E-03 0. -1.
</event>
<event>
 8    1  0.1306534E+005  0.1043930E+01  0.7957747E-01            NaN
         13   -1    0    0    0    0  0.00000000000E+00  0.00000000000E+00  0.74505805969E-08  0.10566000000E+00  0.10566000000E+00 0. -1.
     999900   -1    0    0    0    0 -0.00000000000E+00 -0.00000000000E+00 -0.74505805969E-08  0.93827000000E+00  0.93827000000E+00 0.  1.
     999902    2    1    2    0    0 -0.55165982667E-02 -0.23318862935E-01  0.62589046793E-02  0.10191635688E+01  0.10188626031E+01 0.  0.
     999903    2    3    3    0    0  0.58758349302E-01  0.58061659777E-01 -0.94860960288E-01  0.12732317647E+00  0.19720282207E-01 0.  0.
         14    1    1    2    0    0  0.55165982667E-02  0.23318862935E-01 -0.62589046793E-02  0.24766431168E-01  0.00000000000E+00 0.  1.
     999901    1    3    3    0    0 -0.64274947568E-01 -0.81380522712E-01  0.10111986497E+00  0.89184039236E+00  0.88000000000E+00 0. -1.
        -11    1    4    4    0    0  0.25882310833E-01  0.32645337958E-01 -0.34796153798E-01  0.54283013407E-01  0.51100000000E-03 0.  1.
         11    1    4    4    0    0  0.32876038468E-01  0.25416321819E-01 -0.60064806490E-01  0.73040163060E-01  0.51100000000E-03 0. -1.
</event>
<event>
 8    1  0.1162192E+005  0.1043930E+01  0.7957747E-01            NaN
         13   -1    0    0    0    0  0.00000000000E+00  0.00000000000E+00  0.74505805969E-08  0.10566000000E+00  0.10566000000E+00 0.  1.
     999900   -1    0    0    0    0 -0.00000000000E+00 -0.00000000000E+00 -0.74505805969E-08  0.93827000000E+00  0.93827000000E+00 0. -1.
     999902    2    1    2    0    0  0.97197950489E-02 -0.21778844849E-01  0.39375196235E-02  0.10197577730E+01  0.10194712448E+01 0.  0.
     999903    2    3    3    0    0 -0.13315476370E-01 -0.74049554485E-01 -0.10554628704E+00  0.13113549397E+00  0.19896246892E-01 0.  0.
         14    1    1    2    0    0 -0.97197950489E-02  0.21778844849E-01 -0.39375196235E-02  0.24172227029E-01  0.00000000000E+00 0. -1.
     999901    1    3    3    0    0  0.23035271419E-01  0.52270709636E-01  0.10948380666E+00  0.88862227900E+00  0.88000000000E+00 0.  1.
        -11    1    4    4    0    0 -0.17017026509E-01 -0.70075853579E-01 -0.10056303277E+00  0.12374727927E+00  0.51100000000E-03 0. -1.
         11    1    4    4    0    0  0.37015501382E-02 -0.39737009060E-02 -0.49832542678E-02  0.73882146973E-02  0.51100000000E-03 0.  1.
</event>
<event>
 8    1  0.1162192E+005  0.1043930E+01  0.7957747E-01            NaN
         13   -1    0    0    0    0  0.00000000000E+00  0.00000000000E+00  0.74505805969E-08  0.10566000000E+00  0.10566000000E+00 0.  1.
     999900   -1    0    0    0    0 -0.00000000000E+00 -0.00000000000E+00 -0.74505805969E-08  0.93827000000E+00  0.93827000000E+00 0. -1.
     999902    2    1    2    0    0 -0.15335665292E-01  0.92901958605E-02  0.19343741493E-01  0.10175544298E+01  0.10172125377E+01 0.  0.
     999903    2    3    3    0    0 -0.11402301749E+00 -0.40993955482E-01  0.43607887833E-01  0.13027970449E+00  0.19733236354E-01 0.  0.
         14    1    1    2    0    0  0.15335665292E-01 -0.92901958605E-02 -0.19343741493E-01  0.26375570212E-01  0.00000000000E+00 0. -1.
     999901    1    3    3    0    0  0.98687352196E-01  0.50284151343E-01 -0.24264146340E-01  0.88727472530E+00  0.88000000000E+00 0.  1.
        -11    1    4    4    0    0 -0.54541470378E-01 -0.92136509147E-02  0.18961796281E-01  0.58476270344E-01  0.51100000000E-03 0. -1.
         11    1    4    4    0    0 -0.59481547110E-01 -0.31780304567E-01  0.24646091552E-01  0.71803434143E-01  0.51100000000E-03 0.  1.
</event>
<event>
 8    1  0.1162192E+005  0.1043930E+01  0.7957747E-01            NaN
         13   -1    0    0    0    0  0.00000000000E+00  0.00000000000E+00  0.74505805969E-08  0.10566000000E+00  0.10566000000E+00 0.  1.
     999900   -1    0    0    0    0 -0.00000000000E+00 -0.00000000000E+00 -0.74505805969E-08  0.93827000000E+00  0.93827000000E+00 0.  1.
     999902    2    1    2    0    0  0.93629110489E-02  0.26678510874E-01  0.19680892897E-01  0.10094808405E+01  0.10088928698E+01 0.  0.
     999903    2    3    3    0    0  0.29739487799E-01  0.11846386381E+00 -0.60783731594E-02  0.12409770552E+00  0.21099045792E-01 0.  0.
         14    1    1    2    0    0 -0.93629110489E-02 -0.26678510874E-01 -0.19680892897E-01  0.34449159510E-01  0.00000000000E+00 0. -1.
     999901    1    3    3    0    0 -0.20376576750E-01 -0.91785352934E-01  0.25759266057E-01  0.88538313497E+00  0.88000000000E+00 0. -1.
        -11    1    4    4    0    0 -0.17702663747E-02  0.12836206409E-01  0.35629484073E-02  0.13448336714E-01  0.51100000000E-03 0.  1.
         11    1    4    4    0    0  0.31509754174E-01  0.10562765740E+00 -0.96413215667E-02  0.11064936881E+00  0.51100000000E-03 0. -1.
</event>
<event>
 7    1  0.1162192E+005  0.1043930E+01  0.7957747E-01            NaN
         13   -1    0    0    0    0  0.00000000000E+00  0.00000000000E+00  0.74505805969E-08  0.10566000000E+00  0.10566000000E+00 0. -1.
     999900   -1    0    0    0    0 -0.00000000000E+00 -0.00000000000E+00 -0.74505805969E-08  0.93827000000E+00  0.93827000000E+00 0. -1.
     999903    2    1    2    0    0  0.79023513843E-02 -0.66964504300E-01 -0.89593186066E-01  0.11386035057E+00  0.19762298700E-01 0.  0.
         14    1    1    2    0    0  0.27566922316E-01  0.34764336493E-01  0.17932808582E-02  0.44403943001E-01  0.00000000000E+00 0. -1.
     999901    1    1    2    0    0 -0.35469273700E-01  0.32200167807E-01  0.87799905207E-01  0.88566570643E+00  0.88000000000E+00 0. -1.
        -11    1    3    3    0    0  0.37305903464E-02 -0.57148855752E-02 -0.19581998616E-01  0.20743505303E-01  0.51100000000E-03 0.  1.
         11    1    3    3    0    0  0.41717610379E-02 -0.61249618725E-01 -0.70011187450E-01  0.93116845271E-01  0.51100000000E-03 0. -1.
</event>
<event>
 8    1  0.1162192E+005  0.1043930E+01  0.7957747E-01            NaN
         13   -1    0    0    0    0  0.00000000000E+00  0.00000000000E+00  0.74505805969E-08  0.10566000000E+00  0.10566000000E+00 0. -1.
     999900   -1    0    0    0    0 -0.00000000000E+00 -0.00000000000E+00 -0.74505805969E-08  0.93827000000E+00  0.93827000000E+00 0.  1.
     999902    2    1    2    0    0 -0.12086777797E-01 -0.18983577790E-01  0.44840840813E-02  0.10209828121E+01  0.10207249038E+01 0.  0.
     999903    2    3    3    0    0  0.75527564626E-01  0.94534426323E-01  0.38646842489E-01  0.12872180525E+00  0.20845957252E-01 0.  0.
         14    1    1    2    0    0  0.12086777797E-01  0.18983577790E-01 -0.44840840813E-02  0.22947187916E-01  0.00000000000E+00 0.  1.
     999901    1    3    3    0    0 -0.87614342423E-01 -0.11351800411E+00 -0.34162758407E-01  0.89226100683E+00  0.88000000000E+00 0.  1.
        -11    1    4    4    0    0  0.30729936226E-01  0.54238473434E-01  0.23188625397E-01  0.66514016941E-01  0.51100000000E-03 0.  1.
         11    1    4    4    0    0  0.44797628400E-01  0.40295952889E-01  0.15458217091E-01  0.62207788307E-01  0.51100000000E-03 0. -1.
</event>
<event>
 8    1  0.1162192E+005  0.1043930E+01  0.7957747E-01            NaN
         13   -1    0    0    0    0  0.00000000000E+00  0.00000000000E+00  0.74505805969E-08  0.10566000000E+00  0.10566000000E+00 0.  1.
     999900   -1    0    0    0    0 -0.00000000000E+00 -0.00000000000E+00 -0.74505805969E-08  0.93827000000E+00  0.93827000000E+00 0.  1.
     999902    2    1    2    0    0 -0.44998478445E-02 -0.17899942513E-01  0.14937522842E-01  0.10201858184E+01  0.10199094655E+01 0.  0.
     999903    2    3    3    0    0 -0.12184023640E+00 -0.46413036803E-01  0.17890242790E-02  0.13184205251E+00  0.19491357316E-01 0.  0.
         14    1    1    2    0    0  0.44998478445E-02  0.17899942513E-01 -0.14937522842E-01  0.23744181630E-01  0.00000000000E+00 0. -1.
     999901    1    3    3    0    0  0.11734038856E+00  0.28513094290E-01  0.13148498563E-01  0.88834376586E+00  0.88000000000E+00 0. -1.
        -11    1    4    4    0    0 -0.24199908717E-01 -0.12542391738E-01 -0.69196054974E-02  0.28126308568E-01  0.51100000000E-03 0.  1.
         11    1    4    4    0    0 -0.97640327685E-01 -0.33870645065E-01  0.87086297764E-02  0.10371574394E+00  0.51100000000E-03 0. -1.
</event>
<event>
 8    1  0.1162192E+005  0.1043930E+01  0.7957747E-01            NaN
         13   -1    0    0    0    0  0.00000000000E+00  0.00000000000E+00  0.74505805969E-08  0.10566000000E+00  0.10566000000E+00 0.  1.
     999900   -1    0    0    0    0 -0.00000000000E+00 -0.00000000000E+00 -0.74505805969E-08  0.93827000000E+00  0.93827000000E+00 0. -1.
     999902    2    1    2    0    0 -0.18595630767E-01  0.34475705695E-02  0.14640323785E-01  0.10200130122E+01  0.10197325741E+01 0.  0.
     999903    2    3    3    0    0  0.82550047506E-02 -0.28396394704E-01  0.12704008037E+00  0.13188650089E+00  0.19502993632E-01 0.  0.
         14    1    1    2    0    0  0.18595630767E-01 -0.34475705695E-02 -0.14640323785E-01  0.23916987833E-01  0.00000000000E+00 0. -1.
     999901    1    3    3    0    0 -0.26850635517E-01  0.31843965273E-01 -0.11239975659E+00  0.88812651128E+00  0.88000000000E+00 0. -1.
        -11    1    4    4    0    0 -0.40162465341E-02 -0.17736921184E-01  0.82178569865E-01  0.84168325843E-01  0.51100000000E-03 0. -1.
         11    1    4    4    0    0  0.12271251285E-01 -0.10659473520E-01  0.44861510507E-01  0.47718175047E-01  0.51100000000E-03 0.  1.
</event>
<event>
 8    1  0.1162192E+005  0.1043930E+01  0.7957747E-01            NaN
         13   -1    0    0    0    0  0.00000000000E+00  0.00000000000E+00  0.74505805969E-08  0.10566000000E+00  0.10566000000E+00 0. -1.
     999900   -1    0    0    0    0 -0.00000000000E+00 -0.00000000000E+00 -0.74505805969E-08  0.93827000000E+00  0.93827000000E+00 0.  1.
     999902    2    1    2    0    0 -0.10525885546E-01 -0.10915550344E-01  0.16982024741E-01  0.10211630795E+01  0.10209092527E+01 0.  0.
     999903    2    3    3    0    0 -0.53125515708E-01 -0.12016620966E+00  0.19722499636E-01  0.13338047926E+00  0.11795630161E-01 0.  0.
         14    1    1    2    0    0  0.10525885546E-01  0.10915550344E-01 -0.16982024741E-01  0.22766920524E-01  0.00000000000E+00 0.  1.
     999901    1    3    3    0    0  0.42599630162E-01  0.10925065932E+00 -0.27404748950E-02  0.88778260022E+00  0.88000000000E+00 0.  1.
        -11    1    4    4    0    0 -0.29513370098E-01 -0.70278177254E-01  0.57425082555E-02  0.76441472610E-01  0.51100000000E-03 0.  1.
         11    1    4    4    0    0 -0.23612145610E-01 -0.49888032407E-01  0.13979991381E-01  0.56939006646E-01  0.51100000000E-03 0. -1.
</event>
<event>
 8    1  0.1162192E+005  0.1043930E+01  0.7957747E-01            NaN
         13   -1    0    0    0    0  0.00000000000E+00  0.00000000000E+00  0.74505805969E-08  0.10566000000E+00  0.10566000000E+00 0. -1.
     999900   -1    0    0    0    0 -0.00000000000E+00 -0.00000000000E+00 -0.74505805969E-08  0.93827000000E+00  0.93827000000E+00 0. -1.
     999902    2    1    2    0    0 -0.57383769454E-02 -0.16802005199E-02  0.22585121970E-01  0.10205667858E+01  0.10202993308E+01 0.  0.
     999903    2    3    3    0    0  0.64321392892E-01 -0.11152148550E+00 -0.72669825291E-02  0.13047430331E+00  0.19911089292E-01 0.  0.
         14    1    1    2    0    0  0.57383769454E-02  0.16802005199E-02 -0.22585121970E-01  0.23363214208E-01  0.00000000000E+00 0.  1.
     999901    1    3    3    0    0 -0.70059769837E-01  0.10984128498E+00  0.29852104499E-01  0.89009248249E+00  0.88000000000E+00 0. -1.
        -11    1    4    4    0    0  0.34222267117E-01 -0.75975394684E-01  0.10201549692E-04  0.83328778877E-01  0.51100000000E-03 0.  1.
         11    1    4    4    0    0  0.30099125774E-01 -0.35546090814E-01 -0.72771840788E-02  0.47145524428E-01  0.51100000000E-03 0. -1.
</event>
<event>
 8    1  0.1162192E+005  0.1043930E+01  0.7957747E-01            NaN
         13   -1    0    0    0    0  0.00000000000E+00  0.00000000000E+00  0.74505805969E-08  0.10566000000E+00  0.10566000000E+00 0.  1.
     999900   -1    0    0    0    0 -0.00000000000E+00 -0.00000000000E+00 -0.74505805969E-08  0.93827000000E+00  0.93827000000E+00 0.  1.
     999902    2    1    2    0    0  0.62676583614E-02 -0.14177914665E-01  0.20037042611E-01  0.10185966251E+01  0.10182815450E+01 0.  0.
     999903    2    3    3    0    0 -0.62872553696E-01 -0.86157326086E-01  0.73796414733E-01  0.13132469687E+00  0.20596658320E-01 0.  0.
         14    1    1    2    0    0 -0.62676583614E-02  0.14177914665E-01 -0.20037042611E-01  0.25333374867E-01  0.00000000000E+00 0. -1.
     999901    1    3    3    0    0  0.69140212058E-01  0.71979411421E-01 -0.53759372122E-01  0.88727192826E+00  0.88000000000E+00 0.  1.
        -11    1    4    4    0    0 -0.17184049541E-01 -0.40045505512E-01  0.32856218313E-01  0.54577708574E-01  0.51100000000E-03 0. -1.
         11    1    4    4    0    0 -0.45688504156E-01 -0.46111820575E-01  0.40940196420E-01  0.76746988296E-01  0.51100000000E-03 0.  1.
</event>
<event>
 8    1  0.1162192E+005  0.1043930E+01  0.7957747E-01            NaN
         13   -1    0    0    0    0  0.00000000000E+00  0.00000000000E+00  0.74505805969E-08  0.10566000000E+00  0.10566000000E+00 0.  1.
     999900   -1    0    0    0    0 -0.00000000000E+00 -0.00000000000E+00 -0.74505805969E-08  0.93827000000E+00  0.93827000000E+00 0.  1.
     999902    2    1    2    0    0  0.22481457830E-01 -0.57674900949E-02  0.66058253140E-02  0.10197987585E+01  0.10195132128E+01 0.  0.
     999903    2    3    3    0    0 -0.81779626887E-01 -0.80945459339E-01 -0.55392517155E-01  0.12830232255E+00  0.12372560512E-01 0.  0.
         14    1    1    2    0    0 -0.22481457830E-01  0.57674900949E-02 -0.66058253140E-02  0.24131241498E-01  0.00000000000E+00 0. -1.
     999901    1    3    3    0    0  0.10426108472E+00  0.75177969244E-01  0.61998342469E-01  0.89149643595E+00  0.88000000000E+00 0. -1.
        -11    1    4    4    0    0 -0.49464859557E-01 -0.40339486582E-01 -0.30287037247E-01  0.70651342909E-01  0.51100000000E-03 0. -1.
         11    1    4    4    0    0 -0.32314767330E-01 -0.40605972757E-01 -0.25105479907E-01  0.57650979641E-01  0.51100000000E-03 0.  1.
</event>
<event>
 8    1  0.1162192E+005  0.1043930E+01  0.7957747E-01            NaN
         13   -1    0    0    0    0  0.00000000000E+00  0.00000000000E+00  0.74505805969E-08  0.10566000000E+00  0.10566000000E+00 0.  1.
     999900   -1    0    0    0    0 -0.00000000000E+00 -0.00000000000E+00 -0.74505805969E-08  0.93827000000E+00  0.93827000000E+00 0.  1.
     999902    2    1    2    0    0  0.15089433020E-01 -0.61078310496E-02 -0.16747990452E-01  0.10205742347E+01  0.10203069522E+01 0.  0.
     999903    2    3    3    0    0  0.12418189303E+00  0.25655896462E-01  0.30766612665E-01  0.13199799332E+00  0.19937858649E-01 0.  0.
         14    1    1    2    0    0 -0.15089433020E-01  0.61078310496E-02  0.16747990452E-01  0.23355765309E-01  0.00000000000E+00 0.  1.
     999901    1    3    3    0    0 -0.10909246001E+00 -0.31763727512E-01 -0.47514603117E-01  0.88857624137E+00  0.88000000000E+00 0.  1.
        -11    1    4    4    0    0  0.59467927379E-01  0.22170968143E-02  0.13072537489E-01  0.60930306600E-01  0.51100000000E-03 0. -1.
         11    1    4    4    0    0  0.64713965647E-01  0.23438799648E-01  0.17694075176E-01  0.71067686722E-01  0.51100000000E-03 0.  1.
</event>
<event>
 8    1  0.1162192E+005  0.1043930E+01  0.7957747E-01            NaN
         13   -1    0    0    0    0  0.00000000000E+00  0.00000000000E+00  0.74505805969E-08  0.10566000000E+00  0.10566000000E+00 0. -1.
     999900   -1    0    0    0    0 -0.00000000000E+00 -0.00000000000E+00 -0.74505805969E-08  0.93827000000E+00  0.93827000000E+00 0.  1.
     999902    2    1    2    0    0 -0.81766595365E-02 -0.18225427476E-01  0.12424643155E-01  0.10204056355E+01  0.10201344349E+01 0.  0.
     999903    2    3    3    0    0 -0.64272945789E-02  0.68018890749E-01 -0.10661294516E+00  0.12821109946E+00  0.20096923520E-01 0.  0.
         14    1    1    2    0    0  0.81766595365E-02  0.18225427476E-01 -0.12424643155E-01  0.23524364505E-01  0.00000000000E+00 0.  1.
     999901    1    3    3    0    0 -0.17493649575E-02 -0.86244318225E-01  0.11903758831E+00  0.89219453604E+00  0.88000000000E+00 0. -1.
        -11    1    4    4    0    0 -0.52258511649E-02  0.35604905347E-02 -0.13964832258E-01  0.15338326970E-01  0.51100000000E-03 0.  1.
         11    1    4    4    0    0 -0.12014434141E-02  0.64458400215E-01 -0.92648112897E-01  0.11287277249E+00  0.51100000000E-03 0. -1.
</event>
<event>
 8    1  0.1162192E+005  0.1043930E+01  0.7957747E-01            NaN
         13   -1    0    0    0    0  0.00000000000E+00  0.00000000000E+00  0.74505805969E-08  0.10566000000E+00  0.10566000000E+00 0. -1.
     999900   -1    0    0    0    0 -0.00000000000E+00 -0.00000000000E+00 -0.74505805969E-08  0.93827000000E+00  0.93827000000E+00 0.  1.
     999902    2    1    2    0    0  0.68491230398E-03 -0.48936118009E-03  0.23336116817E-01  0.10205787061E+01  0.10203115271E+01 0.  0.
     999903    2    3    3    0    0 -0.80992844490E-01 -0.83793584542E-01 -0.52370713646E-01  0.12965650199E+00  0.22066064224E-01 0.  0.
         14    1    1    2    0    0 -0.68491230398E-03  0.48936118009E-03 -0.23336116817E-01  0.23351293912E-01  0.00000000000E+00 0.  1.
     999901    1    3    3    0    0  0.81677756794E-01  0.83304223362E-01  0.75706830463E-01  0.89092220410E+00  0.88000000000E+00 0. -1.
        -11    1    4    4    0    0 -0.64493191885E-01 -0.75823986820E-01 -0.49255067511E-01  0.11106291718E+00  0.51100000000E-03 0.  1.
         11    1    4    4    0    0 -0.16499652605E-01 -0.79695977215E-02 -0.31156461348E-02  0.18593584802E-01  0.51100000000E-03 0. -1.
</event>
<event>
 8    1  0.1162192E+005  0.1043930E+01  0.7957747E-01            NaN
         13   -1    0    0    0    0  0.00000000000E+00  0.00000000000E+00  0.74505805969E-08  0.10566000000E+00  0.10566000000E+00 0.  1.
     999900   -1    0    0    0    0 -0.00000000000E+00 -0.00000000000E+00 -0.74505805969E-08  0.93827000000E+00  0.93827000000E+00 0.  1.
     999902    2    1    2    0    0  0.71542889007E-02  0.20658239375E-01  0.95359971723E-02  0.10200787538E+01  0.10197998735E+01 0.  0.
     999903    2    3    3    0    0 -0.11044544562E+00 -0.27330179468E-01 -0.56848030248E-01  0.12848499820E+00  0.18208817978E-01 0.  0.
         14    1    1    2    0    0 -0.71542889007E-02 -0.20658239375E-01 -0.95359971723E-02  0.23851246211E-01  0.00000000000E+00 0. -1.
     999901    1    3    3    0    0  0.11759973452E+00  0.47988418843E-01  0.66384027420E-01  0.89159375559E+00  0.88000000000E+00 0. -1.
        -11    1    4    4    0    0 -0.79077104812E-01 -0.18365645356E-01 -0.49350800544E-01  0.95006568563E-01  0.51100000000E-03 0.  1.
         11    1    4    4    0    0 -0.31368340809E-01 -0.89645341123E-02 -0.74972297034E-02  0.33478429640E-01  0.51100000000E-03 0. -1.
</event>
<event>
 8    1  0.1162192E+005  0.1043930E+01  0.7957747E-01            NaN
         13   -1    0    0    0    0  0.00000000000E+00  0.00000000000E+00  0.74505805969E-08  0.10566000000E+00  0.10566000000E+00 0.  1.
     999900   -1    0    0    0    0 -0.00000000000E+00 -0.00000000000E+00 -0.74505805969E-08  0.93827000000E+00  0.93827000000E+00 0.  1.
     999902    2    1    2    0    0  0.13993052982E-01  0.21491905172E-01  0.40603626746E-02  0.10179647528E+01  0.10176335508E+01 0.  0.
     999903    2    3    3    0    0  0.83627688919E-01 -0.92691434262E-01  0.20493682348E-01  0.12770812036E+00  0.17437908397E-01 0.  0.
         14    1    1    2    0    0 -0.13993052982E-01 -0.21491905172E-01 -0.40603626746E-02  0.25965247250E-01  0.00000000000E+00 0.  1.
     999901    1    3    3    0    0 -0.69634635937E-01  0.11418333943E+00 -0.16433319674E-01  0.89025663239E+00  0.88000000000E+00 0.  1.
        -11    1    4    4    0    0  0.47650847070E-01 -0.64962413593E-01  0.15005774870E-01  0.81952137292E-01  0.51100000000E-03 0.  1.
         11    1    4    4    0    0  0.35976841848E-01 -0.27729020670E-01  0.54879074780E-02  0.45755983064E-01  0.51100000000E-03 0. -1.
</event>
<event>
 8    1  0.1162192E+005  0.1043930E+01  0.7957747E-01            NaN
         13   -1    0    0    0    0  0.00000000000E+00  0.00000000000E+00  0.74505805969E-08  0.10566000000E+00  0.10566000000E+00 0. -1.
     999900   -1    0    0    0    0 -0.00000000000E+00 -0.00000000000E+00 -0.74505805969E-08  0.93827000000E+00  0.93827000000E+00 0.  1.
     999902    2    1    2    0    0 -0.13635471344E-01 -0.14926317225E-01  0.11396396884E-01  0.10207222667E+01  0.10204584003E+01 0.  0.
     999903    2    3    3    0    0 -0.36341524310E-01 -0.10577973853E+00 -0.68545766438E-01  0.13215000822E+00  0.15970068930E-01 0.  0.
         14    1    1    2    0    0  0.13635471344E-01  0.14926317225E-01 -0.11396396884E-01  0.23207733336E-01  0.00000000000E+00 0. -1.
     999901    1    3    3    0    0  0.22706052966E-01  0.90853421310E-01  0.79942163322E-01  0.88857225845E+00  0.88000000000E+00 0. -1.
        -11    1    4    4    0    0 -0.13144342639E-01 -0.59038400131E-01 -0.31881963919E-01  0.68374170399E-01  0.51100000000E-03 0. -1.
         11    1    4    4    0    0 -0.23197181671E-01 -0.46741338403E-01 -0.36663802519E-01  0.63775837818E-01  0.51100000000E-03 0.  1.
</event>
<event>
 8    1  0.1162192E+005  0.1043930E+01  0.7957747E-01            NaN
         13   -1    0    0    0    0  0.00000000000E+00  0.00000000000E+00  0.74505805969E-08  0.10566000000E+00  0.10566000000E+00 0. -1.
     999900   -1    0    0    0    0 -0.00000000000E+00 -0.00000000000E+00 -0.74505805969E-08  0.93827000000E+00  0.93827000000E+00 0. -1.
     999902    2    1    2    0    0 -0.16001610022E-01 -0.11359776249E-01  0.15618526045E-01  0.10188494419E+01  0.10185406967E+01 0.  0.
     999903    2    3    3    0    0 -0.14649297049E-01  0.12348647887E+00  0.23632508566E-01  0.12854075093E+00  0.22376702611E-01 0.  0.
         14    1    1    2    0    0  0.16001610022E-01  0.11359776249E-01 -0.15618526045E-01  0.25080558119E-01  0.00000000000E+00 0.  1.
     999901    1    3    3    0    0 -0.13523129729E-02 -0.13484625512E+00 -0.80139825212E-02  0.89030869095E+00  0.88000000000E+00 0. -1.
        -11    1    4    4    0    0  0.87526694385E-03  0.36904778521E-01  0.16030717733E-01  0.40248898145E-01  0.51100000000E-03 0. -1.
         11    1    4    4    0    0 -0.15524563993E-01  0.86581700352E-01  0.76017908334E-02  0.88291852783E-01  0.51100000000E-03 0.  1.
</event>
<event>
 8    1  0.1162192E+005  0.1043930E+01  0.7957747E-01            NaN
         13   -1    0    0    0    0  0.00000000000E+00  0.00000000000E+00  0.74505805969E-08  0.10566000000E+00  0.10566000000E+00 0. -1.
     999900   -1    0    0    0    0 -0.00000000000E+00 -0.00000000000E+00 -0.74505805969E-08  0.93827000000E+00  0.93827000000E+00 0.  1.
     999902    2    1    2    0    0  0.17170859089E-01 -0.12504016206E-01  0.11173325499E-01  0.10199293328E+01  0.10196469055E+01 0.  0.
     999903    2    3    3    0    0 -0.51827319626E-01  0.11508425455E+00 -0.19790667492E-02  0.12795820047E+00  0.20950600371E-01 0.  0.
         14    1    1    2    0    0 -0.17170859089E-01  0.12504016206E-01 -0.11173325499E-01  0.24000667196E-01  0.00000000000E+00 0. -1.
     999901    1    3    3    0    0  0.68998178715E-01 -0.12758827076E+00  0.13152392248E-01  0.89197113234E+00  0.88000000000E+00 0.  1.
        -11    1    4    4    0    0 -0.24644164145E-01  0.74582147735E-01  0.48588763685E-02  0.78700072349E-01  0.51100000000E-03 0.  1.
         11    1    4    4    0    0 -0.27183155481E-01  0.40502106818E-01 -0.68379431177E-02  0.49258128118E-01  0.51100000000E-03 0. -1.
</event>
<event>
 8    1  0.1162192E+005  0.1043930E+01  0.7957747E-01            NaN
         13   -1    0    0    0    0  0.00000000000E+00  0.00000000000E+00  0.74505805969E-08  0.10566000000E+00  0.10566000000E+00 0.  1.
     999900   -1    0    0    0    0 -0.00000000000E+00 -0.00000000000E+00 -0.74505805969E-08  0.93827000000E+00  0.93827000000E+00 0.  1.
     999902    2    1    2    0    0  0.85901951912E-02 -0.59152188475E-02  0.19740718088E-01  0.10216033966E+01  0.10213593994E+01 0.  0.
     999903    2    3    3    0    0 -0.11226640785E+00 -0.39365252586E-01 -0.49172667704E-01  0.13004617581E+00  0.18457712536E-01 0.  0.
         14    1    1    2    0    0 -0.85901951912E-02  0.59152188475E-02 -0.19740718088E-01  0.22326603370E-01  0.00000000000E+00 0. -1.
     999901    1    3    3    0    0  0.12085660304E+00  0.33450033739E-01  0.68913385791E-01  0.89155722082E+00  0.88000000000E+00 0. -1.
        -11    1    4    4    0    0 -0.53534063695E-01 -0.26661034159E-01 -0.18663666369E-01  0.62652216891E-01  0.51100000000E-03 0. -1.
         11    1    4    4    0    0 -0.58732344150E-01 -0.12704218427E-01 -0.30509001335E-01  0.67393958919E-01  0.51100000000E-03 0.  1.
</event>
<event>
 8    1  0.1162192E+005  0.1043930E+01  0.7957747E-01            NaN
         13   -1    0    0    0    0  0.00000000000E+00  0.00000000000E+00  0.74505805969E-08  0.10566000000E+00  0.10566000000E+00 0.  1.
     999900   -1    0    0    0    0 -0.00000000000E+00 -0.00000000000E+00 -0.74505805969E-08  0.93827000000E+00  0.93827000000E+00 0. -1.
     999902    2    1    2    0    0 -0.35140863593E-02 -0.91081574960E-02  0.22740702413E-01  0.10191823358E+01  0.10188818316E+01 0.  0.
     999903    2    3    3    0    0  0.42763435688E-01  0.11241976628E+00 -0.37741815523E-01  0.12757211814E+00  0.19577676197E-01 0.  0.
         14    1    1    2    0    0  0.35140863593E-02  0.91081574960E-02 -0.22740702413E-01  0.24747664175E-01  0.00000000000E+00 0. -1.
     999901    1    3    3    0    0 -0.46277522047E-01 -0.12152792378E+00  0.60482517936E-01  0.89161021768E+00  0.88000000000E+00 0.  1.
        -11    1    4    4    0    0  0.29491618887E-02  0.26750433264E-01 -0.13126259142E-01  0.29947337706E-01  0.51100000000E-03 0.  1.
         11    1    4    4    0    0  0.39814273799E-01  0.85669333017E-01 -0.24615556382E-01  0.97624780434E-01  0.51100000000E-03 0. -1.
</event>
<event>
 8    1  0.1162192E+005  0.1043930E+01  0.7957747E-01            NaN
         13   -1    0    0    0    0  0.00000000000E+00  0.00000000000E+00  0.74505805969E-08  0.10566000000E+00  0.10566000000E+00 0.  1.
     999900   -1    0    0    0    0 -0.00000000000E+00 -0.00000000000E+00 -0.74505805969E-08  0.93827000000E+00  0.93827000000E+00 0. -1.
     999902    2    1    2    0    0  0.17921303492E-01  0.73597728808E-03 -0.14707848487E-01  0.10207344058E+01  0.10204708186E+01 0.  0.
     999903    2    3    3    0    0  0.87854387082E-01  0.91009709267E-01 -0.36300220032E-01  0.13309359257E+00  0.19875560342E-01 0.  0.
         14    1    1    2    0    0 -0.17921303492E-01 -0.73597728808E-03  0.14707848487E-01  0.23195594163E-01  0.00000000000E+00 0.  1.
     999901    1    3    3    0    0 -0.69933083589E-01 -0.90273731979E-01  0.21592371545E-01  0.88764081327E+00  0.88000000000E+00 0. -1.
        -11    1    4    4    0    0  0.28903966004E-01  0.43602588324E-01 -0.12490974619E-01  0.53785783691E-01  0.51100000000E-03 0. -1.
         11    1    4    4    0    0  0.58950421077E-01  0.47407120943E-01 -0.23809245413E-01  0.79307808880E-01  0.51100000000E-03 0.  1.
</event>
<event>
 8    1  0.1162192E+005  0.1043930E+01  0.7957747E-01            NaN
         13   -1    0    0    0    0  0.00000000000E+00  0.00000000000E+00  0.74505805969E-08  0.10566000000E+00  0.10566000000E+00 0. -1.
     999900   -1    0    0    0    0 -0.00000000000E+00 -0.00000000000E+00 -0.74505805969E-08  0.93827000000E+00  0.93827000000E+00 0.  1.
     999902    2    1    2    0    0 -0.66949088602E-02  0.21241726565E-01  0.69749674816E-02  0.10205915570E+01  0.10203246754E+01 0.  0.
     999903    2    3    3    0    0 -0.94553516899E-01 -0.85830575880E-01  0.10950871711E-01  0.12974958401E+00  0.20193505037E-01 0.  0.
         14    1    1    2    0    0  0.66949088602E-02 -0.21241726565E-01 -0.69749674816E-02  0.23338443039E-01  0.00000000000E+00 0.  1.
     999901    1    3    3    0    0  0.87858608038E-01  0.10707230245E+00 -0.39759042290E-02  0.89084197295E+00  0.88000000000E+00 0.  1.
        -11    1    4    4    0    0 -0.77145566488E-01 -0.70103632087E-01  0.16749251599E-01  0.10557819950E+00  0.51100000000E-03 0. -1.
         11    1    4    4    0    0 -0.17407950411E-01 -0.15726943793E-01 -0.57983798880E-02  0.24171384505E-01  0.51100000000E-03 0.  1.
</event>
<event>
 8    1  0.1162192E+005  0.1043930E+01  0.7957747E-01            NaN
         13   -1    0    0    0    0  0.00000000000E+00  0.00000000000E+00  0.74505805969E-08  0.10566000000E+00  0.10566000000E+00 0.  1.
     999900   -1    0    0    0    0 -0.00000000000E+00 -0.00000000000E+00 -0.74505805969E-08  0.93827000000E+00  0.93827000000E+00 0.  1.
     999902    2    1    2    0    0 -0.21945308452E-01 -0.81747342389E-02  0.51491140662E-02  0.10199521724E+01  0.10196702887E+01 0.  0.
     999903    2    3    3    0    0  0.64039743195E-01  0.10837384980E+00  0.11608894251E-01  0.12808966596E+00  0.20645001144E-01 0.  0.
         14    1    1    2    0    0  0.21945308452E-01  0.81747342389E-02 -0.51491140662E-02  0.23977827646E-01  0.00000000000E+00 0. -1.
     999901    1    3    3    0    0 -0.85985051648E-01 -0.11654858404E+00 -0.64597801845E-02  0.89186250639E+00  0.88000000000E+00 0.  1.
        -11    1    4    4    0    0  0.52752366328E-01  0.73663270626E-01  0.13145165139E-01  0.91554060970E-01  0.51100000000E-03 0. -1.
         11    1    4    4    0    0  0.11287376868E-01  0.34710579171E-01 -0.15362708883E-02  0.36535604993E-01  0.51100000000E-03 0.  1.
</event>
<event>
 8    1  0.1162192E+005  0.1043930E+01  0.7957747E-01            NaN
         13   -1    0    0    0    0  0.00000000000E+00  0.00000000000E+00  0.74505805969E-08  0.10566000000E+00  0.10566000000E+00 0. -1.
     999900   -1    0    0    0    0 -0.00000000000E+00 -0.00000000000E+00 -0.74505805969E-08  0.93827000000E+00  0.93827000000E+00 0. -1.
     999902    2    1    2    0    0  0.23631214455E-01  0.88039945663E-03  0.26216476622E-02  0.10201375130E+01  0.10198600213E+01 0.  0.
     999903    2    3    3    0    0 -0.79603247953E-01 -0.98802305320E-01 -0.59238429808E-02  0.12847220515E+00  0.19272855521E-01 0.  0.
         14    1    1    2    0    0 -0.23631214455E-01 -0.88039945663E-03 -0.26216476622E-02  0.23792486971E-01  0.00000000000E+00 0.  1.
     999901    1    3    3    0    0  0.10323446241E+00  0.99682704777E-01  0.85454906430E-02  0.89166530788E+00  0.88000000000E+00 0. -1.
        -11    1    4    4    0    0 -0.68744061542E-01 -0.93373329245E-01 -0.76301830952E-02  0.11620157239E+00  0.51100000000E-03 0. -1.
         11    1    4    4    0    0 -0.10859186411E-01 -0.54289760749E-02  0.17063401144E-02  0.12270632759E-01  0.51100000000E-03 0.  1.
</event>
<event>
 8    1  0.1162192E+005  0.1043930E+01  0.7957747E-01            NaN
         13   -1    0    0    0    0  0.00000000000E+00  0.00000000000E+00  0.74505805969E-08  0.10566000000E+00  0.10566000000E+00 0.  1.
     999900   -1    0    0    0    0 -0.00000000000E+00 -0.00000000000E+00 -0.74505805969E-08  0.93827000000E+00  0.93827000000E+00 0. -1.
     999902    2    1    2    0    0  0.50116352545E-02 -0.20107577460E-01 -0.11155672466E-01  0.10203953407E+01  0.10201238999E+01 0.  0.
     999903    2    3    3    0    0 -0.11392568708E+00 -0.59580365608E-01  0.15249726295E-01  0.13112517214E+00  0.20793616160E-01 0.  0.
         14    1    1    2    0    0 -0.50116352545E-02  0.20107577460E-01  0.11155672466E-01  0.23534659280E-01  0.00000000000E+00 0.  1.
     999901    1    3    3    0    0  0.11893732234E+00  0.39472788147E-01 -0.26405398761E-01  0.88927016858E+00  0.88000000000E+00 0. -1.
        -11    1    4    4    0    0 -0.37709246507E-01 -0.27830252831E-01  0.12520670704E-01  0.48513282312E-01  0.51100000000E-03 0.  1.
         11    1    4    4    0    0 -0.76216440574E-01 -0.31750112777E-01  0.27290555911E-02  0.82611889825E-01  0.51100000000E-03 0. -1.
</event>
<event>
 8    1  0.1162192E+005  0.1043930E+01  0.7957747E-01            NaN
         13   -1    0    0    0    0  0.00000000000E+00  0.00000000000E+00  0.74505805969E-08  0.10566000000E+00  0.10566000000E+00 0. -1.
     999900   -1    0    0    0    0 -0.00000000000E+00 -0.00000000000E+00 -0.74505805969E-08  0.93827000000E+00  0.93827000000E+00 0.  1.
     999902    2    1    2    0    0  0.81798594801E-02  0.21397882520E-01  0.76154274497E-02  0.10197892831E+01  0.10195035104E+01 0.  0.
     999903    2    3    3    0    0 -0.46581574105E-01 -0.50100119381E-01 -0.10622835713E+00  0.12789736914E+00  0.19834519610E-01 0.  0.
         14    1    1    2    0    0 -0.81798594801E-02 -0.21397882520E-01 -0.76154274497E-02  0.24140716905E-01  0.00000000000E+00 0.  1.
     999901    1    3    3    0    0  0.54761433585E-01  0.71498001901E-01  0.11384378458E+00  0.89189191395E+00  0.88000000000E+00 0. -1.
        -11    1    4    4    0    0 -0.19133077914E-01 -0.28445312702E-01 -0.67577971408E-01  0.75777660467E-01  0.51100000000E-03 0.  1.
         11    1    4    4    0    0 -0.27448496191E-01 -0.21654806679E-01 -0.38650385718E-01  0.52119708678E-01  0.51100000000E-03 0. -1.
</event>
<event>
 8    1  0.1162192E+005  0.1043930E+01  0.7957747E-01            NaN
         13   -1    0    0    0    0  0.00000000000E+00  0.00000000000E+00  0.74505805969E-08  0.10566000000E+00  0.10566000000E+00 0.  1.
     999900   -1    0    0    0    0 -0.00000000000E+00 -0.00000000000E+00 -0.74505805969E-08  0.93827000000E+00  0.93827000000E+00 0. -1.
     999902    2    1    2    0    0  0.10850065923E-01 -0.19318131430E-01 -0.46686700623E-02  0.10212868860E+01  0.10210358431E+01 0.  0.
     999903    2    3    3    0    0 -0.64675961442E-01  0.45562828747E-01 -0.10167887138E+00  0.13037460131E+00  0.19999810750E-01 0.  0.
         14    1    1    2    0    0 -0.10850065923E-01  0.19318131430E-01  0.46686700623E-02  0.22643114023E-01  0.00000000000E+00 0.  1.
     999901    1    3    3    0    0  0.75526027365E-01 -0.64880960178E-01  0.97010201322E-01  0.89091228466E+00  0.88000000000E+00 0.  1.
        -11    1    4    4    0    0 -0.44783923612E-01  0.25557280786E-01 -0.78179963691E-01  0.93654376614E-01  0.51100000000E-03 0.  1.
         11    1    4    4    0    0 -0.19892037831E-01  0.20005547961E-01 -0.23498907693E-01  0.36720224700E-01  0.51100000000E-03 0. -1.
</event>
<event>
 8    1  0.1162192E+005  0.1043930E+01  0.7957747E-01            NaN
         13   -1    0    0    0    0  0.00000000000E+00  0.00000000000E+00  0.74505805969E-08  0.10566000000E+00  0.10566000000E+00 0.  1.
     999900   -1    0    0    0    0 -0.00000000000E+00 -0.00000000000E+00 -0.74505805969E-08  0.93827000000E+00  0.93827000000E+00 0. -1.
     999902    2    1    2    0    0  0.19420452471E-01 -0.11614938804E-01 -0.37245826149E-02  0.10209967644E+01  0.10207391732E+01 0.  0.
     999903    2    3    3    0    0 -0.11349698033E+00 -0.52973551538E-01  0.26346179601E-01  0.12954747843E+00  0.20016650093E-01 0.  0.
         14    1    1    2    0    0 -0.19420452471E-01  0.11614938804E-01  0.37245826149E-02  0.22933235560E-01  0.00000000000E+00 0. -1.
     999901    1    3    3    0    0  0.13291743280E+00  0.41358612734E-01 -0.30070762216E-01  0.89144928601E+00  0.88000000000E+00 0.  1.
        -11    1    4    4    0    0 -0.63540676767E-01 -0.35878297345E-01  0.23520555824E-01  0.76669077807E-01  0.51100000000E-03 0.  1.
         11    1    4    4    0    0 -0.49956303563E-01 -0.17095254193E-01  0.28256237770E-02  0.52878400622E-01  0.51100000000E-03 0. -1.
</event>
<event>
 8    1  0.1162192E+005  0.1043930E+01  0.7957747E-01            NaN
         13   -1    0    0    0    0  0.00000000000E+00  0.00000000000E+00  0.74505805969E-08  0.10566000000E+00  0.10566000000E+00 0.  1.
     999900   -1    0    0    0    0 -0.00000000000E+00 -0.00000000000E+00 -0.74505805969E-08  0.93827000000E+00  0.93827000000E+00 0. -1.
     999902    2    1    2    0    0  0.10312828109E-01  0.22918928638E-01 -0.55734927555E-02  0.10181871265E+01  0.10178616453E+01 0.  0.
     999903    2    3    3    0    0 -0.19103493948E-01  0.11022488188E+00 -0.66113944878E-01  0.13130900873E+00  0.18882107918E-01 0.  0.
         14    1    1    2    0    0 -0.10312828109E-01 -0.22918928638E-01  0.55734927555E-02  0.25742873481E-01  0.00000000000E+00 0.  1.
     999901    1    3    3    0    0  0.29416322058E-01 -0.87305953240E-01  0.60540452123E-01  0.88687811779E+00  0.88000000000E+00 0.  1.
        -11    1    4    4    0    0 -0.41640371880E-03  0.36193746456E-01 -0.29149975458E-01  0.46477337109E-01  0.51100000000E-03 0.  1.
         11    1    4    4    0    0 -0.18687090230E-01  0.74031135423E-01 -0.36963969420E-01  0.84831671618E-01  0.51100000000E-03 0. -1.
</event>
<event>
 8    1  0.1162192E+005  0.1043930E+01  0.7957747E-01            NaN
         13   -1    0    0    0    0  0.00000000000E+00  0.00000000000E+00  0.74505805969E-08  0.10566000000E+00  0.10566000000E+00 0. -1.
     999900   -1    0    0    0    0 -0.00000000000E+00 -0.00000000000E+00 -0.74505805969E-08  0.93827000000E+00  0.93827000000E+00 0.  1.
     999902    2    1    2    0    0 -0.12952277275E-01  0.13554008699E-01 -0.14339701482E-01  0.10203270409E+01  0.10200540038E+01 0.  0.
     999903    2    3    3    0    0 -0.89187184398E-01 -0.55627797503E-01 -0.77501624775E-01  0.13207746343E+00  0.19726854458E-01 0.  0.
         14    1    1    2    0    0  0.12952277275E-01 -0.13554008699E-01  0.14339701482E-01  0.23602959073E-01  0.00000000000E+00 0. -1.
     999901    1    3    3    0    0  0.76234907123E-01  0.69181806202E-01  0.63161923293E-01  0.88824957750E+00  0.88000000000E+00 0. -1.
        -11    1    4    4    0    0 -0.37705580748E-01 -0.15165980627E-01 -0.21868924846E-01  0.46154401554E-01  0.51100000000E-03 0.  1.
         11    1    4    4    0    0 -0.51481603650E-01 -0.40461816876E-01 -0.55632699929E-01  0.85923061873E-01  0.51100000000E-03 0. -1.
</event>
<event>
 8    1  0.1162192E+005  0.1043930E+01  0.7957747E-01            NaN
         13   -1    0    0    0    0  0.00000000000E+00  0.00000000000E+00  0.74505805969E-08  0.10566000000E+00  0.10566000000E+00 0. -1.
     999900   -1    0    0    0    0 -0.00000000000E+00 -0.00000000000E+00 -0.74505805969E-08  0.93827000000E+00  0.93827000000E+00 0.  1.
     999902    2    1    2    0    0 -0.15653314313E-01 -0.28713248506E-02  0.18357482283E-01  0.10196345702E+01  0.10193450783E+01 0.  0.
     999903    2    3    3    0    0 -0.65187199790E-01  0.26552205546E-01  0.11115513446E+00  0.13288164279E+00  0.18646083711E-01 0.  0.
         14    1    1    2    0    0  0.15653314313E-01  0.28713248506E-02 -0.18357482283E-01  0.24295429841E-01  0.00000000000E+00 0.  1.
     999901    1    3    3    0    0  0.49533885477E-01 -0.29423530397E-01 -0.92797652175E-01  0.88675292737E+00  0.88000000000E+00 0.  1.
        -11    1    4    4    0    0 -0.27848327108E-01  0.10256793809E-01  0.64101386003E-01  0.70639790136E-01  0.51100000000E-03 0.  1.
         11    1    4    4    0    0 -0.37338872682E-01  0.16295411738E-01  0.47053748455E-01  0.62241852652E-01  0.51100000000E-03 0. -1.
</event>
<event>
 8    1  0.1162192E+005  0.1043930E+01  0.7957747E-01            NaN
         13   -1    0    0    0    0  0.00000000000E+00  0.00000000000E+00  0.74505805969E-08  0.10566000000E+00  0.10566000000E+00 0.  1.
     999900   -1    0    0    0    0 -0.00000000000E+00 -0.00000000000E+00 -0.74505805969E-08  0.93827000000E+00  0.93827000000E+00 0.  1.
     999902    2    1    2    0    0 -0.14132209260E-01  0.18515339902E-01  0.31563747408E-02  0.10204246846E+01  0.10201539281E+01 0.  0.
     999903    2    3    3    0    0  0.12199042490E+00  0.15410600878E-01 -0.34286765131E-01  0.12916658526E+00  0.19730030323E-01 0.  0.
         14    1    1    2    0    0  0.14132209260E-01 -0.18515339902E-01 -0.31563747408E-02  0.23505315393E-01  0.00000000000E+00 0. -1.
     999901    1    3    3    0    0 -0.13612263416E+00  0.31047390239E-02  0.37443139872E-01  0.89125809935E+00  0.88000000000E+00 0. -1.
        -11    1    4    4    0    0  0.44990301713E-01  0.33630400898E-02 -0.31169792253E-02  0.45226253077E-01  0.51100000000E-03 0. -1.
         11    1    4    4    0    0  0.77000123188E-01  0.12047560788E-01 -0.31169785906E-01  0.83940332179E-01  0.51100000000E-03 0.  1.
</event>
<event>
 8    1  0.1162192E+005  0.1043930E+01  0.7957747E-01            NaN
         13   -1    0    0    0    0  0.00000000000E+00  0.00000000000E+00  0.74505805969E-08  0.10566000000E+00  0.10566000000E+00 0. -1.
     999900   -1    0    0    0    0 -0.00000000000E+00 -0.00000000000E+00 -0.74505805969E-08  0.93827000000E+00  0.93827000000E+00 0. -1.
     999902    2    1    2    0    0 -0.15689646300E-01 -0.18394643797E-01 -0.44262107949E-02  0.10193511623E+01  0.10190547938E+01 0.  0.
     999903    2    3    3    0    0 -0.20394188657E-01 -0.60376600900E-01 -0.11335951216E+00  0.13162874982E+00  0.20359074523E-01 0.  0.
         14    1    1    2    0    0  0.15689646300E-01  0.18394643797E-01  0.44262107949E-02  0.24578837715E-01  0.00000000000E+00 0.  1.
     999901    1    3    3    0    0  0.47045423574E-02  0.41981957104E-01  0.10893330137E+00  0.88772241246E+00  0.88000000000E+00 0.  1.
        -11    1    4    4    0    0 -0.10560047047E-02 -0.28550680018E-01 -0.61144663167E-01  0.67492128654E-01  0.51100000000E-03 0. -1.
         11    1    4    4    0    0 -0.19338183953E-01 -0.31825920882E-01 -0.52214848994E-01  0.64136621169E-01  0.51100000000E-03 0.  1.
</event>
<event>
 8    1  0.1162192E+005  0.1043930E+01  0.7957747E-01            NaN
         13   -1    0    0    0    0  0.00000000000E+00  0.00000000000E+00  0.74505805969E-08  0.10566000000E+00  0.10566000000E+00 0. -1.
     999900   -1    0    0    0    0 -0.00000000000E+00 -0.00000000000E+00 -0.74505805969E-08  0.93827000000E+00  0.93827000000E+00 0.  1.
     999902    2    1    2    0    0 -0.23029483687E-01  0.20098355080E-02  0.94192130984E-03  0.10207937995E+01  0.10205315759E+01 0.  0.
     999903    2    3    3    0    0  0.57973971320E-01  0.80490051688E-01 -0.81286145677E-01  0.12979314908E+00  0.19979847296E-01 0.  0.
         14    1    1    2    0    0  0.23029483687E-01 -0.20098355080E-02 -0.94192130984E-03  0.23136200496E-01  0.00000000000E+00 0.  1.
     999901    1    3    3    0    0 -0.81003455007E-01 -0.78480216180E-01  0.82228066987E-01  0.89100065042E+00  0.88000000000E+00 0.  1.
        -11    1    4    4    0    0  0.22136003628E-01  0.47317775814E-01 -0.39009246725E-01  0.65199363614E-01  0.51100000000E-03 0.  1.
         11    1    4    4    0    0  0.35837967692E-01  0.33172275873E-01 -0.42276898952E-01  0.64593785466E-01  0.51100000000E-03 0. -1.
</event>
<event>
 8    1  0.1162192E+005  0.1043930E+01  0.7957747E-01            NaN
         13   -1    0    0    0    0  0.00000000000E+00  0.00000000000E+00  0.74505805969E-08  0.10566000000E+00  0.10566000000E+00 0.  1.
     999900   -1    0    0    0    0 -0.00000000000E+00 -0.00000000000E+00 -0.74505805969E-08  0.93827000000E+00  0.93827000000E+00 0. -1.
     999902    2    1    2    0    0 -0.14067102672E-02  0.10376604266E-01  0.21358563061E-01  0.10201425881E+01  0.10198652161E+01 0.  0.
     999903    2    3    3    0    0 -0.34540393713E-01  0.11835140181E+00  0.44728453477E-01  0.13261650415E+00  0.19657301779E-01 0.  0.
         14    1    1    2    0    0  0.14067102672E-02 -0.10376604266E-01 -0.21358563061E-01  0.23787411921E-01  0.00000000000E+00 0. -1.
     999901    1    3    3    0    0  0.33133683446E-01 -0.10797479754E+00 -0.23369890416E-01  0.88752608393E+00  0.88000000000E+00 0. -1.
        -11    1    4    4    0    0 -0.21922723320E-01  0.45969496243E-01  0.12877090622E-01  0.52534569252E-01  0.51100000000E-03 0.  1.
         11    1    4    4    0    0 -0.12617670393E-01  0.72381905567E-01  0.31851362855E-01  0.80081934894E-01  0.51100000000E-03 0. -1.
</event>
<event>
 8    1  0.1162192E+005  0.1043930E+01  0.7957747E-01            NaN
         13   -1    0    0    0    0  0.00000000000E+00  0.00000000000E+00  0.74505805969E-08  0.10566000000E+00  0.10566000000E+00 0. -1.
     999900   -1    0    0    0    0 -0.00000000000E+00 -0.00000000000E+00 -0.74505805969E-08  0.93827000000E+00  0.93827000000E+00 0.  1.
     999902    2    1    2    0    0 -0.18763516827E-01  0.61735970549E-02 -0.12295790481E-01  0.10206626553E+01  0.10203974160E+01 0.  0.
     999903    2    3    3    0    0 -0.38461887103E-02 -0.10787777404E-01  0.12589187763E+00  0.12959248609E+00  0.28535561833E-01 0.  0.
         14    1    1    2    0    0  0.18763516827E-01 -0.61735970549E-02  0.12295790481E-01  0.23267344667E-01  0.00000000000E+00 0.  1.
     999901    1    3    3    0    0 -0.14917328117E-01  0.16961374459E-01 -0.13818766811E+00  0.89107016925E+00  0.88000000000E+00 0.  1.
        -11    1    4    4    0    0  0.10843745703E-01  0.15345717727E-02  0.34141664856E-01  0.35858836171E-01  0.51100000000E-03 0.  1.
         11    1    4    4    0    0 -0.14689934413E-01 -0.12322349177E-01  0.91750212771E-01  0.93733649917E-01  0.51100000000E-03 0. -1.
</event>
<event>
 8    1  0.1162192E+005  0.1043930E+01  0.7957747E-01            NaN
         13   -1    0    0    0    0  0.00000000000E+00  0.00000000000E+00  0.74505805969E-08  0.10566000000E+00  0.10566000000E+00 0. -1.
     999900   -1    0    0    0    0 -0.00000000000E+00 -0.00000000000E+00 -0.74505805969E-08  0.93827000000E+00  0.93827000000E+00 0.  1.
     999902    2    1    2    0    0 -0.26342104917E-02 -0.13016543467E-01 -0.18244729175E-01  0.10213636620E+01  0.10211143376E+01 0.  0.
     999903    2    3    3    0    0  0.81144816739E-01 -0.48815957701E-01 -0.91039954530E-01  0.13367020797E+00  0.24738071237E-01 0.  0.
         14    1    1    2    0    0  0.26342104917E-02  0.13016543467E-01  0.18244729175E-01  0.22566338015E-01  0.00000000000E+00 0. -1.
     999901    1    3    3    0    0 -0.83779027231E-01  0.35799414234E-01  0.72795225355E-01  0.88769345401E+00  0.88000000000E+00 0. -1.
        -11    1    4    4    0    0  0.73588855457E-01 -0.37362153954E-01 -0.85582281613E-01  0.11889423133E+00  0.51100000000E-03 0. -1.
         11    1    4    4    0    0  0.75559612819E-02 -0.11453803746E-01 -0.54576729172E-02  0.14775976645E-01  0.51100000000E-03 0.  1.
</event>
<event>
 8    1  0.1162192E+005  0.1043930E+01  0.7957747E-01            NaN
         13   -1    0    0    0    0  0.00000000000E+00  0.00000000000E+00  0.74505805969E-08  0.10566000000E+00  0.10566000000E+00 0.  1.
     999900   -1    0    0    0    0 -0.00000000000E+00 -0.00000000000E+00 -0.74505805969E-08  0.93827000000E+00  0.93827000000E+00 0. -1.
     999902    2    1    2    0    0  0.17881258813E-01  0.78239987208E-02 -0.13741930893E-01  0.10200596201E+01  0.10197802869E+01 0.  0.
     999903    2    3    3    0    0  0.12589088276E+00  0.92736062953E-02  0.33622809303E-01  0.13219048623E+00  0.20231589401E-01 0.  0.
         14    1    1    2    0    0 -0.17881258813E-01 -0.78239987208E-02  0.13741930893E-01  0.23870379917E-01  0.00000000000E+00 0.  1.
     999901    1    3    3    0    0 -0.10800962395E+00 -0.14496075745E-02 -0.47364740196E-01  0.88786913385E+00  0.88000000000E+00 0. -1.
        -11    1    4    4    0    0  0.50155381322E-01  0.13361933718E-01  0.16077227606E-01  0.54340058122E-01  0.51100000000E-03 0. -1.
         11    1    4    4    0    0  0.75735501438E-01 -0.40883274225E-02  0.17545581697E-01  0.77850428112E-01  0.51100000000E-03 0.  1.
</event>
<event>
 8    1  0.1162192E+005  0.1043930E+01  0.7957747E-01            NaN
         13   -1    0    0    0    0  0.00000000000E+00  0.00000000000E+00  0.74505805969E-08  0.10566000000E+00  0.10566000000E+00 0.  1.
     999900   -1    0    0    0    0 -0.00000000000E+00 -0.00000000000E+00 -0.74505805969E-08  0.93827000000E+00  0.93827000000E+00 0. -1.
     999902    2    1    2    0    0  0.75871224949E-02  0.15754589369E-01  0.17180513120E-01  0.10194158909E+01  0.10191211003E+01 0.  0.
     999903    2    3    3    0    0  0.52735949992E-01 -0.10437467428E+00 -0.46842543131E-01  0.12780588179E+00  0.21563082359E-01 0.  0.
         14    1    1    2    0    0 -0.75871224949E-02 -0.15754589369E-01 -0.17180513120E-01  0.24514109101E-01  0.00000000000E+00 0. -1.
     999901    1    3    3    0    0 -0.45148827497E-01  0.12012926365E+00  0.64023056251E-01  0.89161000911E+00  0.88000000000E+00 0.  1.
        -11    1    4    4    0    0  0.28316616809E-01 -0.77904842747E-01 -0.33018790735E-01  0.89227221034E-01  0.51100000000E-03 0. -1.
         11    1    4    4    0    0  0.24419333183E-01 -0.26469831534E-01 -0.13823752397E-01  0.38578660758E-01  0.51100000000E-03 0.  1.
</event>
<event>
 8    1  0.1162192E+005  0.1043930E+01  0.7957747E-01            NaN
         13   -1    0    0    0    0  0.00000000000E+00  0.00000000000E+00  0.74505805969E-08  0.10566000000E+00  0.10566000000E+00 0. -1.
     999900   -1    0    0    0    0 -0.00000000000E+00 -0.00000000000E+00 -0.74505805969E-08  0.93827000000E+00  0.93827000000E+00 0.  1.
     999902    2    1    2    0    0  0.31311103464E-02  0.10113094770E-01 -0.21482502151E-01  0.10199805441E+01  0.10196993351E+01 0.  0.
     999903    2    3    3    0    0 -0.43472310048E-01 -0.11812184762E+00 -0.20831581261E-01  0.12946580369E+00  0.22018785635E-01 0.  0.
         14    1    1    2    0    0 -0.31311103464E-02 -0.10113094770E-01  0.21482502151E-01  0.23949455871E-01  0.00000000000E+00 0. -1.
     999901    1    3    3    0    0  0.46603420395E-01  0.12823494239E+00 -0.65092088995E-03  0.89051474044E+00  0.88000000000E+00 0. -1.
        -11    1    4    4    0    0 -0.97597097692E-02 -0.12392120586E-01  0.27300481495E-02  0.16016581136E-01  0.51100000000E-03 0. -1.
         11    1    4    4    0    0 -0.33712600279E-01 -0.10572972704E+00 -0.23561629411E-01  0.11344922255E+00  0.51100000000E-03 0.  1.
</event>
<event>
 8    1  0.1162192E+005  0.1043930E+01  0.7957747E-01            NaN
         13   -1    0    0    0    0  0.00000000000E+00  0.00000000000E+00  0.74505805969E-08  0.10566000000E+00  0.10566000000E+00 0.  1.
     999900   -1    0    0    0    0 -0.00000000000E+00 -0.00000000000E+00 -0.74505805969E-08  0.93827000000E+00  0.93827000000E+00 0.  1.
     999902    2    1    2    0    0  0.54224769955E-02 -0.95275425274E-02  0.20619927402E-01  0.10205770831E+01  0.10203098665E+01 0.  0.
     999903    2    3    3    0    0  0.10069978702E+00  0.30930882864E-01  0.78256048878E-01  0.13263757359E+00  0.19275635386E-01 0.  0.
         14    1    1    2    0    0 -0.54224769955E-02  0.95275425274E-02 -0.20619927402E-01  0.23352916937E-01  0.00000000000E+00 0.  1.
     999901    1    3    3    0    0 -0.95277310028E-01 -0.40458425392E-01 -0.57636121476E-01  0.88793950948E+00  0.88000000000E+00 0.  1.
        -11    1    4    4    0    0  0.75385544914E-01  0.19397533787E-01  0.66700632378E-01  0.10251087835E+00  0.51100000000E-03 0.  1.
         11    1    4    4    0    0  0.25314242109E-01  0.11533349077E-01  0.11555416500E-01  0.30126695238E-01  0.51100000000E-03 0. -1.
</event>
<event>
 8    1  0.1162192E+005  0.1043930E+01  0.7957747E-01            NaN
         13   -1    0    0    0    0  0.00000000000E+00  0.00000000000E+00  0.74505805969E-08  0.10566000000E+00  0.10566000000E+00 0. -1.
     999900   -1    0    0    0    0 -0.00000000000E+00 -0.00000000000E+00 -0.74505805969E-08  0.93827000000E+00  0.93827000000E+00 0.  1.
     999902    2    1    2    0    0  0.23926740793E-02 -0.19306569762E-01 -0.14233628425E-01  0.10198247163E+01  0.10195397919E+01 0.  0.
     999903    2    3    3    0    0  0.62667820451E-01  0.83792975866E-01 -0.74274862919E-01  0.12973058675E+00  0.19098464659E-01 0.  0.
         14    1    1    2    0    0 -0.23926740793E-02  0.19306569762E-01  0.14233628425E-01  0.24105283723E-01  0.00000000000E+00 0. -1.
     999901    1    3    3    0    0 -0.60275146372E-01 -0.10309954563E+00  0.60041234494E-01  0.89009412953E+00  0.88000000000E+00 0. -1.
        -11    1    4    4    0    0  0.28277785262E-01  0.43204112978E-01 -0.25658152764E-01  0.57661342699E-01  0.51100000000E-03 0.  1.
         11    1    4    4    0    0  0.34390035189E-01  0.40588862887E-01 -0.48616710155E-01  0.72069244052E-01  0.51100000000E-03 0. -1.
</event>
<event>
 8    1  0.1162192E+005  0.1043930E+01  0.7957747E-01            NaN
         13   -1    0    0    0    0  0.00000000000E+00  0.00000000000E+00  0.74505805969E-08  0.10566000000E+00  0.10566000000E+00 0. -1.
     999900   -1    0    0    0    0 -0.00000000000E+00 -0.00000000000E+00 -0.74505805969E-08  0.93827000000E+00  0.93827000000E+00 0.  1.
     999902    2    1    2    0    0  0.22927076064E-01 -0.12039472544E-01 -0.10006731871E-01  0.10161678964E+01  0.10157885898E+01 0.  0.
     999903    2    3    3    0    0  0.10344722502E+00 -0.69950722093E-02  0.74399134215E-01  0.12845550454E+00  0.14673993105E-01 0.  0.
         14    1    1    2    0    0 -0.22927076064E-01  0.12039472544E-01  0.10006731871E-01  0.27762103643E-01  0.00000000000E+00 0. -1.
     999901    1    3    3    0    0 -0.80520148959E-01 -0.50444003342E-02 -0.84405866085E-01  0.88771239182E+00  0.88000000000E+00 0.  1.
        -11    1    4    4    0    0  0.56629170284E-01 -0.35769490487E-02  0.31712907464E-01  0.65004823762E-01  0.51100000000E-03 0. -1.
         11    1    4    4    0    0  0.46818054739E-01 -0.34181231606E-02  0.42686226751E-01  0.63450680774E-01  0.51100000000E-03 0.  1.
</event>
<event>
 8    1  0.1162192E+005  0.1043930E+01  0.7957747E-01            NaN
         13   -1    0    0    0    0  0.00000000000E+00  0.00000000000E+00  0.74505805969E-08  0.10566000000E+00  0.10566000000E+00 0. -1.
     999900   -1    0    0    0    0 -0.00000000000E+00 -0.00000000000E+00 -0.74505805969E-08  0.93827000000E+00  0.93827000000E+00 0. -1.
     999902    2    1    2    0    0  0.21621151985E-01 -0.33615460572E-02 -0.83865894303E-02  0.10204969232E+01  0.10202278477E+01 0.  0.
     999903    2    3    3    0    0 -0.10355652075E+00 -0.41040419094E-01 -0.63991501793E-01  0.12910416270E+00  0.12833687597E-01 0.  0.
         14    1    1    2    0    0 -0.21621151985E-01  0.33615460572E-02  0.83865894303E-02  0.23433076779E-01  0.00000000000E+00 0. -1.
     999901    1    3    3    0    0  0.12517767273E+00  0.37678873037E-01  0.55604912363E-01  0.89139276052E+00  0.88000000000E+00 0.  1.
        -11    1    4    4    0    0 -0.91685484284E-01 -0.39447616843E-01 -0.53914926819E-01  0.11344347913E+00  0.51100000000E-03 0.  1.
         11    1    4    4    0    0 -0.11871036462E-01 -0.15928022515E-02 -0.10076574974E-01  0.15660683570E-01  0.51100000000E-03 0. -1.
</event>
<event>
 8    1  0.1162192E+005  0.1043930E+01  0.7957747E-01            NaN
         13   -1    0    0    0    0  0.00000000000E+00  0.00000000000E+00  0.74505805969E-08  0.10566000000E+00  0.10566000000E+00 0.  1.
     999900   -1    0    0    0    0 -0.00000000000E+00 -0.00000000000E+00 -0.74505805969E-08  0.93827000000E+00  0.93827000000E+00 0.  1.
     999902    2    1    2    0    0  0.74398610236E-02  0.73366684838E-02 -0.17924295895E-01  0.10231825033E+01  0.10229721289E+01 0.  0.
     999903    2    3    3    0    0  0.11737223439E+00 -0.37242973838E-01  0.46048917388E-01  0.13292128138E+00  0.19603156495E-01 0.  0.
         14    1    1    2    0    0 -0.74398610236E-02 -0.73366684838E-02  0.17924295895E-01  0.20747496712E-01  0.00000000000E+00 0.  1.
     999901    1    3    3    0    0 -0.10993237336E+00  0.44579642322E-01 -0.63973213283E-01  0.89026122191E+00  0.88000000000E+00 0.  1.
        -11    1    4    4    0    0  0.65270330895E-01 -0.22272354410E-01  0.15477444866E-01  0.70682998568E-01  0.51100000000E-03 0.  1.
         11    1    4    4    0    0  0.52101903493E-01 -0.14970619428E-01  0.30571472522E-01  0.62238282807E-01  0.51100000000E-03 0. -1.
</event>
<event>
 8    1  0.1162192E+005  0.1043930E+01  0.7957747E-01            NaN
         13   -1    0    0    0    0  0.00000000000E+00  0.00000000000E+00  0.74505805969E-08  0.10566000000E+00  0.10566000000E+00 0. -1.
     999900   -1    0    0    0    0 -0.00000000000E+00 -0.00000000000E+00 -0.74505805969E-08  0.93827000000E+00  0.93827000000E+00 0. -1.
     999902    2    1    2    0    0 -0.64877667401E-02  0.19816521265E-01 -0.10770577968E-01  0.10204610635E+01  0.10201911542E+01 0.  0.
     999903    2    3    3    0    0 -0.43738263908E-01  0.23437123123E-01 -0.12145448403E+00  0.13273833910E+00  0.20147965307E-01 0.  0.
         14    1    1    2    0    0  0.64877667401E-02 -0.19816521265E-01  0.10770577968E-01  0.23468936535E-01  0.00000000000E+00 0. -1.
     999901    1    3    3    0    0  0.37250497168E-01 -0.36206018580E-02  0.11068390606E+00  0.88772272437E+00  0.88000000000E+00 0.  1.
        -11    1    4    4    0    0 -0.13599199530E-01  0.13588006260E-01 -0.67182233595E-01  0.69880510687E-01  0.51100000000E-03 0. -1.
         11    1    4    4    0    0 -0.30139064378E-01  0.98491168630E-02 -0.54272250433E-01  0.62857828412E-01  0.51100000000E-03 0.  1.
</event>
<event>
 8    1  0.1162192E+005  0.1043930E+01  0.7957747E-01            NaN
         13   -1    0    0    0    0  0.00000000000E+00  0.00000000000E+00  0.74505805969E-08  0.10566000000E+00  0.10566000000E+00 0. -1.
     999900   -1    0    0    0    0 -0.00000000000E+00 -0.00000000000E+00 -0.74505805969E-08  0.93827000000E+00  0.93827000000E+00 0. -1.
     999902    2    1    2    0    0  0.33605079259E-03  0.20459562139E-01 -0.81223847120E-02  0.10219145566E+01  0.10216773861E+01 0.  0.
     999903    2    3    3    0    0 -0.11167016502E+00  0.69986269212E-01 -0.41884795223E-02  0.13342496035E+00  0.20405221161E-01 0.  0.
         14    1    1    2    0    0 -0.33605079259E-03 -0.20459562139E-01  0.81223847120E-02  0.22015443363E-01  0.00000000000E+00 0. -1.
     999901    1    3    3    0    0  0.11200621581E+00 -0.49526707074E-01 -0.39339051897E-02  0.88848959628E+00  0.88000000000E+00 0.  1.
        -11    1    4    4    0    0 -0.72611551962E-01  0.49567623799E-01  0.62126401863E-02  0.88137647045E-01  0.51100000000E-03 0. -1.
         11    1    4    4    0    0 -0.39058613059E-01  0.20418645413E-01 -0.10401119709E-01  0.45287313309E-01  0.51100000000E-03 0.  1.
</event>
<event>
 7    1  0.1162192E+005  0.1043930E+01  0.7957747E-01            NaN
         13   -1    0    0    0    0  0.00000000000E+00  0.00000000000E+00  0.74505805969E-08  0.10566000000E+00  0.10566000000E+00 0. -1.
     999900   -1    0    0    0    0 -0.00000000000E+00 -0.00000000000E+00 -0.74505805969E-08  0.93827000000E+00  0.93827000000E+00 0. -1.
     999903    2    1    2    0    0  0.60418917292E-01 -0.50465537201E-01 -0.75493282898E-01  0.11085147242E+00  0.19788814105E-01 0.  0.
         14    1    1    2    0    0 -0.31267998181E-01 -0.14959154663E-01 -0.27412476201E-01  0.44191717210E-01  0.00000000000E+00 0. -1.
     999901    1    1    2    0    0 -0.29150919111E-01  0.65424691864E-01  0.10290575910E+00  0.88888681037E+00  0.88000000000E+00 0.  1.
        -11    1    3    3    0    0  0.15065569904E-01 -0.32929146845E-02 -0.10818115802E-01  0.18844294472E-01  0.51100000000E-03 0.  1.
         11    1    3    3    0    0  0.45353347388E-01 -0.47172622517E-01 -0.64675167096E-01  0.92007177950E-01  0.51100000000E-03 0. -1.
</event>
<event>
 8    1  0.1162192E+005  0.1043930E+01  0.7957747E-01            NaN
         13   -1    0    0    0    0  0.00000000000E+00  0.00000000000E+00  0.74505805969E-08  0.10566000000E+00  0.10566000000E+00 0. -1.
     999900   -1    0    0    0    0 -0.00000000000E+00 -0.00000000000E+00 -0.74505805969E-08  0.93827000000E+00  0.93827000000E+00 0.  1.
     999902    2    1    2    0    0  0.63135760643E-02  0.21068868484E-02  0.22651166397E-01  0.10203211975E+01  0.10200480237E+01 0.  0.
     999903    2    3    3    0    0  0.74040862098E-01  0.52781733528E-01  0.95502324468E-01  0.13326865309E+00  0.19284171339E-01 0.  0.
         14    1    1    2    0    0 -0.63135760643E-02 -0.21068868484E-02 -0.22651166397E-01  0.23608802470E-01  0.00000000000E+00 0.  1.
     999901    1    3    3    0    0 -0.67727286034E-01 -0.50674846679E-01 -0.72851158071E-01  0.88705254444E+00  0.88000000000E+00 0. -1.
        -11    1    4    4    0    0  0.53623279707E-01  0.27136041376E-01  0.59385612418E-01  0.84491022904E-01  0.51100000000E-03 0.  1.
         11    1    4    4    0    0  0.20417582391E-01  0.25645692152E-01  0.36116712050E-01  0.48777630190E-01  0.51100000000E-03 0. -1.
</event>
<event>
 8    1  0.1162192E+005  0.1043930E+01  0.7957747E-01            NaN
         13   -1    0    0    0    0  0.00000000000E+00  0.00000000000E+00  0.74505805969E-08  0.10566000000E+00  0.10566000000E+00 0.  1.
     999900   -1    0    0    0    0 -0.00000000000E+00 -0.00000000000E+00 -0.74505805969E-08  0.93827000000E+00  0.93827000000E+00 0.  1.
     999902    2    1    2    0    0  0.99056583333E-02  0.10873725332E-01  0.18428864729E-01  0.10203507077E+01  0.10200782243E+01 0.  0.
     999903    2    3    3    0    0  0.10672157737E-01 -0.96320858802E-01 -0.82692270403E-01  0.12809695997E+00  0.13387187088E-01 0.  0.
         14    1    1    2    0    0 -0.99056583333E-02 -0.10873725332E-01 -0.18428864729E-01  0.23579292288E-01  0.00000000000E+00 0. -1.
     999901    1    3    3    0    0 -0.76649940376E-03  0.10719458413E+00  0.10112113513E+00  0.89225374774E+00  0.88000000000E+00 0. -1.
        -11    1    4    4    0    0  0.28137162437E-02 -0.47646554182E-01 -0.48813189583E-01  0.68272247090E-01  0.51100000000E-03 0.  1.
         11    1    4    4    0    0  0.78584414933E-02 -0.48674304620E-01 -0.33879080819E-01  0.59824712880E-01  0.51100000000E-03 0. -1.
</event>
<event>
 8    1  0.1162192E+005  0.1043930E+01  0.7957747E-01            NaN
         13   -1    0    0    0    0  0.00000000000E+00  0.00000000000E+00  0.74505805969E-08  0.10566000000E+00  0.10566000000E+00 0.  1.
     999900   -1    0    0    0    0 -0.00000000000E+00 -0.00000000000E+00 -0.74505805969E-08  0.93827000000E+00  0.93827000000E+00 0.  1.
     999902    2    1    2    0    0  0.13283446716E-01 -0.92421613414E-02 -0.17073560998E-01  0.10204060975E+01  0.10201349077E+01 0.  0.
     999903    2    3    3    0    0  0.50624091433E-01  0.10112590793E+00  0.59840704138E-01  0.12940035194E+00  0.19346661836E-01 0.  0.
         14    1    1    2    0    0 -0.13283446716E-01  0.92421613414E-02  0.17073560998E-01  0.23523902484E-01  0.00000000000E+00 0.  1.
     999901    1    3    3    0    0 -0.37340644717E-01 -0.11036806927E+00 -0.76914265135E-01  0.89100574557E+00  0.88000000000E+00 0.  1.
        -11    1    4    4    0    0  0.33501552451E-01  0.49341904523E-01  0.37542585537E-01  0.70474707579E-01  0.51100000000E-03 0.  1.
         11    1    4    4    0    0  0.17122538982E-01  0.51784003403E-01  0.22298118601E-01  0.58925644365E-01  0.51100000000E-03 0. -1.
</event>
<event>
 8    1  0.1162192E+005  0.1043930E+01  0.7957747E-01            NaN
         13   -1    0    0    0    0  0.00000000000E+00  0.00000000000E+00  0.74505805969E-08  0.10566000000E+00  0.10566000000E+00 0. -1.
     999900   -1    0    0    0    0 -0.00000000000E+00 -0.00000000000E+00 -0.74505805969E-08  0.93827000000E+00  0.93827000000E+00 0. -1.
     999902    2    1    2    0    0 -0.17495448047E-01  0.16184537667E-01  0.45754571958E-03  0.10200922293E+01  0.10198136678E+01 0.  0.
     999903    2    3    3    0    0 -0.95281570497E-01  0.13282813488E-01  0.88628916848E-01  0.13226719504E+00  0.19609058399E-01 0.  0.
         14    1    1    2    0    0  0.17495448047E-01 -0.16184537667E-01 -0.45754571958E-03  0.23837770658E-01  0.00000000000E+00 0. -1.
     999901    1    3    3    0    0  0.77786122450E-01  0.29017241791E-02 -0.88171371128E-01  0.88782503430E+00  0.88000000000E+00 0.  1.
        -11    1    4    4    0    0 -0.68239951334E-01  0.14873129470E-01  0.53918116554E-01  0.88234490717E-01  0.51100000000E-03 0. -1.
         11    1    4    4    0    0 -0.27041619162E-01 -0.15903159825E-02  0.34710800294E-01  0.44032704321E-01  0.51100000000E-03 0.  1.
</event>
<event>
 8    1  0.1162192E+005  0.1043930E+01  0.7957747E-01            NaN
         13   -1    0    0    0    0  0.00000000000E+00  0.00000000000E+00  0.74505805969E-08  0.10566000000E+00  0.10566000000E+00 0. -1.
     999900   -1    0    0    0    0 -0.00000000000E+00 -0.00000000000E+00 -0.74505805969E-08  0.93827000000E+00  0.93827000000E+00 0. -1.
     999902    2    1    2    0    0 -0.18502483212E-01  0.13996490270E-01  0.31210903322E-02  0.10205209242E+01  0.10202524060E+01 0.  0.
     999903    2    3    3    0    0  0.24449776874E-01 -0.12187334791E+00  0.26735832173E-01  0.12874563546E+00  0.20241773872E-01 0.  0.
         14    1    1    2    0    0  0.18502483212E-01 -0.13996490270E-01 -0.31210903322E-02  0.23409075799E-01  0.00000000000E+00 0.  1.
     999901    1    3    3    0    0 -0.42952260087E-01  0.13586983818E+00 -0.23614741841E-01  0.89177528874E+00  0.88000000000E+00 0.  1.
        -11    1    4    4    0    0  0.76993856390E-02 -0.67196342834E-01  0.22979385706E-01  0.71434881661E-01  0.51100000000E-03 0. -1.
         11    1    4    4    0    0  0.16750391235E-01 -0.54677005073E-01  0.37564464674E-02  0.57310753802E-01  0.51100000000E-03 0.  1.
</event>
<event>
 8    1  0.1162192E+005  0.1043930E+01  0.7957747E-01            NaN
         13   -1    0    0    0    0  0.00000000000E+00  0.00000000000E+00  0.74505805969E-08  0.10566000000E+00  0.10566000000E+00 0. -1.
     999900   -1    0    0    0    0 -0.00000000000E+00 -0.00000000000E+00 -0.74505805969E-08  0.93827000000E+00  0.93827000000E+00 0. -1.
     999902    2    1    2    0    0  0.11207603649E-01  0.98270298477E-02 -0.16058441570E-01  0.10220198553E+01  0.10217849726E+01 0.  0.
     999903    2    3    3    0    0 -0.67438873439E-01  0.10335093552E+00 -0.44901488609E-01  0.13310821140E+00  0.21730962693E-01 0.  0.
         14    1    1    2    0    0 -0.11207603649E-01 -0.98270298477E-02  0.16058441570E-01  0.21910144701E-01  0.00000000000E+00 0. -1.
     999901    1    3    3    0    0  0.78646477087E-01 -0.93523905675E-01  0.28843047039E-01  0.88891164390E+00  0.88000000000E+00 0.  1.
        -11    1    4    4    0    0 -0.36288453313E-01  0.53973677279E-01 -0.12151881270E-01  0.66165995966E-01  0.51100000000E-03 0. -1.
         11    1    4    4    0    0 -0.31150420126E-01  0.49377258244E-01 -0.32749607339E-01  0.66942215436E-01  0.51100000000E-03 0.  1.
</event>
<event>
 8    1  0.1162192E+005  0.1043930E+01  0.7957747E-01            NaN
         13   -1    0    0    0    0  0.00000000000E+00  0.00000000000E+00  0.74505805969E-08  0.10566000000E+00  0.10566000000E+00 0. -1.
     999900   -1    0    0    0    0 -0.00000000000E+00 -0.00000000000E+00 -0.74505805969E-08  0.93827000000E+00  0.93827000000E+00 0. -1.
     999902    2    1    2    0    0  0.60845804132E-02  0.46241272220E-02  0.22468474964E-01  0.10201973845E+01  0.10199213040E+01 0.  0.
     999903    2    3    3    0    0  0.57411562310E-01 -0.24083435239E-01 -0.11035085748E+00  0.12828956511E+00  0.20119677700E-01 0.  0.
         14    1    1    2    0    0 -0.60845804132E-02 -0.46241272220E-02 -0.22468474964E-01  0.23732615503E-01  0.00000000000E+00 0.  1.
     999901    1    3    3    0    0 -0.51326981897E-01  0.28707562461E-01  0.13281933244E+00  0.89190781939E+00  0.88000000000E+00 0.  1.
        -11    1    4    4    0    0  0.34636366837E-01 -0.18140322405E-01 -0.85715158707E-01  0.94213049828E-01  0.51100000000E-03 0.  1.
         11    1    4    4    0    0  0.22775195473E-01 -0.59431128346E-02 -0.24635698769E-01  0.34076515283E-01  0.51100000000E-03 0. -1.
</event>
<event>
 8    1  0.1162192E+005  0.1043930E+01  0.7957747E-01            NaN
         13   -1    0    0    0    0  0.00000000000E+00  0.00000000000E+00  0.74505805969E-08  0.10566000000E+00  0.10566000000E+00 0. -1.
     999900   -1    0    0    0    0 -0.00000000000E+00 -0.00000000000E+00 -0.74505805969E-08  0.93827000000E+00  0.93827000000E+00 0.  1.
     999902    2    1    2    0    0 -0.22164522089E-01 -0.62374694795E-02 -0.67221822422E-02  0.10199433412E+01  0.10196612474E+01 0.  0.
     999903    2    3    3    0    0 -0.38464420152E-01 -0.11822871251E+00  0.38056788591E-01  0.13156679864E+00  0.20098837425E-01 0.  0.
         14    1    1    2    0    0  0.22164522089E-01  0.62374694795E-02  0.67221822422E-02  0.23986658772E-01  0.00000000000E+00 0. -1.
     999901    1    3    3    0    0  0.16299898062E-01  0.11199124303E+00 -0.44778970833E-01  0.88837654259E+00  0.88000000000E+00 0. -1.
        -11    1    4    4    0    0 -0.34407045762E-01 -0.96135804495E-01  0.23446700643E-01  0.10476615196E+00  0.51100000000E-03 0. -1.
         11    1    4    4    0    0 -0.40573743900E-02 -0.22092908019E-01  0.14610087948E-01  0.26800646681E-01  0.51100000000E-03 0.  1.
</event>
<event>
 8    1  0.1162192E+005  0.1043930E+01  0.7957747E-01            NaN
         13   -1    0    0    0    0  0.00000000000E+00  0.00000000000E+00  0.74505805969E-08  0.10566000000E+00  0.10566000000E+00 0. -1.
     999900   -1    0    0    0    0 -0.00000000000E+00 -0.00000000000E+00 -0.74505805969E-08  0.93827000000E+00  0.93827000000E+00 0.  1.
     999902    2    1    2    0    0  0.22399929466E-01 -0.13969910552E-01 -0.38072112661E-02  0.10172577279E+01  0.10169079973E+01 0.  0.
     999903    2    3    3    0    0  0.11671874583E+00  0.48339001841E-01 -0.22933609612E-01  0.12982082379E+00  0.19172144170E-01 0.  0.
         14    1    1    2    0    0 -0.22399929466E-01  0.13969910552E-01  0.38072112661E-02  0.26672272092E-01  0.00000000000E+00 0. -1.
     999901    1    3    3    0    0 -0.94318816362E-01 -0.62308912393E-01  0.19126398346E-01  0.88743690412E+00  0.88000000000E+00 0. -1.
        -11    1    4    4    0    0  0.46663918779E-01  0.17459753996E-01  0.25279008855E-03  0.49826592792E-01  0.51100000000E-03 0.  1.
         11    1    4    4    0    0  0.70054827049E-01  0.30879247845E-01 -0.23186399700E-01  0.79994230995E-01  0.51100000000E-03 0. -1.
</event>
<event>
 8    1  0.1162192E+005  0.1043930E+01  0.7957747E-01            NaN
         13   -1    0    0    0    0  0.00000000000E+00  0.00000000000E+00  0.74505805969E-08  0.10566000000E+00  0.10566000000E+00 0.  1.
     999900   -1    0    0    0    0 -0.00000000000E+00 -0.00000000000E+00 -0.74505805969E-08  0.93827000000E+00  0.93827000000E+00 0.  1.
     999902    2    1    2    0    0  0.56633555923E-02  0.35514277317E-02  0.22799745387E-01  0.10201704835E+01  0.10198937693E+01 0.  0.
     999903    2    3    3    0    0 -0.45443958264E-01 -0.11677155721E+00 -0.24341157723E-01  0.12926541391E+00  0.20403562410E-01 0.  0.
         14    1    1    2    0    0 -0.56633555923E-02 -0.35514277317E-02 -0.22799745387E-01  0.23759516519E-01  0.00000000000E+00 0. -1.
     999901    1    3    3    0    0  0.51107313856E-01  0.12032298494E+00  0.47140903110E-01  0.89090506957E+00  0.88000000000E+00 0. -1.
        -11    1    4    4    0    0 -0.11526549878E-01 -0.15782425007E-01  0.16101066875E-02  0.19616316060E-01  0.51100000000E-03 0.  1.
         11    1    4    4    0    0 -0.33917408385E-01 -0.10098913220E+00 -0.25951264411E-01  0.10964909785E+00  0.51100000000E-03 0. -1.
</event>
<event>
 8    1  0.1162192E+005  0.1043930E+01  0.7957747E-01            NaN
         13   -1    0    0    0    0  0.00000000000E+00  0.00000000000E+00  0.74505805969E-08  0.10566000000E+00  0.10566000000E+00 0.  1.
     999900   -1    0    0    0    0 -0.00000000000E+00 -0.00000000000E+00 -0.74505805969E-08  0.93827000000E+00  0.93827000000E+00 0. -1.
     999902    2    1    2    0    0  0.62897356979E-02 -0.84676091006E-02  0.20372609518E-01  0.10209886749E+01  0.10207308998E+01 0.  0.
     999903    2    3    3    0    0 -0.34839914677E-01 -0.52641937942E-01  0.11618728794E+00  0.13373252695E+00  0.19997739846E-01 0.  0.
         14    1    1    2    0    0 -0.62897356979E-02  0.84676091006E-02 -0.20372609518E-01  0.22941325106E-01  0.00000000000E+00 0. -1.
     999901    1    3    3    0    0  0.41129650375E-01  0.44174328841E-01 -0.95814678425E-01  0.88725614795E+00  0.88000000000E+00 0. -1.
        -11    1    4    4    0    0 -0.13808696540E-01 -0.34772443103E-01  0.79074227587E-01  0.87480269141E-01  0.51100000000E-03 0.  1.
         11    1    4    4    0    0 -0.21031218137E-01 -0.17869494839E-01  0.37113060356E-01  0.46252257806E-01  0.51100000000E-03 0. -1.
</event>
<event>
 8    1  0.1162192E+005  0.1043930E+01  0.7957747E-01            NaN
         13   -1    0    0    0    0  0.00000000000E+00  0.00000000000E+00  0.74505805969E-08  0.10566000000E+00  0.10566000000E+00 0.  1.
     999900   -1    0    0    0    0 -0.00000000000E+00 -0.00000000000E+00 -0.74505805969E-08  0.93827000000E+00  0.93827000000E+00 0.  1.
     999902    2    1    2    0    0  0.48800127779E-02 -0.18559356794E-01 -0.70432929003E-02  0.10234880768E+01  0.10232839152E+01 0.  0.
     999903    2    3    3    0    0 -0.92287047146E-01  0.88701565214E-01  0.19480012109E-01  0.13127183135E+00  0.21632292833E-01 0.  0.
         14    1    1    2    0    0 -0.48800127779E-02  0.18559356794E-01  0.70432929003E-02  0.20441923202E-01  0.00000000000E+00 0. -1.
     999901    1    3    3    0    0  0.97167059923E-01 -0.10726092201E+00 -0.26523305010E-01  0.89221624544E+00  0.88000000000E+00 0.  1.
        -11    1    4    4    0    0 -0.70710513818E-01  0.55692040102E-01  0.18079154864E-01  0.91807935696E-01  0.51100000000E-03 0. -1.
         11    1    4    4    0    0 -0.21576533327E-01  0.33009525113E-01  0.14008572451E-02  0.39463895659E-01  0.51100000000E-03 0.  1.
</event>
<event>
 8    1  0.1162192E+005  0.1043930E+01  0.7957747E-01            NaN
         13   -1    0    0    0    0  0.00000000000E+00  0.00000000000E+00  0.74505805969E-08  0.10566000000E+00  0.10566000000E+00 0.  1.
     999900   -1    0    0    0    0 -0.00000000000E+00 -0.00000000000E+00 -0.74505805969E-08  0.93827000000E+00  0.93827000000E+00 0.  1.
     999902    2    1    2    0    0 -0.23480101904E-01 -0.27815675143E-03 -0.66393372416E-02  0.10195276773E+01  0.10192356015E+01 0.  0.
     999903    2    3    3    0    0  0.59420154367E-01 -0.10520683778E+00 -0.38555533072E-01  0.12885314402E+00  0.22745771731E-01 0.  0.
         14    1    1    2    0    0  0.23480101904E-01  0.27815675143E-03  0.66393372416E-02  0.24402322750E-01  0.00000000000E+00 0. -1.
     999901    1    3    3    0    0 -0.82900256270E-01  0.10492868103E+00  0.31916195830E-01  0.89067453323E+00  0.88000000000E+00 0. -1.
        -11    1    4    4    0    0  0.55252567158E-01 -0.81217821274E-01 -0.26865465138E-01  0.10183906425E+00  0.51100000000E-03 0. -1.
         11    1    4    4    0    0  0.41675872088E-02 -0.23989016508E-01 -0.11690067934E-01  0.27014079764E-01  0.51100000000E-03 0.  1.
</event>
<event>
 8    1  0.1162192E+005  0.1043930E+01  0.7957747E-01            NaN
         13   -1    0    0    0    0  0.00000000000E+00  0.00000000000E+00  0.74505805969E-08  0.10566000000E+00  0.10566000000E+00 0. -1.
     999900   -1    0    0    0    0 -0.00000000000E+00 -0.00000000000E+00 -0.74505805969E-08  0.93827000000E+00  0.93827000000E+00 0.  1.
     999902    2    1    2    0    0 -0.17723350881E-01  0.31918017996E-02 -0.15464956052E-01  0.10201924847E+01  0.10199162889E+01 0.  0.
     999903    2    3    3    0    0 -0.12895792367E+00  0.23957925374E-01  0.58160839411E-02  0.13269192432E+00  0.19214361347E-01 0.  0.
         14    1    1    2    0    0  0.17723350881E-01 -0.31918017996E-02  0.15464956052E-01  0.23737515263E-01  0.00000000000E+00 0. -1.
     999901    1    3    3    0    0  0.11123457279E+00 -0.20766123575E-01 -0.21281039993E-01  0.88750056041E+00  0.88000000000E+00 0.  1.
        -11    1    4    4    0    0 -0.71114855290E-01  0.77928772301E-02  0.11100121382E-01  0.72398379775E-01  0.51100000000E-03 0.  1.
         11    1    4    4    0    0 -0.57843068382E-01  0.16165048144E-01 -0.52840374408E-02  0.60293544547E-01  0.51100000000E-03 0. -1.
</event>
<event>
 7    1  0.1162192E+005  0.1043930E+01  0.7957747E-01            NaN
         13   -1    0    0    0    0  0.00000000000E+00  0.00000000000E+00  0.74505805969E-08  0.10566000000E+00  0.10566000000E+00 0. -1.
     999900   -1    0    0    0    0 -0.00000000000E+00 -0.00000000000E+00 -0.74505805969E-08  0.93827000000E+00  0.93827000000E+00 0.  1.
     999903    2    1    2    0    0 -0.35593042742E-01  0.64642930538E-01  0.70774187154E-01  0.10407493864E+00  0.19417366605E-01 0.  0.
         14    1    1    2    0    0 -0.17235511076E-01 -0.20367449455E-01 -0.50281167977E-01  0.56921803314E-01  0.00000000000E+00 0.  1.
     999901    1    1    2    0    0  0.52828553818E-01 -0.44275481083E-01 -0.20493019177E-01  0.88293325804E+00  0.88000000000E+00 0.  1.
        -11    1    3    3    0    0 -0.19368851432E-01  0.28124705186E-01  0.20428386879E-01  0.39796124925E-01  0.51100000000E-03 0. -1.
         11    1    3    3    0    0 -0.16224191310E-01  0.36518225353E-01  0.50345800275E-01  0.64278813718E-01  0.51100000000E-03 0.  1.
</event>
<event>
 8    1  0.1162192E+005  0.1043930E+01  0.7957747E-01            NaN
         13   -1    0    0    0    0  0.00000000000E+00  0.00000000000E+00  0.74505805969E-08  0.10566000000E+00  0.10566000000E+00 0. -1.
     999900   -1    0    0    0    0 -0.00000000000E+00 -0.00000000000E+00 -0.74505805969E-08  0.93827000000E+00  0.93827000000E+00 0.  1.
     999902    2    1    2    0    0 -0.57540426516E-02 -0.21536139053E-01  0.65134900561E-02  0.10207063085E+01  0.10204420750E+01 0.  0.
     999903    2    3    3    0    0  0.27968989860E-01  0.10581883428E+00 -0.63334607325E-01  0.12816203017E+00  0.20840907130E-01 0.  0.
         14    1    1    2    0    0  0.57540426516E-02  0.21536139053E-01 -0.65134900561E-02  0.23223691456E-01  0.00000000000E+00 0.  1.
     999901    1    3    3    0    0 -0.33723032512E-01 -0.12735497333E+00  0.69848097381E-01  0.89254427838E+00  0.88000000000E+00 0. -1.
        -11    1    4    4    0    0  0.66832013326E-02  0.45416697756E-01 -0.36801524517E-01  0.58838379846E-01  0.51100000000E-03 0. -1.
         11    1    4    4    0    0  0.21285788527E-01  0.60402136522E-01 -0.26533082808E-01  0.69323650322E-01  0.51100000000E-03 0.  1.
</event>
<event>
 7    1  0.1162192E+005  0.1043930E+01  0.7957747E-01            NaN
         13   -1    0    0    0    0  0.00000000000E+00  0.00000000000E+00  0.74505805969E-08  0.10566000000E+00  0.10566000000E+00 0. -1.
     999900   -1    0    0    0    0 -0.00000000000E+00 -0.00000000000E+00 -0.74505805969E-08  0.93827000000E+00  0.93827000000E+00 0.  1.
     999903    2    1    2    0    0  0.88589337804E-01  0.42458538047E-01  0.65384909563E-01  0.11983647201E+00  0.20851748097E-01 0.  0.
         14    1    1    2    0    0 -0.26079621691E-01 -0.98910416696E-02 -0.29423906531E-01  0.40543133184E-01  0.00000000000E+00 0.  1.
     999901    1    1    2    0    0 -0.62509716113E-01 -0.32567496378E-01 -0.35961003033E-01  0.88355039481E+00  0.88000000000E+00 0.  1.
        -11    1    3    3    0    0  0.64699265724E-01  0.38219147966E-01  0.41772127237E-01  0.85975984969E-01  0.51100000000E-03 0. -1.
         11    1    3    3    0    0  0.23890072080E-01  0.42393900818E-02  0.23612782326E-01  0.33860487038E-01  0.51100000000E-03 0.  1.
</event>
<event>
 8    1  0.1162192E+005  0.1043930E+01  0.7957747E-01            NaN
         13   -1    0    0    0    0  0.00000000000E+00  0.00000000000E+00  0.74505805969E-08  0.10566000000E+00  0.10566000000E+00 0. -1.
     999900   -1    0    0    0    0 -0.00000000000E+00 -0.00000000000E+00 -0.74505805969E-08  0.93827000000E+00  0.93827000000E+00 0. -1.
     999902    2    1    2    0    0 -0.20537064887E-01  0.97822137408E-02 -0.49423170078E-02  0.10206514855E+01  0.10203859885E+01 0.  0.
     999903    2    3    3    0    0  0.92691088132E-02 -0.22089330931E-01  0.12617756444E+00  0.12986720934E+00  0.19257709434E-01 0.  0.
         14    1    1    2    0    0  0.20537064887E-01 -0.97822137408E-02  0.49423170078E-02  0.23278514498E-01  0.00000000000E+00 0.  1.
     999901    1    3    3    0    0 -0.29806173700E-01  0.31871544672E-01 -0.13111988145E+00  0.89078427616E+00  0.88000000000E+00 0. -1.
        -11    1    4    4    0    0  0.12399355779E-01 -0.15700599746E-01  0.58784794906E-01  0.62098036115E-01  0.51100000000E-03 0. -1.
         11    1    4    4    0    0 -0.31302469658E-02 -0.63887311856E-02  0.67392769538E-01  0.67769173222E-01  0.51100000000E-03 0.  1.
</event>
<event>
 8    1  0.1162192E+005  0.1043930E+01  0.7957747E-01            NaN
         13   -1    0    0    0    0  0.00000000000E+00  0.00000000000E+00  0.74505805969E-08  0.10566000000E+00  0.10566000000E+00 0. -1.
     999900   -1    0    0    0    0 -0.00000000000E+00 -0.00000000000E+00 -0.74505805969E-08  0.93827000000E+00  0.93827000000E+00 0.  1.
     999902    2    1    2    0    0  0.10712690151E-01  0.11220994036E-01  0.28697421414E-01  0.10113077004E+01  0.10107814058E+01 0.  0.
     999903    2    3    3    0    0  0.11812273873E+00  0.25350645824E-01 -0.16217260039E-01  0.12352738170E+00  0.20009444219E-01 0.  0.
         14    1    1    2    0    0 -0.10712690151E-01 -0.11220994036E-01 -0.28697421414E-01  0.32622299631E-01  0.00000000000E+00 0.  1.
     999901    1    3    3    0    0 -0.10741004858E+00 -0.14129651789E-01  0.44914681453E-01  0.88778031866E+00  0.88000000000E+00 0. -1.
        -11    1    4    4    0    0  0.69356207376E-01  0.71576203018E-02 -0.15702711675E-01  0.71472731199E-01  0.51100000000E-03 0. -1.
         11    1    4    4    0    0  0.48766531358E-01  0.18193025523E-01 -0.51454836402E-03  0.52054650506E-01  0.51100000000E-03 0.  1.
</event>
<event>
 8    1  0.1162192E+005  0.1043930E+01  0.7957747E-01            NaN
         13   -1    0    0    0    0  0.00000000000E+00  0.00000000000E+00  0.74505805969E-08  0.10566000000E+00  0.10566000000E+00 0.  1.
     999900   -1    0    0    0    0 -0.00000000000E+00 -0.00000000000E+00 -0.74505805969E-08  0.93827000000E+00  0.93827000000E+00 0. -1.
     999902    2    1    2    0    0  0.22169817483E-01  0.53481452918E-02  0.55800317539E-02  0.10204514945E+01  0.10201813625E+01 0.  0.
     999903    2    3    3    0    0 -0.76604027022E-01 -0.78574867741E-01 -0.63306760926E-01  0.12829414591E+00  0.20234996875E-01 0.  0.
         14    1    1    2    0    0 -0.22169817483E-01 -0.53481452918E-02 -0.55800317539E-02  0.23478505482E-01  0.00000000000E+00 0.  1.
     999901    1    3    3    0    0  0.98773844505E-01  0.83923013033E-01  0.68886792680E-01  0.89215734861E+00  0.88000000000E+00 0. -1.
        -11    1    4    4    0    0 -0.54103243801E-01 -0.50581966464E-01 -0.32144612764E-01  0.80741770923E-01  0.51100000000E-03 0. -1.
         11    1    4    4    0    0 -0.22500783221E-01 -0.27992901277E-01 -0.31162148162E-01  0.47552374983E-01  0.51100000000E-03 0.  1.
</event>
<event>
 8    1  0.1162192E+005  0.1043930E+01  0.7957747E-01            NaN
         13   -1    0    0    0    0  0.00000000000E+00  0.00000000000E+00  0.74505805969E-08  0.10566000000E+00  0.10566000000E+00 0. -1.
     999900   -1    0    0    0    0 -0.00000000000E+00 -0.00000000000E+00 -0.74505805969E-08  0.93827000000E+00  0.93827000000E+00 0. -1.
     999902    2    1    2    0    0 -0.88178814908E-02 -0.20686444193E-01  0.75554914563E-02  0.10202072375E+01  0.10199313889E+01 0.  0.
     999903    2    3    3    0    0  0.12835554645E-01 -0.48304717003E-01  0.12083228498E+00  0.13225269353E+00  0.19804966673E-01 0.  0.
         14    1    1    2    0    0  0.88178814908E-02  0.20686444193E-01 -0.75554914563E-02  0.23722762455E-01  0.00000000000E+00 0.  1.
     999901    1    3    3    0    0 -0.21653436136E-01  0.27618272809E-01 -0.11327679352E+00  0.88795454402E+00  0.88000000000E+00 0. -1.
        -11    1    4    4    0    0  0.16604012556E-01 -0.28693327022E-01  0.84837834341E-01  0.91086329959E-01  0.51100000000E-03 0. -1.
         11    1    4    4    0    0 -0.37684579111E-02 -0.19611389981E-01  0.35994450636E-01  0.41166363570E-01  0.51100000000E-03 0.  1.
</event>
<event>
 8    1  0.1162192E+005  0.1043930E+01  0.7957747E-01            NaN
         13   -1    0    0    0    0  0.00000000000E+00  0.00000000000E+00  0.74505805969E-08  0.10566000000E+00  0.10566000000E+00 0.  1.
     999900   -1    0    0    0    0 -0.00000000000E+00 -0.00000000000E+00 -0.74505805969E-08  0.93827000000E+00  0.93827000000E+00 0. -1.
     999902    2    1    2    0    0 -0.65518200222E-02  0.10432183659E-01  0.20485196057E-01  0.10200260242E+01  0.10197458948E+01 0.  0.
     999903    2    3    3    0    0 -0.10441423256E+00 -0.68534937505E-01 -0.29247973756E-01  0.12969673332E+00  0.19142336493E-01 0.  0.
         14    1    1    2    0    0  0.65518200222E-02 -0.10432183659E-01 -0.20485196057E-01  0.23903975799E-01  0.00000000000E+00 0. -1.
     999901    1    3    3    0    0  0.97862412538E-01  0.78967121164E-01  0.49733169814E-01  0.89032929088E+00  0.88000000000E+00 0.  1.
        -11    1    4    4    0    0 -0.61090342435E-01 -0.45923327109E-01 -0.96235222131E-02  0.77031520901E-01  0.51100000000E-03 0.  1.
         11    1    4    4    0    0 -0.43323890125E-01 -0.22611610396E-01 -0.19624451543E-01  0.52665212423E-01  0.51100000000E-03 0. -1.
</event>
<event>
 8    1  0.1162192E+005  0.1043930E+01  0.7957747E-01            NaN
         13   -1    0    0    0    0  0.00000000000E+00  0.00000000000E+00  0.74505805969E-08  0.10566000000E+00  0.10566000000E+00 0. -1.
     999900   -1    0    0    0    0 -0.00000000000E+00 -0.00000000000E+00 -0.74505805969E-08  0.93827000000E+00  0.93827000000E+00 0.  1.
     999902    2    1    2    0    0 -0.53741119182E-02 -0.20990131356E-01 -0.82373916816E-02  0.10207498077E+01  0.10204865744E+01 0.  0.
     999903    2    3    3    0    0  0.11385277751E+00 -0.35389568304E-01 -0.51743465723E-01  0.13152814050E+00  0.20183879893E-01 0.  0.
         14    1    1    2    0    0  0.53741119182E-02  0.20990131356E-01  0.82373916816E-02  0.23180192297E-01  0.00000000000E+00 0.  1.
     999901    1    3    3    0    0 -0.11922688942E+00  0.14399436949E-01  0.43506074041E-01  0.88922166720E+00  0.88000000000E+00 0. -1.
        -11    1    4    4    0    0  0.57050846479E-01 -0.15598996378E-01 -0.36395488277E-01  0.69447969444E-01  0.51100000000E-03 0.  1.
         11    1    4    4    0    0  0.56801931026E-01 -0.19790571926E-01 -0.15347977446E-01  0.62080171055E-01  0.51100000000E-03 0. -1.
</event>
<event>
 8    1  0.1162192E+005  0.1043930E+01  0.7957747E-01            NaN
         13   -1    0    0    0    0  0.00000000000E+00  0.00000000000E+00  0.74505805969E-08  0.10566000000E+00  0.10566000000E+00 0.  1.
     999900   -1    0    0    0    0 -0.00000000000E+00 -0.00000000000E+00 -0.74505805969E-08  0.93827000000E+00  0.93827000000E+00 0.  1.
     999902    2    1    2    0    0 -0.18868139297E-01  0.13734556568E-01  0.50430652127E-02  0.10200537098E+01  0.10197742367E+01 0.  0.
     999903    2    3    3    0    0  0.10722880745E+00  0.18080524789E-01 -0.65121371872E-01  0.12829007768E+00  0.19814853849E-01 0.  0.
         14    1    1    2    0    0  0.18868139297E-01 -0.13734556568E-01 -0.50430652127E-02  0.23876290152E-01  0.00000000000E+00 0. -1.
     999901    1    3    3    0    0 -0.12609694675E+00 -0.43459682206E-02  0.70164437084E-01  0.89176363216E+00  0.88000000000E+00 0. -1.
        -11    1    4    4    0    0  0.55457988625E-01  0.58534670256E-02 -0.22547141948E-01  0.60153855318E-01  0.51100000000E-03 0. -1.
         11    1    4    4    0    0  0.51770818829E-01  0.12227057763E-01 -0.42574229923E-01  0.68136222366E-01  0.51100000000E-03 0.  1.
</event>
<event>
 8    1  0.1162192E+005  0.1043930E+01  0.7957747E-01            NaN
         13   -1    0    0    0    0  0.00000000000E+00  0.00000000000E+00  0.74505805969E-08  0.10566000000E+00  0.10566000000E+00 0. -1.
     999900   -1    0    0    0    0 -0.00000000000E+00 -0.00000000000E+00 -0.74505805969E-08  0.93827000000E+00  0.93827000000E+00 0.  1.
     999902    2    1    2    0    0 -0.26421062280E-01  0.37409881834E-02  0.72339426873E-02  0.10162822614E+01  0.10159061164E+01 0.  0.
     999903    2    3    3    0    0 -0.34636052673E-01  0.60393556872E-01  0.10637547307E+00  0.12886688926E+00  0.21068840069E-01 0.  0.
         14    1    1    2    0    0  0.26421062280E-01 -0.37409881834E-02 -0.72339426873E-02  0.27647738631E-01  0.00000000000E+00 0. -1.
     999901    1    3    3    0    0  0.82149903925E-02 -0.56652568688E-01 -0.99141530378E-01  0.88741537211E+00  0.88000000000E+00 0.  1.
        -11    1    4    4    0    0 -0.48986220006E-02  0.18503377354E-01  0.44491742804E-01  0.48437049556E-01  0.51100000000E-03 0.  1.
         11    1    4    4    0    0 -0.29737430672E-01  0.41890179518E-01  0.61883730262E-01  0.80429839706E-01  0.51100000000E-03 0. -1.
</event>
<event>
 8    1  0.1162192E+005  0.1043930E+01  0.7957747E-01            NaN
         13   -1    0    0    0    0  0.00000000000E+00  0.00000000000E+00  0.74505805969E-08  0.10566000000E+00  0.10566000000E+00 0.  1.
     999900   -1    0    0    0    0 -0.00000000000E+00 -0.00000000000E+00 -0.74505805969E-08  0.93827000000E+00  0.93827000000E+00 0. -1.
     999902    2    1    2    0    0  0.10527508442E-01  0.65639724323E-02 -0.29516592723E-02  0.10311774920E+01  0.10310986342E+01 0.  0.
     999903    2    3    3    0    0 -0.26324952091E-01 -0.12533625491E+00 -0.50910301044E-01  0.13929420078E+00  0.20219686475E-01 0.  0.
         14    1    1    2    0    0 -0.10527508442E-01 -0.65639724323E-02  0.29516592723E-02  0.12752508010E-01  0.00000000000E+00 0.  1.
     999901    1    3    3    0    0  0.36852460532E-01  0.13190022734E+00  0.47958641772E-01  0.89188329121E+00  0.88000000000E+00 0. -1.
        -11    1    4    4    0    0 -0.24231772960E-01 -0.87074535467E-01 -0.27893545768E-01  0.94591038498E-01  0.51100000000E-03 0.  1.
         11    1    4    4    0    0 -0.20931791310E-02 -0.38261719442E-01 -0.23016755276E-01  0.44703162282E-01  0.51100000000E-03 0. -1.
</event>
<event>
 8    1  0.1162192E+005  0.1043930E+01  0.7957747E-01            NaN
         13   -1    0    0    0    0  0.00000000000E+00  0.00000000000E+00  0.74505805969E-08  0.10566000000E+00  0.10566000000E+00 0.  1.
     999900   -1    0    0    0    0 -0.00000000000E+00 -0.00000000000E+00 -0.74505805969E-08  0.93827000000E+00  0.93827000000E+00 0. -1.
     999902    2    1    2    0    0 -0.15967614618E-01 -0.10877155484E-01  0.22816722297E-01  0.10140321732E+01  0.10135913222E+01 0.  0.
     999903    2    3    3    0    0  0.66067717735E-02  0.19702775742E-01  0.12415038518E+00  0.12740189723E+00  0.19648828828E-01 0.  0.
         14    1    1    2    0    0  0.15967614618E-01  0.10877155484E-01 -0.22816722297E-01  0.29897826750E-01  0.00000000000E+00 0. -1.
     999901    1    3    3    0    0 -0.22574386391E-01 -0.30579931226E-01 -0.10133366288E+00  0.88663027602E+00  0.88000000000E+00 0. -1.
        -11    1    4    4    0    0 -0.39315632239E-02  0.16992933398E-01  0.84470180420E-01  0.86253634567E-01  0.51100000000E-03 0. -1.
         11    1    4    4    0    0  0.10538334997E-01  0.27098423446E-02  0.39680204756E-01  0.41148262667E-01  0.51100000000E-03 0.  1.
</event>
<event>
 8    1  0.1162192E+005  0.1043930E+01  0.7957747E-01            NaN
         13   -1    0    0    0    0  0.00000000000E+00  0.00000000000E+00  0.74505805969E-08  0.10566000000E+00  0.10566000000E+00 0.  1.
     999900   -1    0    0    0    0 -0.00000000000E+00 -0.00000000000E+00 -0.74505805969E-08  0.93827000000E+00  0.93827000000E+00 0. -1.
     999902    2    1    2    0    0  0.63098144210E-02  0.22835901347E-01  0.31330998065E-02  0.10200321243E+01  0.10197521396E+01 0.  0.
     999903    2    3    3    0    0 -0.23397804201E-01  0.38904937154E-01  0.12176660370E+00  0.13142947702E+00  0.19635434178E-01 0.  0.
         14    1    1    2    0    0 -0.63098144210E-02 -0.22835901347E-01 -0.31330998065E-02  0.23897875695E-01  0.00000000000E+00 0.  1.
     999901    1    3    3    0    0  0.29707618622E-01 -0.16069035807E-01 -0.11863350390E+00  0.88860264729E+00  0.88000000000E+00 0. -1.
        -11    1    4    4    0    0  0.98066109434E-03  0.25449388180E-02  0.25798138738E-01  0.25946936102E-01  0.51100000000E-03 0. -1.
         11    1    4    4    0    0 -0.24378465296E-01  0.36359998336E-01  0.95968464967E-01  0.10548254092E+00  0.51100000000E-03 0.  1.
</event>
<event>
 8    1  0.1162192E+005  0.1043930E+01  0.7957747E-01            NaN
         13   -1    0    0    0    0  0.00000000000E+00  0.00000000000E+00  0.74505805969E-08  0.10566000000E+00  0.10566000000E+00 0. -1.
     999900   -1    0    0    0    0 -0.00000000000E+00 -0.00000000000E+00 -0.74505805969E-08  0.93827000000E+00  0.93827000000E+00 0.  1.
     999902    2    1    2    0    0  0.10997559966E-01 -0.19182440683E-01  0.89613062495E-02  0.10200717233E+01  0.10197926767E+01 0.  0.
     999903    2    3    3    0    0  0.60206708614E-01 -0.76795828738E-01 -0.86084702384E-01  0.13171673429E+00  0.20402819293E-01 0.  0.
         14    1    1    2    0    0 -0.10997559966E-01  0.19182440683E-01 -0.89613062495E-02  0.23858276666E-01  0.00000000000E+00 0.  1.
     999901    1    3    3    0    0 -0.49209148649E-01  0.57613388054E-01  0.95046008634E-01  0.88835498904E+00  0.88000000000E+00 0. -1.
        -11    1    4    4    0    0  0.36580261827E-01 -0.54041024453E-01 -0.45619918361E-01  0.79624028732E-01  0.51100000000E-03 0. -1.
         11    1    4    4    0    0  0.23626446787E-01 -0.22754804285E-01 -0.40464784023E-01  0.52092705563E-01  0.51100000000E-03 0.  1.
</event>
<event>
 8    1  0.1162192E+005  0.1043930E+01  0.7957747E-01            NaN
         13   -1    0    0    0    0  0.00000000000E+00  0.00000000000E+00  0.74505805969E-08  0.10566000000E+00  0.10566000000E+00 0. -1.
     999900   -1    0    0    0    0 -0.00000000000E+00 -0.00000000000E+00 -0.74505805969E-08  0.93827000000E+00  0.93827000000E+00 0. -1.
     999902    2    1    2    0    0 -0.22866891963E-01  0.67220801310E-02  0.48648180262E-03  0.10200905836E+01  0.10198119832E+01 0.  0.
     999903    2    3    3    0    0 -0.27240649501E-01  0.12750384581E+00  0.14455534729E-02  0.13182920063E+00  0.19431027528E-01 0.  0.
         14    1    1    2    0    0  0.22866891963E-01 -0.67220801310E-02 -0.48648180262E-03  0.23839416391E-01  0.00000000000E+00 0.  1.
     999901    1    3    3    0    0  0.43737575384E-02 -0.12078176568E+00 -0.95907167026E-03  0.88826138298E+00  0.88000000000E+00 0. -1.
        -11    1    4    4    0    0 -0.13363097316E-01  0.52406299320E-01  0.99265523010E-02  0.54989000171E-01  0.51100000000E-03 0.  1.
         11    1    4    4    0    0 -0.13877552185E-01  0.75097546494E-01 -0.84809988281E-02  0.76840200457E-01  0.51100000000E-03 0. -1.
</event>
<event>
 8    1  0.1305607E+005  0.1043930E+01  0.7957747E-01            NaN
         13   -1    0    0    0    0  0.00000000000E+00  0.00000000000E+00  0.74505805969E-08  0.10566000000E+00  0.10566000000E+00 0. -1.
     999900   -1    0    0    0    0 -0.00000000000E+00 -0.00000000000E+00 -0.74505805969E-08  0.93827000000E+00  0.93827000000E+00 0.  1.
     999902    2    1    2    0    0 -0.22932119483E-02 -0.64716509129E-02  0.22705364619E-01  0.10202092355E+01  0.10199334339E+01 0.  0.
     999903    2    3    3    0    0  0.89731902351E-01  0.87037245014E-01  0.31141681078E-01  0.13044313886E+00  0.20452673541E-01 0.  0.
         14    1    1    2    0    0  0.22932119483E-02  0.64716509129E-02 -0.22705364619E-01  0.23720764513E-01  0.00000000000E+00 0.  1.
     999901    1    3    3    0    0 -0.92025114299E-01 -0.93508895927E-01 -0.84363164591E-02  0.88976609663E+00  0.88000000000E+00 0.  1.
        -11    1    4    4    0    0  0.57328794544E-01  0.62325147782E-01  0.29434855751E-01  0.89653145980E-01  0.51100000000E-03 0.  1.
         11    1    4    4    0    0  0.32403107807E-01  0.24712097232E-01  0.17068253273E-02  0.40789992876E-01  0.51100000000E-03 0. -1.
</event>
<event>
 8    1  0.1162192E+005  0.1043930E+01  0.7957747E-01            NaN
         13   -1    0    0    0    0  0.00000000000E+00  0.00000000000E+00  0.74505805969E-08  0.10566000000E+00  0.10566000000E+00 0.  1.
     999900   -1    0    0    0    0 -0.00000000000E+00 -0.00000000000E+00 -0.74505805969E-08  0.93827000000E+00  0.93827000000E+00 0.  1.
     999902    2    1    2    0    0 -0.90630843648E-02 -0.20844232502E-01  0.13063083237E-02  0.10211631827E+01  0.10209093583E+01 0.  0.
     999903    2    3    3    0    0 -0.66709983998E-01  0.35261449978E-01 -0.10524824301E+00  0.13109302536E+00  0.20361650754E-01 0.  0.
         14    1    1    2    0    0  0.90630843648E-02  0.20844232502E-01 -0.13063083237E-02  0.22766817262E-01  0.00000000000E+00 0.  1.
     999901    1    3    3    0    0  0.57646899633E-01 -0.56105682479E-01  0.10655455134E+00  0.89007015738E+00  0.88000000000E+00 0. -1.
        -11    1    4    4    0    0 -0.19036189539E-01  0.87735058705E-02 -0.46059371732E-01  0.50607092021E-01  0.51100000000E-03 0.  1.
         11    1    4    4    0    0 -0.47673794459E-01  0.26487944107E-01 -0.59188871280E-01  0.80485933340E-01  0.51100000000E-03 0. -1.
</event>
<event>
 8    1  0.1162192E+005  0.1043930E+01  0.7957747E-01            NaN
         13   -1    0    0    0    0  0.00000000000E+00  0.00000000000E+00  0.74505805969E-08  0.10566000000E+00  0.10566000000E+00 0.  1.
     999900   -1    0    0    0    0 -0.00000000000E+00 -0.00000000000E+00 -0.74505805969E-08  0.93827000000E+00  0.93827000000E+00 0. -1.
     999902    2    1    2    0    0  0.63159019398E-02  0.20408809094E-01 -0.57474624001E-02  0.10218066316E+01  0.10215671045E+01 0.  0.
     999903    2    3    3    0    0  0.62414644341E-01 -0.11233454228E+00 -0.23570281281E-02  0.13007833144E+00  0.20004487294E-01 0.  0.
         14    1    1    2    0    0 -0.63159019398E-02 -0.20408809094E-01  0.57474624001E-02  0.22123368414E-01  0.00000000000E+00 0. -1.
     999901    1    3    3    0    0 -0.56098742401E-01  0.13274335137E+00 -0.33904342720E-02  0.89172830014E+00  0.88000000000E+00 0.  1.
        -11    1    4    4    0    0  0.44065962810E-01 -0.92101590619E-01  0.34054660898E-02  0.10215855516E+00  0.51100000000E-03 0.  1.
         11    1    4    4    0    0  0.18348681531E-01 -0.20232951661E-01 -0.57624942179E-02  0.27919776278E-01  0.51100000000E-03 0. -1.
</event>
<event>
 8    1  0.1162192E+005  0.1043930E+01  0.7957747E-01            NaN
         13   -1    0    0    0    0  0.00000000000E+00  0.00000000000E+00  0.74505805969E-08  0.10566000000E+00  0.10566000000E+00 0.  1.
     999900   -1    0    0    0    0 -0.00000000000E+00 -0.00000000000E+00 -0.74505805969E-08  0.93827000000E+00  0.93827000000E+00 0. -1.
     999902    2    1    2    0    0  0.13057202455E-02  0.21839101250E-01  0.59860766526E-02  0.10212477523E+01  0.10209958311E+01 0.  0.
     999903    2    3    3    0    0 -0.19604776347E-02  0.62988851377E-01 -0.11439667971E+00  0.13209310991E+00  0.19762350259E-01 0.  0.
         14    1    1    2    0    0 -0.13057202455E-02 -0.21839101250E-01 -0.59860766526E-02  0.22682247738E-01  0.00000000000E+00 0. -1.
     999901    1    3    3    0    0  0.32661978802E-02 -0.41149750127E-01  0.12038275636E+00  0.88915464235E+00  0.88000000000E+00 0.  1.
        -11    1    4    4    0    0 -0.96233917201E-02  0.49847102687E-01 -0.85710115134E-01  0.99618413317E-01  0.51100000000E-03 0.  1.
         11    1    4    4    0    0  0.76629140854E-02  0.13141748690E-01 -0.28686564573E-01  0.32474696595E-01  0.51100000000E-03 0. -1.
</event>
<event>
 8    1  0.1162192E+005  0.1043930E+01  0.7957747E-01            NaN
         13   -1    0    0    0    0  0.00000000000E+00  0.00000000000E+00  0.74505805969E-08  0.10566000000E+00  0.10566000000E+00 0.  1.
     999900   -1    0    0    0    0 -0.00000000000E+00 -0.00000000000E+00 -0.74505805969E-08  0.93827000000E+00  0.93827000000E+00 0. -1.
     999902    2    1    2    0    0  0.14985390127E-01 -0.15477801786E-01  0.10572979870E-01  0.10199318299E+01  0.10196494620E+01 0.  0.
     999903    2    3    3    0    0  0.10220900238E+00  0.21862943146E-01 -0.75796255234E-01  0.13062764428E+00  0.19845419925E-01 0.  0.
         14    1    1    2    0    0 -0.14985390127E-01  0.15477801786E-01 -0.10572979870E-01  0.23998170112E-01  0.00000000000E+00 0. -1.
     999901    1    3    3    0    0 -0.87223612254E-01 -0.37340744932E-01  0.86369235104E-01  0.88930418561E+00  0.88000000000E+00 0.  1.
        -11    1    4    4    0    0  0.73554510241E-01  0.19215540441E-01 -0.64533670331E-01  0.99721405419E-01  0.51100000000E-03 0.  1.
         11    1    4    4    0    0  0.28654492140E-01  0.26474027045E-02 -0.11262584903E-01  0.30906238862E-01  0.51100000000E-03 0. -1.
</event>
<event>
 8    1  0.1162192E+005  0.1043930E+01  0.7957747E-01            NaN
         13   -1    0    0    0    0  0.00000000000E+00  0.00000000000E+00  0.74505805969E-08  0.10566000000E+00  0.10566000000E+00 0. -1.
     999900   -1    0    0    0    0 -0.00000000000E+00 -0.00000000000E+00 -0.74505805969E-08  0.93827000000E+00  0.93827000000E+00 0. -1.
     999902    2    1    2    0    0  0.18947447046E-01  0.13683865236E-01  0.28387227587E-02  0.10203861629E+01  0.10201145079E+01 0.  0.
     999903    2    3    3    0    0 -0.23134025033E-01  0.12563548956E+00 -0.25614847321E-01  0.13184037225E+00  0.20156983870E-01 0.  0.
         14    1    1    2    0    0 -0.18947447046E-01 -0.13683865236E-01 -0.28387227587E-02  0.23543837076E-01  0.00000000000E+00 0.  1.
     999901    1    3    3    0    0  0.42081472079E-01 -0.11195162433E+00  0.28453570079E-01  0.88854579068E+00  0.88000000000E+00 0.  1.
        -11    1    4    4    0    0 -0.15255235315E-01  0.11310129524E+00 -0.19344959927E-01  0.11575454110E+00  0.51100000000E-03 0.  1.
         11    1    4    4    0    0 -0.78787897182E-02  0.12534194322E-01 -0.62698873941E-02  0.16085831146E-01  0.51100000000E-03 0. -1.
</event>
<event>
 8    1  0.1162192E+005  0.1043930E+01  0.7957747E-01            NaN
         13   -1    0    0    0    0  0.00000000000E+00  0.00000000000E+00  0.74505805969E-08  0.10566000000E+00  0.10566000000E+00 0.  1.
     999900   -1    0    0    0    0 -0.00000000000E+00 -0.00000000000E+00 -0.74505805969E-08  0.93827000000E+00  0.93827000000E+00 0.  1.
     999902    2    1    2    0    0  0.11495368084E-01  0.19030412412E-01  0.10394319049E-01  0.10193873442E+01  0.10190918583E+01 0.  0.
     999903    2    3    3    0    0 -0.38300192381E-01 -0.57476437851E-01  0.10758989796E+00  0.12934247090E+00  0.19581700370E-01 0.  0.
         14    1    1    2    0    0 -0.11495368084E-01 -0.19030412412E-01 -0.10394319049E-01  0.24542655774E-01  0.00000000000E+00 0.  1.
     999901    1    3    3    0    0  0.49795560465E-01  0.76506850263E-01 -0.97195578915E-01  0.89004487333E+00  0.88000000000E+00 0.  1.
        -11    1    4    4    0    0 -0.10953892731E-01 -0.19984453277E-01  0.20491491086E-01  0.30651728608E-01  0.51100000000E-03 0.  1.
         11    1    4    4    0    0 -0.27346299651E-01 -0.37491984574E-01  0.87098406878E-01  0.98690742289E-01  0.51100000000E-03 0. -1.
</event>
<event>
 8    1  0.1162192E+005  0.1043930E+01  0.7957747E-01            NaN
         13   -1    0    0    0    0  0.00000000000E+00  0.00000000000E+00  0.74505805969E-08  0.10566000000E+00  0.10566000000E+00 0.  1.
     999900   -1    0    0    0    0 -0.00000000000E+00 -0.00000000000E+00 -0.74505805969E-08  0.93827000000E+00  0.93827000000E+00 0. -1.
     999902    2    1    2    0    0 -0.87219858972E-02 -0.41774467013E-02 -0.21695057066E-01  0.10201771139E+01  0.10199005560E+01 0.  0.
     999903    2    3    3    0    0  0.86792641563E-01 -0.15288439783E-01  0.89572272600E-01  0.12797370831E+00  0.24235902681E-01 0.  0.
         14    1    1    2    0    0  0.87219858972E-02  0.41774467013E-02  0.21695057066E-01  0.23752886141E-01  0.00000000000E+00 0.  1.
     999901    1    3    3    0    0 -0.95514627461E-01  0.11110993082E-01 -0.11126732967E+00  0.89220340555E+00  0.88000000000E+00 0. -1.
        -11    1    4    4    0    0  0.46831182512E-01  0.40026622700E-02  0.44774309534E-01  0.64916722622E-01  0.51100000000E-03 0. -1.
         11    1    4    4    0    0  0.39961459052E-01 -0.19291102053E-01  0.44797963066E-01  0.63056985686E-01  0.51100000000E-03 0.  1.
</event>
<event>
 8    1  0.1162192E+005  0.1043930E+01  0.7957747E-01            NaN
         13   -1    0    0    0    0  0.00000000000E+00  0.00000000000E+00  0.74505805969E-08  0.10566000000E+00  0.10566000000E+00 0. -1.
     999900   -1    0    0    0    0 -0.00000000000E+00 -0.00000000000E+00 -0.74505805969E-08  0.93827000000E+00  0.93827000000E+00 0.  1.
     999902    2    1    2    0    0 -0.20914353942E-01  0.97765670810E-02  0.58156660993E-02  0.10201221560E+01  0.10198443017E+01 0.  0.
     999903    2    3    3    0    0 -0.11020908196E+00 -0.64141730892E-02 -0.69224695949E-01  0.13227828206E+00  0.22766247216E-01 0.  0.
         14    1    1    2    0    0  0.20914353942E-01 -0.97765670810E-02 -0.58156660993E-02  0.23807844020E-01  0.00000000000E+00 0. -1.
     999901    1    3    3    0    0  0.89294728021E-01  0.16190740170E-01  0.75040362048E-01  0.88784387392E+00  0.88000000000E+00 0. -1.
        -11    1    4    4    0    0 -0.80003115829E-01  0.49394397978E-02 -0.53557435150E-01  0.96403094290E-01  0.51100000000E-03 0. -1.
         11    1    4    4    0    0 -0.30205966133E-01 -0.11353612887E-01 -0.15667260799E-01  0.35875187771E-01  0.51100000000E-03 0.  1.
</event>
<event>
 8    1  0.1162192E+005  0.1043930E+01  0.7957747E-01            NaN
         13   -1    0    0    0    0  0.00000000000E+00  0.00000000000E+00  0.74505805969E-08  0.10566000000E+00  0.10566000000E+00 0.  1.
     999900   -1    0    0    0    0 -0.00000000000E+00 -0.00000000000E+00 -0.74505805969E-08  0.93827000000E+00  0.93827000000E+00 0. -1.
     999902    2    1    2    0    0 -0.21001700205E-01  0.12336674192E-01  0.59289523928E-02  0.10188617448E+01  0.10185533062E+01 0.  0.
     999903    2    3    3    0    0  0.10968326950E+00  0.18530365598E-01 -0.57684543261E-01  0.12691802465E+00  0.20171375555E-01 0.  0.
         14    1    1    2    0    0  0.21001700205E-01 -0.12336674192E-01 -0.59289523928E-02  0.25068255186E-01  0.00000000000E+00 0. -1.
     999901    1    3    3    0    0 -0.13068496970E+00 -0.61936914063E-02  0.63613495654E-01  0.89194372017E+00  0.88000000000E+00 0.  1.
        -11    1    4    4    0    0  0.65133942156E-01  0.25189264356E-02 -0.39405164779E-01  0.76169570981E-01  0.51100000000E-03 0. -1.
         11    1    4    4    0    0  0.44549327341E-01  0.16011439162E-01 -0.18279378483E-01  0.50748453664E-01  0.51100000000E-03 0.  1.
</event>
<event>
 8    1  0.1162192E+005  0.1043930E+01  0.7957747E-01            NaN
         13   -1    0    0    0    0  0.00000000000E+00  0.00000000000E+00  0.74505805969E-08  0.10566000000E+00  0.10566000000E+00 0.  1.
     999900   -1    0    0    0    0 -0.00000000000E+00 -0.00000000000E+00 -0.74505805969E-08  0.93827000000E+00  0.93827000000E+00 0.  1.
     999902    2    1    2    0    0 -0.11278409625E-01  0.85939928335E-02  0.18845261407E-01  0.10203460412E+01  0.10200734486E+01 0.  0.
     999903    2    3    3    0    0  0.86029624611E-01  0.72882041098E-01  0.66680784685E-01  0.13136345194E+00  0.98560252279E-02 0.  0.
         14    1    1    2    0    0  0.11278409625E-01 -0.85939928335E-02 -0.18845261407E-01  0.23583958827E-01  0.00000000000E+00 0. -1.
     999901    1    3    3    0    0 -0.97308034236E-01 -0.64288048265E-01 -0.47835523278E-01  0.88898258924E+00  0.88000000000E+00 0. -1.
        -11    1    4    4    0    0  0.55095811149E-01  0.52095860271E-01  0.47035549635E-01  0.89230774478E-01  0.51100000000E-03 0.  1.
         11    1    4    4    0    0  0.30933813462E-01  0.20786180827E-01  0.19645235050E-01  0.42132677459E-01  0.51100000000E-03 0. -1.
</event>
<event>
 8    1  0.1162192E+005  0.1043930E+01  0.7957747E-01            NaN
         13   -1    0    0    0    0  0.00000000000E+00  0.00000000000E+00  0.74505805969E-08  0.10566000000E+00  0.10566000000E+00 0. -1.
     999900   -1    0    0    0    0 -0.00000000000E+00 -0.00000000000E+00 -0.74505805969E-08  0.93827000000E+00  0.93827000000E+00 0.  1.
     999902    2    1    2    0    0  0.13012993980E-01 -0.17527775994E-01 -0.93972953759E-02  0.10201630039E+01  0.10198861134E+01 0.  0.
     999903    2    3    3    0    0  0.39994486814E-01  0.12010864161E+00  0.13358801810E-01  0.12876543582E+00  0.19401935769E-01 0.  0.
         14    1    1    2    0    0 -0.13012993980E-01  0.17527775994E-01  0.93972953759E-02  0.23766996109E-01  0.00000000000E+00 0.  1.
     999901    1    3    3    0    0 -0.26981492833E-01 -0.13763641760E+00 -0.22756097186E-01  0.89139756807E+00  0.88000000000E+00 0. -1.
        -11    1    4    4    0    0  0.20014624100E-01  0.72114047520E-01  0.16650642210E-01  0.76671546447E-01  0.51100000000E-03 0.  1.
         11    1    4    4    0    0  0.19979862714E-01  0.47994594088E-01 -0.32918404001E-02  0.52093889372E-01  0.51100000000E-03 0. -1.
</event>
<event>
 8    1  0.1162192E+005  0.1043930E+01  0.7957747E-01            NaN
         13   -1    0    0    0    0  0.00000000000E+00  0.00000000000E+00  0.74505805969E-08  0.10566000000E+00  0.10566000000E+00 0. -1.
     999900   -1    0    0    0    0 -0.00000000000E+00 -0.00000000000E+00 -0.74505805969E-08  0.93827000000E+00  0.93827000000E+00 0. -1.
     999902    2    1    2    0    0 -0.18320332129E-01  0.11507502741E-01  0.87970374497E-02  0.10205752348E+01  0.10203079755E+01 0.  0.
     999903    2    3    3    0    0  0.67778436039E-01 -0.86341192587E-02  0.10932182288E+00  0.13044944860E+00  0.19933220373E-01 0.  0.
         14    1    1    2    0    0  0.18320332129E-01 -0.11507502741E-01 -0.87970374497E-02  0.23354765179E-01  0.00000000000E+00 0.  1.
     999901    1    3    3    0    0 -0.86098768168E-01  0.20141622000E-01 -0.10052478543E+00  0.89012578622E+00  0.88000000000E+00 0. -1.
        -11    1    4    4    0    0  0.28483624125E-01 -0.13113360927E-01  0.42855782720E-01  0.53105143928E-01  0.51100000000E-03 0. -1.
         11    1    4    4    0    0  0.39294811914E-01  0.44792416685E-02  0.66466040159E-01  0.77344304668E-01  0.51100000000E-03 0.  1.
</event>
<event>
 8    1  0.1162192E+005  0.1043930E+01  0.7957747E-01            NaN
         13   -1    0    0    0    0  0.00000000000E+00  0.00000000000E+00  0.74505805969E-08  0.10566000000E+00  0.10566000000E+00 0. -1.
     999900   -1    0    0    0    0 -0.00000000000E+00 -0.00000000000E+00 -0.74505805969E-08  0.93827000000E+00  0.93827000000E+00 0.  1.
     999902    2    1    2    0    0 -0.14569843943E-01  0.16694402524E-02  0.18545525577E-01  0.10202867366E+01  0.10200127553E+01 0.  0.
     999903    2    3    3    0    0  0.11716991617E+00 -0.49635873348E-01  0.61442745900E-02  0.12891622410E+00  0.19726417541E-01 0.  0.
         14    1    1    2    0    0  0.14569843943E-01 -0.16694402524E-02 -0.18545525577E-01  0.23643263358E-01  0.00000000000E+00 0.  1.
     999901    1    3    3    0    0 -0.13173976011E+00  0.51305313600E-01  0.12401250987E-01  0.89137051254E+00  0.88000000000E+00 0.  1.
        -11    1    4    4    0    0  0.10212090386E+00 -0.36202342694E-01  0.80473771084E-02  0.10864764158E+00  0.51100000000E-03 0. -1.
         11    1    4    4    0    0  0.15049012308E-01 -0.13433530654E-01 -0.19031025184E-02  0.20268582523E-01  0.51100000000E-03 0.  1.
</event>
<event>
 8    1  0.1162192E+005  0.1043930E+01  0.7957747E-01            NaN
         13   -1    0    0    0    0  0.00000000000E+00  0.00000000000E+00  0.74505805969E-08  0.10566000000E+00  0.10566000000E+00 0.  1.
     999900   -1    0    0    0    0 -0.00000000000E+00 -0.00000000000E+00 -0.74505805969E-08  0.93827000000E+00  0.93827000000E+00 0.  1.
     999902    2    1    2    0    0 -0.85676055694E-02 -0.16248907225E-01 -0.15566734766E-01  0.10198519170E+01  0.10195676429E+01 0.  0.
     999903    2    3    3    0    0  0.30523750141E-01  0.26016840974E-01  0.11957410313E+00  0.12767616431E+00  0.19866088136E-01 0.  0.
         14    1    1    2    0    0  0.85676055694E-02  0.16248907225E-01  0.15566734766E-01  0.24078083032E-01  0.00000000000E+00 0.  1.
     999901    1    3    3    0    0 -0.39091355711E-01 -0.42265748199E-01 -0.13514083789E+00  0.89217575266E+00  0.88000000000E+00 0.  1.
        -11    1    4    4    0    0  0.26744009629E-01  0.27400860460E-01  0.89752789175E-01  0.97580087573E-01  0.51100000000E-03 0. -1.
         11    1    4    4    0    0  0.37797405119E-02 -0.13840194860E-02  0.29821313951E-01  0.30096076738E-01  0.51100000000E-03 0.  1.
</event>
<event>
 8    1  0.1162192E+005  0.1043930E+01  0.7957747E-01            NaN
         13   -1    0    0    0    0  0.00000000000E+00  0.00000000000E+00  0.74505805969E-08  0.10566000000E+00  0.10566000000E+00 0.  1.
     999900   -1    0    0    0    0 -0.00000000000E+00 -0.00000000000E+00 -0.74505805969E-08  0.93827000000E+00  0.93827000000E+00 0.  1.
     999902    2    1    2    0    0 -0.17403323912E-01 -0.15365357798E-01  0.74358037878E-03  0.10207023696E+01  0.10204380454E+01 0.  0.
     999903    2    3    3    0    0  0.49305053370E-01 -0.11047524016E+00 -0.49274804188E-01  0.13165921195E+00  0.16443077173E-01 0.  0.
         14    1    1    2    0    0  0.17403323912E-01  0.15365357798E-01 -0.74358037878E-03  0.23227630426E-01  0.00000000000E+00 0.  1.
     999901    1    3    3    0    0 -0.66708377282E-01  0.95109882364E-01  0.50018384567E-01  0.88904315762E+00  0.88000000000E+00 0. -1.
        -11    1    4    4    0    0  0.32635552796E-01 -0.79652148252E-01 -0.42358092356E-01  0.95937548105E-01  0.51100000000E-03 0. -1.
         11    1    4    4    0    0  0.16669500574E-01 -0.30823091910E-01 -0.69167118324E-02  0.35721663845E-01  0.51100000000E-03 0.  1.
</event>
<event>
 8    1  0.1162192E+005  0.1043930E+01  0.7957747E-01            NaN
         13   -1    0    0    0    0  0.00000000000E+00  0.00000000000E+00  0.74505805969E-08  0.10566000000E+00  0.10566000000E+00 0. -1.
     999900   -1    0    0    0    0 -0.00000000000E+00 -0.00000000000E+00 -0.74505805969E-08  0.93827000000E+00  0.93827000000E+00 0. -1.
     999902    2    1    2    0    0  0.13525671664E-01 -0.19598008507E-01  0.10196985806E-02  0.10200958750E+01  0.10198173996E+01 0.  0.
     999903    2    3    3    0    0  0.10884804314E-02 -0.45583065636E-01  0.12174420497E+00  0.13138652238E+00  0.19020151287E-01 0.  0.
         14    1    1    2    0    0 -0.13525671664E-01  0.19598008507E-01 -0.10196985806E-02  0.23834125043E-01  0.00000000000E+00 0. -1.
     999901    1    3    3    0    0  0.12437191233E-01  0.25985057129E-01 -0.12072450639E+00  0.88870935258E+00  0.88000000000E+00 0. -1.
        -11    1    4    4    0    0  0.61727063368E-04 -0.34628570038E-01  0.65687711303E-01  0.74258186150E-01  0.51100000000E-03 0. -1.
         11    1    4    4    0    0  0.10267533680E-02 -0.10954495598E-01  0.56056493671E-01  0.57128336226E-01  0.51100000000E-03 0.  1.
</event>
<event>
 8    1  0.1162192E+005  0.1043930E+01  0.7957747E-01            NaN
         13   -1    0    0    0    0  0.00000000000E+00  0.00000000000E+00  0.74505805969E-08  0.10566000000E+00  0.10566000000E+00 0.  1.
     999900   -1    0    0    0    0 -0.00000000000E+00 -0.00000000000E+00 -0.74505805969E-08  0.93827000000E+00  0.93827000000E+00 0. -1.
     999902    2    1    2    0    0 -0.98283408283E-02  0.13887368222E-01  0.16644877602E-01  0.10201285876E+01  0.10198508852E+01 0.  0.
     999903    2    3    3    0    0  0.27831002115E-01  0.12525044635E+00 -0.20866559874E-01  0.13151896063E+00  0.19989614699E-01 0.  0.
         14    1    1    2    0    0  0.98283408283E-02 -0.13887368222E-01 -0.16644877602E-01  0.23801412352E-01  0.00000000000E+00 0. -1.
     999901    1    3    3    0    0 -0.37659342943E-01 -0.11136307813E+00  0.37511437476E-01  0.88860962701E+00  0.88000000000E+00 0.  1.
        -11    1    4    4    0    0  0.22527683362E-01  0.11995520690E+00 -0.17553607348E-01  0.12330911739E+00  0.51100000000E-03 0.  1.
         11    1    4    4    0    0  0.53033187528E-02  0.52952394503E-02 -0.33129525263E-02  0.82098432428E-02  0.51100000000E-03 0. -1.
</event>
<event>
 8    1  0.1162192E+005  0.1043930E+01  0.7957747E-01            NaN
         13   -1    0    0    0    0  0.00000000000E+00  0.00000000000E+00  0.74505805969E-08  0.10566000000E+00  0.10566000000E+00 0.  1.
     999900   -1    0    0    0    0 -0.00000000000E+00 -0.00000000000E+00 -0.74505805969E-08  0.93827000000E+00  0.93827000000E+00 0.  1.
     999902    2    1    2    0    0 -0.12083232419E-01  0.55237647508E-02  0.20359326132E-01  0.10196191250E+01  0.10193292606E+01 0.  0.
     999903    2    3    3    0    0 -0.27950274032E-01 -0.41005842526E-01 -0.11584006495E+00  0.12778559710E+00  0.21155170497E-01 0.  0.
         14    1    1    2    0    0  0.12083232419E-01 -0.55237647508E-02 -0.20359326132E-01  0.24310875000E-01  0.00000000000E+00 0. -1.
     999901    1    3    3    0    0  0.15867041613E-01  0.46529607277E-01  0.13619939108E+00  0.89183352790E+00  0.88000000000E+00 0. -1.
        -11    1    4    4    0    0 -0.13471262448E-01 -0.10880951189E-01 -0.62327279565E-01  0.64690191759E-01  0.51100000000E-03 0.  1.
         11    1    4    4    0    0 -0.14479011584E-01 -0.30124891337E-01 -0.53512785381E-01  0.63095405338E-01  0.51100000000E-03 0. -1.
</event>
<event>
 8    1  0.1162192E+005  0.1043930E+01  0.7957747E-01            NaN
         13   -1    0    0    0    0  0.00000000000E+00  0.00000000000E+00  0.74505805969E-08  0.10566000000E+00  0.10566000000E+00 0.  1.
     999900   -1    0    0    0    0 -0.00000000000E+00 -0.00000000000E+00 -0.74505805969E-08  0.93827000000E+00  0.93827000000E+00 0.  1.
     999902    2    1    2    0    0 -0.13666043712E-01 -0.11963023411E-01  0.18275788296E-01  0.10181641482E+01  0.10178380783E+01 0.  0.
     999903    2    3    3    0    0  0.86594273971E-01 -0.87437180694E-01 -0.29044459151E-01  0.12800254181E+00  0.19930911913E-01 0.  0.
         14    1    1    2    0    0  0.13666043712E-01  0.11963023411E-01 -0.18275788296E-01  0.25765851775E-01  0.00000000000E+00 0. -1.
     999901    1    3    3    0    0 -0.10026031768E+00  0.75474157284E-01  0.47320247447E-01  0.89016160642E+00  0.88000000000E+00 0. -1.
        -11    1    4    4    0    0  0.78155685457E-01 -0.85784308147E-01 -0.27073114154E-01  0.11916573889E+00  0.51100000000E-03 0. -1.
         11    1    4    4    0    0  0.84385885146E-02 -0.16528725471E-02 -0.19713449975E-02  0.88368029216E-02  0.51100000000E-03 0.  1.
</event>
<event>
 8    1  0.1162192E+005  0.1043930E+01  0.7957747E-01            NaN
         13   -1    0    0    0    0  0.00000000000E+00  0.00000000000E+00  0.74505805969E-08  0.10566000000E+00  0.10566000000E+00 0.  1.
     999900   -1    0    0    0    0 -0.00000000000E+00 -0.00000000000E+00 -0.74505805969E-08  0.93827000000E+00  0.93827000000E+00 0. -1.
     999902    2    1    2    0    0  0.13972244691E-01 -0.13599804926E-01  0.15695587078E-01  0.10188994233E+01  0.10185919227E+01 0.  0.
     999903    2    3    3    0    0  0.43673565765E-01 -0.11210720323E+00 -0.48217518972E-01  0.13060287310E+00  0.16024230473E-01 0.  0.
         14    1    1    2    0    0 -0.13972244691E-01  0.13599804926E-01 -0.15695587078E-01  0.25030576691E-01  0.00000000000E+00 0. -1.
     999901    1    3    3    0    0 -0.29701321074E-01  0.98507398306E-01  0.63913106049E-01  0.88829655021E+00  0.88000000000E+00 0.  1.
        -11    1    4    4    0    0  0.98425192557E-02 -0.33757909624E-01 -0.21304074799E-01  0.41116862375E-01  0.51100000000E-03 0. -1.
         11    1    4    4    0    0  0.33831046509E-01 -0.78349293608E-01 -0.26913444173E-01  0.89486010722E-01  0.51100000000E-03 0.  1.
</event>
<event>
 8    1  0.1162192E+005  0.1043930E+01  0.7957747E-01            NaN
         13   -1    0    0    0    0  0.00000000000E+00  0.00000000000E+00  0.74505805969E-08  0.10566000000E+00  0.10566000000E+00 0.  1.
     999900   -1    0    0    0    0 -0.00000000000E+00 -0.00000000000E+00 -0.74505805969E-08  0.93827000000E+00  0.93827000000E+00 0. -1.
     999902    2    1    2    0    0 -0.13250945248E-01  0.17447659178E-01 -0.11173643442E-01  0.10193361254E+01  0.10190393897E+01 0.  0.
     999903    2    3    3    0    0 -0.23697013836E-01 -0.50361601699E-01 -0.11631872810E+00  0.13042515963E+00  0.19566204770E-01 0.  0.
         14    1    1    2    0    0  0.13250945248E-01 -0.17447659178E-01  0.11173643442E-01  0.24593874614E-01  0.00000000000E+00 0.  1.
     999901    1    3    3    0    0  0.10446068587E-01  0.67809260877E-01  0.10514508465E+00  0.88891096575E+00  0.88000000000E+00 0.  1.
        -11    1    4    4    0    0 -0.13018670869E-01 -0.39983317840E-01 -0.68887064999E-01  0.80708365996E-01  0.51100000000E-03 0. -1.
         11    1    4    4    0    0 -0.10678342966E-01 -0.10378283859E-01 -0.47431663097E-01  0.49716793637E-01  0.51100000000E-03 0.  1.
</event>
<event>
 8    1  0.1162192E+005  0.1043930E+01  0.7957747E-01            NaN
         13   -1    0    0    0    0  0.00000000000E+00  0.00000000000E+00  0.74505805969E-08  0.10566000000E+00  0.10566000000E+00 0. -1.
     999900   -1    0    0    0    0 -0.00000000000E+00 -0.00000000000E+00 -0.74505805969E-08  0.93827000000E+00  0.93827000000E+00 0. -1.
     999902    2    1    2    0    0 -0.15524264283E-01  0.13185914860E-01 -0.12063577683E-01  0.10202572089E+01  0.10199825348E+01 0.  0.
     999903    2    3    3    0    0 -0.86675606155E-01 -0.99027155323E-02  0.95060335964E-01  0.13061057614E+00  0.20296074688E-01 0.  0.
         14    1    1    2    0    0  0.15524264283E-01 -0.13185914860E-01  0.12063577683E-01  0.23672791106E-01  0.00000000000E+00 0. -1.
     999901    1    3    3    0    0  0.71151341872E-01  0.23088630392E-01 -0.10712391365E+00  0.88964663276E+00  0.88000000000E+00 0. -1.
        -11    1    4    4    0    0 -0.69498583883E-01 -0.59765795486E-02  0.62860033288E-01  0.93901105269E-01  0.51100000000E-03 0.  1.
         11    1    4    4    0    0 -0.17177022272E-01 -0.39261359837E-02  0.32200302675E-01  0.36709470866E-01  0.51100000000E-03 0. -1.
</event>
<event>
 8    1  0.1162192E+005  0.1043930E+01  0.7957747E-01            NaN
         13   -1    0    0    0    0  0.00000000000E+00  0.00000000000E+00  0.74505805969E-08  0.10566000000E+00  0.10566000000E+00 0. -1.
     999900   -1    0    0    0    0 -0.00000000000E+00 -0.00000000000E+00 -0.74505805969E-08  0.93827000000E+00  0.93827000000E+00 0. -1.
     999902    2    1    2    0    0 -0.16993960963E-01 -0.16793189695E-01 -0.25553652510E-02  0.10199021865E+01  0.10196191123E+01 0.  0.
     999903    2    3    3    0    0 -0.25913604676E-01 -0.10170825112E+00  0.78109233080E-01  0.13209764433E+00  0.18238752481E-01 0.  0.
         14    1    1    2    0    0  0.16993960963E-01  0.16793189695E-01  0.25553652510E-02  0.24027813486E-01  0.00000000000E+00 0. -1.
     999901    1    3    3    0    0  0.89196437129E-02  0.84915061423E-01 -0.80664598331E-01  0.88780454218E+00  0.88000000000E+00 0. -1.
        -11    1    4    4    0    0 -0.86094590446E-02 -0.46891904682E-01  0.46007783350E-01  0.66256703507E-01  0.51100000000E-03 0.  1.
         11    1    4    4    0    0 -0.17304145631E-01 -0.54816346436E-01  0.32101449730E-01  0.65840940822E-01  0.51100000000E-03 0. -1.
</event>
<event>
 8    1  0.1162192E+005  0.1043930E+01  0.7957747E-01            NaN
         13   -1    0    0    0    0  0.00000000000E+00  0.00000000000E+00  0.74505805969E-08  0.10566000000E+00  0.10566000000E+00 0.  1.
     999900   -1    0    0    0    0 -0.00000000000E+00 -0.00000000000E+00 -0.74505805969E-08  0.93827000000E+00  0.93827000000E+00 0.  1.
     999902    2    1    2    0    0 -0.12195640297E-01  0.17493919265E-01  0.93473712888E-02  0.10206460097E+01  0.10203803864E+01 0.  0.
     999903    2    3    3    0    0  0.37720181700E-01  0.91731030057E-01  0.85910767884E-01  0.13280329189E+00  0.20461190457E-01 0.  0.
         14    1    1    2    0    0  0.12195640297E-01 -0.17493919265E-01 -0.93473712888E-02  0.23283990283E-01  0.00000000000E+00 0.  1.
     999901    1    3    3    0    0 -0.49915821997E-01 -0.74237110792E-01 -0.76563396595E-01  0.88784271783E+00  0.88000000000E+00 0.  1.
        -11    1    4    4    0    0  0.21548662861E-01  0.74778605367E-01  0.65065098198E-01  0.10143920749E+00  0.51100000000E-03 0.  1.
         11    1    4    4    0    0  0.16171518839E-01  0.16952424690E-01  0.20845669686E-01  0.31364084397E-01  0.51100000000E-03 0. -1.
</event>
<event>
 8    1  0.1162192E+005  0.1043930E+01  0.7957747E-01            NaN
         13   -1    0    0    0    0  0.00000000000E+00  0.00000000000E+00  0.74505805969E-08  0.10566000000E+00  0.10566000000E+00 0.  1.
     999900   -1    0    0    0    0 -0.00000000000E+00 -0.00000000000E+00 -0.74505805969E-08  0.93827000000E+00  0.93827000000E+00 0. -1.
     999902    2    1    2    0    0  0.12250997206E-01  0.11636654256E-01  0.15626220844E-01  0.10209152779E+01  0.10206558319E+01 0.  0.
     999903    2    3    3    0    0 -0.19951812166E-02  0.20316954759E-01  0.13002840223E+00  0.13335335877E+00  0.21423667044E-01 0.  0.
         14    1    1    2    0    0 -0.12250997206E-01 -0.11636654256E-01 -0.15626220844E-01  0.23014722086E-01  0.00000000000E+00 0. -1.
     999901    1    3    3    0    0  0.14246178423E-01 -0.86803005024E-02 -0.11440218138E+00  0.88756191915E+00  0.88000000000E+00 0. -1.
        -11    1    4    4    0    0 -0.82005118128E-02  0.20856979518E-01  0.85560163579E-01  0.88448090433E-01  0.51100000000E-03 0.  1.
         11    1    4    4    0    0  0.62053305962E-02 -0.54002475950E-03  0.44468238649E-01  0.44905268333E-01  0.51100000000E-03 0. -1.
</event>
