<event>
 8    1  0.1146431E+005  0.1043930E+01  0.7957747E-01            NaN
         13   -1    0    0    0    0  0.00000000000E+00  0.00000000000E+00  0.74505805969E-08  0.10566000000E+00  0.10566000000E+00 0.  1.
     999900   -1    0    0    0    0 -0.00000000000E+00 -0.00000000000E+00 -0.74505805969E-08  0.93827000000E+00  0.93827000000E+00 0. -1.
     999902    2    1    2    0    0 -0.77815344732E-02  0.76416942225E-02  0.22783383747E-01  0.10186707375E+01  0.10183575212E+01 0.  0.
     999903    2    3    3    0    0 -0.12461018994E-01  0.78807916612E-01  0.10338602780E+00  0.13211373702E+00  0.19985095743E-01 0.  0.
         14    1    1    2    0    0  0.77815344732E-02 -0.76416942225E-02 -0.22783383747E-01  0.25259262545E-01  0.00000000000E+00 0. -1.
     999901    1    3    3    0    0  0.46794845211E-02 -0.71166222390E-01 -0.80602644049E-01  0.88655700043E+00  0.88000000000E+00 0. -1.
        -11    1    4    4    0    0  0.25174790034E-02  0.25881997570E-01  0.23067671574E-01  0.34764839876E-01  0.51100000000E-03 0. -1.
         11    1    4    4    0    0 -0.14978497998E-01  0.52925919042E-01  0.80318356222E-01  0.97348897148E-01  0.51100000000E-03 0.  1.
</event>
<event>
 8    1  0.1146431E+005  0.1043930E+01  0.7957747E-01            NaN
         13   -1    0    0    0    0  0.00000000000E+00  0.00000000000E+00  0.74505805969E-08  0.10566000000E+00  0.10566000000E+00 0. -1.
     999900   -1    0    0    0    0 -0.00000000000E+00 -0.00000000000E+00 -0.74505805969E-08  0.93827000000E+00  0.93827000000E+00 0.  1.
     999902    2    1    2    0    0  0.17852672354E-01  0.14056886073E-01  0.85101602674E-02  0.10196661012E+01  0.10193773694E+01 0.  0.
     999903    2    3    3    0    0  0.10640328348E+00  0.76754201359E-01 -0.83894377049E-02  0.13284156362E+00  0.19069142563E-01 0.  0.
         14    1    1    2    0    0 -0.17852672354E-01 -0.14056886073E-01 -0.85101602674E-02  0.24263898780E-01  0.00000000000E+00 0. -1.
     999901    1    3    3    0    0 -0.88550611130E-01 -0.62697315286E-01  0.16899597972E-01  0.88682453760E+00  0.88000000000E+00 0. -1.
        -11    1    4    4    0    0  0.57947461732E-01  0.30482102611E-01 -0.16168714927E-02  0.65497651066E-01  0.51100000000E-03 0.  1.
         11    1    4    4    0    0  0.48455821752E-01  0.46272098748E-01 -0.67725662122E-02  0.67343912556E-01  0.51100000000E-03 0. -1.
</event>
<event>
 8    1  0.1146431E+005  0.1043930E+01  0.7957747E-01            NaN
         13   -1    0    0    0    0  0.00000000000E+00  0.00000000000E+00  0.74505805969E-08  0.10566000000E+00  0.10566000000E+00 0. -1.
     999900   -1    0    0    0    0 -0.00000000000E+00 -0.00000000000E+00 -0.74505805969E-08  0.93827000000E+00  0.93827000000E+00 0.  1.
     999902    2    1    2    0    0  0.25126317313E-03  0.96772507092E-02 -0.22534321653E-01  0.10194043406E+01  0.10191092688E+01 0.  0.
     999903    2    3    3    0    0 -0.62049630716E-02 -0.11895357943E+00 -0.47414222799E-01  0.12968158450E+00  0.19512796056E-01 0.  0.
         14    1    1    2    0    0 -0.25126317313E-03 -0.96772507092E-02  0.22534321653E-01  0.24525659356E-01  0.00000000000E+00 0. -1.
     999901    1    3    3    0    0  0.64562262447E-02  0.12863083014E+00  0.24879901146E-01  0.88972275614E+00  0.88000000000E+00 0. -1.
        -11    1    4    4    0    0 -0.74808135466E-02 -0.75314557181E-01 -0.39269234241E-01  0.85267690091E-01  0.51100000000E-03 0.  1.
         11    1    4    4    0    0  0.12758504750E-02 -0.43639022246E-01 -0.81449885576E-02  0.44413894409E-01  0.51100000000E-03 0. -1.
</event>
<event>
 8    1  0.1146431E+005  0.1043930E+01  0.7957747E-01            NaN
         13   -1    0    0    0    0  0.00000000000E+00  0.00000000000E+00  0.74505805969E-08  0.10566000000E+00  0.10566000000E+00 0. -1.
     999900   -1    0    0    0    0 -0.00000000000E+00 -0.00000000000E+00 -0.74505805969E-08  0.93827000000E+00  0.93827000000E+00 0. -1.
     999902    2    1    2    0    0  0.75941747823E-02 -0.22229151193E-01  0.33468309501E-02  0.10202022118E+01  0.10199262449E+01 0.  0.
     999903    2    3    3    0    0  0.32704490560E-01  0.39121824600E-01  0.11810779359E+00  0.13027831131E+00  0.20564207445E-01 0.  0.
         14    1    1    2    0    0 -0.75941747823E-02  0.22229151193E-01 -0.33468309501E-02  0.23727788157E-01  0.00000000000E+00 0.  1.
     999901    1    3    3    0    0 -0.25110315778E-01 -0.61350975794E-01 -0.11476096264E+00  0.88992390053E+00  0.88000000000E+00 0. -1.
        -11    1    4    4    0    0  0.25289385369E-01  0.16360396788E-01  0.53834321518E-01  0.61689633567E-01  0.51100000000E-03 0. -1.
         11    1    4    4    0    0  0.74151051917E-02  0.22761427813E-01  0.64273472076E-01  0.68588677745E-01  0.51100000000E-03 0.  1.
</event>
<event>
 8    1  0.1146431E+005  0.1043930E+01  0.7957747E-01            NaN
         13   -1    0    0    0    0  0.00000000000E+00  0.00000000000E+00  0.74505805969E-08  0.10566000000E+00  0.10566000000E+00 0. -1.
     999900   -1    0    0    0    0 -0.00000000000E+00 -0.00000000000E+00 -0.74505805969E-08  0.93827000000E+00  0.93827000000E+00 0.  1.
     999902    2    1    2    0    0 -0.23151896276E-03 -0.22984662927E-01  0.14605266627E-01  0.10166965253E+01  0.10163317187E+01 0.  0.
     999903    2    3    3    0    0 -0.70368758456E-01  0.50101527051E-01  0.91689660356E-01  0.12753803139E+00  0.19925623115E-01 0.  0.
         14    1    1    2    0    0  0.23151896276E-03  0.22984662927E-01 -0.14605266627E-01  0.27233474699E-01  0.00000000000E+00 0.  1.
     999901    1    3    3    0    0  0.70137239493E-01 -0.73086189979E-01 -0.77084393729E-01  0.88915849391E+00  0.88000000000E+00 0.  1.
        -11    1    4    4    0    0 -0.63063159841E-01  0.47081937224E-01  0.73445707043E-01  0.10764852041E+00  0.51100000000E-03 0. -1.
         11    1    4    4    0    0 -0.73055986146E-02  0.30195898270E-02  0.18243953312E-01  0.19889510987E-01  0.51100000000E-03 0.  1.
</event>
<event>
 8    1  0.1146431E+005  0.1043930E+01  0.7957747E-01            NaN
         13   -1    0    0    0    0  0.00000000000E+00  0.00000000000E+00  0.74505805969E-08  0.10566000000E+00  0.10566000000E+00 0. -1.
     999900   -1    0    0    0    0 -0.00000000000E+00 -0.00000000000E+00 -0.74505805969E-08  0.93827000000E+00  0.93827000000E+00 0. -1.
     999902    2    1    2    0    0 -0.97626105768E-02  0.51608528887E-02 -0.21654277466E-01  0.10196225793E+01  0.10193327982E+01 0.  0.
     999903    2    3    3    0    0  0.10575104154E+00 -0.55668435416E-01  0.40754595491E-01  0.12780506796E+00  0.19772224313E-01 0.  0.
         14    1    1    2    0    0  0.97626105768E-02 -0.51608528887E-02  0.21654277466E-01  0.24307420686E-01  0.00000000000E+00 0. -1.
     999901    1    3    3    0    0 -0.11551365211E+00  0.60829288304E-01 -0.62408872958E-01  0.89181751136E+00  0.88000000000E+00 0. -1.
        -11    1    4    4    0    0  0.33535293802E-01 -0.24832659262E-01  0.21541189729E-01  0.46963399285E-01  0.51100000000E-03 0.  1.
         11    1    4    4    0    0  0.72215747733E-01 -0.30835776153E-01  0.19213405762E-01  0.80841668671E-01  0.51100000000E-03 0. -1.
</event>
<event>
 8    1  0.1146431E+005  0.1043930E+01  0.7957747E-01            NaN
         13   -1    0    0    0    0  0.00000000000E+00  0.00000000000E+00  0.74505805969E-08  0.10566000000E+00  0.10566000000E+00 0.  1.
     999900   -1    0    0    0    0 -0.00000000000E+00 -0.00000000000E+00 -0.74505805969E-08  0.93827000000E+00  0.93827000000E+00 0. -1.
     999902    2    1    2    0    0  0.21268435773E-01  0.29144085021E-02 -0.68396445079E-03  0.10224519194E+01  0.10222263055E+01 0.  0.
     999903    2    3    3    0    0 -0.41049188286E-01 -0.15206214578E-01  0.12239629886E+00  0.13151948964E+00  0.20006432987E-01 0.  0.
         14    1    1    2    0    0 -0.21268435773E-01 -0.29144085021E-02  0.68396445079E-03  0.21478080560E-01  0.00000000000E+00 0. -1.
     999901    1    3    3    0    0  0.62317624060E-01  0.18120623080E-01 -0.12308026331E+00  0.89093242980E+00  0.88000000000E+00 0. -1.
        -11    1    4    4    0    0 -0.32607712047E-01 -0.15581755765E-01  0.73614030981E-01  0.82008174446E-01  0.51100000000E-03 0. -1.
         11    1    4    4    0    0 -0.84414762396E-02  0.37554118659E-03  0.48782267877E-01  0.49511315196E-01  0.51100000000E-03 0.  1.
</event>
<event>
 8    1  0.1146431E+005  0.1043930E+01  0.7957747E-01            NaN
         13   -1    0    0    0    0  0.00000000000E+00  0.00000000000E+00  0.74505805969E-08  0.10566000000E+00  0.10566000000E+00 0.  1.
     999900   -1    0    0    0    0 -0.00000000000E+00 -0.00000000000E+00 -0.74505805969E-08  0.93827000000E+00  0.93827000000E+00 0. -1.
     999902    2    1    2    0    0  0.12481713488E-02 -0.67555054574E-02  0.22336433978E-01  0.10205609806E+01  0.10202933911E+01 0.  0.
     999903    2    3    3    0    0 -0.12286349966E+00  0.79346119027E-02 -0.35867095190E-01  0.12982692530E+00  0.20253009648E-01 0.  0.
         14    1    1    2    0    0 -0.12481713488E-02  0.67555054574E-02 -0.22336433978E-01  0.23369019418E-01  0.00000000000E+00 0. -1.
     999901    1    3    3    0    0  0.12411167101E+00 -0.14690117360E-01  0.58203529168E-01  0.89073405528E+00  0.88000000000E+00 0.  1.
        -11    1    4    4    0    0 -0.64684938996E-01  0.71837966282E-02 -0.28945722285E-01  0.71231062230E-01  0.51100000000E-03 0. -1.
         11    1    4    4    0    0 -0.58178560669E-01  0.75081527456E-03 -0.69213729051E-02  0.58595863070E-01  0.51100000000E-03 0.  1.
</event>
<event>
 8    1  0.1146431E+005  0.1043930E+01  0.7957747E-01            NaN
         13   -1    0    0    0    0  0.00000000000E+00  0.00000000000E+00  0.74505805969E-08  0.10566000000E+00  0.10566000000E+00 0. -1.
     999900   -1    0    0    0    0 -0.00000000000E+00 -0.00000000000E+00 -0.74505805969E-08  0.93827000000E+00  0.93827000000E+00 0. -1.
     999902    2    1    2    0    0 -0.56091389537E-02 -0.22381857725E-01  0.80454941882E-02  0.10194935524E+01  0.10192006492E+01 0.  0.
     999903    2    3    3    0    0  0.14159734067E-01  0.10079770860E+00  0.75022862555E-01  0.12817431566E+00  0.20965427718E-01 0.  0.
         14    1    1    2    0    0  0.56091389537E-02  0.22381857725E-01 -0.80454941882E-02  0.24436447609E-01  0.00000000000E+00 0.  1.
     999901    1    3    3    0    0 -0.19768873021E-01 -0.12317956633E+00 -0.66977368367E-01  0.89131923674E+00  0.88000000000E+00 0.  1.
        -11    1    4    4    0    0 -0.30075664070E-02  0.76095234132E-02  0.11388855698E-01  0.14032728080E-01  0.51100000000E-03 0. -1.
         11    1    4    4    0    0  0.17167300474E-01  0.93188185190E-01  0.63634006857E-01  0.11414158758E+00  0.51100000000E-03 0.  1.
</event>
<event>
 8    1  0.1146431E+005  0.1043930E+01  0.7957747E-01            NaN
         13   -1    0    0    0    0  0.00000000000E+00  0.00000000000E+00  0.74505805969E-08  0.10566000000E+00  0.10566000000E+00 0.  1.
     999900   -1    0    0    0    0 -0.00000000000E+00 -0.00000000000E+00 -0.74505805969E-08  0.93827000000E+00  0.93827000000E+00 0. -1.
     999902    2    1    2    0    0  0.10796311100E-02  0.16996450978E-01 -0.12097703934E-01  0.10230398255E+01  0.10228265177E+01 0.  0.
     999903    2    3    3    0    0 -0.54829272165E-01  0.10623108938E+00  0.57301093663E-01  0.13404892610E+00  0.19859652933E-01 0.  0.
         14    1    1    2    0    0 -0.10796311100E-02 -0.16996450978E-01  0.12097703934E-01  0.20890174477E-01  0.00000000000E+00 0.  1.
     999901    1    3    3    0    0  0.55908903275E-01 -0.89234638406E-01 -0.69398797597E-01  0.88899089943E+00  0.88000000000E+00 0. -1.
        -11    1    4    4    0    0 -0.33447773860E-01  0.50598914863E-01  0.20629109421E-01  0.64068908512E-01  0.51100000000E-03 0.  1.
         11    1    4    4    0    0 -0.21381498305E-01  0.55632174521E-01  0.36671984242E-01  0.69980017584E-01  0.51100000000E-03 0. -1.
</event>
<event>
 8    1  0.1146431E+005  0.1043930E+01  0.7957747E-01            NaN
         13   -1    0    0    0    0  0.00000000000E+00  0.00000000000E+00  0.74505805969E-08  0.10566000000E+00  0.10566000000E+00 0.  1.
     999900   -1    0    0    0    0 -0.00000000000E+00 -0.00000000000E+00 -0.74505805969E-08  0.93827000000E+00  0.93827000000E+00 0.  1.
     999902    2    1    2    0    0  0.17435663785E-01 -0.34957123205E-02  0.16963548068E-01  0.10193539072E+01  0.10190576057E+01 0.  0.
     999903    2    3    3    0    0  0.11677467568E+00 -0.11891641536E-01  0.58432190114E-01  0.13275457308E+00  0.20777868371E-01 0.  0.
         14    1    1    2    0    0 -0.17435663785E-01  0.34957123205E-02 -0.16963548068E-01  0.24576092840E-01  0.00000000000E+00 0. -1.
     999901    1    3    3    0    0 -0.99339011896E-01  0.83959292156E-02 -0.41468642046E-01  0.88659933408E+00  0.88000000000E+00 0.  1.
        -11    1    4    4    0    0  0.10941828690E+00 -0.65200244489E-02  0.56905617215E-01  0.12350458542E+00  0.51100000000E-03 0. -1.
         11    1    4    4    0    0  0.73563887772E-02 -0.53716170871E-02  0.15265728990E-02  0.92499876642E-02  0.51100000000E-03 0.  1.
</event>
<event>
 8    1  0.1146431E+005  0.1043930E+01  0.7957747E-01            NaN
         13   -1    0    0    0    0  0.00000000000E+00  0.00000000000E+00  0.74505805969E-08  0.10566000000E+00  0.10566000000E+00 0. -1.
     999900   -1    0    0    0    0 -0.00000000000E+00 -0.00000000000E+00 -0.74505805969E-08  0.93827000000E+00  0.93827000000E+00 0. -1.
     999902    2    1    2    0    0  0.48682461350E-02  0.72784789447E-02  0.22058209534E-01  0.10201973077E+01  0.10199212254E+01 0.  0.
     999903    2    3    3    0    0  0.14136505323E-01  0.89427059588E-01  0.95663246466E-01  0.13326326765E+00  0.20263316883E-01 0.  0.
         14    1    1    2    0    0 -0.48682461350E-02 -0.72784789447E-02 -0.22058209534E-01  0.23732692304E-01  0.00000000000E+00 0.  1.
     999901    1    3    3    0    0 -0.92682591880E-02 -0.82148580643E-01 -0.73605036932E-01  0.88693404005E+00  0.88000000000E+00 0. -1.
        -11    1    4    4    0    0  0.17122096212E-01  0.44057210848E-01  0.50624833058E-01  0.69262824441E-01  0.51100000000E-03 0. -1.
         11    1    4    4    0    0 -0.29855908894E-02  0.45369848740E-01  0.45038413408E-01  0.64000443209E-01  0.51100000000E-03 0.  1.
</event>
<event>
 8    1  0.1146431E+005  0.1043930E+01  0.7957747E-01            NaN
         13   -1    0    0    0    0  0.00000000000E+00  0.00000000000E+00  0.74505805969E-08  0.10566000000E+00  0.10566000000E+00 0. -1.
     999900   -1    0    0    0    0 -0.00000000000E+00 -0.00000000000E+00 -0.74505805969E-08  0.93827000000E+00  0.93827000000E+00 0. -1.
     999902    2    1    2    0    0  0.13739401585E-01 -0.51214921527E-02  0.18263336421E-01  0.10205088494E+01  0.10202400509E+01 0.  0.
     999903    2    3    3    0    0 -0.66558853434E-02  0.79811833866E-01 -0.98370167957E-01  0.12852621957E+00  0.20689841406E-01 0.  0.
         14    1    1    2    0    0 -0.13739401585E-01  0.51214921527E-02 -0.18263336421E-01  0.23421150591E-01  0.00000000000E+00 0.  1.
     999901    1    3    3    0    0  0.20395286928E-01 -0.84933326019E-01  0.11663350438E+00  0.89198262984E+00  0.88000000000E+00 0.  1.
        -11    1    4    4    0    0  0.55562847060E-02  0.16700834635E-01 -0.29188494884E-01  0.34088407587E-01  0.51100000000E-03 0. -1.
         11    1    4    4    0    0 -0.12212170049E-01  0.63110999231E-01 -0.69181673072E-01  0.94437811979E-01  0.51100000000E-03 0.  1.
</event>
<event>
 8    1  0.1146431E+005  0.1043930E+01  0.7957747E-01            NaN
         13   -1    0    0    0    0  0.00000000000E+00  0.00000000000E+00  0.74505805969E-08  0.10566000000E+00  0.10566000000E+00 0.  1.
     999900   -1    0    0    0    0 -0.00000000000E+00 -0.00000000000E+00 -0.74505805969E-08  0.93827000000E+00  0.93827000000E+00 0. -1.
     999902    2    1    2    0    0  0.84842874642E-02 -0.93859680023E-02  0.21468697094E-01  0.10190104397E+01  0.10187056944E+01 0.  0.
     999903    2    3    3    0    0  0.13312243088E-01  0.12533670567E+00 -0.11576941703E-01  0.12813136702E+00  0.19927770289E-01 0.  0.
         14    1    1    2    0    0 -0.84842874642E-02  0.93859680023E-02 -0.21468697094E-01  0.24919560270E-01  0.00000000000E+00 0. -1.
     999901    1    3    3    0    0 -0.48279556239E-02 -0.13472267368E+00  0.33045638797E-01  0.89087907272E+00  0.88000000000E+00 0.  1.
        -11    1    4    4    0    0  0.21719172329E-02  0.60936911145E-01 -0.14607148380E-01  0.62702904791E-01  0.51100000000E-03 0. -1.
         11    1    4    4    0    0  0.11140325855E-01  0.64399794529E-01  0.30302066779E-02  0.65428462225E-01  0.51100000000E-03 0.  1.
</event>
<event>
 7    1  0.1146431E+005  0.1043930E+01  0.7957747E-01            NaN
         13   -1    0    0    0    0  0.00000000000E+00  0.00000000000E+00  0.74505805969E-08  0.10566000000E+00  0.10566000000E+00 0.  1.
     999900   -1    0    0    0    0 -0.00000000000E+00 -0.00000000000E+00 -0.74505805969E-08  0.93827000000E+00  0.93827000000E+00 0. -1.
     999903    2    1    2    0    0 -0.15127927263E-01  0.73881502297E-01 -0.33912940236E-01  0.85186269529E-01  0.20476387275E-01 0.  0.
         14    1    1    2    0    0 -0.20108759222E-01 -0.26113209992E-01  0.68552778673E-01  0.76064087434E-01  0.00000000000E+00 0.  1.
     999901    1    1    2    0    0  0.35236686484E-01 -0.47768292306E-01 -0.34639838436E-01  0.88267964304E+00  0.88000000000E+00 0. -1.
        -11    1    3    3    0    0  0.69965496182E-05  0.12192118975E-01 -0.14099754492E-01  0.18647037614E-01  0.51100000000E-03 0.  1.
         11    1    3    3    0    0 -0.15134923812E-01  0.61689383322E-01 -0.19813185744E-01  0.66539231915E-01  0.51100000000E-03 0. -1.
</event>
<event>
 8    1  0.1146431E+005  0.1043930E+01  0.7957747E-01            NaN
         13   -1    0    0    0    0  0.00000000000E+00  0.00000000000E+00  0.74505805969E-08  0.10566000000E+00  0.10566000000E+00 0.  1.
     999900   -1    0    0    0    0 -0.00000000000E+00 -0.00000000000E+00 -0.74505805969E-08  0.93827000000E+00  0.93827000000E+00 0.  1.
     999902    2    1    2    0    0 -0.18213376711E-01 -0.53427864481E-02  0.15289582918E-01  0.10195569862E+01  0.10192656200E+01 0.  0.
     999903    2    3    3    0    0  0.31652122515E-02 -0.79465859720E-02 -0.12614210728E+00  0.12800398894E+00  0.20000578955E-01 0.  0.
         14    1    1    2    0    0  0.18213376711E-01  0.53427864481E-02 -0.15289582918E-01  0.24373013848E-01  0.00000000000E+00 0. -1.
     999901    1    3    3    0    0 -0.21378588962E-01  0.26037995239E-02  0.14143169020E+00  0.89155299721E+00  0.88000000000E+00 0. -1.
        -11    1    4    4    0    0 -0.75356508599E-02  0.58674490584E-03 -0.32873881916E-01  0.33735493722E-01  0.51100000000E-03 0.  1.
         11    1    4    4    0    0  0.10700863111E-01 -0.85333308778E-02 -0.93268225367E-01  0.94268495221E-01  0.51100000000E-03 0. -1.
</event>
<event>
 8    1  0.1146431E+005  0.1043930E+01  0.7957747E-01            NaN
         13   -1    0    0    0    0  0.00000000000E+00  0.00000000000E+00  0.74505805969E-08  0.10566000000E+00  0.10566000000E+00 0.  1.
     999900   -1    0    0    0    0 -0.00000000000E+00 -0.00000000000E+00 -0.74505805969E-08  0.93827000000E+00  0.93827000000E+00 0.  1.
     999902    2    1    2    0    0  0.95135699399E-02 -0.19794381117E-01  0.84900482287E-02  0.10203841627E+01  0.10201124609E+01 0.  0.
     999903    2    3    3    0    0 -0.61336717738E-01 -0.11078436812E+00 -0.31517938874E-01  0.13195882532E+00  0.19605661094E-01 0.  0.
         14    1    1    2    0    0 -0.95135699399E-02  0.19794381117E-01 -0.84900482287E-02  0.23545837334E-01  0.00000000000E+00 0. -1.
     999901    1    3    3    0    0  0.70850287678E-01  0.90989987005E-01  0.40007987102E-01  0.88842533734E+00  0.88000000000E+00 0.  1.
        -11    1    4    4    0    0 -0.21242824787E-01 -0.51955275217E-01 -0.65512108555E-02  0.56513606437E-01  0.51100000000E-03 0. -1.
         11    1    4    4    0    0 -0.40093892952E-01 -0.58829092905E-01 -0.24966728018E-01  0.75445218888E-01  0.51100000000E-03 0.  1.
</event>
<event>
 8    1  0.1146431E+005  0.1043930E+01  0.7957747E-01            NaN
         13   -1    0    0    0    0  0.00000000000E+00  0.00000000000E+00  0.74505805969E-08  0.10566000000E+00  0.10566000000E+00 0. -1.
     999900   -1    0    0    0    0 -0.00000000000E+00 -0.00000000000E+00 -0.74505805969E-08  0.93827000000E+00  0.93827000000E+00 0. -1.
     999902    2    1    2    0    0  0.57725706748E-02  0.21901234309E-01  0.70858248202E-02  0.10201982586E+01  0.10199221987E+01 0.  0.
     999903    2    3    3    0    0  0.40628451013E-01  0.48515561491E-01 -0.11282669408E+00  0.13098384858E+00  0.20554195497E-01 0.  0.
         14    1    1    2    0    0 -0.57725706748E-02 -0.21901234309E-01 -0.70858248202E-02  0.23731741399E-01  0.00000000000E+00 0. -1.
     999901    1    3    3    0    0 -0.34855880338E-01 -0.26614327183E-01  0.11991251890E+00  0.88921441002E+00  0.88000000000E+00 0.  1.
        -11    1    4    4    0    0 -0.37121959884E-03  0.33137404684E-02 -0.88547889617E-03  0.34876745487E-02  0.51100000000E-03 0. -1.
         11    1    4    4    0    0  0.40999670612E-01  0.45201821023E-01 -0.11194121518E+00  0.12749617403E+00  0.51100000000E-03 0.  1.
</event>
<event>
 8    1  0.1146431E+005  0.1043930E+01  0.7957747E-01            NaN
         13   -1    0    0    0    0  0.00000000000E+00  0.00000000000E+00  0.74505805969E-08  0.10566000000E+00  0.10566000000E+00 0. -1.
     999900   -1    0    0    0    0 -0.00000000000E+00 -0.00000000000E+00 -0.74505805969E-08  0.93827000000E+00  0.93827000000E+00 0.  1.
     999902    2    1    2    0    0 -0.15477566546E-01 -0.16100828777E-01 -0.62823775006E-02  0.10207295685E+01  0.10204658701E+01 0.  0.
     999903    2    3    3    0    0 -0.85775109123E-01 -0.41923140650E-01  0.88573815465E-01  0.13246933997E+00  0.24246364269E-01 0.  0.
         14    1    1    2    0    0  0.15477566546E-01  0.16100828777E-01  0.62823775006E-02  0.23200431474E-01  0.00000000000E+00 0. -1.
     999901    1    3    3    0    0  0.70297542577E-01  0.25822311873E-01 -0.94856192965E-01  0.88826022855E+00  0.88000000000E+00 0.  1.
        -11    1    4    4    0    0 -0.64029147563E-01 -0.27647587684E-01  0.49499569276E-01  0.85525372387E-01  0.51100000000E-03 0.  1.
         11    1    4    4    0    0 -0.21745961560E-01 -0.14275552966E-01  0.39074246189E-01  0.46943967588E-01  0.51100000000E-03 0. -1.
</event>
<event>
 8    1  0.1146431E+005  0.1043930E+01  0.7957747E-01            NaN
         13   -1    0    0    0    0  0.00000000000E+00  0.00000000000E+00  0.74505805969E-08  0.10566000000E+00  0.10566000000E+00 0. -1.
     999900   -1    0    0    0    0 -0.00000000000E+00 -0.00000000000E+00 -0.74505805969E-08  0.93827000000E+00  0.93827000000E+00 0.  1.
     999902    2    1    2    0    0  0.10727446984E-01  0.11384085830E-02 -0.21687025174E-01  0.10197080853E+01  0.10194203637E+01 0.  0.
     999903    2    3    3    0    0 -0.59328334049E-01  0.10306410334E+00 -0.49755110436E-01  0.13061614563E+00  0.21046279110E-01 0.  0.
         14    1    1    2    0    0 -0.10727446984E-01 -0.11384085830E-02  0.21687025174E-01  0.24221914743E-01  0.00000000000E+00 0.  1.
     999901    1    3    3    0    0  0.70055781033E-01 -0.10192569476E+00  0.28068085261E-01  0.88909193963E+00  0.88000000000E+00 0.  1.
        -11    1    4    4    0    0 -0.76998285268E-02  0.29875826249E-01 -0.17127781349E-01  0.35291278927E-01  0.51100000000E-03 0.  1.
         11    1    4    4    0    0 -0.51628505522E-01  0.73188277095E-01 -0.32627329087E-01  0.95324866698E-01  0.51100000000E-03 0. -1.
</event>
<event>
 8    1  0.1146431E+005  0.1043930E+01  0.7957747E-01            NaN
         13   -1    0    0    0    0  0.00000000000E+00  0.00000000000E+00  0.74505805969E-08  0.10566000000E+00  0.10566000000E+00 0. -1.
     999900   -1    0    0    0    0 -0.00000000000E+00 -0.00000000000E+00 -0.74505805969E-08  0.93827000000E+00  0.93827000000E+00 0.  1.
     999902    2    1    2    0    0 -0.18394861665E-01 -0.12092884279E-01  0.11098037849E-01  0.10192769022E+01  0.10189787182E+01 0.  0.
     999903    2    3    3    0    0 -0.52232266945E-01  0.54710781116E-02 -0.11636628289E+00  0.12927655625E+00  0.20326676938E-01 0.  0.
         14    1    1    2    0    0  0.18394861665E-01  0.12092884279E-01 -0.11098037849E-01  0.24653097776E-01  0.00000000000E+00 0.  1.
     999901    1    3    3    0    0  0.33837405279E-01 -0.17563962391E-01  0.12746432074E+00  0.89000034597E+00  0.88000000000E+00 0. -1.
        -11    1    4    4    0    0 -0.41487901021E-01  0.54818653760E-02 -0.68968017059E-01  0.80673076532E-01  0.51100000000E-03 0. -1.
         11    1    4    4    0    0 -0.10744365923E-01 -0.10787264391E-04 -0.47398265836E-01  0.48603479718E-01  0.51100000000E-03 0.  1.
</event>
<event>
 8    1  0.1146431E+005  0.1043930E+01  0.7957747E-01            NaN
         13   -1    0    0    0    0  0.00000000000E+00  0.00000000000E+00  0.74505805969E-08  0.10566000000E+00  0.10566000000E+00 0.  1.
     999900   -1    0    0    0    0 -0.00000000000E+00 -0.00000000000E+00 -0.74505805969E-08  0.93827000000E+00  0.93827000000E+00 0.  1.
     999902    2    1    2    0    0 -0.57403400581E-03  0.21774565848E-01 -0.92174351874E-02  0.10202778892E+01  0.10200037004E+01 0.  0.
     999903    2    3    3    0    0 -0.95394368654E-01 -0.83396916493E-01 -0.13524078125E-01  0.12894715165E+00  0.19731598481E-01 0.  0.
         14    1    1    2    0    0  0.57403400581E-03 -0.21774565848E-01  0.92174351874E-02  0.23652110779E-01  0.00000000000E+00 0. -1.
     999901    1    3    3    0    0  0.94820334648E-01  0.10517148234E+00  0.43066429380E-02  0.89133073757E+00  0.88000000000E+00 0.  1.
        -11    1    4    4    0    0 -0.88327555731E-02 -0.13139716028E-01  0.33491699279E-02  0.16190977997E-01  0.51100000000E-03 0. -1.
         11    1    4    4    0    0 -0.86561613081E-01 -0.70257200465E-01 -0.16873248053E-01  0.11275617365E+00  0.51100000000E-03 0.  1.
</event>
<event>
 8    1  0.1146431E+005  0.1043930E+01  0.7957747E-01            NaN
         13   -1    0    0    0    0  0.00000000000E+00  0.00000000000E+00  0.74505805969E-08  0.10566000000E+00  0.10566000000E+00 0. -1.
     999900   -1    0    0    0    0 -0.00000000000E+00 -0.00000000000E+00 -0.74505805969E-08  0.93827000000E+00  0.93827000000E+00 0. -1.
     999902    2    1    2    0    0 -0.14401205605E-01  0.15584933207E-01  0.63954263899E-02  0.10217672758E+01  0.10215268863E+01 0.  0.
     999903    2    3    3    0    0 -0.58319334004E-01 -0.48708501481E-02 -0.11660196091E+00  0.13189335305E+00  0.19364126431E-01 0.  0.
         14    1    1    2    0    0  0.14401205605E-01 -0.15584933207E-01 -0.63954263899E-02  0.22162724216E-01  0.00000000000E+00 0. -1.
     999901    1    3    3    0    0  0.43918128399E-01  0.20455783355E-01  0.12299738730E+00  0.88987392273E+00  0.88000000000E+00 0.  1.
        -11    1    4    4    0    0 -0.47670483571E-01  0.28875095348E-02 -0.98818952605E-01  0.10975545194E+00  0.51100000000E-03 0. -1.
         11    1    4    4    0    0 -0.10648850433E-01 -0.77583596829E-02 -0.17783008302E-01  0.22137901115E-01  0.51100000000E-03 0.  1.
</event>
<event>
 8    1  0.1146431E+005  0.1043930E+01  0.7957747E-01            NaN
         13   -1    0    0    0    0  0.00000000000E+00  0.00000000000E+00  0.74505805969E-08  0.10566000000E+00  0.10566000000E+00 0. -1.
     999900   -1    0    0    0    0 -0.00000000000E+00 -0.00000000000E+00 -0.74505805969E-08  0.93827000000E+00  0.93827000000E+00 0. -1.
     999902    2    1    2    0    0 -0.10405834513E-01  0.19458132104E-01 -0.61499675126E-02  0.10210231801E+01  0.10207661887E+01 0.  0.
     999903    2    3    3    0    0 -0.10730809350E+00 -0.16449288437E-01  0.71251367241E-01  0.13160181919E+00  0.21369966325E-01 0.  0.
         14    1    1    2    0    0  0.10405834513E-01 -0.19458132104E-01  0.61499675126E-02  0.22906819886E-01  0.00000000000E+00 0.  1.
     999901    1    3    3    0    0  0.96902258983E-01  0.35907420541E-01 -0.77401334753E-01  0.88942136092E+00  0.88000000000E+00 0. -1.
        -11    1    4    4    0    0 -0.55222235822E-01 -0.18902287718E-01  0.40796174257E-01  0.71213627665E-01  0.51100000000E-03 0.  1.
         11    1    4    4    0    0 -0.52085857673E-01  0.24529992804E-02  0.30455192984E-01  0.60388191526E-01  0.51100000000E-03 0. -1.
</event>
<event>
 8    1  0.1146431E+005  0.1043930E+01  0.7957747E-01            NaN
         13   -1    0    0    0    0  0.00000000000E+00  0.00000000000E+00  0.74505805969E-08  0.10566000000E+00  0.10566000000E+00 0.  1.
     999900   -1    0    0    0    0 -0.00000000000E+00 -0.00000000000E+00 -0.74505805969E-08  0.93827000000E+00  0.93827000000E+00 0.  1.
     999902    2    1    2    0    0 -0.13003651388E-01  0.11420948674E-01  0.16317833449E-01  0.10201433502E+01  0.10198659963E+01 0.  0.
     999903    2    3    3    0    0 -0.12365880504E+00 -0.11120354615E-01 -0.37867154905E-01  0.13127401995E+00  0.19590419630E-01 0.  0.
         14    1    1    2    0    0  0.13003651388E-01 -0.11420948674E-01 -0.16317833449E-01  0.23786649754E-01  0.00000000000E+00 0.  1.
     999901    1    3    3    0    0  0.11065515365E+00  0.22541303288E-01  0.54184988354E-01  0.88886933030E+00  0.88000000000E+00 0. -1.
        -11    1    4    4    0    0 -0.68026425984E-01 -0.10302660517E-01 -0.30076240615E-01  0.75090484194E-01  0.51100000000E-03 0. -1.
         11    1    4    4    0    0 -0.55632379058E-01 -0.81769409778E-03 -0.77909142898E-02  0.56183535753E-01  0.51100000000E-03 0.  1.
</event>
<event>
 8    1  0.1146431E+005  0.1043930E+01  0.7957747E-01            NaN
         13   -1    0    0    0    0  0.00000000000E+00  0.00000000000E+00  0.74505805969E-08  0.10566000000E+00  0.10566000000E+00 0. -1.
     999900   -1    0    0    0    0 -0.00000000000E+00 -0.00000000000E+00 -0.74505805969E-08  0.93827000000E+00  0.93827000000E+00 0.  1.
     999902    2    1    2    0    0 -0.40031267764E-02  0.13660621977E-01 -0.18489153698E-01  0.10205957672E+01  0.10203289830E+01 0.  0.
     999903    2    3    3    0    0  0.67989559525E-01 -0.91871651849E-01  0.54597453813E-01  0.12837289150E+00  0.20874306940E-01 0.  0.
         14    1    1    2    0    0  0.40031267764E-02 -0.13660621977E-01  0.18489153698E-01  0.23334232819E-01  0.00000000000E+00 0. -1.
     999901    1    3    3    0    0 -0.71992686301E-01  0.10553227383E+00 -0.73086607511E-01  0.89222287569E+00  0.88000000000E+00 0.  1.
        -11    1    4    4    0    0  0.42613413086E-01 -0.63998480856E-01  0.26397002588E-01  0.81294350316E-01  0.51100000000E-03 0. -1.
         11    1    4    4    0    0  0.25376146439E-01 -0.27873170993E-01  0.28200451225E-01  0.47078541179E-01  0.51100000000E-03 0.  1.
</event>
<event>
 8    1  0.1146431E+005  0.1043930E+01  0.7957747E-01            NaN
         13   -1    0    0    0    0  0.00000000000E+00  0.00000000000E+00  0.74505805969E-08  0.10566000000E+00  0.10566000000E+00 0.  1.
     999900   -1    0    0    0    0 -0.00000000000E+00 -0.00000000000E+00 -0.74505805969E-08  0.93827000000E+00  0.93827000000E+00 0.  1.
     999902    2    1    2    0    0  0.10529494737E-01  0.93523810697E-02  0.26653511782E-01  0.10137845695E+01  0.10133362750E+01 0.  0.
     999903    2    3    3    0    0 -0.22958078909E-01  0.12122045286E+00  0.16039562433E-01  0.12600726689E+00  0.19977291251E-01 0.  0.
         14    1    1    2    0    0 -0.10529494737E-01 -0.93523810697E-02 -0.26653511782E-01  0.30145430523E-01  0.00000000000E+00 0. -1.
     999901    1    3    3    0    0  0.33487573646E-01 -0.11186807179E+00  0.10613949349E-01  0.88777730259E+00  0.88000000000E+00 0.  1.
        -11    1    4    4    0    0 -0.16026467576E-01  0.10508706960E+00  0.19568550616E-01  0.10808944978E+00  0.51100000000E-03 0.  1.
         11    1    4    4    0    0 -0.69316113333E-02  0.16133383262E-01 -0.35289881830E-02  0.17917817103E-01  0.51100000000E-03 0. -1.
</event>
<event>
 8    1  0.1146431E+005  0.1043930E+01  0.7957747E-01            NaN
         13   -1    0    0    0    0  0.00000000000E+00  0.00000000000E+00  0.74505805969E-08  0.10566000000E+00  0.10566000000E+00 0. -1.
     999900   -1    0    0    0    0 -0.00000000000E+00 -0.00000000000E+00 -0.74505805969E-08  0.93827000000E+00  0.93827000000E+00 0. -1.
     999902    2    1    2    0    0  0.61684627180E-02 -0.19867710565E-01  0.12370636577E-01  0.10197265187E+01  0.10194392402E+01 0.  0.
     999903    2    3    3    0    0  0.10093592546E+00 -0.73995690861E-01  0.39119863917E-01  0.13258152980E+00  0.19597830924E-01 0.  0.
         14    1    1    2    0    0 -0.61684627180E-02  0.19867710565E-01 -0.12370636577E-01  0.24203481252E-01  0.00000000000E+00 0. -1.
     999901    1    3    3    0    0 -0.94767462746E-01  0.54127980295E-01 -0.26749227341E-01  0.88714498894E+00  0.88000000000E+00 0. -1.
        -11    1    4    4    0    0  0.90376394108E-01 -0.72765911463E-01  0.36166236476E-01  0.12153611918E+00  0.51100000000E-03 0. -1.
         11    1    4    4    0    0  0.10559531355E-01 -0.12297793974E-02  0.29536274411E-02  0.11045410625E-01  0.51100000000E-03 0.  1.
</event>
<event>
 8    1  0.1146431E+005  0.1043930E+01  0.7957747E-01            NaN
         13   -1    0    0    0    0  0.00000000000E+00  0.00000000000E+00  0.74505805969E-08  0.10566000000E+00  0.10566000000E+00 0. -1.
     999900   -1    0    0    0    0 -0.00000000000E+00 -0.00000000000E+00 -0.74505805969E-08  0.93827000000E+00  0.93827000000E+00 0. -1.
     999902    2    1    2    0    0 -0.20114744997E-01  0.63872420546E-02  0.11410814999E-01  0.10199381988E+01  0.10196559826E+01 0.  0.
     999903    2    3    3    0    0 -0.17856280054E-01 -0.24450629959E-01  0.12651729316E+00  0.13190352809E+00  0.21799890180E-01 0.  0.
         14    1    1    2    0    0  0.20114744997E-01 -0.63872420546E-02 -0.11410814999E-01  0.23991801231E-01  0.00000000000E+00 0.  1.
     999901    1    3    3    0    0 -0.22584649428E-02  0.30837872014E-01 -0.11510647816E+00  0.88803467068E+00  0.88000000000E+00 0. -1.
        -11    1    4    4    0    0 -0.80423093687E-02  0.93143406729E-03  0.50781505607E-01  0.51425370608E-01  0.51100000000E-03 0. -1.
         11    1    4    4    0    0 -0.98139706854E-02 -0.25382064026E-01  0.75735787551E-01  0.80478157482E-01  0.51100000000E-03 0.  1.
</event>
<event>
 8    1  0.1146431E+005  0.1043930E+01  0.7957747E-01            NaN
         13   -1    0    0    0    0  0.00000000000E+00  0.00000000000E+00  0.74505805969E-08  0.10566000000E+00  0.10566000000E+00 0. -1.
     999900   -1    0    0    0    0 -0.00000000000E+00 -0.00000000000E+00 -0.74505805969E-08  0.93827000000E+00  0.93827000000E+00 0.  1.
     999902    2    1    2    0    0  0.14420772974E-02  0.16254051548E-01 -0.16796628115E-01  0.10205120476E+01  0.10202433233E+01 0.  0.
     999903    2    3    3    0    0 -0.21222322439E-01  0.12274192149E+00 -0.43323255876E-01  0.13340607679E+00  0.20107475321E-01 0.  0.
         14    1    1    2    0    0 -0.14420772974E-02 -0.16254051548E-01  0.16796628115E-01  0.23417952401E-01  0.00000000000E+00 0. -1.
     999901    1    3    3    0    0  0.22664399736E-01 -0.10648786995E+00  0.26526627761E-01  0.88710597081E+00  0.88000000000E+00 0.  1.
        -11    1    4    4    0    0 -0.13201148684E-01  0.78986529704E-01 -0.17522406244E-01  0.81978277871E-01  0.51100000000E-03 0. -1.
         11    1    4    4    0    0 -0.80211737544E-02  0.43755391789E-01 -0.25800849632E-01  0.51427798920E-01  0.51100000000E-03 0.  1.
</event>
<event>
 8    1  0.1146431E+005  0.1043930E+01  0.7957747E-01            NaN
         13   -1    0    0    0    0  0.00000000000E+00  0.00000000000E+00  0.74505805969E-08  0.10566000000E+00  0.10566000000E+00 0.  1.
     999900   -1    0    0    0    0 -0.00000000000E+00 -0.00000000000E+00 -0.74505805969E-08  0.93827000000E+00  0.93827000000E+00 0.  1.
     999902    2    1    2    0    0 -0.49698952313E-02  0.17648250724E-01 -0.16256257654E-01  0.10194263977E+01  0.10191318628E+01 0.  0.
     999903    2    3    3    0    0  0.11461097793E+00  0.32444132971E-01 -0.49398872229E-01  0.13059742864E+00  0.20667408222E-01 0.  0.
         14    1    1    2    0    0  0.49698952313E-02 -0.17648250724E-01  0.16256257654E-01  0.24503602290E-01  0.00000000000E+00 0.  1.
     999901    1    3    3    0    0 -0.11958087317E+00 -0.14795882247E-01  0.33142614575E-01  0.88882896907E+00  0.88000000000E+00 0. -1.
        -11    1    4    4    0    0  0.10501026755E-01  0.57202592217E-02  0.74083666498E-03  0.11991784206E-01  0.51100000000E-03 0. -1.
         11    1    4    4    0    0  0.10410995118E+00  0.26723873749E-01 -0.50139708894E-01  0.11860564443E+00  0.51100000000E-03 0.  1.
</event>
<event>
 8    1  0.1168044E+005  0.1043930E+01  0.7957747E-01            NaN
         13   -1    0    0    0    0  0.00000000000E+00  0.00000000000E+00  0.74505805969E-08  0.10566000000E+00  0.10566000000E+00 0.  1.
     999900   -1    0    0    0    0 -0.00000000000E+00 -0.00000000000E+00 -0.74505805969E-08  0.93827000000E+00  0.93827000000E+00 0. -1.
     999902    2    1    2    0    0  0.14387698436E-01 -0.37960048306E-02  0.17761544674E-01  0.10207591565E+01  0.10204961380E+01 0.  0.
     999903    2    3    3    0    0 -0.96705898326E-03  0.11918374430E+00  0.51724335513E-01  0.13142611516E+00  0.19791835539E-01 0.  0.
         14    1    1    2    0    0 -0.14387698436E-01  0.37960048306E-02 -0.17761544674E-01  0.23170843493E-01  0.00000000000E+00 0. -1.
     999901    1    3    3    0    0  0.15354757420E-01 -0.12297974913E+00 -0.33962790839E-01  0.88933304135E+00  0.88000000000E+00 0.  1.
        -11    1    4    4    0    0 -0.95317143690E-02  0.40063086991E-01  0.15840408511E-01  0.44125776830E-01  0.51100000000E-03 0.  1.
         11    1    4    4    0    0  0.85646553858E-02  0.79120657306E-01  0.35883927002E-01  0.87300338330E-01  0.51100000000E-03 0. -1.
</event>
<event>
 8    1  0.1146431E+005  0.1043930E+01  0.7957747E-01            NaN
         13   -1    0    0    0    0  0.00000000000E+00  0.00000000000E+00  0.74505805969E-08  0.10566000000E+00  0.10566000000E+00 0. -1.
     999900   -1    0    0    0    0 -0.00000000000E+00 -0.00000000000E+00 -0.74505805969E-08  0.93827000000E+00  0.93827000000E+00 0. -1.
     999902    2    1    2    0    0  0.22084741245E-03  0.15249890454E-01 -0.18058498657E-01  0.10202927983E+01  0.10200189591E+01 0.  0.
     999903    2    3    3    0    0 -0.24524894529E-01 -0.53002213160E-01 -0.11651940942E+00  0.13183050174E+00  0.19794023455E-01 0.  0.
         14    1    1    2    0    0 -0.22084741245E-03 -0.15249890454E-01  0.18058498657E-01  0.23637201742E-01  0.00000000000E+00 0. -1.
     999901    1    3    3    0    0  0.24745741941E-01  0.68252103614E-01  0.98460910765E-01  0.88846229652E+00  0.88000000000E+00 0.  1.
        -11    1    4    4    0    0 -0.14298061227E-01 -0.14357601814E-01 -0.53380216007E-01  0.57098895494E-01  0.51100000000E-03 0. -1.
         11    1    4    4    0    0 -0.10226833302E-01 -0.38644611346E-01 -0.63139193415E-01  0.74731606242E-01  0.51100000000E-03 0.  1.
</event>
<event>
 8    1  0.1146431E+005  0.1043930E+01  0.7957747E-01            NaN
         13   -1    0    0    0    0  0.00000000000E+00  0.00000000000E+00  0.74505805969E-08  0.10566000000E+00  0.10566000000E+00 0. -1.
     999900   -1    0    0    0    0 -0.00000000000E+00 -0.00000000000E+00 -0.74505805969E-08  0.93827000000E+00  0.93827000000E+00 0. -1.
     999902    2    1    2    0    0  0.86947005564E-02  0.91137712059E-02 -0.18094328635E-01  0.10218831551E+01  0.10216453001E+01 0.  0.
     999903    2    3    3    0    0 -0.54893118735E-01 -0.10302975209E+00 -0.57058788682E-01  0.13163722851E+00  0.21077719588E-01 0.  0.
         14    1    1    2    0    0 -0.86947005564E-02 -0.91137712059E-02  0.18094328635E-01  0.22046844947E-01  0.00000000000E+00 0. -1.
     999901    1    3    3    0    0  0.63587819291E-01  0.11214352330E+00  0.38964460047E-01  0.89024592654E+00  0.88000000000E+00 0. -1.
        -11    1    4    4    0    0 -0.19598564710E-01 -0.34652566428E-01 -0.30774654534E-01  0.50321412752E-01  0.51100000000E-03 0.  1.
         11    1    4    4    0    0 -0.35294554025E-01 -0.68377185666E-01 -0.26284134148E-01  0.81315815758E-01  0.51100000000E-03 0. -1.
</event>
<event>
 8    1  0.1146431E+005  0.1043930E+01  0.7957747E-01            NaN
         13   -1    0    0    0    0  0.00000000000E+00  0.00000000000E+00  0.74505805969E-08  0.10566000000E+00  0.10566000000E+00 0. -1.
     999900   -1    0    0    0    0 -0.00000000000E+00 -0.00000000000E+00 -0.74505805969E-08  0.93827000000E+00  0.93827000000E+00 0.  1.
     999902    2    1    2    0    0  0.22355587675E-01 -0.84192668824E-02 -0.20698096540E-03  0.10200406887E+01  0.10197609069E+01 0.  0.
     999903    2    3    3    0    0 -0.73761822613E-01  0.99439736294E-01 -0.24965556170E-01  0.12791675771E+00  0.20257104408E-01 0.  0.
         14    1    1    2    0    0 -0.22355587675E-01  0.84192668824E-02  0.20698096540E-03  0.23889311339E-01  0.00000000000E+00 0. -1.
     999901    1    3    3    0    0  0.96117410288E-01 -0.10785900318E+00  0.24758575204E-01  0.89212393095E+00  0.88000000000E+00 0.  1.
        -11    1    4    4    0    0 -0.25090922976E-01  0.34428509394E-01  0.11137835257E-02  0.42618990012E-01  0.51100000000E-03 0.  1.
         11    1    4    4    0    0 -0.48670899637E-01  0.65011226900E-01 -0.26079339696E-01  0.85297767699E-01  0.51100000000E-03 0. -1.
</event>
<event>
 8    1  0.1146431E+005  0.1043930E+01  0.7957747E-01            NaN
         13   -1    0    0    0    0  0.00000000000E+00  0.00000000000E+00  0.74505805969E-08  0.10566000000E+00  0.10566000000E+00 0.  1.
     999900   -1    0    0    0    0 -0.00000000000E+00 -0.00000000000E+00 -0.74505805969E-08  0.93827000000E+00  0.93827000000E+00 0.  1.
     999902    2    1    2    0    0  0.23326173796E-01 -0.28151992093E-02 -0.56413409752E-02  0.10197667954E+01  0.10194804836E+01 0.  0.
     999903    2    3    3    0    0  0.76898075276E-01  0.10190741667E+00 -0.24128607560E-01  0.13174733953E+00  0.21834289945E-01 0.  0.
         14    1    1    2    0    0 -0.23326173796E-01  0.28151992093E-02  0.56413409752E-02  0.24163204641E-01  0.00000000000E+00 0.  1.
     999901    1    3    3    0    0 -0.53571901481E-01 -0.10472261588E+00  0.18487266585E-01  0.88801945583E+00  0.88000000000E+00 0. -1.
        -11    1    4    4    0    0  0.48043346786E-01  0.67281256264E-01 -0.25898715112E-01  0.86636800381E-01  0.51100000000E-03 0.  1.
         11    1    4    4    0    0  0.28854728490E-01  0.34626160404E-01  0.17701075518E-02  0.45110539149E-01  0.51100000000E-03 0. -1.
</event>
<event>
 8    1  0.1146431E+005  0.1043930E+01  0.7957747E-01            NaN
         13   -1    0    0    0    0  0.00000000000E+00  0.00000000000E+00  0.74505805969E-08  0.10566000000E+00  0.10566000000E+00 0.  1.
     999900   -1    0    0    0    0 -0.00000000000E+00 -0.00000000000E+00 -0.74505805969E-08  0.93827000000E+00  0.93827000000E+00 0.  1.
     999902    2    1    2    0    0  0.14706655995E-01  0.31584486558E-02 -0.18505773813E-01  0.10200820401E+01  0.10198032375E+01 0.  0.
     999903    2    3    3    0    0 -0.66586092797E-02  0.11118603134E+00 -0.68026871245E-01  0.13183726960E+00  0.18620950567E-01 0.  0.
         14    1    1    2    0    0 -0.14706655995E-01 -0.31584486558E-02  0.18505773813E-01  0.23847959931E-01  0.00000000000E+00 0. -1.
     999901    1    3    3    0    0  0.21365265275E-01 -0.10802758269E+00  0.49521097432E-01  0.88824477047E+00  0.88000000000E+00 0. -1.
        -11    1    4    4    0    0 -0.22342600410E-03  0.45837667193E-01 -0.17846258110E-01  0.49192394762E-01  0.51100000000E-03 0. -1.
         11    1    4    4    0    0 -0.64351832756E-02  0.65348364149E-01 -0.50180613135E-01  0.82644874834E-01  0.51100000000E-03 0.  1.
</event>
<event>
 8    1  0.1146431E+005  0.1043930E+01  0.7957747E-01            NaN
         13   -1    0    0    0    0  0.00000000000E+00  0.00000000000E+00  0.74505805969E-08  0.10566000000E+00  0.10566000000E+00 0. -1.
     999900   -1    0    0    0    0 -0.00000000000E+00 -0.00000000000E+00 -0.74505805969E-08  0.93827000000E+00  0.93827000000E+00 0.  1.
     999902    2    1    2    0    0 -0.60527580755E-02  0.15896632059E-01  0.18562519709E-01  0.10187525115E+01  0.10184413452E+01 0.  0.
     999903    2    3    3    0    0 -0.64423541228E-01 -0.92538437071E-04 -0.10806020439E+00  0.12763180350E+00  0.21505075318E-01 0.  0.
         14    1    1    2    0    0  0.60527580755E-02 -0.15896632059E-01 -0.18562519709E-01  0.25177488538E-01  0.00000000000E+00 0.  1.
     999901    1    3    3    0    0  0.58370783153E-01  0.15989170496E-01  0.12662272410E+00  0.89112070796E+00  0.88000000000E+00 0.  1.
        -11    1    4    4    0    0 -0.18200471294E-01  0.96264090449E-02 -0.29914182649E-01  0.36318650181E-01  0.51100000000E-03 0.  1.
         11    1    4    4    0    0 -0.46223069934E-01 -0.97189474820E-02 -0.78146021741E-01  0.91313153320E-01  0.51100000000E-03 0. -1.
</event>
<event>
 8    1  0.1146431E+005  0.1043930E+01  0.7957747E-01            NaN
         13   -1    0    0    0    0  0.00000000000E+00  0.00000000000E+00  0.74505805969E-08  0.10566000000E+00  0.10566000000E+00 0. -1.
     999900   -1    0    0    0    0 -0.00000000000E+00 -0.00000000000E+00 -0.74505805969E-08  0.93827000000E+00  0.93827000000E+00 0. -1.
     999902    2    1    2    0    0  0.79891491962E-02 -0.10800375723E-01 -0.19235512725E-01  0.10204676990E+01  0.10201979440E+01 0.  0.
     999903    2    3    3    0    0 -0.57456476027E-01  0.50899586408E-01 -0.10517090878E+00  0.13171863005E+00  0.19921418444E-01 0.  0.
         14    1    1    2    0    0 -0.79891491962E-02  0.10800375723E-01  0.19235512725E-01  0.23462301047E-01  0.00000000000E+00 0. -1.
     999901    1    3    3    0    0  0.65445625223E-01 -0.61699962131E-01  0.85935396059E-01  0.88874906891E+00  0.88000000000E+00 0.  1.
        -11    1    4    4    0    0 -0.15247575443E-01  0.24837979981E-01 -0.46553098866E-01  0.54926004237E-01  0.51100000000E-03 0. -1.
         11    1    4    4    0    0 -0.42208900584E-01  0.26061606427E-01 -0.58617809918E-01  0.76792625809E-01  0.51100000000E-03 0.  1.
</event>
<event>
 8    1  0.1146431E+005  0.1043930E+01  0.7957747E-01            NaN
         13   -1    0    0    0    0  0.00000000000E+00  0.00000000000E+00  0.74505805969E-08  0.10566000000E+00  0.10566000000E+00 0. -1.
     999900   -1    0    0    0    0 -0.00000000000E+00 -0.00000000000E+00 -0.74505805969E-08  0.93827000000E+00  0.93827000000E+00 0.  1.
     999902    2    1    2    0    0  0.13228599322E-01 -0.40530782191E-03 -0.20236299980E-01  0.10197500920E+01  0.10194633795E+01 0.  0.
     999903    2    3    3    0    0  0.87144404942E-01  0.54345255839E-01 -0.81710694647E-01  0.13282265880E+00  0.20436901104E-01 0.  0.
         14    1    1    2    0    0 -0.13228599322E-01  0.40530782191E-03  0.20236299980E-01  0.24179908009E-01  0.00000000000E+00 0. -1.
     999901    1    3    3    0    0 -0.73915805620E-01 -0.54750563661E-01  0.61474394667E-01  0.88692743319E+00  0.88000000000E+00 0. -1.
        -11    1    4    4    0    0  0.42157915501E-01  0.15029492555E-01 -0.30882647959E-01  0.54379909450E-01  0.51100000000E-03 0.  1.
         11    1    4    4    0    0  0.44986489441E-01  0.39315763284E-01 -0.50828046688E-01  0.78442749352E-01  0.51100000000E-03 0. -1.
</event>
<event>
 8    1  0.1146431E+005  0.1043930E+01  0.7957747E-01            NaN
         13   -1    0    0    0    0  0.00000000000E+00  0.00000000000E+00  0.74505805969E-08  0.10566000000E+00  0.10566000000E+00 0. -1.
     999900   -1    0    0    0    0 -0.00000000000E+00 -0.00000000000E+00 -0.74505805969E-08  0.93827000000E+00  0.93827000000E+00 0. -1.
     999902    2    1    2    0    0  0.62082127039E-03  0.20247029199E-01 -0.12097859741E-01  0.10203358096E+01  0.10200629777E+01 0.  0.
     999903    2    3    3    0    0 -0.16178974002E-01  0.13833020326E-01  0.12596981521E+00  0.12938909093E+00  0.20494654340E-01 0.  0.
         14    1    1    2    0    0 -0.62082127039E-03 -0.20247029199E-01  0.12097859741E-01  0.23594190403E-01  0.00000000000E+00 0. -1.
     999901    1    3    3    0    0  0.16799795272E-01  0.64140088737E-02 -0.13806767495E+00  0.89094671866E+00  0.88000000000E+00 0. -1.
        -11    1    4    4    0    0  0.38575570055E-02  0.75991549638E-02  0.34230134095E-01  0.35278762781E-01  0.51100000000E-03 0.  1.
         11    1    4    4    0    0 -0.20036531007E-01  0.62338653618E-02  0.91739681118E-01  0.94110328152E-01  0.51100000000E-03 0. -1.
</event>
<event>
 8    1  0.1146431E+005  0.1043930E+01  0.7957747E-01            NaN
         13   -1    0    0    0    0  0.00000000000E+00  0.00000000000E+00  0.74505805969E-08  0.10566000000E+00  0.10566000000E+00 0.  1.
     999900   -1    0    0    0    0 -0.00000000000E+00 -0.00000000000E+00 -0.74505805969E-08  0.93827000000E+00  0.93827000000E+00 0.  1.
     999902    2    1    2    0    0 -0.11590967178E-01 -0.74882982558E-02 -0.17851161183E-01  0.10213669974E+01  0.10211177475E+01 0.  0.
     999903    2    3    3    0    0  0.11660991772E-01  0.10079843654E+00  0.77527580285E-01  0.12931107154E+00  0.20359862014E-01 0.  0.
         14    1    1    2    0    0  0.11590967178E-01  0.74882982558E-02  0.17851161183E-01  0.22563002603E-01  0.00000000000E+00 0.  1.
     999901    1    3    3    0    0 -0.23251958950E-01 -0.10828673479E+00 -0.95378741468E-01  0.89205592585E+00  0.88000000000E+00 0. -1.
        -11    1    4    4    0    0 -0.41284688752E-02  0.10662918534E-01  0.13103507377E-01  0.17398422730E-01  0.51100000000E-03 0. -1.
         11    1    4    4    0    0  0.15789460647E-01  0.90135518003E-01  0.64424072908E-01  0.11191264881E+00  0.51100000000E-03 0.  1.
</event>
<event>
 8    1  0.1146431E+005  0.1043930E+01  0.7957747E-01            NaN
         13   -1    0    0    0    0  0.00000000000E+00  0.00000000000E+00  0.74505805969E-08  0.10566000000E+00  0.10566000000E+00 0.  1.
     999900   -1    0    0    0    0 -0.00000000000E+00 -0.00000000000E+00 -0.74505805969E-08  0.93827000000E+00  0.93827000000E+00 0. -1.
     999902    2    1    2    0    0  0.10211636070E-01  0.86037051863E-02  0.19650903368E-01  0.10201716487E+01  0.10198949620E+01 0.  0.
     999903    2    3    3    0    0 -0.12673309280E+00  0.39330976918E-02  0.18365533656E-01  0.12956661528E+00  0.19325343536E-01 0.  0.
         14    1    1    2    0    0 -0.10211636070E-01 -0.86037051863E-02 -0.19650903368E-01  0.23758351318E-01  0.00000000000E+00 0. -1.
     999901    1    3    3    0    0  0.13694472887E+00  0.46706074945E-02  0.12853697126E-02  0.89060503340E+00  0.88000000000E+00 0. -1.
        -11    1    4    4    0    0 -0.71709164874E-01  0.67195310547E-02  0.18913721665E-01  0.74467082746E-01  0.51100000000E-03 0.  1.
         11    1    4    4    0    0 -0.55023927922E-01 -0.27864333629E-02 -0.54818800967E-03  0.55099532538E-01  0.51100000000E-03 0. -1.
</event>
<event>
 8    1  0.1146431E+005  0.1043930E+01  0.7957747E-01            NaN
         13   -1    0    0    0    0  0.00000000000E+00  0.00000000000E+00  0.74505805969E-08  0.10566000000E+00  0.10566000000E+00 0. -1.
     999900   -1    0    0    0    0 -0.00000000000E+00 -0.00000000000E+00 -0.74505805969E-08  0.93827000000E+00  0.93827000000E+00 0. -1.
     999902    2    1    2    0    0 -0.94831745957E-02  0.19192121977E-01 -0.76457756596E-02  0.10211983914E+01  0.10209453602E+01 0.  0.
     999903    2    3    3    0    0 -0.78361031932E-01  0.27047608256E-01  0.10054864556E+00  0.13186611336E+00  0.20164753671E-01 0.  0.
         14    1    1    2    0    0  0.94831745957E-02 -0.19192121977E-01  0.76457756596E-02  0.22731608650E-01  0.00000000000E+00 0. -1.
     999901    1    3    3    0    0  0.68877857336E-01 -0.78554862796E-02 -0.10819442122E+00  0.88933227799E+00  0.88000000000E+00 0. -1.
        -11    1    4    4    0    0 -0.68173975665E-01  0.30115623152E-01  0.90293279699E-01  0.11708022547E+00  0.51100000000E-03 0. -1.
         11    1    4    4    0    0 -0.10187056267E-01 -0.30680148954E-02  0.10255365859E-01  0.14785887890E-01  0.51100000000E-03 0.  1.
</event>
<event>
 8    1  0.1146431E+005  0.1043930E+01  0.7957747E-01            NaN
         13   -1    0    0    0    0  0.00000000000E+00  0.00000000000E+00  0.74505805969E-08  0.10566000000E+00  0.10566000000E+00 0. -1.
     999900   -1    0    0    0    0 -0.00000000000E+00 -0.00000000000E+00 -0.74505805969E-08  0.93827000000E+00  0.93827000000E+00 0.  1.
     999902    2    1    2    0    0 -0.23445178020E-03  0.21207133321E-01 -0.99393966303E-02  0.10205080215E+01  0.10202392038E+01 0.  0.
     999903    2    3    3    0    0 -0.86337720692E-02  0.10453171355E+00 -0.80487423142E-01  0.13372137394E+00  0.20043936923E-01 0.  0.
         14    1    1    2    0    0  0.23445178020E-03 -0.21207133321E-01  0.99393966303E-02  0.23421978496E-01  0.00000000000E+00 0. -1.
     999901    1    3    3    0    0  0.83993202890E-02 -0.83324580226E-01  0.70548026511E-01  0.88678664756E+00  0.88000000000E+00 0. -1.
        -11    1    4    4    0    0 -0.12206503414E-01  0.41123529504E-01 -0.27010890702E-01  0.50695095838E-01  0.51100000000E-03 0.  1.
         11    1    4    4    0    0  0.35727313444E-02  0.63408184043E-01 -0.53476532440E-01  0.83026278103E-01  0.51100000000E-03 0. -1.
</event>
<event>
 8    1  0.1146431E+005  0.1043930E+01  0.7957747E-01            NaN
         13   -1    0    0    0    0  0.00000000000E+00  0.00000000000E+00  0.74505805969E-08  0.10566000000E+00  0.10566000000E+00 0.  1.
     999900   -1    0    0    0    0 -0.00000000000E+00 -0.00000000000E+00 -0.74505805969E-08  0.93827000000E+00  0.93827000000E+00 0.  1.
     999902    2    1    2    0    0  0.22214796464E-02 -0.18342594870E-01 -0.13918370727E-01  0.10207976244E+01  0.10205354884E+01 0.  0.
     999903    2    3    3    0    0 -0.59883518716E-02 -0.18574975030E-01 -0.12997914270E+00  0.13313915507E+00  0.21226564051E-01 0.  0.
         14    1    1    2    0    0 -0.22214796464E-02  0.18342594870E-01  0.13918370727E-01  0.23132375626E-01  0.00000000000E+00 0. -1.
     999901    1    3    3    0    0  0.82098315180E-02  0.23238016008E-03  0.11606077197E+00  0.88765846930E+00  0.88000000000E+00 0. -1.
        -11    1    4    4    0    0 -0.92442788221E-02 -0.14786614866E-02 -0.71830656992E-01  0.72439958142E-01  0.51100000000E-03 0. -1.
         11    1    4    4    0    0  0.32559269504E-02 -0.17096313544E-01 -0.58148485706E-01  0.60699196930E-01  0.51100000000E-03 0.  1.
</event>
<event>
 8    1  0.1146431E+005  0.1043930E+01  0.7957747E-01            NaN
         13   -1    0    0    0    0  0.00000000000E+00  0.00000000000E+00  0.74505805969E-08  0.10566000000E+00  0.10566000000E+00 0. -1.
     999900   -1    0    0    0    0 -0.00000000000E+00 -0.00000000000E+00 -0.74505805969E-08  0.93827000000E+00  0.93827000000E+00 0. -1.
     999902    2    1    2    0    0  0.37832375648E-02  0.23851275262E-01  0.10794075476E-02  0.10197564331E+01  0.10194698727E+01 0.  0.
     999903    2    3    3    0    0 -0.96106285246E-01 -0.68241908055E-01  0.45425729448E-01  0.12822647425E+00  0.22026250799E-01 0.  0.
         14    1    1    2    0    0 -0.37832375648E-02 -0.23851275262E-01 -0.10794075476E-02  0.24173566943E-01  0.00000000000E+00 0.  1.
     999901    1    3    3    0    0  0.99889522811E-01  0.92093183317E-01 -0.44346321901E-01  0.89152995881E+00  0.88000000000E+00 0.  1.
        -11    1    4    4    0    0 -0.69275555473E-01 -0.38288668230E-01  0.24306244882E-01  0.82802049264E-01  0.51100000000E-03 0.  1.
         11    1    4    4    0    0 -0.26830729773E-01 -0.29953239825E-01  0.21119484566E-01  0.45424424988E-01  0.51100000000E-03 0. -1.
</event>
<event>
 8    1  0.1146431E+005  0.1043930E+01  0.7957747E-01            NaN
         13   -1    0    0    0    0  0.00000000000E+00  0.00000000000E+00  0.74505805969E-08  0.10566000000E+00  0.10566000000E+00 0. -1.
     999900   -1    0    0    0    0 -0.00000000000E+00 -0.00000000000E+00 -0.74505805969E-08  0.93827000000E+00  0.93827000000E+00 0.  1.
     999902    2    1    2    0    0 -0.11693883343E-01 -0.17047133458E-01 -0.12571206797E-01  0.10197352298E+01  0.10194481605E+01 0.  0.
     999903    2    3    3    0    0  0.11562987878E+00 -0.55717656463E-01 -0.30044816418E-02  0.12968002249E+00  0.18252539932E-01 0.  0.
         14    1    1    2    0    0  0.11693883343E-01  0.17047133458E-01  0.12571206797E-01  0.24194770243E-01  0.00000000000E+00 0.  1.
     999901    1    3    3    0    0 -0.12732376213E+00  0.38670523005E-01 -0.95667251553E-02  0.89005520727E+00  0.88000000000E+00 0. -1.
        -11    1    4    4    0    0  0.62672235570E-01 -0.21432094257E-01  0.30009706740E-02  0.66305435083E-01  0.51100000000E-03 0. -1.
         11    1    4    4    0    0  0.52957643213E-01 -0.34285562206E-01 -0.60054523158E-02  0.63374587407E-01  0.51100000000E-03 0.  1.
</event>
<event>
 8    1  0.1146431E+005  0.1043930E+01  0.7957747E-01            NaN
         13   -1    0    0    0    0  0.00000000000E+00  0.00000000000E+00  0.74505805969E-08  0.10566000000E+00  0.10566000000E+00 0.  1.
     999900   -1    0    0    0    0 -0.00000000000E+00 -0.00000000000E+00 -0.74505805969E-08  0.93827000000E+00  0.93827000000E+00 0.  1.
     999902    2    1    2    0    0  0.61088372501E-02 -0.67796282403E-02 -0.22265032290E-01  0.10198673128E+01  0.10195834065E+01 0.  0.
     999903    2    3    3    0    0  0.49182228205E-01 -0.11922387363E+00  0.11649209818E-01  0.13102019371E+00  0.19933977371E-01 0.  0.
         14    1    1    2    0    0 -0.61088372501E-02  0.67796282403E-02  0.22265032290E-01  0.24062687184E-01  0.00000000000E+00 0.  1.
     999901    1    3    3    0    0 -0.43073390955E-01  0.11244424539E+00 -0.33914242109E-01  0.88884711911E+00  0.88000000000E+00 0.  1.
        -11    1    4    4    0    0  0.39722318048E-01 -0.10576646052E+00  0.15713072944E-01  0.11406826248E+00  0.51100000000E-03 0.  1.
         11    1    4    4    0    0  0.94599101578E-02 -0.13457413114E-01 -0.40638631255E-02  0.16951931229E-01  0.51100000000E-03 0. -1.
</event>
<event>
 8    1  0.1146431E+005  0.1043930E+01  0.7957747E-01            NaN
         13   -1    0    0    0    0  0.00000000000E+00  0.00000000000E+00  0.74505805969E-08  0.10566000000E+00  0.10566000000E+00 0. -1.
     999900   -1    0    0    0    0 -0.00000000000E+00 -0.00000000000E+00 -0.74505805969E-08  0.93827000000E+00  0.93827000000E+00 0. -1.
     999902    2    1    2    0    0 -0.22823254817E-01 -0.76044998501E-02  0.12612886970E-02  0.10198401634E+01  0.10195556084E+01 0.  0.
     999903    2    3    3    0    0  0.12434775203E+00  0.10374463137E-01 -0.21545065406E-01  0.12714610710E+00  0.11486939837E-01 0.  0.
         14    1    1    2    0    0  0.22823254817E-01  0.76044998501E-02 -0.12612886970E-02  0.24089836603E-01  0.00000000000E+00 0.  1.
     999901    1    3    3    0    0 -0.14717100684E+00 -0.17978962987E-01  0.22806354103E-01  0.89269405630E+00  0.88000000000E+00 0. -1.
        -11    1    4    4    0    0  0.36363159486E-01  0.71142322524E-02 -0.30768631225E-02  0.37183596868E-01  0.51100000000E-03 0.  1.
         11    1    4    4    0    0  0.87984592542E-01  0.32602308842E-02 -0.18468202284E-01  0.89962510229E-01  0.51100000000E-03 0. -1.
</event>
<event>
 8    1  0.1146431E+005  0.1043930E+01  0.7957747E-01            NaN
         13   -1    0    0    0    0  0.00000000000E+00  0.00000000000E+00  0.74505805969E-08  0.10566000000E+00  0.10566000000E+00 0. -1.
     999900   -1    0    0    0    0 -0.00000000000E+00 -0.00000000000E+00 -0.74505805969E-08  0.93827000000E+00  0.93827000000E+00 0.  1.
     999902    2    1    2    0    0 -0.24706801161E-02  0.34228710316E-02  0.23732935821E-01  0.10198245535E+01  0.10195396252E+01 0.  0.
     999903    2    3    3    0    0  0.37282486605E-01  0.12343793157E+00  0.36446295859E-02  0.13056223618E+00  0.20157069089E-01 0.  0.
         14    1    1    2    0    0  0.24706801161E-02 -0.34228710316E-02 -0.23732935821E-01  0.24105446460E-01  0.00000000000E+00 0.  1.
     999901    1    3    3    0    0 -0.39753166722E-01 -0.12001506054E+00  0.20088306235E-01  0.88926231736E+00  0.88000000000E+00 0. -1.
        -11    1    4    4    0    0  0.20345150270E-01  0.93755944680E-01  0.71456459761E-02  0.96205112545E-01  0.51100000000E-03 0. -1.
         11    1    4    4    0    0  0.16937336335E-01  0.29681986893E-01 -0.35010163901E-02  0.34357123640E-01  0.51100000000E-03 0.  1.
</event>
<event>
 8    1  0.1146431E+005  0.1043930E+01  0.7957747E-01            NaN
         13   -1    0    0    0    0  0.00000000000E+00  0.00000000000E+00  0.74505805969E-08  0.10566000000E+00  0.10566000000E+00 0.  1.
     999900   -1    0    0    0    0 -0.00000000000E+00 -0.00000000000E+00 -0.74505805969E-08  0.93827000000E+00  0.93827000000E+00 0. -1.
     999902    2    1    2    0    0  0.63510175774E-02 -0.20766149679E-01  0.10611263343E-01  0.10197604467E+01  0.10194739827E+01 0.  0.
     999903    2    3    3    0    0 -0.27809013578E-01 -0.95035571822E-01  0.86190295771E-01  0.13274576535E+00  0.19686797246E-01 0.  0.
         14    1    1    2    0    0 -0.63510175774E-02  0.20766149679E-01 -0.10611263343E-01  0.24169553296E-01  0.00000000000E+00 0. -1.
     999901    1    3    3    0    0  0.34160031155E-01  0.74269422142E-01 -0.75579032428E-01  0.88701468135E+00  0.88000000000E+00 0. -1.
        -11    1    4    4    0    0 -0.21826320182E-01 -0.61961483892E-01  0.67892398007E-01  0.94473554855E-01  0.51100000000E-03 0.  1.
         11    1    4    4    0    0 -0.59826933956E-02 -0.33074087930E-01  0.18297897764E-01  0.38272210496E-01  0.51100000000E-03 0. -1.
</event>
<event>
 8    1  0.1146431E+005  0.1043930E+01  0.7957747E-01            NaN
         13   -1    0    0    0    0  0.00000000000E+00  0.00000000000E+00  0.74505805969E-08  0.10566000000E+00  0.10566000000E+00 0.  1.
     999900   -1    0    0    0    0 -0.00000000000E+00 -0.00000000000E+00 -0.74505805969E-08  0.93827000000E+00  0.93827000000E+00 0.  1.
     999902    2    1    2    0    0  0.18413932476E-01  0.37222184133E-02  0.14592032145E-01  0.10201422884E+01  0.10198649094E+01 0.  0.
     999903    2    3    3    0    0 -0.89065491799E-01  0.86461753552E-01 -0.28040506979E-01  0.12873037989E+00  0.19415046161E-01 0.  0.
         14    1    1    2    0    0 -0.18413932476E-01 -0.37222184133E-02 -0.14592032145E-01  0.23787711560E-01  0.00000000000E+00 0. -1.
     999901    1    3    3    0    0  0.10747942428E+00 -0.82739535139E-01  0.42632539123E-01  0.89141190855E+00  0.88000000000E+00 0. -1.
        -11    1    4    4    0    0 -0.48705329618E-01  0.38930068576E-01 -0.21827537573E-01  0.66064074125E-01  0.51100000000E-03 0. -1.
         11    1    4    4    0    0 -0.40360162182E-01  0.47531684977E-01 -0.62129694063E-02  0.62666305762E-01  0.51100000000E-03 0.  1.
</event>
<event>
 7    1  0.1146431E+005  0.1043930E+01  0.7957747E-01            NaN
         13   -1    0    0    0    0  0.00000000000E+00  0.00000000000E+00  0.74505805969E-08  0.10566000000E+00  0.10566000000E+00 0.  1.
     999900   -1    0    0    0    0 -0.00000000000E+00 -0.00000000000E+00 -0.74505805969E-08  0.93827000000E+00  0.93827000000E+00 0. -1.
     999903    2    1    2    0    0  0.10625999478E+00 -0.67385084675E-02 -0.32639864674E-01  0.11345898337E+00  0.21702215419E-01 0.  0.
         14    1    1    2    0    0  0.17257896320E-01 -0.29895159440E-01 -0.19348597195E-01  0.39571754533E-01  0.00000000000E+00 0. -1.
     999901    1    1    2    0    0 -0.12351789110E+00  0.36633667908E-01  0.51988461869E-01  0.89089926210E+00  0.88000000000E+00 0.  1.
        -11    1    3    3    0    0  0.85583833155E-01  0.32642940256E-02 -0.24460166877E-01  0.89071931593E-01  0.51100000000E-03 0. -1.
         11    1    3    3    0    0  0.20676161622E-01 -0.10002802493E-01 -0.81796977968E-02  0.24387051773E-01  0.51100000000E-03 0.  1.
</event>
<event>
 8    1  0.1146431E+005  0.1043930E+01  0.7957747E-01            NaN
         13   -1    0    0    0    0  0.00000000000E+00  0.00000000000E+00  0.74505805969E-08  0.10566000000E+00  0.10566000000E+00 0.  1.
     999900   -1    0    0    0    0 -0.00000000000E+00 -0.00000000000E+00 -0.74505805969E-08  0.93827000000E+00  0.93827000000E+00 0.  1.
     999902    2    1    2    0    0 -0.15343539869E-01 -0.13349104022E-01  0.12427944696E-01  0.10200956424E+01  0.10198171616E+01 0.  0.
     999903    2    3    3    0    0  0.11005474308E+00 -0.43226460458E-01  0.49374229392E-01  0.12993699711E+00  0.21569314604E-01 0.  0.
         14    1    1    2    0    0  0.15343539869E-01  0.13349104022E-01 -0.12427944696E-01  0.23834357622E-01  0.00000000000E+00 0. -1.
     999901    1    3    3    0    0 -0.12539828294E+00  0.29877356436E-01 -0.36946284697E-01  0.89015864527E+00  0.88000000000E+00 0. -1.
        -11    1    4    4    0    0  0.20298319630E-01  0.54739464678E-03  0.91328528159E-02  0.22270867569E-01  0.51100000000E-03 0. -1.
         11    1    4    4    0    0  0.89756423446E-01 -0.43773855105E-01  0.40241376577E-01  0.10766612954E+00  0.51100000000E-03 0.  1.
</event>
<event>
 8    1  0.1146431E+005  0.1043930E+01  0.7957747E-01            NaN
         13   -1    0    0    0    0  0.00000000000E+00  0.00000000000E+00  0.74505805969E-08  0.10566000000E+00  0.10566000000E+00 0.  1.
     999900   -1    0    0    0    0 -0.00000000000E+00 -0.00000000000E+00 -0.74505805969E-08  0.93827000000E+00  0.93827000000E+00 0. -1.
     999902    2    1    2    0    0  0.10101542121E-01 -0.14505854751E-01  0.14427666175E-01  0.10211129334E+01  0.10208579746E+01 0.  0.
     999903    2    3    3    0    0 -0.36107219219E-01  0.97715763904E-01 -0.72531249455E-01  0.12853756165E+00  0.20224262946E-01 0.  0.
         14    1    1    2    0    0 -0.10101542121E-01  0.14505854751E-01 -0.14427666175E-01  0.22817066563E-01  0.00000000000E+00 0. -1.
     999901    1    3    3    0    0  0.46208761340E-01 -0.11222161866E+00  0.86958915630E-01  0.89257537179E+00  0.88000000000E+00 0.  1.
        -11    1    4    4    0    0 -0.25646602683E-01  0.56600041134E-01 -0.32156253531E-01  0.69968554706E-01  0.51100000000E-03 0. -1.
         11    1    4    4    0    0 -0.10460616537E-01  0.41115722770E-01 -0.40374995924E-01  0.58569006941E-01  0.51100000000E-03 0.  1.
</event>
<event>
 8    1  0.1146431E+005  0.1043930E+01  0.7957747E-01            NaN
         13   -1    0    0    0    0  0.00000000000E+00  0.00000000000E+00  0.74505805969E-08  0.10566000000E+00  0.10566000000E+00 0. -1.
     999900   -1    0    0    0    0 -0.00000000000E+00 -0.00000000000E+00 -0.74505805969E-08  0.93827000000E+00  0.93827000000E+00 0. -1.
     999902    2    1    2    0    0 -0.10897103092E-01  0.13750890975E-01 -0.15796056752E-01  0.10203217543E+01  0.10200485934E+01 0.  0.
     999903    2    3    3    0    0 -0.25421777641E-01 -0.40066000653E-01 -0.12065652803E+00  0.13234487255E+00  0.26563440063E-01 0.  0.
         14    1    1    2    0    0  0.10897103092E-01 -0.13750890975E-01  0.15796056752E-01  0.23608245749E-01  0.00000000000E+00 0. -1.
     999901    1    3    3    0    0  0.14524674549E-01  0.53816891628E-01  0.10486047128E+00  0.88797688170E+00  0.88000000000E+00 0.  1.
        -11    1    4    4    0    0 -0.51727507047E-02 -0.32051835010E-01 -0.67743116754E-01  0.75123022210E-01  0.51100000000E-03 0.  1.
         11    1    4    4    0    0 -0.20249026936E-01 -0.80141656424E-02 -0.52913411275E-01  0.57221850342E-01  0.51100000000E-03 0. -1.
</event>
<event>
 8    1  0.1146431E+005  0.1043930E+01  0.7957747E-01            NaN
         13   -1    0    0    0    0  0.00000000000E+00  0.00000000000E+00  0.74505805969E-08  0.10566000000E+00  0.10566000000E+00 0.  1.
     999900   -1    0    0    0    0 -0.00000000000E+00 -0.00000000000E+00 -0.74505805969E-08  0.93827000000E+00  0.93827000000E+00 0.  1.
     999902    2    1    2    0    0  0.22267816483E-01  0.56587880472E-02  0.66070641234E-02  0.10200232890E+01  0.10197430948E+01 0.  0.
     999903    2    3    3    0    0 -0.37180417567E-01  0.76242727609E-01  0.97189494533E-01  0.13057325572E+00  0.20204957267E-01 0.  0.
         14    1    1    2    0    0 -0.22267816483E-01 -0.56587880472E-02 -0.66070641234E-02  0.23906710970E-01  0.00000000000E+00 0.  1.
     999901    1    3    3    0    0  0.59448234050E-01 -0.70583939562E-01 -0.90582430409E-01  0.88945003331E+00  0.88000000000E+00 0.  1.
        -11    1    4    4    0    0 -0.27376729340E-01  0.34087691632E-01  0.53172660342E-01  0.68840750715E-01  0.51100000000E-03 0. -1.
         11    1    4    4    0    0 -0.98036882274E-02  0.42155035977E-01  0.44016834190E-01  0.61732505005E-01  0.51100000000E-03 0.  1.
</event>
<event>
 8    1  0.1154882E+005  0.1043930E+01  0.7957747E-01            NaN
         13   -1    0    0    0    0  0.00000000000E+00  0.00000000000E+00  0.74505805969E-08  0.10566000000E+00  0.10566000000E+00 0. -1.
     999900   -1    0    0    0    0 -0.00000000000E+00 -0.00000000000E+00 -0.74505805969E-08  0.93827000000E+00  0.93827000000E+00 0.  1.
     999902    2    1    2    0    0 -0.13249005695E-01 -0.70578110660E-02  0.16495056353E-01  0.10216267327E+01  0.10213832509E+01 0.  0.
     999903    2    3    3    0    0 -0.35442876324E-01  0.12072917529E+00 -0.29613732465E-01  0.13092582767E+00  0.20805478920E-01 0.  0.
         14    1    1    2    0    0  0.13249005695E-01  0.70578110660E-02 -0.16495056353E-01  0.22303267318E-01  0.00000000000E+00 0.  1.
     999901    1    3    3    0    0  0.22193870628E-01 -0.12778698636E+00  0.46108788818E-01  0.89070090501E+00  0.88000000000E+00 0. -1.
        -11    1    4    4    0    0 -0.13426742594E-01  0.80390825404E-01 -0.20993497917E-01  0.84166206411E-01  0.51100000000E-03 0. -1.
         11    1    4    4    0    0 -0.22016133729E-01  0.40338349887E-01 -0.86202345481E-02  0.46759621263E-01  0.51100000000E-03 0.  1.
</event>
<event>
 8    1  0.1146431E+005  0.1043930E+01  0.7957747E-01            NaN
         13   -1    0    0    0    0  0.00000000000E+00  0.00000000000E+00  0.74505805969E-08  0.10566000000E+00  0.10566000000E+00 0. -1.
     999900   -1    0    0    0    0 -0.00000000000E+00 -0.00000000000E+00 -0.74505805969E-08  0.93827000000E+00  0.93827000000E+00 0.  1.
     999902    2    1    2    0    0  0.23884829402E-01  0.56191069186E-02  0.32936822393E-02  0.10191730256E+01  0.10188722925E+01 0.  0.
     999903    2    3    3    0    0 -0.10082688246E+00 -0.30207875100E-01 -0.67689635881E-01  0.12683048199E+00  0.20627855230E-01 0.  0.
         14    1    1    2    0    0 -0.23884829402E-01 -0.56191069186E-02 -0.32936822393E-02  0.24756974387E-01  0.00000000000E+00 0. -1.
     999901    1    3    3    0    0  0.12471171186E+00  0.35826982019E-01  0.70983318120E-01  0.89234254363E+00  0.88000000000E+00 0.  1.
        -11    1    4    4    0    0 -0.50113048264E-01 -0.25359727786E-01 -0.32221871080E-01  0.64752941992E-01  0.51100000000E-03 0. -1.
         11    1    4    4    0    0 -0.50713834192E-01 -0.48481473143E-02 -0.35467764801E-01  0.62077539995E-01  0.51100000000E-03 0.  1.
</event>
<event>
 8    1  0.1146431E+005  0.1043930E+01  0.7957747E-01            NaN
         13   -1    0    0    0    0  0.00000000000E+00  0.00000000000E+00  0.74505805969E-08  0.10566000000E+00  0.10566000000E+00 0.  1.
     999900   -1    0    0    0    0 -0.00000000000E+00 -0.00000000000E+00 -0.74505805969E-08  0.93827000000E+00  0.93827000000E+00 0. -1.
     999902    2    1    2    0    0  0.12715583573E-01 -0.18107140927E-01  0.58434608435E-02  0.10210454932E+01  0.10207890078E+01 0.  0.
     999903    2    3    3    0    0  0.46522491596E-01 -0.86641180693E-01  0.88619228287E-01  0.13386363509E+00  0.19876336702E-01 0.  0.
         14    1    1    2    0    0 -0.12715583573E-01  0.18107140927E-01 -0.58434608435E-02  0.22884506828E-01  0.00000000000E+00 0. -1.
     999901    1    3    3    0    0 -0.33806908023E-01  0.68534039766E-01 -0.82775767443E-01  0.88718185808E+00  0.88000000000E+00 0. -1.
        -11    1    4    4    0    0  0.20435027822E-01 -0.58062024787E-01  0.56933802218E-01  0.83848124848E-01  0.51100000000E-03 0.  1.
         11    1    4    4    0    0  0.26087463774E-01 -0.28579155905E-01  0.31685426069E-01  0.50015510240E-01  0.51100000000E-03 0. -1.
</event>
<event>
 8    1  0.1146431E+005  0.1043930E+01  0.7957747E-01            NaN
         13   -1    0    0    0    0  0.00000000000E+00  0.00000000000E+00  0.74505805969E-08  0.10566000000E+00  0.10566000000E+00 0. -1.
     999900   -1    0    0    0    0 -0.00000000000E+00 -0.00000000000E+00 -0.74505805969E-08  0.93827000000E+00  0.93827000000E+00 0. -1.
     999902    2    1    2    0    0 -0.24652350301E-02 -0.14730643156E-01  0.18022126940E-01  0.10205234562E+01  0.10202549968E+01 0.  0.
     999903    2    3    3    0    0 -0.87770575767E-01 -0.38053088873E-01  0.90193485350E-01  0.13315113156E+00  0.21039189429E-01 0.  0.
         14    1    1    2    0    0  0.24652350301E-02  0.14730643156E-01 -0.18022126940E-01  0.23406543764E-01  0.00000000000E+00 0.  1.
     999901    1    3    3    0    0  0.85305340737E-01  0.23322445716E-01 -0.72171358411E-01  0.88737232468E+00  0.88000000000E+00 0. -1.
        -11    1    4    4    0    0 -0.10301575567E-01 -0.94944916406E-02  0.21888415372E-01  0.25992915942E-01  0.51100000000E-03 0.  1.
         11    1    4    4    0    0 -0.77469000200E-01 -0.28558597232E-01  0.68305069978E-01  0.10715821561E+00  0.51100000000E-03 0. -1.
</event>
<event>
 8    1  0.1146431E+005  0.1043930E+01  0.7957747E-01            NaN
         13   -1    0    0    0    0  0.00000000000E+00  0.00000000000E+00  0.74505805969E-08  0.10566000000E+00  0.10566000000E+00 0. -1.
     999900   -1    0    0    0    0 -0.00000000000E+00 -0.00000000000E+00 -0.74505805969E-08  0.93827000000E+00  0.93827000000E+00 0.  1.
     999902    2    1    2    0    0 -0.10587052045E-01  0.81173681710E-02 -0.19512168349E-01  0.10202931210E+01  0.10200192893E+01 0.  0.
     999903    2    3    3    0    0 -0.41698420762E-01 -0.43672260518E-01 -0.11675292725E+00  0.13287785847E+00  0.19474460692E-01 0.  0.
         14    1    1    2    0    0  0.10587052045E-01 -0.81173681710E-02  0.19512168349E-01  0.23636879039E-01  0.00000000000E+00 0. -1.
     999901    1    3    3    0    0  0.31111368717E-01  0.51789628689E-01  0.97240758897E-01  0.88741526249E+00  0.88000000000E+00 0. -1.
        -11    1    4    4    0    0 -0.34579417719E-01 -0.39904958848E-01 -0.11114181538E+00  0.12304838934E+00  0.51100000000E-03 0.  1.
         11    1    4    4    0    0 -0.71190030434E-02 -0.37673016698E-02 -0.56111118635E-02  0.98294691387E-02  0.51100000000E-03 0. -1.
</event>
<event>
 8    1  0.1146431E+005  0.1043930E+01  0.7957747E-01            NaN
         13   -1    0    0    0    0  0.00000000000E+00  0.00000000000E+00  0.74505805969E-08  0.10566000000E+00  0.10566000000E+00 0. -1.
     999900   -1    0    0    0    0 -0.00000000000E+00 -0.00000000000E+00 -0.74505805969E-08  0.93827000000E+00  0.93827000000E+00 0. -1.
     999902    2    1    2    0    0 -0.12869784137E-01 -0.87478166311E-02 -0.19578169290E-01  0.10189207946E+01  0.10186138255E+01 0.  0.
     999903    2    3    3    0    0 -0.84771589133E-01 -0.96053133125E-01  0.16573363024E-01  0.13094612095E+00  0.21442563318E-01 0.  0.
         14    1    1    2    0    0  0.12869784137E-01  0.87478166311E-02  0.19578169290E-01  0.25009205351E-01  0.00000000000E+00 0. -1.
     999901    1    3    3    0    0  0.71901804996E-01  0.87305316494E-01 -0.36151532314E-01  0.88797467370E+00  0.88000000000E+00 0.  1.
        -11    1    4    4    0    0 -0.23296580177E-01 -0.19587331065E-01 -0.39854924832E-02  0.30700805487E-01  0.51100000000E-03 0.  1.
         11    1    4    4    0    0 -0.61475008956E-01 -0.76465802060E-01  0.20558855507E-01  0.10024531546E+00  0.51100000000E-03 0. -1.
</event>
<event>
 8    1  0.1146431E+005  0.1043930E+01  0.7957747E-01            NaN
         13   -1    0    0    0    0  0.00000000000E+00  0.00000000000E+00  0.74505805969E-08  0.10566000000E+00  0.10566000000E+00 0.  1.
     999900   -1    0    0    0    0 -0.00000000000E+00 -0.00000000000E+00 -0.74505805969E-08  0.93827000000E+00  0.93827000000E+00 0.  1.
     999902    2    1    2    0    0 -0.39095306474E-02 -0.24437390703E-01  0.44375779020E-03  0.10191778806E+01  0.10188772668E+01 0.  0.
     999903    2    3    3    0    0  0.53384633404E-01 -0.35375496544E-01  0.11149139403E+00  0.13028315066E+00  0.21024356430E-01 0.  0.
         14    1    1    2    0    0  0.39095306474E-02  0.24437390703E-01 -0.44375779020E-03  0.24752119409E-01  0.00000000000E+00 0. -1.
     999901    1    3    3    0    0 -0.57294164051E-01  0.10938105841E-01 -0.11104763624E+00  0.88889472994E+00  0.88000000000E+00 0.  1.
        -11    1    4    4    0    0  0.26247566552E-01 -0.78371884863E-02  0.59360874628E-01  0.65378366689E-01  0.51100000000E-03 0. -1.
         11    1    4    4    0    0  0.27137066852E-01 -0.27538308058E-01  0.52130519398E-01  0.64904783967E-01  0.51100000000E-03 0.  1.
</event>
<event>
 8    1  0.1146431E+005  0.1043930E+01  0.7957747E-01            NaN
         13   -1    0    0    0    0  0.00000000000E+00  0.00000000000E+00  0.74505805969E-08  0.10566000000E+00  0.10566000000E+00 0.  1.
     999900   -1    0    0    0    0 -0.00000000000E+00 -0.00000000000E+00 -0.74505805969E-08  0.93827000000E+00  0.93827000000E+00 0.  1.
     999902    2    1    2    0    0 -0.10951988902E-01 -0.26757083534E-02  0.21741990540E-01  0.10194387847E+01  0.10191445511E+01 0.  0.
     999903    2    3    3    0    0 -0.22416652903E-01  0.47432133166E-01 -0.11444989850E+00  0.12748000482E+00  0.20001469398E-01 0.  0.
         14    1    1    2    0    0  0.10951988902E-01  0.26757083534E-02 -0.21741990540E-01  0.24491215339E-01  0.00000000000E+00 0. -1.
     999901    1    3    3    0    0  0.11464664001E-01 -0.50107841520E-01  0.13619188904E+00  0.89195877984E+00  0.88000000000E+00 0. -1.
        -11    1    4    4    0    0 -0.11913266842E-01  0.29851326031E-01 -0.90079887254E-01  0.95643477568E-01  0.51100000000E-03 0. -1.
         11    1    4    4    0    0 -0.10503386061E-01  0.17580807135E-01 -0.24370011243E-01  0.31836527249E-01  0.51100000000E-03 0.  1.
</event>
<event>
 8    1  0.1146431E+005  0.1043930E+01  0.7957747E-01            NaN
         13   -1    0    0    0    0  0.00000000000E+00  0.00000000000E+00  0.74505805969E-08  0.10566000000E+00  0.10566000000E+00 0. -1.
     999900   -1    0    0    0    0 -0.00000000000E+00 -0.00000000000E+00 -0.74505805969E-08  0.93827000000E+00  0.93827000000E+00 0.  1.
     999902    2    1    2    0    0  0.97578565493E-02 -0.84202107027E-02  0.43969773762E-02  0.10303120294E+01  0.10302220289E+01 0.  0.
     999903    2    3    3    0    0 -0.63498381074E-01  0.64660235687E-02 -0.12104374002E+00  0.13827870610E+00  0.19888682798E-01 0.  0.
         14    1    1    2    0    0 -0.97578565493E-02  0.84202107027E-02 -0.43969773762E-02  0.13617970582E-01  0.00000000000E+00 0. -1.
     999901    1    3    3    0    0  0.73256237623E-01 -0.14886234271E-01  0.12544071740E+00  0.89203332331E+00  0.88000000000E+00 0. -1.
        -11    1    4    4    0    0 -0.24372990500E-01  0.15362642898E-02 -0.67459940563E-01  0.71746132130E-01  0.51100000000E-03 0. -1.
         11    1    4    4    0    0 -0.39125390574E-01  0.49297592789E-02 -0.53583799459E-01  0.66532573974E-01  0.51100000000E-03 0.  1.
</event>
<event>
 8    1  0.1146431E+005  0.1043930E+01  0.7957747E-01            NaN
         13   -1    0    0    0    0  0.00000000000E+00  0.00000000000E+00  0.74505805969E-08  0.10566000000E+00  0.10566000000E+00 0. -1.
     999900   -1    0    0    0    0 -0.00000000000E+00 -0.00000000000E+00 -0.74505805969E-08  0.93827000000E+00  0.93827000000E+00 0. -1.
     999902    2    1    2    0    0 -0.16495437091E-02 -0.20546741288E-01 -0.12165500424E-01  0.10199949008E+01  0.10197140328E+01 0.  0.
     999903    2    3    3    0    0 -0.73165094330E-01  0.52747060476E-01 -0.92477650936E-01  0.13042393857E+00  0.17969541267E-01 0.  0.
         14    1    1    2    0    0  0.16495437091E-02  0.20546741288E-01  0.12165500424E-01  0.23935099176E-01  0.00000000000E+00 0. -1.
     999901    1    3    3    0    0  0.71515550621E-01 -0.73293801764E-01  0.80312150512E-01  0.88957096225E+00  0.88000000000E+00 0.  1.
        -11    1    4    4    0    0 -0.46256756260E-01  0.33362905258E-01 -0.45724849172E-01  0.73101257853E-01  0.51100000000E-03 0.  1.
         11    1    4    4    0    0 -0.26908338070E-01  0.19384155218E-01 -0.46752801765E-01  0.57322680721E-01  0.51100000000E-03 0. -1.
</event>
<event>
 8    1  0.1146431E+005  0.1043930E+01  0.7957747E-01            NaN
         13   -1    0    0    0    0  0.00000000000E+00  0.00000000000E+00  0.74505805969E-08  0.10566000000E+00  0.10566000000E+00 0.  1.
     999900   -1    0    0    0    0 -0.00000000000E+00 -0.00000000000E+00 -0.74505805969E-08  0.93827000000E+00  0.93827000000E+00 0.  1.
     999902    2    1    2    0    0  0.13071263313E-01  0.24527276723E-02  0.18678669847E-01  0.10210004011E+01  0.10207428925E+01 0.  0.
     999903    2    3    3    0    0  0.11890174400E+00 -0.34740529286E-01 -0.40369220873E-01  0.13191655670E+00  0.20682718305E-01 0.  0.
         14    1    1    2    0    0 -0.13071263313E-01 -0.24527276723E-02 -0.18678669847E-01  0.22929598882E-01  0.00000000000E+00 0. -1.
     999901    1    3    3    0    0 -0.10583048069E+00  0.37193256958E-01  0.59047890720E-01  0.88908384442E+00  0.88000000000E+00 0. -1.
        -11    1    4    4    0    0  0.23120036255E-01 -0.15422095103E-01 -0.10905962563E-01  0.29859307330E-01  0.51100000000E-03 0.  1.
         11    1    4    4    0    0  0.95781707746E-01 -0.19318434183E-01 -0.29463258309E-01  0.10205724937E+00  0.51100000000E-03 0. -1.
</event>
<event>
 8    1  0.1146431E+005  0.1043930E+01  0.7957747E-01            NaN
         13   -1    0    0    0    0  0.00000000000E+00  0.00000000000E+00  0.74505805969E-08  0.10566000000E+00  0.10566000000E+00 0.  1.
     999900   -1    0    0    0    0 -0.00000000000E+00 -0.00000000000E+00 -0.74505805969E-08  0.93827000000E+00  0.93827000000E+00 0. -1.
     999902    2    1    2    0    0  0.14925235357E-01  0.63950682353E-02  0.21271218330E-01  0.10171695015E+01  0.10168174225E+01 0.  0.
     999903    2    3    3    0    0 -0.10879938900E+00 -0.55175123290E-01 -0.21073510792E-01  0.12537818782E+00  0.19849328612E-01 0.  0.
         14    1    1    2    0    0 -0.14925235357E-01 -0.63950682353E-02 -0.21271218330E-01  0.26760498453E-01  0.00000000000E+00 0.  1.
     999901    1    3    3    0    0  0.12372462436E+00  0.61570191525E-01  0.42344729122E-01  0.89179131373E+00  0.88000000000E+00 0.  1.
        -11    1    4    4    0    0 -0.42882552269E-01 -0.14076905645E-01 -0.14548406042E-01  0.47423515275E-01  0.51100000000E-03 0.  1.
         11    1    4    4    0    0 -0.65916836733E-01 -0.41098217644E-01 -0.65251047499E-02  0.77954672544E-01  0.51100000000E-03 0. -1.
</event>
<event>
 8    1  0.1146431E+005  0.1043930E+01  0.7957747E-01            NaN
         13   -1    0    0    0    0  0.00000000000E+00  0.00000000000E+00  0.74505805969E-08  0.10566000000E+00  0.10566000000E+00 0. -1.
     999900   -1    0    0    0    0 -0.00000000000E+00 -0.00000000000E+00 -0.74505805969E-08  0.93827000000E+00  0.93827000000E+00 0. -1.
     999902    2    1    2    0    0  0.29896807516E-02  0.23636875291E-01 -0.25692217848E-02  0.10199666746E+01  0.10196851359E+01 0.  0.
     999903    2    3    3    0    0 -0.67558033192E-01  0.94440589673E-01  0.59601448695E-01  0.13212922427E+00  0.20559338325E-01 0.  0.
         14    1    1    2    0    0 -0.29896807516E-02 -0.23636875291E-01  0.25692217848E-02  0.23963325418E-01  0.00000000000E+00 0. -1.
     999901    1    3    3    0    0  0.70547713943E-01 -0.70803714382E-01 -0.62170670480E-01  0.88783745031E+00  0.88000000000E+00 0.  1.
        -11    1    4    4    0    0 -0.56279922056E-01  0.64446073551E-01  0.47563175723E-01  0.97894038780E-01  0.51100000000E-03 0.  1.
         11    1    4    4    0    0 -0.11278111135E-01  0.29994516123E-01  0.12038272972E-01  0.34235185487E-01  0.51100000000E-03 0. -1.
</event>
<event>
 8    1  0.1146431E+005  0.1043930E+01  0.7957747E-01            NaN
         13   -1    0    0    0    0  0.00000000000E+00  0.00000000000E+00  0.74505805969E-08  0.10566000000E+00  0.10566000000E+00 0. -1.
     999900   -1    0    0    0    0 -0.00000000000E+00 -0.00000000000E+00 -0.74505805969E-08  0.93827000000E+00  0.93827000000E+00 0. -1.
     999902    2    1    2    0    0  0.20121341490E-01  0.10191501948E-01 -0.23116179826E-02  0.10212566969E+01  0.10210049766E+01 0.  0.
     999903    2    3    3    0    0 -0.20034662543E-01  0.43473637049E-01  0.12047606973E+00  0.13120219216E+00  0.20203639000E-01 0.  0.
         14    1    1    2    0    0 -0.20121341490E-01 -0.10191501948E-01  0.23116179826E-02  0.22673303090E-01  0.00000000000E+00 0. -1.
     999901    1    3    3    0    0  0.40156004033E-01 -0.33282135102E-01 -0.12278768771E+00  0.89005450475E+00  0.88000000000E+00 0. -1.
        -11    1    4    4    0    0 -0.90844398154E-02  0.37032267062E-01  0.10083650352E+00  0.10780620304E+00  0.51100000000E-03 0.  1.
         11    1    4    4    0    0 -0.10950222728E-01  0.64413699869E-02  0.19639566208E-01  0.23395989121E-01  0.51100000000E-03 0. -1.
</event>
<event>
 8    1  0.1146431E+005  0.1043930E+01  0.7957747E-01            NaN
         13   -1    0    0    0    0  0.00000000000E+00  0.00000000000E+00  0.74505805969E-08  0.10566000000E+00  0.10566000000E+00 0.  1.
     999900   -1    0    0    0    0 -0.00000000000E+00 -0.00000000000E+00 -0.74505805969E-08  0.93827000000E+00  0.93827000000E+00 0. -1.
     999902    2    1    2    0    0 -0.61442370902E-02 -0.13147384359E-01  0.18892950087E-01  0.10201067146E+01  0.10198284955E+01 0.  0.
     999903    2    3    3    0    0  0.55171125024E-01 -0.11760219973E+00 -0.52110412937E-02  0.13148340604E+00  0.19662164052E-01 0.  0.
         14    1    1    2    0    0  0.61442370902E-02  0.13147384359E-01 -0.18892950087E-01  0.23823285414E-01  0.00000000000E+00 0. -1.
     999901    1    3    3    0    0 -0.61315362114E-01  0.10445481537E+00  0.24103991381E-01  0.88862330854E+00  0.88000000000E+00 0. -1.
        -11    1    4    4    0    0  0.10553251087E-01 -0.44006467541E-01 -0.36386173438E-02  0.45403094070E-01  0.51100000000E-03 0. -1.
         11    1    4    4    0    0  0.44617873937E-01 -0.73595732191E-01 -0.15724239499E-02  0.86080311974E-01  0.51100000000E-03 0.  1.
</event>
<event>
 8    1  0.1146431E+005  0.1043930E+01  0.7957747E-01            NaN
         13   -1    0    0    0    0  0.00000000000E+00  0.00000000000E+00  0.74505805969E-08  0.10566000000E+00  0.10566000000E+00 0.  1.
     999900   -1    0    0    0    0 -0.00000000000E+00 -0.00000000000E+00 -0.74505805969E-08  0.93827000000E+00  0.93827000000E+00 0.  1.
     999902    2    1    2    0    0 -0.72953045372E-02 -0.21008797707E-01 -0.86318254430E-02  0.10200741944E+01  0.10197952062E+01 0.  0.
     999903    2    3    3    0    0 -0.83347116057E-01  0.43292128137E-01  0.86404669165E-01  0.12937198694E+00  0.21222488970E-01 0.  0.
         14    1    1    2    0    0  0.72953045372E-02  0.21008797707E-01  0.86318254430E-02  0.23855805580E-01  0.00000000000E+00 0.  1.
     999901    1    3    3    0    0  0.76051811520E-01 -0.64300925844E-01 -0.95036494608E-01  0.89070220748E+00  0.88000000000E+00 0.  1.
        -11    1    4    4    0    0 -0.79527816720E-02 -0.81051380949E-03  0.13030891366E-01  0.15296042617E-01  0.51100000000E-03 0. -1.
         11    1    4    4    0    0 -0.75394334385E-01  0.44102641946E-01  0.73373777799E-01  0.11407594432E+00  0.51100000000E-03 0.  1.
</event>
<event>
 8    1  0.1146431E+005  0.1043930E+01  0.7957747E-01            NaN
         13   -1    0    0    0    0  0.00000000000E+00  0.00000000000E+00  0.74505805969E-08  0.10566000000E+00  0.10566000000E+00 0.  1.
     999900   -1    0    0    0    0 -0.00000000000E+00 -0.00000000000E+00 -0.74505805969E-08  0.93827000000E+00  0.93827000000E+00 0.  1.
     999902    2    1    2    0    0  0.17421580338E-01  0.14128516512E-01 -0.11513372765E-01  0.10187172216E+01  0.10184051716E+01 0.  0.
     999903    2    3    3    0    0  0.80599887162E-01 -0.96902105906E-01  0.10545035461E-01  0.12921968317E+00  0.26460703052E-01 0.  0.
         14    1    1    2    0    0 -0.17421580338E-01 -0.14128516512E-01  0.11513372765E-01  0.25212778362E-01  0.00000000000E+00 0.  1.
     999901    1    3    3    0    0 -0.63178306824E-01  0.11103062242E+00 -0.22058408226E-01  0.88949753847E+00  0.88000000000E+00 0. -1.
        -11    1    4    4    0    0  0.62257663448E-02 -0.81555685390E-02 -0.65344584768E-02  0.12175127653E-01  0.51100000000E-03 0. -1.
         11    1    4    4    0    0  0.74374120818E-01 -0.88746537367E-01  0.17079493938E-01  0.11704455552E+00  0.51100000000E-03 0.  1.
</event>
<event>
 8    1  0.1146431E+005  0.1043930E+01  0.7957747E-01            NaN
         13   -1    0    0    0    0  0.00000000000E+00  0.00000000000E+00  0.74505805969E-08  0.10566000000E+00  0.10566000000E+00 0.  1.
     999900   -1    0    0    0    0 -0.00000000000E+00 -0.00000000000E+00 -0.74505805969E-08  0.93827000000E+00  0.93827000000E+00 0. -1.
     999902    2    1    2    0    0 -0.24868138691E-03  0.18605395110E-01 -0.14765819855E-01  0.10201760107E+01  0.10198994269E+01 0.  0.
     999903    2    3    3    0    0 -0.59176737846E-01  0.62016998535E-01 -0.99609204569E-01  0.13307089686E+00  0.20925476017E-01 0.  0.
         14    1    1    2    0    0  0.24868138691E-03 -0.18605395110E-01  0.14765819855E-01  0.23753989257E-01  0.00000000000E+00 0.  1.
     999901    1    3    3    0    0  0.58928056459E-01 -0.43411603425E-01  0.84843384714E-01  0.88710511388E+00  0.88000000000E+00 0.  1.
        -11    1    4    4    0    0 -0.33273987672E-01  0.32627116706E-01 -0.69408311837E-01  0.83603001580E-01  0.51100000000E-03 0. -1.
         11    1    4    4    0    0 -0.25902750174E-01  0.29389881829E-01 -0.30200892732E-01  0.49467895279E-01  0.51100000000E-03 0.  1.
</event>
<event>
 8    1  0.1146431E+005  0.1043930E+01  0.7957747E-01            NaN
         13   -1    0    0    0    0  0.00000000000E+00  0.00000000000E+00  0.74505805969E-08  0.10566000000E+00  0.10566000000E+00 0.  1.
     999900   -1    0    0    0    0 -0.00000000000E+00 -0.00000000000E+00 -0.74505805969E-08  0.93827000000E+00  0.93827000000E+00 0.  1.
     999902    2    1    2    0    0 -0.10634990942E-01  0.14983546697E-01  0.68731283633E-02  0.10243124161E+01  0.10241245414E+01 0.  0.
     999903    2    3    3    0    0 -0.11569025635E+00  0.44543969965E-01  0.52040626303E-01  0.13642135845E+00  0.23111892602E-01 0.  0.
         14    1    1    2    0    0  0.10634990942E-01 -0.14983546697E-01 -0.68731283633E-02  0.19617583884E-01  0.00000000000E+00 0. -1.
     999901    1    3    3    0    0  0.10505526541E+00 -0.29560423268E-01 -0.45167497940E-01  0.88789105767E+00  0.88000000000E+00 0.  1.
        -11    1    4    4    0    0 -0.82869865116E-01  0.27646608172E-01  0.25678722953E-01  0.91057165678E-01  0.51100000000E-03 0. -1.
         11    1    4    4    0    0 -0.32820391237E-01  0.16897361793E-01  0.26361903350E-01  0.45364192771E-01  0.51100000000E-03 0.  1.
</event>
<event>
 8    1  0.1146431E+005  0.1043930E+01  0.7957747E-01            NaN
         13   -1    0    0    0    0  0.00000000000E+00  0.00000000000E+00  0.74505805969E-08  0.10566000000E+00  0.10566000000E+00 0. -1.
     999900   -1    0    0    0    0 -0.00000000000E+00 -0.00000000000E+00 -0.74505805969E-08  0.93827000000E+00  0.93827000000E+00 0. -1.
     999902    2    1    2    0    0 -0.11989580192E-01  0.16969102264E-01 -0.63417707545E-02  0.10222063143E+01  0.10219754549E+01 0.  0.
     999903    2    3    3    0    0  0.33740076468E-01 -0.52843776839E-01 -0.11463532939E+00  0.13164888524E+00  0.16103190031E-01 0.  0.
         14    1    1    2    0    0  0.11989580192E-01 -0.16969102264E-01  0.63417707545E-02  0.21723685717E-01  0.00000000000E+00 0. -1.
     999901    1    3    3    0    0 -0.45729656660E-01  0.69812879103E-01  0.10829355864E+00  0.89055742905E+00  0.88000000000E+00 0.  1.
        -11    1    4    4    0    0  0.27801919765E-01 -0.29410091653E-01 -0.68610883588E-01  0.79659366690E-01  0.51100000000E-03 0.  1.
         11    1    4    4    0    0  0.59381567021E-02 -0.23433685185E-01 -0.46024445802E-01  0.51989518547E-01  0.51100000000E-03 0. -1.
</event>
<event>
 7    1  0.1146431E+005  0.1043930E+01  0.7957747E-01            NaN
         13   -1    0    0    0    0  0.00000000000E+00  0.00000000000E+00  0.74505805969E-08  0.10566000000E+00  0.10566000000E+00 0. -1.
     999900   -1    0    0    0    0 -0.00000000000E+00 -0.00000000000E+00 -0.74505805969E-08  0.93827000000E+00  0.93827000000E+00 0.  1.
     999903    2    1    2    0    0  0.51883796837E-01 -0.95133626065E-01  0.48646971796E-01  0.12057459310E+00  0.20721231958E-01 0.  0.
         14    1    1    2    0    0 -0.13938711263E-01  0.29243013331E-01 -0.22954060023E-01  0.39703027239E-01  0.00000000000E+00 0. -1.
     999901    1    1    2    0    0 -0.37945085575E-01  0.65890612733E-01 -0.25692911772E-01  0.88365237966E+00  0.88000000000E+00 0. -1.
        -11    1    3    3    0    0  0.30106436233E-01 -0.70134358686E-01  0.26925533906E-01  0.80934981733E-01  0.51100000000E-03 0.  1.
         11    1    3    3    0    0  0.21777360604E-01 -0.24999267379E-01  0.21721437889E-01  0.39639611367E-01  0.51100000000E-03 0. -1.
</event>
<event>
 8    1  0.1146431E+005  0.1043930E+01  0.7957747E-01            NaN
         13   -1    0    0    0    0  0.00000000000E+00  0.00000000000E+00  0.74505805969E-08  0.10566000000E+00  0.10566000000E+00 0. -1.
     999900   -1    0    0    0    0 -0.00000000000E+00 -0.00000000000E+00 -0.74505805969E-08  0.93827000000E+00  0.93827000000E+00 0.  1.
     999902    2    1    2    0    0 -0.95835970283E-02 -0.18763439153E-01 -0.11113579134E-01  0.10201093446E+01  0.10198311877E+01 0.  0.
     999903    2    3    3    0    0 -0.26629340827E-01 -0.54168597390E-01  0.11368071650E+00  0.13043654027E+00  0.21143012966E-01 0.  0.
         14    1    1    2    0    0  0.95835970283E-02  0.18763439153E-01  0.11113579134E-01  0.23820655365E-01  0.00000000000E+00 0. -1.
     999901    1    3    3    0    0  0.17045743798E-01  0.35405158237E-01 -0.12479429563E+00  0.88967280437E+00  0.88000000000E+00 0.  1.
        -11    1    4    4    0    0 -0.11110487390E-01 -0.36928281363E-01  0.86444457373E-01  0.94657520704E-01  0.51100000000E-03 0.  1.
         11    1    4    4    0    0 -0.15518853437E-01 -0.17240316027E-01  0.27236259124E-01  0.35779019562E-01  0.51100000000E-03 0. -1.
</event>
<event>
 8    1  0.1146431E+005  0.1043930E+01  0.7957747E-01            NaN
         13   -1    0    0    0    0  0.00000000000E+00  0.00000000000E+00  0.74505805969E-08  0.10566000000E+00  0.10566000000E+00 0. -1.
     999900   -1    0    0    0    0 -0.00000000000E+00 -0.00000000000E+00 -0.74505805969E-08  0.93827000000E+00  0.93827000000E+00 0. -1.
     999902    2    1    2    0    0  0.72258151653E-02 -0.20628121297E-01 -0.40904217108E-02  0.10216934683E+01  0.10214514574E+01 0.  0.
     999903    2    3    3    0    0 -0.97088620096E-01 -0.14621253004E-01  0.84424897914E-01  0.13110234679E+00  0.20500750104E-01 0.  0.
         14    1    1    2    0    0 -0.72258151653E-02  0.20628121297E-01  0.40904217108E-02  0.22236531717E-01  0.00000000000E+00 0. -1.
     999901    1    3    3    0    0  0.10431443526E+00 -0.60068682927E-02 -0.88515319625E-01  0.89059112149E+00  0.88000000000E+00 0.  1.
        -11    1    4    4    0    0 -0.76931518109E-01 -0.59018560836E-02  0.56820145521E-01  0.95823172781E-01  0.51100000000E-03 0. -1.
         11    1    4    4    0    0 -0.20157101988E-01 -0.87193969205E-02  0.27604752393E-01  0.35279174011E-01  0.51100000000E-03 0.  1.
</event>
<event>
 8    1  0.1146431E+005  0.1043930E+01  0.7957747E-01            NaN
         13   -1    0    0    0    0  0.00000000000E+00  0.00000000000E+00  0.74505805969E-08  0.10566000000E+00  0.10566000000E+00 0. -1.
     999900   -1    0    0    0    0 -0.00000000000E+00 -0.00000000000E+00 -0.74505805969E-08  0.93827000000E+00  0.93827000000E+00 0.  1.
     999902    2    1    2    0    0  0.21439209997E-01 -0.95020571087E-02 -0.27927213864E-02  0.10203137321E+01  0.10200403835E+01 0.  0.
     999903    2    3    3    0    0 -0.95656598586E-01  0.29558535644E-01 -0.78086640899E-01  0.12851424089E+00  0.19861891693E-01 0.  0.
         14    1    1    2    0    0 -0.21439209997E-01  0.95020571087E-02  0.27927213864E-02  0.23616267853E-01  0.00000000000E+00 0. -1.
     999901    1    3    3    0    0  0.11709580858E+00 -0.39060592752E-01  0.75293919513E-01  0.89179949126E+00  0.88000000000E+00 0. -1.
        -11    1    4    4    0    0 -0.84673756392E-02  0.84028856759E-02 -0.13135582774E-01  0.17751326534E-01  0.51100000000E-03 0.  1.
         11    1    4    4    0    0 -0.87189222947E-01  0.21155649968E-01 -0.64951058125E-01  0.11076291435E+00  0.51100000000E-03 0. -1.
</event>
<event>
 8    1  0.1146431E+005  0.1043930E+01  0.7957747E-01            NaN
         13   -1    0    0    0    0  0.00000000000E+00  0.00000000000E+00  0.74505805969E-08  0.10566000000E+00  0.10566000000E+00 0.  1.
     999900   -1    0    0    0    0 -0.00000000000E+00 -0.00000000000E+00 -0.74505805969E-08  0.93827000000E+00  0.93827000000E+00 0. -1.
     999902    2    1    2    0    0  0.14398339722E-01 -0.23188719797E-01  0.20965820578E-02  0.10165543800E+01  0.10161857030E+01 0.  0.
     999903    2    3    3    0    0  0.30278977178E-01 -0.57517177228E-01 -0.10948033983E+00  0.12870301458E+00  0.18801037645E-01 0.  0.
         14    1    1    2    0    0 -0.14398339722E-01  0.23188719797E-01 -0.20965820578E-02  0.27375619973E-01  0.00000000000E+00 0. -1.
     999901    1    3    3    0    0 -0.15880637457E-01  0.34328457431E-01  0.11157692189E+00  0.88785136545E+00  0.88000000000E+00 0.  1.
        -11    1    4    4    0    0  0.89362900379E-02 -0.28752581321E-01 -0.35834750157E-01  0.46807677277E-01  0.51100000000E-03 0.  1.
         11    1    4    4    0    0  0.21342687140E-01 -0.28764595906E-01 -0.73645589673E-01  0.81895337299E-01  0.51100000000E-03 0. -1.
</event>
<event>
 8    1  0.1146431E+005  0.1043930E+01  0.7957747E-01            NaN
         13   -1    0    0    0    0  0.00000000000E+00  0.00000000000E+00  0.74505805969E-08  0.10566000000E+00  0.10566000000E+00 0.  1.
     999900   -1    0    0    0    0 -0.00000000000E+00 -0.00000000000E+00 -0.74505805969E-08  0.93827000000E+00  0.93827000000E+00 0. -1.
     999902    2    1    2    0    0 -0.34644598758E-02  0.21577963076E-01 -0.93549763065E-02  0.10201576094E+01  0.10198805918E+01 0.  0.
     999903    2    3    3    0    0 -0.23755191974E-01  0.11267684353E+00 -0.64657995800E-01  0.13349581154E+00  0.19496026923E-01 0.  0.
         14    1    1    2    0    0  0.34644598758E-02 -0.21577963076E-01  0.93549763065E-02  0.23772390591E-01  0.00000000000E+00 0.  1.
     999901    1    3    3    0    0  0.20290732098E-01 -0.91098880451E-01  0.55303019493E-01  0.88666179787E+00  0.88000000000E+00 0. -1.
        -11    1    4    4    0    0 -0.12363861165E-01  0.23053080877E-01 -0.18478126888E-01  0.32031420436E-01  0.51100000000E-03 0. -1.
         11    1    4    4    0    0 -0.11391330809E-01  0.89623762650E-01 -0.46179868912E-01  0.10146439111E+00  0.51100000000E-03 0.  1.
</event>
<event>
 8    1  0.1146431E+005  0.1043930E+01  0.7957747E-01            NaN
         13   -1    0    0    0    0  0.00000000000E+00  0.00000000000E+00  0.74505805969E-08  0.10566000000E+00  0.10566000000E+00 0. -1.
     999900   -1    0    0    0    0 -0.00000000000E+00 -0.00000000000E+00 -0.74505805969E-08  0.93827000000E+00  0.93827000000E+00 0. -1.
     999902    2    1    2    0    0 -0.32073233781E-02  0.12804886915E-01 -0.20052265893E-01  0.10199228048E+01  0.10196402220E+01 0.  0.
     999903    2    3    3    0    0  0.12395611235E+00  0.24649149767E-01  0.21328799719E-01  0.12974123991E+00  0.20128916038E-01 0.  0.
         14    1    1    2    0    0  0.32073233781E-02 -0.12804886915E-01  0.20052265893E-01  0.24007195163E-01  0.00000000000E+00 0. -1.
     999901    1    3    3    0    0 -0.12716343573E+00 -0.11844262853E-01 -0.41381065612E-01  0.89018156493E+00  0.88000000000E+00 0. -1.
        -11    1    4    4    0    0  0.85037295428E-01  0.24107746953E-01  0.20834162237E-01  0.90812160606E-01  0.51100000000E-03 0. -1.
         11    1    4    4    0    0  0.38918816926E-01  0.54140281411E-03  0.49463748235E-03  0.38929079300E-01  0.51100000000E-03 0.  1.
</event>
<event>
 8    1  0.1146431E+005  0.1043930E+01  0.7957747E-01            NaN
         13   -1    0    0    0    0  0.00000000000E+00  0.00000000000E+00  0.74505805969E-08  0.10566000000E+00  0.10566000000E+00 0. -1.
     999900   -1    0    0    0    0 -0.00000000000E+00 -0.00000000000E+00 -0.74505805969E-08  0.93827000000E+00  0.93827000000E+00 0. -1.
     999902    2    1    2    0    0  0.41281047645E-02  0.19641021537E-01  0.12066703402E-01  0.10205117100E+01  0.10202429779E+01 0.  0.
     999903    2    3    3    0    0 -0.63091959344E-01  0.11137855902E+00  0.30751700530E-01  0.13299639073E+00  0.18883699825E-01 0.  0.
         14    1    1    2    0    0 -0.41281047645E-02 -0.19641021537E-01 -0.12066703402E-01  0.23418290009E-01  0.00000000000E+00 0.  1.
     999901    1    3    3    0    0  0.67220064108E-01 -0.91737537482E-01 -0.18684997128E-01  0.88751531926E+00  0.88000000000E+00 0. -1.
        -11    1    4    4    0    0 -0.59120134613E-01  0.90348558360E-01  0.25024072939E-01  0.11083554331E+00  0.51100000000E-03 0.  1.
         11    1    4    4    0    0 -0.39718247311E-02  0.21030000659E-01  0.57276275914E-02  0.22160847417E-01  0.51100000000E-03 0. -1.
</event>
<event>
 8    1  0.1146431E+005  0.1043930E+01  0.7957747E-01            NaN
         13   -1    0    0    0    0  0.00000000000E+00  0.00000000000E+00  0.74505805969E-08  0.10566000000E+00  0.10566000000E+00 0. -1.
     999900   -1    0    0    0    0 -0.00000000000E+00 -0.00000000000E+00 -0.74505805969E-08  0.93827000000E+00  0.93827000000E+00 0.  1.
     999902    2    1    2    0    0  0.14055384752E-01  0.17997276312E-01 -0.64107579000E-02  0.10202117873E+01  0.10199360457E+01 0.  0.
     999903    2    3    3    0    0  0.12660681375E+00 -0.27724997418E-01  0.12067982733E-01  0.13167376657E+00  0.19859099343E-01 0.  0.
         14    1    1    2    0    0 -0.14055384752E-01 -0.17997276312E-01  0.64107579000E-02  0.23718212665E-01  0.00000000000E+00 0. -1.
     999901    1    3    3    0    0 -0.11255142900E+00  0.45722273731E-01 -0.18478740633E-01  0.88853802076E+00  0.88000000000E+00 0.  1.
        -11    1    4    4    0    0  0.76252162314E-01 -0.24716247575E-01  0.13062923019E-01  0.81216908526E-01  0.51100000000E-03 0.  1.
         11    1    4    4    0    0  0.50354651435E-01 -0.30087498436E-02 -0.99494028650E-03  0.50456858047E-01  0.51100000000E-03 0. -1.
</event>
<event>
 8    1  0.1146431E+005  0.1043930E+01  0.7957747E-01            NaN
         13   -1    0    0    0    0  0.00000000000E+00  0.00000000000E+00  0.74505805969E-08  0.10566000000E+00  0.10566000000E+00 0. -1.
     999900   -1    0    0    0    0 -0.00000000000E+00 -0.00000000000E+00 -0.74505805969E-08  0.93827000000E+00  0.93827000000E+00 0.  1.
     999902    2    1    2    0    0 -0.81737188280E-02  0.20367279411E-01 -0.96716820872E-02  0.10199471481E+01  0.10196651449E+01 0.  0.
     999903    2    3    3    0    0 -0.21328463101E-01 -0.69402172604E-01 -0.10568037668E+00  0.13008801811E+00  0.21976932031E-01 0.  0.
         14    1    1    2    0    0  0.81737188280E-02 -0.20367279411E-01  0.96716820872E-02  0.23982851884E-01  0.00000000000E+00 0. -1.
     999901    1    3    3    0    0  0.13154744273E-01  0.89769452016E-01  0.96008694590E-01  0.88985913000E+00  0.88000000000E+00 0. -1.
        -11    1    4    4    0    0 -0.20812384652E-01 -0.44505211551E-01 -0.82722164844E-01  0.96213756229E-01  0.51100000000E-03 0.  1.
         11    1    4    4    0    0 -0.51607844946E-03 -0.24896961053E-01 -0.22958211833E-01  0.33874261885E-01  0.51100000000E-03 0. -1.
</event>
<event>
 8    1  0.1146431E+005  0.1043930E+01  0.7957747E-01            NaN
         13   -1    0    0    0    0  0.00000000000E+00  0.00000000000E+00  0.74505805969E-08  0.10566000000E+00  0.10566000000E+00 0.  1.
     999900   -1    0    0    0    0 -0.00000000000E+00 -0.00000000000E+00 -0.74505805969E-08  0.93827000000E+00  0.93827000000E+00 0. -1.
     999902    2    1    2    0    0 -0.54965369925E-02  0.45537410478E-02 -0.22556805035E-01  0.10202707961E+01  0.10199964409E+01 0.  0.
     999903    2    3    3    0    0 -0.98577691074E-01  0.68843411538E-01  0.46215866957E-01  0.13036802421E+00  0.20073337756E-01 0.  0.
         14    1    1    2    0    0  0.54965369925E-02 -0.45537410478E-02  0.22556805035E-01  0.23659203914E-01  0.00000000000E+00 0.  1.
     999901    1    3    3    0    0  0.93081154081E-01 -0.64289670490E-01 -0.68772671992E-01  0.88990277187E+00  0.88000000000E+00 0. -1.
        -11    1    4    4    0    0 -0.54359165873E-01  0.25918552970E-01  0.24680080997E-01  0.65085004583E-01  0.51100000000E-03 0. -1.
         11    1    4    4    0    0 -0.44218525201E-01  0.42924858568E-01  0.21535785960E-01  0.65283019629E-01  0.51100000000E-03 0.  1.
</event>
<event>
 8    1  0.1146431E+005  0.1043930E+01  0.7957747E-01            NaN
         13   -1    0    0    0    0  0.00000000000E+00  0.00000000000E+00  0.74505805969E-08  0.10566000000E+00  0.10566000000E+00 0. -1.
     999900   -1    0    0    0    0 -0.00000000000E+00 -0.00000000000E+00 -0.74505805969E-08  0.93827000000E+00  0.93827000000E+00 0. -1.
     999902    2    1    2    0    0  0.39667740861E-02 -0.22613855395E-01  0.50194037713E-02  0.10204285922E+01  0.10201579268E+01 0.  0.
     999903    2    3    3    0    0 -0.10262656762E+00  0.30823181277E-01 -0.69607412990E-01  0.12925699307E+00  0.19490957636E-01 0.  0.
         14    1    1    2    0    0 -0.39667740861E-02  0.22613855395E-01 -0.50194037713E-02  0.23501407760E-01  0.00000000000E+00 0. -1.
     999901    1    3    3    0    0  0.10659334171E+00 -0.53437036672E-01  0.74626816761E-01  0.89117159917E+00  0.88000000000E+00 0. -1.
        -11    1    4    4    0    0 -0.13850775956E-01  0.11546891030E-01 -0.10456586944E-01  0.20851283380E-01  0.51100000000E-03 0. -1.
         11    1    4    4    0    0 -0.88775791663E-01  0.19276290247E-01 -0.59150826046E-01  0.10840570969E+00  0.51100000000E-03 0.  1.
</event>
<event>
 8    1  0.1146431E+005  0.1043930E+01  0.7957747E-01            NaN
         13   -1    0    0    0    0  0.00000000000E+00  0.00000000000E+00  0.74505805969E-08  0.10566000000E+00  0.10566000000E+00 0.  1.
     999900   -1    0    0    0    0 -0.00000000000E+00 -0.00000000000E+00 -0.74505805969E-08  0.93827000000E+00  0.93827000000E+00 0. -1.
     999902    2    1    2    0    0  0.47026154675E-02 -0.17363598772E-01  0.16389180983E-01  0.10195945442E+01  0.10193040862E+01 0.  0.
     999903    2    3    3    0    0  0.10021955634E+00 -0.18441585570E-01 -0.77340070395E-01  0.12947667528E+00  0.19966757383E-01 0.  0.
         14    1    1    2    0    0 -0.47026154675E-02  0.17363598772E-01 -0.16389180983E-01  0.24335455777E-01  0.00000000000E+00 0. -1.
     999901    1    3    3    0    0 -0.95516940877E-01  0.10779867982E-02  0.93729251378E-01  0.89011786894E+00  0.88000000000E+00 0.  1.
        -11    1    4    4    0    0  0.88074420314E-01 -0.10623717621E-01 -0.71288364288E-01  0.11380799134E+00  0.51100000000E-03 0. -1.
         11    1    4    4    0    0  0.12145136031E-01 -0.78178679492E-02 -0.60517061064E-02  0.15668683936E-01  0.51100000000E-03 0.  1.
</event>
<event>
 8    1  0.1146431E+005  0.1043930E+01  0.7957747E-01            NaN
         13   -1    0    0    0    0  0.00000000000E+00  0.00000000000E+00  0.74505805969E-08  0.10566000000E+00  0.10566000000E+00 0. -1.
     999900   -1    0    0    0    0 -0.00000000000E+00 -0.00000000000E+00 -0.74505805969E-08  0.93827000000E+00  0.93827000000E+00 0.  1.
     999902    2    1    2    0    0  0.18729446454E-01 -0.17920288973E-02  0.14658485963E-01  0.10200789048E+01  0.10198000281E+01 0.  0.
     999903    2    3    3    0    0 -0.87474842761E-01  0.17884054741E-01 -0.88728579690E-01  0.12746735173E+00  0.20086746190E-01 0.  0.
         14    1    1    2    0    0 -0.18729446454E-01  0.17920288973E-02 -0.14658485963E-01  0.23851095211E-01  0.00000000000E+00 0.  1.
     999901    1    3    3    0    0  0.10620428922E+00 -0.19676083639E-01  0.10338706565E+00  0.89261155306E+00  0.88000000000E+00 0. -1.
        -11    1    4    4    0    0 -0.25988345399E-01  0.75946280298E-02 -0.15156653537E-01  0.31033171591E-01  0.51100000000E-03 0.  1.
         11    1    4    4    0    0 -0.61486497362E-01  0.10289426712E-01 -0.73571926152E-01  0.96434180137E-01  0.51100000000E-03 0. -1.
</event>
<event>
 8    1  0.1146431E+005  0.1043930E+01  0.7957747E-01            NaN
         13   -1    0    0    0    0  0.00000000000E+00  0.00000000000E+00  0.74505805969E-08  0.10566000000E+00  0.10566000000E+00 0. -1.
     999900   -1    0    0    0    0 -0.00000000000E+00 -0.00000000000E+00 -0.74505805969E-08  0.93827000000E+00  0.93827000000E+00 0.  1.
     999902    2    1    2    0    0 -0.85835680499E-02 -0.19038034716E-01  0.10572830726E-01  0.10205225406E+01  0.10202540599E+01 0.  0.
     999903    2    3    3    0    0  0.78354486690E-01  0.18209247854E-01 -0.98494067119E-01  0.12875958239E+00  0.20172915191E-01 0.  0.
         14    1    1    2    0    0  0.85835680499E-02  0.19038034716E-01 -0.10572830726E-01  0.23407459406E-01  0.00000000000E+00 0.  1.
     999901    1    3    3    0    0 -0.86938054740E-01 -0.37247282569E-01  0.10906689785E+00  0.89176295820E+00  0.88000000000E+00 0. -1.
        -11    1    4    4    0    0  0.22792986260E-02 -0.31317822013E-02 -0.51366049577E-02  0.64536108865E-02  0.51100000000E-03 0. -1.
         11    1    4    4    0    0  0.76075188064E-01  0.21341030055E-01 -0.93357462162E-01  0.12230597150E+00  0.51100000000E-03 0.  1.
</event>
<event>
 8    1  0.1146431E+005  0.1043930E+01  0.7957747E-01            NaN
         13   -1    0    0    0    0  0.00000000000E+00  0.00000000000E+00  0.74505805969E-08  0.10566000000E+00  0.10566000000E+00 0. -1.
     999900   -1    0    0    0    0 -0.00000000000E+00 -0.00000000000E+00 -0.74505805969E-08  0.93827000000E+00  0.93827000000E+00 0. -1.
     999902    2    1    2    0    0 -0.20369192368E-01 -0.12382119054E-01  0.28106455419E-02  0.10199274877E+01  0.10196450164E+01 0.  0.
     999903    2    3    3    0    0  0.90225801983E-01 -0.88701764211E-02  0.89507779472E-01  0.12877094724E+00  0.18733363106E-01 0.  0.
         14    1    1    2    0    0  0.20369192368E-01  0.12382119054E-01 -0.28106455419E-02  0.24002512335E-01  0.00000000000E+00 0. -1.
     999901    1    3    3    0    0 -0.11059499435E+00 -0.35119426331E-02 -0.86697133930E-01  0.89115654043E+00  0.88000000000E+00 0.  1.
        -11    1    4    4    0    0  0.48086767894E-01 -0.26268584293E-02  0.60044751738E-01  0.76973183408E-01  0.51100000000E-03 0. -1.
         11    1    4    4    0    0  0.42139034089E-01 -0.62433179918E-02  0.29463027734E-01  0.51797763829E-01  0.51100000000E-03 0.  1.
</event>
<event>
 8    1  0.1146431E+005  0.1043930E+01  0.7957747E-01            NaN
         13   -1    0    0    0    0  0.00000000000E+00  0.00000000000E+00  0.74505805969E-08  0.10566000000E+00  0.10566000000E+00 0.  1.
     999900   -1    0    0    0    0 -0.00000000000E+00 -0.00000000000E+00 -0.74505805969E-08  0.93827000000E+00  0.93827000000E+00 0.  1.
     999902    2    1    2    0    0  0.23973009726E-01 -0.14830012172E-02  0.24377849769E-02  0.10197877697E+01  0.10195019607E+01 0.  0.
     999903    2    3    3    0    0  0.36938713238E-02  0.12414768084E+00 -0.31941628337E-01  0.12996966707E+00  0.21108183079E-01 0.  0.
         14    1    1    2    0    0 -0.23973009726E-01  0.14830012172E-02 -0.24377849769E-02  0.24142230294E-01  0.00000000000E+00 0. -1.
     999901    1    3    3    0    0  0.20279138403E-01 -0.12563068206E+00  0.34379413314E-01  0.88981810264E+00  0.88000000000E+00 0. -1.
        -11    1    4    4    0    0  0.22300133469E-02  0.86571122381E-01 -0.32104834208E-01  0.92360780044E-01  0.51100000000E-03 0. -1.
         11    1    4    4    0    0  0.14638579769E-02  0.37576558459E-01  0.16320587108E-03  0.37608887021E-01  0.51100000000E-03 0.  1.
</event>
<event>
 8    1  0.1146431E+005  0.1043930E+01  0.7957747E-01            NaN
         13   -1    0    0    0    0  0.00000000000E+00  0.00000000000E+00  0.74505805969E-08  0.10566000000E+00  0.10566000000E+00 0. -1.
     999900   -1    0    0    0    0 -0.00000000000E+00 -0.00000000000E+00 -0.74505805969E-08  0.93827000000E+00  0.93827000000E+00 0. -1.
     999902    2    1    2    0    0 -0.77671302906E-02 -0.23233147328E-01  0.64876557427E-02  0.10185883914E+01  0.10182731039E+01 0.  0.
     999903    2    3    3    0    0  0.41733151135E-01  0.61609405658E-01 -0.10037252208E+00  0.12669846871E+00  0.20987711051E-01 0.  0.
         14    1    1    2    0    0  0.77671302906E-02  0.23233147328E-01 -0.64876557427E-02  0.25341608567E-01  0.00000000000E+00 0.  1.
     999901    1    3    3    0    0 -0.49500281426E-01 -0.84842552985E-01  0.10686017782E+00  0.89188992273E+00  0.88000000000E+00 0.  1.
        -11    1    4    4    0    0  0.20786226354E-01  0.45419303536E-01 -0.74354194240E-01  0.89575597468E-01  0.51100000000E-03 0. -1.
         11    1    4    4    0    0  0.20946924781E-01  0.16190102122E-01 -0.26018327838E-01  0.37122871238E-01  0.51100000000E-03 0.  1.
</event>
<event>
 8    1  0.1240703E+005  0.1043930E+01  0.7957747E-01            NaN
         13   -1    0    0    0    0  0.00000000000E+00  0.00000000000E+00  0.74505805969E-08  0.10566000000E+00  0.10566000000E+00 0.  1.
     999900   -1    0    0    0    0 -0.00000000000E+00 -0.00000000000E+00 -0.74505805969E-08  0.93827000000E+00  0.93827000000E+00 0.  1.
     999902    2    1    2    0    0  0.12186059441E-01 -0.11653368972E-01  0.19261489087E-01  0.10183310544E+01  0.10180092487E+01 0.  0.
     999903    2    3    3    0    0 -0.83524144701E-01 -0.74545092429E-01 -0.57702315093E-01  0.12757899059E+00  0.20336866031E-01 0.  0.
         14    1    1    2    0    0 -0.12186059441E-01  0.11653368972E-01 -0.19261489087E-01  0.25598945583E-01  0.00000000000E+00 0. -1.
     999901    1    3    3    0    0  0.95710204142E-01  0.62891723457E-01  0.76963804180E-01  0.89075206383E+00  0.88000000000E+00 0. -1.
        -11    1    4    4    0    0 -0.36126420119E-01 -0.27441971689E-01 -0.13052120792E-01  0.47210158006E-01  0.51100000000E-03 0.  1.
         11    1    4    4    0    0 -0.47397724581E-01 -0.47103120740E-01 -0.44650194301E-01  0.80368832585E-01  0.51100000000E-03 0. -1.
</event>
<event>
 8    1  0.1146431E+005  0.1043930E+01  0.7957747E-01            NaN
         13   -1    0    0    0    0  0.00000000000E+00  0.00000000000E+00  0.74505805969E-08  0.10566000000E+00  0.10566000000E+00 0. -1.
     999900   -1    0    0    0    0 -0.00000000000E+00 -0.00000000000E+00 -0.74505805969E-08  0.93827000000E+00  0.93827000000E+00 0. -1.
     999902    2    1    2    0    0 -0.88641692909E-02 -0.27273501438E-01 -0.11704636659E-01  0.10129555606E+01  0.10124818773E+01 0.  0.
     999903    2    3    3    0    0  0.93464521256E-01  0.38229922832E-01 -0.67266769298E-01  0.12287185099E+00  0.19378590777E-01 0.  0.
         14    1    1    2    0    0  0.88641692909E-02  0.27273501438E-01  0.11704636659E-01  0.30974439417E-01  0.00000000000E+00 0. -1.
     999901    1    3    3    0    0 -0.10232869055E+00 -0.65503424269E-01  0.55562132639E-01  0.89008370959E+00  0.88000000000E+00 0.  1.
        -11    1    4    4    0    0  0.53509076175E-01  0.31912970533E-01 -0.38666531518E-01  0.73328171271E-01  0.51100000000E-03 0.  1.
         11    1    4    4    0    0  0.39955445081E-01  0.63169522986E-02 -0.28600237780E-01  0.49543679719E-01  0.51100000000E-03 0. -1.
</event>
<event>
 8    1  0.1146431E+005  0.1043930E+01  0.7957747E-01            NaN
         13   -1    0    0    0    0  0.00000000000E+00  0.00000000000E+00  0.74505805969E-08  0.10566000000E+00  0.10566000000E+00 0.  1.
     999900   -1    0    0    0    0 -0.00000000000E+00 -0.00000000000E+00 -0.74505805969E-08  0.93827000000E+00  0.93827000000E+00 0. -1.
     999902    2    1    2    0    0 -0.85659763975E-02  0.25410305545E-01  0.26639060689E-02  0.10169827186E+01  0.10166256410E+01 0.  0.
     999903    2    3    3    0    0  0.90482245496E-02  0.17992586558E-01 -0.12457266004E+00  0.12762653214E+00  0.19093992187E-01 0.  0.
         14    1    1    2    0    0  0.85659763975E-02 -0.25410305545E-01 -0.26639060689E-02  0.26947281404E-01  0.00000000000E+00 0. -1.
     999901    1    3    3    0    0 -0.17614200947E-01  0.74177189872E-02  0.12723656611E+00  0.88935618646E+00  0.88000000000E+00 0.  1.
        -11    1    4    4    0    0  0.11448216361E-01  0.21245760331E-02 -0.55831910616E-01  0.57035417463E-01  0.51100000000E-03 0.  1.
         11    1    4    4    0    0 -0.23999918110E-02  0.15868010525E-01 -0.68740749427E-01  0.70591114678E-01  0.51100000000E-03 0. -1.
</event>
<event>
 8    1  0.1146431E+005  0.1043930E+01  0.7957747E-01            NaN
         13   -1    0    0    0    0  0.00000000000E+00  0.00000000000E+00  0.74505805969E-08  0.10566000000E+00  0.10566000000E+00 0.  1.
     999900   -1    0    0    0    0 -0.00000000000E+00 -0.00000000000E+00 -0.74505805969E-08  0.93827000000E+00  0.93827000000E+00 0. -1.
     999902    2    1    2    0    0  0.24271612248E-03  0.17069478176E-01  0.16736048403E-01  0.10200234881E+01  0.10197432985E+01 0.  0.
     999903    2    3    3    0    0  0.33682465777E-01 -0.94498468151E-01 -0.76223330853E-01  0.12749501811E+00  0.19506780689E-01 0.  0.
         14    1    1    2    0    0 -0.24271612248E-03 -0.17069478176E-01 -0.16736048403E-01  0.23906511926E-01  0.00000000000E+00 0. -1.
     999901    1    3    3    0    0 -0.33439749655E-01  0.11156794633E+00  0.92959379256E-01  0.89252846996E+00  0.88000000000E+00 0. -1.
        -11    1    4    4    0    0  0.26989171298E-01 -0.46821906829E-01 -0.41103207107E-01  0.67900228880E-01  0.51100000000E-03 0. -1.
         11    1    4    4    0    0  0.66932944797E-02 -0.47676561322E-01 -0.35120123746E-01  0.59594789230E-01  0.51100000000E-03 0.  1.
</event>
<event>
 8    1  0.1146431E+005  0.1043930E+01  0.7957747E-01            NaN
         13   -1    0    0    0    0  0.00000000000E+00  0.00000000000E+00  0.74505805969E-08  0.10566000000E+00  0.10566000000E+00 0. -1.
     999900   -1    0    0    0    0 -0.00000000000E+00 -0.00000000000E+00 -0.74505805969E-08  0.93827000000E+00  0.93827000000E+00 0.  1.
     999902    2    1    2    0    0  0.12070858730E-01  0.20078494536E-01 -0.54982182244E-02  0.10198658778E+01  0.10195819372E+01 0.  0.
     999903    2    3    3    0    0  0.79800418833E-01  0.57779101652E-01 -0.86434628547E-01  0.13275859478E+00  0.21151076602E-01 0.  0.
         14    1    1    2    0    0 -0.12070858730E-01 -0.20078494536E-01  0.54982182244E-02  0.24064122194E-01  0.00000000000E+00 0.  1.
     999901    1    3    3    0    0 -0.67729560102E-01 -0.37700607116E-01  0.80936410322E-01  0.88710728303E+00  0.88000000000E+00 0.  1.
        -11    1    4    4    0    0  0.41197185918E-01  0.17259145432E-01 -0.35029110046E-01  0.56766062927E-01  0.51100000000E-03 0.  1.
         11    1    4    4    0    0  0.38603232914E-01  0.40519956220E-01 -0.51405518501E-01  0.75992531849E-01  0.51100000000E-03 0. -1.
</event>
<event>
 7    1  0.1146431E+005  0.1043930E+01  0.7957747E-01            NaN
         13   -1    0    0    0    0  0.00000000000E+00  0.00000000000E+00  0.74505805969E-08  0.10566000000E+00  0.10566000000E+00 0. -1.
     999900   -1    0    0    0    0 -0.00000000000E+00 -0.00000000000E+00 -0.74505805969E-08  0.93827000000E+00  0.93827000000E+00 0. -1.
     999902    2    1    2    0    0 -0.20029841669E-01  0.12302723262E-01 -0.13774206589E-03  0.10204231812E+01  0.10201523897E+01 0.  0.
         14    1    1    2    0    0  0.20029841669E-01 -0.12302723262E-01  0.13774206589E-03  0.23506818794E-01  0.00000000000E+00 0.  1.
     999901    1    3    3    0    0  0.47923207964E-01 -0.21243948951E-01 -0.10095022061E+00  0.88732118552E+00  0.88000000000E+00 0. -1.
        -11    1    3    3    0    0 -0.35846436577E-01  0.33527181788E-01  0.36330792803E-01  0.61067393596E-01  0.51100000000E-03 0.  1.
         11    1    3    3    0    0 -0.32106613056E-01  0.19490424821E-04  0.64481685738E-01  0.72034602092E-01  0.51100000000E-03 0. -1.
</event>
<event>
 8    1  0.1146431E+005  0.1043930E+01  0.7957747E-01            NaN
         13   -1    0    0    0    0  0.00000000000E+00  0.00000000000E+00  0.74505805969E-08  0.10566000000E+00  0.10566000000E+00 0. -1.
     999900   -1    0    0    0    0 -0.00000000000E+00 -0.00000000000E+00 -0.74505805969E-08  0.93827000000E+00  0.93827000000E+00 0.  1.
     999902    2    1    2    0    0  0.19259202577E-01 -0.11717540509E-03  0.13765449686E-01  0.10202568460E+01  0.10199821634E+01 0.  0.
     999903    2    3    3    0    0  0.64156655023E-01  0.10444462225E+00  0.45591457977E-01  0.13235941638E+00  0.20388196708E-01 0.  0.
         14    1    1    2    0    0 -0.19259202577E-01  0.11717540509E-03 -0.13765449686E-01  0.23673153973E-01  0.00000000000E+00 0. -1.
     999901    1    3    3    0    0 -0.44897452446E-01 -0.10456179765E+00 -0.31826008291E-01  0.88789742964E+00  0.88000000000E+00 0.  1.
        -11    1    4    4    0    0  0.32788072586E-01  0.43161766835E-01  0.29275023737E-01  0.61605875986E-01  0.51100000000E-03 0.  1.
         11    1    4    4    0    0  0.31368582438E-01  0.61282855410E-01  0.16316434240E-01  0.70753540397E-01  0.51100000000E-03 0. -1.
</event>
<event>
 8    1  0.1146431E+005  0.1043930E+01  0.7957747E-01            NaN
         13   -1    0    0    0    0  0.00000000000E+00  0.00000000000E+00  0.74505805969E-08  0.10566000000E+00  0.10566000000E+00 0.  1.
     999900   -1    0    0    0    0 -0.00000000000E+00 -0.00000000000E+00 -0.74505805969E-08  0.93827000000E+00  0.93827000000E+00 0.  1.
     999902    2    1    2    0    0  0.15451821026E-01  0.18098025002E-01  0.37098857104E-02  0.10198455541E+01  0.10195611280E+01 0.  0.
     999903    2    3    3    0    0  0.13155933123E+00  0.50492415366E-02  0.72772537203E-02  0.13211589324E+00  0.82642816666E-02 0.  0.
         14    1    1    2    0    0 -0.15451821026E-01 -0.18098025002E-01 -0.37098857104E-02  0.24084445893E-01  0.00000000000E+00 0.  1.
     999901    1    3    3    0    0 -0.11610751020E+00  0.13048783465E-01 -0.35673680099E-02  0.88772966087E+00  0.88000000000E+00 0. -1.
        -11    1    4    4    0    0  0.10481739412E+00  0.70185005443E-02  0.44418962205E-02  0.10514721596E+00  0.51100000000E-03 0.  1.
         11    1    4    4    0    0  0.26741937101E-01 -0.19692590077E-02  0.28353574998E-02  0.26968677277E-01  0.51100000000E-03 0. -1.
</event>
<event>
 8    1  0.1146431E+005  0.1043930E+01  0.7957747E-01            NaN
         13   -1    0    0    0    0  0.00000000000E+00  0.00000000000E+00  0.74505805969E-08  0.10566000000E+00  0.10566000000E+00 0. -1.
     999900   -1    0    0    0    0 -0.00000000000E+00 -0.00000000000E+00 -0.74505805969E-08  0.93827000000E+00  0.93827000000E+00 0. -1.
     999902    2    1    2    0    0  0.13312653131E-01 -0.18984599558E-01  0.61228152167E-03  0.10207348142E+01  0.10204712364E+01 0.  0.
     999903    2    3    3    0    0  0.13540449256E-01 -0.82728844649E-01 -0.10035831431E+00  0.13267037857E+00  0.22410546549E-01 0.  0.
         14    1    1    2    0    0 -0.13312653131E-01  0.18984599558E-01 -0.61228152167E-03  0.23195185760E-01  0.00000000000E+00 0.  1.
     999901    1    3    3    0    0 -0.22779612558E-03  0.63744245091E-01  0.10097059583E+00  0.88806443567E+00  0.88000000000E+00 0.  1.
        -11    1    4    4    0    0  0.16038730987E-01 -0.48006122925E-01 -0.70594609768E-01  0.86865924154E-01  0.51100000000E-03 0. -1.
         11    1    4    4    0    0 -0.24982817308E-02 -0.34722721724E-01 -0.29763704543E-01  0.45804454419E-01  0.51100000000E-03 0.  1.
</event>
<event>
 8    1  0.1146431E+005  0.1043930E+01  0.7957747E-01            NaN
         13   -1    0    0    0    0  0.00000000000E+00  0.00000000000E+00  0.74505805969E-08  0.10566000000E+00  0.10566000000E+00 0.  1.
     999900   -1    0    0    0    0 -0.00000000000E+00 -0.00000000000E+00 -0.74505805969E-08  0.93827000000E+00  0.93827000000E+00 0.  1.
     999902    2    1    2    0    0  0.22710829924E-01  0.63104165614E-02 -0.18135432308E-02  0.10202891013E+01  0.10200151754E+01 0.  0.
     999903    2    3    3    0    0  0.12377690838E-01 -0.40669213108E-01 -0.12201406163E+00  0.13081621019E+00  0.20451344379E-01 0.  0.
         14    1    1    2    0    0 -0.22710829924E-01 -0.63104165614E-02  0.18135432308E-02  0.23640898715E-01  0.00000000000E+00 0. -1.
     999901    1    3    3    0    0  0.10333139086E-01  0.46979629669E-01  0.12020051840E+00  0.88947289109E+00  0.88000000000E+00 0. -1.
        -11    1    4    4    0    0  0.43566946042E-02 -0.28250716283E-01 -0.10198757985E+00  0.10591889030E+00  0.51100000000E-03 0. -1.
         11    1    4    4    0    0  0.80209962338E-02 -0.12418496824E-01 -0.20026481788E-01  0.24897319891E-01  0.51100000000E-03 0.  1.
</event>
<event>
 8    1  0.1146431E+005  0.1043930E+01  0.7957747E-01            NaN
         13   -1    0    0    0    0  0.00000000000E+00  0.00000000000E+00  0.74505805969E-08  0.10566000000E+00  0.10566000000E+00 0. -1.
     999900   -1    0    0    0    0 -0.00000000000E+00 -0.00000000000E+00 -0.74505805969E-08  0.93827000000E+00  0.93827000000E+00 0.  1.
     999902    2    1    2    0    0 -0.56280183338E-02 -0.26895601301E-01  0.50119500483E-02  0.10159985195E+01  0.10156145056E+01 0.  0.
     999903    2    3    3    0    0 -0.95554202499E-01 -0.29530293147E-01 -0.76871418116E-01  0.12763004517E+00  0.19431152263E-01 0.  0.
         14    1    1    2    0    0  0.56280183338E-02  0.26895601301E-01 -0.50119500483E-02  0.27931480501E-01  0.00000000000E+00 0.  1.
     999901    1    3    3    0    0  0.89926184165E-01  0.26346918462E-02  0.81883368165E-01  0.88836847433E+00  0.88000000000E+00 0. -1.
        -11    1    4    4    0    0 -0.35673319665E-01 -0.14583669322E-02 -0.25249356621E-01  0.43732181524E-01  0.51100000000E-03 0. -1.
         11    1    4    4    0    0 -0.59880882834E-01 -0.28071926215E-01 -0.51622061495E-01  0.83897863646E-01  0.51100000000E-03 0.  1.
</event>
<event>
 8    1  0.1146431E+005  0.1043930E+01  0.7957747E-01            NaN
         13   -1    0    0    0    0  0.00000000000E+00  0.00000000000E+00  0.74505805969E-08  0.10566000000E+00  0.10566000000E+00 0. -1.
     999900   -1    0    0    0    0 -0.00000000000E+00 -0.00000000000E+00 -0.74505805969E-08  0.93827000000E+00  0.93827000000E+00 0.  1.
     999902    2    1    2    0    0 -0.97340439240E-02  0.59270972790E-02 -0.17885712069E-01  0.10227219640E+01  0.10225020464E+01 0.  0.
     999903    2    3    3    0    0  0.69257260938E-01  0.35901287089E-01 -0.10729209525E+00  0.13416606841E+00  0.20086552775E-01 0.  0.
         14    1    1    2    0    0  0.97340439240E-02 -0.59270972790E-02  0.17885712069E-01  0.21208035965E-01  0.00000000000E+00 0. -1.
     999901    1    3    3    0    0 -0.78991304862E-01 -0.29974189810E-01  0.89406383179E-01  0.88855589563E+00  0.88000000000E+00 0. -1.
        -11    1    4    4    0    0  0.94353963797E-02  0.10393063059E-01 -0.30193479904E-01  0.33300898101E-01  0.51100000000E-03 0.  1.
         11    1    4    4    0    0  0.59821864558E-01  0.25508224030E-01 -0.77098615343E-01  0.10086517031E+00  0.51100000000E-03 0. -1.
</event>
<event>
 8    1  0.1146431E+005  0.1043930E+01  0.7957747E-01            NaN
         13   -1    0    0    0    0  0.00000000000E+00  0.00000000000E+00  0.74505805969E-08  0.10566000000E+00  0.10566000000E+00 0.  1.
     999900   -1    0    0    0    0 -0.00000000000E+00 -0.00000000000E+00 -0.74505805969E-08  0.93827000000E+00  0.93827000000E+00 0. -1.
     999902    2    1    2    0    0 -0.14564605184E-01 -0.15889134089E-02 -0.19130743584E-01  0.10198335745E+01  0.10195488620E+01 0.  0.
     999903    2    3    3    0    0 -0.77787227597E-01  0.51867569967E-01  0.87433642878E-01  0.12954673084E+00  0.19915219634E-01 0.  0.
         14    1    1    2    0    0  0.14564605184E-01  0.15889134089E-02  0.19130743584E-01  0.24096425462E-01  0.00000000000E+00 0.  1.
     999901    1    3    3    0    0  0.63222622413E-01 -0.53456483375E-01 -0.10656438646E+00  0.89028684370E+00  0.88000000000E+00 0. -1.
        -11    1    4    4    0    0 -0.19180631655E-01  0.59524563295E-02  0.11255522716E-01  0.23027728495E-01  0.51100000000E-03 0.  1.
         11    1    4    4    0    0 -0.58606595942E-01  0.45915113637E-01  0.76178120162E-01  0.10651900235E+00  0.51100000000E-03 0. -1.
</event>
<event>
 8    1  0.1146431E+005  0.1043930E+01  0.7957747E-01            NaN
         13   -1    0    0    0    0  0.00000000000E+00  0.00000000000E+00  0.74505805969E-08  0.10566000000E+00  0.10566000000E+00 0. -1.
     999900   -1    0    0    0    0 -0.00000000000E+00 -0.00000000000E+00 -0.74505805969E-08  0.93827000000E+00  0.93827000000E+00 0. -1.
     999902    2    1    2    0    0 -0.17586701607E-02 -0.16555136390E-01  0.17362834560E-01  0.10198751983E+01  0.10195914802E+01 0.  0.
     999903    2    3    3    0    0  0.66373508873E-02 -0.10944468352E+00  0.73068433572E-01  0.13319483034E+00  0.19485216648E-01 0.  0.
         14    1    1    2    0    0  0.17586701607E-02  0.16555136390E-01 -0.17362834560E-01  0.24054801716E-01  0.00000000000E+00 0.  1.
     999901    1    3    3    0    0 -0.83960210479E-02  0.92889547127E-01 -0.55705599013E-01  0.88668036794E+00  0.88000000000E+00 0. -1.
        -11    1    4    4    0    0  0.11818580099E-01 -0.78027410252E-01  0.58145034807E-01  0.98025822006E-01  0.51100000000E-03 0. -1.
         11    1    4    4    0    0 -0.51812292118E-02 -0.31417273265E-01  0.14923398766E-01  0.35169008335E-01  0.51100000000E-03 0.  1.
</event>
<event>
 8    1  0.1146431E+005  0.1043930E+01  0.7957747E-01            NaN
         13   -1    0    0    0    0  0.00000000000E+00  0.00000000000E+00  0.74505805969E-08  0.10566000000E+00  0.10566000000E+00 0.  1.
     999900   -1    0    0    0    0 -0.00000000000E+00 -0.00000000000E+00 -0.74505805969E-08  0.93827000000E+00  0.93827000000E+00 0. -1.
     999902    2    1    2    0    0  0.50762859975E-02  0.19640955360E-01  0.15050188890E-01  0.10186704673E+01  0.10183572443E+01 0.  0.
     999903    2    3    3    0    0 -0.11226189773E+00 -0.47715744736E-01 -0.29868684196E-01  0.12719815725E+00  0.20191754164E-01 0.  0.
         14    1    1    2    0    0 -0.50762859975E-02 -0.19640955360E-01 -0.15050188890E-01  0.25259532707E-01  0.00000000000E+00 0. -1.
     999901    1    3    3    0    0  0.11733818372E+00  0.67356700096E-01  0.44918873086E-01  0.89147231004E+00  0.88000000000E+00 0.  1.
        -11    1    4    4    0    0 -0.74461049928E-01 -0.38630193182E-01 -0.27362772868E-01  0.88236739749E-01  0.51100000000E-03 0.  1.
         11    1    4    4    0    0 -0.37800847798E-01 -0.90855515548E-02 -0.25059113285E-02  0.38961417504E-01  0.51100000000E-03 0. -1.
</event>
<event>
 8    1  0.1146431E+005  0.1043930E+01  0.7957747E-01            NaN
         13   -1    0    0    0    0  0.00000000000E+00  0.00000000000E+00  0.74505805969E-08  0.10566000000E+00  0.10566000000E+00 0.  1.
     999900   -1    0    0    0    0 -0.00000000000E+00 -0.00000000000E+00 -0.74505805969E-08  0.93827000000E+00  0.93827000000E+00 0.  1.
     999902    2    1    2    0    0  0.10940760878E-01  0.15835760876E-01  0.14063893527E-01  0.10200916974E+01  0.10198131233E+01 0.  0.
     999903    2    3    3    0    0 -0.76960417747E-01  0.15699684309E-01 -0.96748631302E-01  0.12879710444E+00  0.32542441014E-01 0.  0.
         14    1    1    2    0    0 -0.10940760878E-01 -0.15835760876E-01 -0.14063893527E-01  0.23838302630E-01  0.00000000000E+00 0.  1.
     999901    1    3    3    0    0  0.87901178625E-01  0.13607656724E-03  0.11081252483E+00  0.89129459293E+00  0.88000000000E+00 0. -1.
        -11    1    4    4    0    0 -0.29630050524E-01  0.22065471022E-01 -0.36763606861E-01  0.52121481328E-01  0.51100000000E-03 0. -1.
         11    1    4    4    0    0 -0.47330367223E-01 -0.63657867123E-02 -0.59985024442E-01  0.76675623116E-01  0.51100000000E-03 0.  1.
</event>
<event>
 8    1  0.1146431E+005  0.1043930E+01  0.7957747E-01            NaN
         13   -1    0    0    0    0  0.00000000000E+00  0.00000000000E+00  0.74505805969E-08  0.10566000000E+00  0.10566000000E+00 0. -1.
     999900   -1    0    0    0    0 -0.00000000000E+00 -0.00000000000E+00 -0.74505805969E-08  0.93827000000E+00  0.93827000000E+00 0.  1.
     999902    2    1    2    0    0 -0.76838967406E-02 -0.42952863811E-02 -0.21528414553E-01  0.10206713589E+01  0.10204063203E+01 0.  0.
     999903    2    3    3    0    0  0.70087083279E-01 -0.50864070765E-01  0.93001147214E-01  0.12863212344E+00  0.19941335500E-01 0.  0.
         14    1    1    2    0    0  0.76838967406E-02  0.42952863811E-02  0.21528414553E-01  0.23258641134E-01  0.00000000000E+00 0.  1.
     999901    1    3    3    0    0 -0.77770980019E-01  0.46568784384E-01 -0.11452956177E+00  0.89203923542E+00  0.88000000000E+00 0.  1.
        -11    1    4    4    0    0  0.48968642426E-01 -0.39989280783E-01  0.54919908276E-01  0.83746808684E-01  0.51100000000E-03 0.  1.
         11    1    4    4    0    0  0.21118440852E-01 -0.10874789982E-01  0.38081238937E-01  0.44885314761E-01  0.51100000000E-03 0. -1.
</event>
<event>
 8    1  0.1146431E+005  0.1043930E+01  0.7957747E-01            NaN
         13   -1    0    0    0    0  0.00000000000E+00  0.00000000000E+00  0.74505805969E-08  0.10566000000E+00  0.10566000000E+00 0. -1.
     999900   -1    0    0    0    0 -0.00000000000E+00 -0.00000000000E+00 -0.74505805969E-08  0.93827000000E+00  0.93827000000E+00 0.  1.
     999902    2    1    2    0    0  0.12882578219E-01 -0.19320961596E-01 -0.26188513320E-02  0.10205608160E+01  0.10202932228E+01 0.  0.
     999903    2    3    3    0    0 -0.10386737737E+00  0.30192175111E-02 -0.74828839541E-01  0.12963774517E+00  0.20224786522E-01 0.  0.
         14    1    1    2    0    0 -0.12882578219E-01  0.19320961596E-01  0.26188513320E-02  0.23369184001E-01  0.00000000000E+00 0. -1.
     999901    1    3    3    0    0  0.11674995559E+00 -0.22340179107E-01  0.72209988209E-01  0.89092307083E+00  0.88000000000E+00 0. -1.
        -11    1    4    4    0    0 -0.81262859968E-01  0.24560283527E-02 -0.68061310183E-01  0.10602965411E+00  0.51100000000E-03 0. -1.
         11    1    4    4    0    0 -0.22604517405E-01  0.56318915835E-03 -0.67675293581E-02  0.23608091065E-01  0.51100000000E-03 0.  1.
</event>
<event>
 7    1  0.1146431E+005  0.1043930E+01  0.7957747E-01            NaN
         13   -1    0    0    0    0  0.00000000000E+00  0.00000000000E+00  0.74505805969E-08  0.10566000000E+00  0.10566000000E+00 0. -1.
     999900   -1    0    0    0    0 -0.00000000000E+00 -0.00000000000E+00 -0.74505805969E-08  0.93827000000E+00  0.93827000000E+00 0. -1.
     999902    2    1    2    0    0 -0.15262659910E-01 -0.32565190476E-02  0.16606071578E-01  0.10211415091E+01  0.10208871957E+01 0.  0.
         14    1    1    2    0    0  0.15262659910E-01  0.32565190476E-02 -0.16606071578E-01  0.22788490891E-01  0.00000000000E+00 0.  1.
     999901    1    3    3    0    0  0.50364307300E-01  0.10051343185E+00  0.44782937764E-01  0.88828206384E+00  0.88000000000E+00 0.  1.
        -11    1    3    3    0    0 -0.66193226085E-01 -0.92054130274E-01 -0.13681380822E-01  0.11420572395E+00  0.51100000000E-03 0.  1.
         11    1    3    3    0    0  0.56625887465E-03 -0.11715820627E-01 -0.14495485364E-01  0.18653721318E-01  0.51100000000E-03 0. -1.
</event>
<event>
 8    1  0.1146431E+005  0.1043930E+01  0.7957747E-01            NaN
         13   -1    0    0    0    0  0.00000000000E+00  0.00000000000E+00  0.74505805969E-08  0.10566000000E+00  0.10566000000E+00 0.  1.
     999900   -1    0    0    0    0 -0.00000000000E+00 -0.00000000000E+00 -0.74505805969E-08  0.93827000000E+00  0.93827000000E+00 0. -1.
     999902    2    1    2    0    0 -0.25792112517E-01 -0.45134359525E-02  0.12041448484E-02  0.10177182824E+01  0.10173806801E+01 0.  0.
     999903    2    3    3    0    0  0.11198541211E+00 -0.23725316274E-01 -0.46949238498E-01  0.12549045786E+00  0.20976197477E-01 0.  0.
         14    1    1    2    0    0  0.25792112517E-01  0.45134359525E-02 -0.12041448484E-02  0.26211717551E-01  0.00000000000E+00 0. -1.
     999901    1    3    3    0    0 -0.13777752463E+00  0.19211880321E-01  0.48153383346E-01  0.89222782459E+00  0.88000000000E+00 0.  1.
        -11    1    4    4    0    0  0.10541232280E+00 -0.22951982897E-01 -0.49074331919E-01  0.11852047288E+00  0.51100000000E-03 0. -1.
         11    1    4    4    0    0  0.65730893130E-02 -0.77333337672E-03  0.21250934214E-02  0.69699849840E-02  0.51100000000E-03 0.  1.
</event>
<event>
 8    1  0.1146431E+005  0.1043930E+01  0.7957747E-01            NaN
         13   -1    0    0    0    0  0.00000000000E+00  0.00000000000E+00  0.74505805969E-08  0.10566000000E+00  0.10566000000E+00 0. -1.
     999900   -1    0    0    0    0 -0.00000000000E+00 -0.00000000000E+00 -0.74505805969E-08  0.93827000000E+00  0.93827000000E+00 0.  1.
     999902    2    1    2    0    0 -0.15097664021E-01  0.39760019140E-03 -0.16477119043E-01  0.10215784229E+01  0.10213338735E+01 0.  0.
     999903    2    3    3    0    0 -0.14044362623E-01 -0.90091104800E-01  0.92320016344E-01  0.13027256532E+00  0.11588984905E-01 0.  0.
         14    1    1    2    0    0  0.15097664021E-01 -0.39760019140E-03  0.16477119043E-01  0.22351577053E-01  0.00000000000E+00 0. -1.
     999901    1    3    3    0    0 -0.10533013982E-02  0.90488704992E-01 -0.10879713539E+00  0.89130585763E+00  0.88000000000E+00 0.  1.
        -11    1    4    4    0    0 -0.32509523593E-02 -0.40211985576E-01  0.33883471549E-01  0.52687031045E-01  0.51100000000E-03 0. -1.
         11    1    4    4    0    0 -0.10793410264E-01 -0.49879119225E-01  0.58436544795E-01  0.77585534273E-01  0.51100000000E-03 0.  1.
</event>
<event>
 8    1  0.1146431E+005  0.1043930E+01  0.7957747E-01            NaN
         13   -1    0    0    0    0  0.00000000000E+00  0.00000000000E+00  0.74505805969E-08  0.10566000000E+00  0.10566000000E+00 0. -1.
     999900   -1    0    0    0    0 -0.00000000000E+00 -0.00000000000E+00 -0.74505805969E-08  0.93827000000E+00  0.93827000000E+00 0.  1.
     999902    2    1    2    0    0  0.10037785654E-01 -0.19178798903E-01 -0.15348270850E-01  0.10173941208E+01  0.10170480048E+01 0.  0.
     999903    2    3    3    0    0  0.10689203124E+00 -0.71514002704E-01 -0.84542181697E-02  0.13050785613E+00  0.20510187274E-01 0.  0.
         14    1    1    2    0    0 -0.10037785654E-01  0.19178798903E-01  0.15348270850E-01  0.26535879226E-01  0.00000000000E+00 0.  1.
     999901    1    3    3    0    0 -0.96854245588E-01  0.52335203801E-01 -0.68940526806E-02  0.88688626464E+00  0.88000000000E+00 0.  1.
        -11    1    4    4    0    0  0.41661401646E-01 -0.32793629855E-01 -0.12728759736E-01  0.54528680450E-01  0.51100000000E-03 0.  1.
         11    1    4    4    0    0  0.65230629595E-01 -0.38720372849E-01  0.42745415662E-02  0.75979175684E-01  0.51100000000E-03 0. -1.
</event>
<event>
 8    1  0.1146431E+005  0.1043930E+01  0.7957747E-01            NaN
         13   -1    0    0    0    0  0.00000000000E+00  0.00000000000E+00  0.74505805969E-08  0.10566000000E+00  0.10566000000E+00 0. -1.
     999900   -1    0    0    0    0 -0.00000000000E+00 -0.00000000000E+00 -0.74505805969E-08  0.93827000000E+00  0.93827000000E+00 0. -1.
     999902    2    1    2    0    0 -0.42247337027E-02  0.57617728764E-02 -0.21621534693E-01  0.10211585889E+01  0.10209046608E+01 0.  0.
     999903    2    3    3    0    0 -0.47738094479E-01  0.19896562332E-01 -0.12256270202E+00  0.13420744925E+00  0.17754567093E-01 0.  0.
         14    1    1    2    0    0  0.42247337027E-02 -0.57617728764E-02  0.21621534693E-01  0.22771411112E-01  0.00000000000E+00 0. -1.
     999901    1    3    3    0    0  0.43513360776E-01 -0.14134789456E-01  0.10094116732E+00  0.88695113963E+00  0.88000000000E+00 0.  1.
        -11    1    4    4    0    0 -0.40986247018E-01  0.22910502888E-01 -0.10040625045E+00  0.11084421427E+00  0.51100000000E-03 0.  1.
         11    1    4    4    0    0 -0.67518474614E-02 -0.30139405555E-02 -0.22156451570E-01  0.23363234985E-01  0.51100000000E-03 0. -1.
</event>
<event>
 8    1  0.1146431E+005  0.1043930E+01  0.7957747E-01            NaN
         13   -1    0    0    0    0  0.00000000000E+00  0.00000000000E+00  0.74505805969E-08  0.10566000000E+00  0.10566000000E+00 0. -1.
     999900   -1    0    0    0    0 -0.00000000000E+00 -0.00000000000E+00 -0.74505805969E-08  0.93827000000E+00  0.93827000000E+00 0. -1.
     999902    2    1    2    0    0 -0.10200196357E-01  0.16474455243E-01 -0.13537374006E-01  0.10202929068E+01  0.10200190701E+01 0.  0.
     999903    2    3    3    0    0  0.22750738534E-01  0.15284906708E-01  0.12439487128E+00  0.12893860941E+00  0.19996412635E-01 0.  0.
         14    1    1    2    0    0  0.10200196357E-01 -0.16474455243E-01  0.13537374006E-01  0.23637093227E-01  0.00000000000E+00 0.  1.
     999901    1    3    3    0    0 -0.32950934892E-01  0.11895485344E-02 -0.13793224529E+00  0.89135429736E+00  0.88000000000E+00 0. -1.
        -11    1    4    4    0    0  0.17201271810E-01 -0.41185801481E-03  0.66954641352E-01  0.69132036702E-01  0.51100000000E-03 0.  1.
         11    1    4    4    0    0  0.55494667244E-02  0.15696764723E-01  0.57440229930E-01  0.59806572708E-01  0.51100000000E-03 0. -1.
</event>
<event>
 8    1  0.1146431E+005  0.1043930E+01  0.7957747E-01            NaN
         13   -1    0    0    0    0  0.00000000000E+00  0.00000000000E+00  0.74505805969E-08  0.10566000000E+00  0.10566000000E+00 0. -1.
     999900   -1    0    0    0    0 -0.00000000000E+00 -0.00000000000E+00 -0.74505805969E-08  0.93827000000E+00  0.93827000000E+00 0.  1.
     999902    2    1    2    0    0 -0.19567233293E-01  0.13386745726E-01  0.14571539172E-02  0.10201770028E+01  0.10199004423E+01 0.  0.
     999903    2    3    3    0    0 -0.10512510794E+00 -0.30199954822E-01 -0.71142584216E-01  0.13198182582E+00  0.19864779580E-01 0.  0.
         14    1    1    2    0    0  0.19567233293E-01 -0.13386745726E-01 -0.14571539172E-02  0.23752997230E-01  0.00000000000E+00 0. -1.
     999901    1    3    3    0    0  0.85557874645E-01  0.43586700547E-01  0.72599738134E-01  0.88819517695E+00  0.88000000000E+00 0. -1.
        -11    1    4    4    0    0 -0.42068218820E-01 -0.18936853548E-01 -0.21291195797E-01  0.50812553532E-01  0.51100000000E-03 0.  1.
         11    1    4    4    0    0 -0.63056889118E-01 -0.11263101274E-01 -0.49851388419E-01  0.81169272289E-01  0.51100000000E-03 0. -1.
</event>
<event>
 8    1  0.1146431E+005  0.1043930E+01  0.7957747E-01            NaN
         13   -1    0    0    0    0  0.00000000000E+00  0.00000000000E+00  0.74505805969E-08  0.10566000000E+00  0.10566000000E+00 0. -1.
     999900   -1    0    0    0    0 -0.00000000000E+00 -0.00000000000E+00 -0.74505805969E-08  0.93827000000E+00  0.93827000000E+00 0. -1.
     999902    2    1    2    0    0 -0.15036842532E-01 -0.52507511095E-02 -0.16357776897E-01  0.10210990148E+01  0.10208437413E+01 0.  0.
     999903    2    3    3    0    0 -0.69910791527E-01  0.23770966965E-01  0.10572896811E+00  0.13050450341E+00  0.20005825899E-01 0.  0.
         14    1    1    2    0    0  0.15036842532E-01  0.52507511095E-02  0.16357776897E-01  0.22830985208E-01  0.00000000000E+00 0. -1.
     999901    1    3    3    0    0  0.54873948995E-01 -0.29021718075E-01 -0.12208674501E+00  0.89059451138E+00  0.88000000000E+00 0. -1.
        -11    1    4    4    0    0 -0.32060366760E-01  0.81981351706E-02  0.64004103978E-01  0.72054583367E-01  0.51100000000E-03 0.  1.
         11    1    4    4    0    0 -0.37850424766E-01  0.15572831794E-01  0.41724864134E-01  0.58449920043E-01  0.51100000000E-03 0. -1.
</event>
<event>
 8    1  0.1146431E+005  0.1043930E+01  0.7957747E-01            NaN
         13   -1    0    0    0    0  0.00000000000E+00  0.00000000000E+00  0.74505805969E-08  0.10566000000E+00  0.10566000000E+00 0.  1.
     999900   -1    0    0    0    0 -0.00000000000E+00 -0.00000000000E+00 -0.74505805969E-08  0.93827000000E+00  0.93827000000E+00 0.  1.
     999902    2    1    2    0    0  0.22340630752E-01  0.19114255986E-02  0.79734432140E-02  0.10201322453E+01  0.10198546293E+01 0.  0.
     999903    2    3    3    0    0  0.23007605085E-01  0.75561869017E-01 -0.10200645770E+00  0.13023314360E+00  0.17787870536E-01 0.  0.
         14    1    1    2    0    0 -0.22340630752E-01 -0.19114255986E-02 -0.79734432140E-02  0.23797754661E-01  0.00000000000E+00 0. -1.
     999901    1    3    3    0    0 -0.66697433298E-03 -0.73650443419E-01  0.10997990091E+00  0.88989910174E+00  0.88000000000E+00 0. -1.
        -11    1    4    4    0    0  0.54155323089E-02  0.11415707282E-01 -0.28024720107E-01  0.30745608158E-01  0.51100000000E-03 0.  1.
         11    1    4    4    0    0  0.17592072776E-01  0.64146161736E-01 -0.73981737593E-01  0.99487535442E-01  0.51100000000E-03 0. -1.
</event>
<event>
 8    1  0.1146431E+005  0.1043930E+01  0.7957747E-01            NaN
         13   -1    0    0    0    0  0.00000000000E+00  0.00000000000E+00  0.74505805969E-08  0.10566000000E+00  0.10566000000E+00 0.  1.
     999900   -1    0    0    0    0 -0.00000000000E+00 -0.00000000000E+00 -0.74505805969E-08  0.93827000000E+00  0.93827000000E+00 0. -1.
     999902    2    1    2    0    0  0.18394393034E-01 -0.94898996091E-02 -0.11322101593E-01  0.10203375886E+01  0.10200647984E+01 0.  0.
     999903    2    3    3    0    0 -0.43043683304E-01 -0.83691431209E-01  0.86839915100E-01  0.12965454398E+00  0.20300630260E-01 0.  0.
         14    1    1    2    0    0 -0.18394393034E-01  0.94898996091E-02  0.11322101593E-01  0.23592411368E-01  0.00000000000E+00 0.  1.
     999901    1    3    3    0    0  0.61438076338E-01  0.74201531600E-01 -0.98162016693E-01  0.89068304466E+00  0.88000000000E+00 0. -1.
        -11    1    4    4    0    0 -0.10278530253E-01 -0.37904505646E-01  0.28145415211E-01  0.48320029500E-01  0.51100000000E-03 0.  1.
         11    1    4    4    0    0 -0.32765153051E-01 -0.45786925563E-01  0.58694499889E-01  0.81334514477E-01  0.51100000000E-03 0. -1.
</event>
<event>
 7    1  0.1146431E+005  0.1043930E+01  0.7957747E-01            NaN
         13   -1    0    0    0    0  0.00000000000E+00  0.00000000000E+00  0.74505805969E-08  0.10566000000E+00  0.10566000000E+00 0. -1.
     999900   -1    0    0    0    0 -0.00000000000E+00 -0.00000000000E+00 -0.74505805969E-08  0.93827000000E+00  0.93827000000E+00 0.  1.
     999903    2    1    2    0    0 -0.83440452035E-01  0.28879074130E-01 -0.71954958989E-01  0.11563453615E+00  0.19937900349E-01 0.  0.
         14    1    1    2    0    0  0.77137964746E-02  0.37529958193E-01  0.13500523915E-01  0.40623448450E-01  0.00000000000E+00 0. -1.
     999901    1    1    2    0    0  0.75726655560E-01 -0.66409032322E-01  0.58454435074E-01  0.88767201540E+00  0.88000000000E+00 0. -1.
        -11    1    3    3    0    0 -0.39782198733E-01  0.17906310023E-01 -0.23742001595E-01  0.49670947599E-01  0.51100000000E-03 0. -1.
         11    1    3    3    0    0 -0.43658253302E-01  0.10972764106E-01 -0.48212957393E-01  0.65963588555E-01  0.51100000000E-03 0.  1.
</event>
<event>
 8    1  0.1146431E+005  0.1043930E+01  0.7957747E-01            NaN
         13   -1    0    0    0    0  0.00000000000E+00  0.00000000000E+00  0.74505805969E-08  0.10566000000E+00  0.10566000000E+00 0.  1.
     999900   -1    0    0    0    0 -0.00000000000E+00 -0.00000000000E+00 -0.74505805969E-08  0.93827000000E+00  0.93827000000E+00 0.  1.
     999902    2    1    2    0    0 -0.11690840365E-02 -0.16613839144E-01 -0.17568891218E-01  0.10197214819E+01  0.10194340824E+01 0.  0.
     999903    2    3    3    0    0 -0.53832649616E-01 -0.10374773218E+00  0.55296365775E-01  0.13085978733E+00  0.20125848413E-01 0.  0.
         14    1    1    2    0    0  0.11690840365E-02  0.16613839144E-01  0.17568891218E-01  0.24208518072E-01  0.00000000000E+00 0.  1.
     999901    1    3    3    0    0  0.52663565579E-01  0.87133893034E-01 -0.72865256993E-01  0.88886169460E+00  0.88000000000E+00 0.  1.
        -11    1    4    4    0    0 -0.31296052053E-01 -0.79757522331E-01  0.39477825183E-01  0.94336976020E-01  0.51100000000E-03 0.  1.
         11    1    4    4    0    0 -0.22536597563E-01 -0.23990209847E-01  0.15818540592E-01  0.36522811305E-01  0.51100000000E-03 0. -1.
</event>
<event>
 7    1  0.1146431E+005  0.1043930E+01  0.7957747E-01            NaN
         13   -1    0    0    0    0  0.00000000000E+00  0.00000000000E+00  0.74505805969E-08  0.10566000000E+00  0.10566000000E+00 0.  1.
     999900   -1    0    0    0    0 -0.00000000000E+00 -0.00000000000E+00 -0.74505805969E-08  0.93827000000E+00  0.93827000000E+00 0. -1.
     999902    2    1    2    0    0 -0.10824720699E-01  0.20544639522E-01  0.76938461250E-02  0.10194667202E+01  0.10191731656E+01 0.  0.
         14    1    1    2    0    0  0.10824720699E-01 -0.20544639522E-01 -0.76938461250E-02  0.24463279819E-01  0.00000000000E+00 0. -1.
     999901    1    3    3    0    0  0.88993238351E-01  0.30590688133E-01  0.81304169584E-01  0.88874403214E+00  0.88000000000E+00 0.  1.
        -11    1    3    3    0    0 -0.64135959361E-01  0.95210733540E-02 -0.58436759553E-01  0.87287960848E-01  0.51100000000E-03 0. -1.
         11    1    3    3    0    0 -0.35681999689E-01 -0.19567121965E-01 -0.15173563906E-01  0.43434727193E-01  0.51100000000E-03 0.  1.
</event>
<event>
 8    1  0.1146431E+005  0.1043930E+01  0.7957747E-01            NaN
         13   -1    0    0    0    0  0.00000000000E+00  0.00000000000E+00  0.74505805969E-08  0.10566000000E+00  0.10566000000E+00 0.  1.
     999900   -1    0    0    0    0 -0.00000000000E+00 -0.00000000000E+00 -0.74505805969E-08  0.93827000000E+00  0.93827000000E+00 0.  1.
     999902    2    1    2    0    0 -0.31171184608E-02  0.22119934825E-01 -0.76917895781E-02  0.10203043451E+01  0.10200307765E+01 0.  0.
     999903    2    3    3    0    0 -0.19660787046E-01 -0.12007331945E+00 -0.34847394602E-01  0.12832338035E+00  0.21175467965E-01 0.  0.
         14    1    1    2    0    0  0.31171184608E-02 -0.22119934825E-01  0.76917895781E-02  0.23625654934E-01  0.00000000000E+00 0.  1.
     999901    1    3    3    0    0  0.16543668586E-01  0.14219325427E+00  0.27155605024E-01  0.89198096472E+00  0.88000000000E+00 0. -1.
        -11    1    4    4    0    0 -0.21727903119E-01 -0.73889812706E-01 -0.25700005501E-01  0.81194566317E-01  0.51100000000E-03 0.  1.
         11    1    4    4    0    0  0.20671160727E-02 -0.46183506742E-01 -0.91473891015E-02  0.47128814033E-01  0.51100000000E-03 0. -1.
</event>
<event>
 8    1  0.1146431E+005  0.1043930E+01  0.7957747E-01            NaN
         13   -1    0    0    0    0  0.00000000000E+00  0.00000000000E+00  0.74505805969E-08  0.10566000000E+00  0.10566000000E+00 0.  1.
     999900   -1    0    0    0    0 -0.00000000000E+00 -0.00000000000E+00 -0.74505805969E-08  0.93827000000E+00  0.93827000000E+00 0. -1.
     999902    2    1    2    0    0  0.13739126982E-01 -0.48998740857E-02 -0.19064490349E-01  0.10199252678E+01  0.10196427437E+01 0.  0.
     999903    2    3    3    0    0 -0.10899043268E+00  0.24077368247E-01  0.58141905280E-01  0.12758953898E+00  0.20975586471E-01 0.  0.
         14    1    1    2    0    0 -0.13739126982E-01  0.48998740857E-02  0.19064490349E-01  0.24004732212E-01  0.00000000000E+00 0.  1.
     999901    1    3    3    0    0  0.12272955967E+00 -0.28977242332E-01 -0.77206395630E-01  0.89233572881E+00  0.88000000000E+00 0. -1.
        -11    1    4    4    0    0 -0.73634681311E-01  0.14309094555E-01  0.27855480749E-01  0.80018781592E-01  0.51100000000E-03 0.  1.
         11    1    4    4    0    0 -0.35355751374E-01  0.97682736915E-02  0.30286424531E-01  0.47570757383E-01  0.51100000000E-03 0. -1.
</event>
<event>
 8    1  0.1146431E+005  0.1043930E+01  0.7957747E-01            NaN
         13   -1    0    0    0    0  0.00000000000E+00  0.00000000000E+00  0.74505805969E-08  0.10566000000E+00  0.10566000000E+00 0.  1.
     999900   -1    0    0    0    0 -0.00000000000E+00 -0.00000000000E+00 -0.74505805969E-08  0.93827000000E+00  0.93827000000E+00 0.  1.
     999902    2    1    2    0    0  0.27910785237E-02  0.15687406831E-01  0.17639076332E-01  0.10201598114E+01  0.10198828457E+01 0.  0.
     999903    2    3    3    0    0 -0.58030676630E-01 -0.10629061986E+00  0.42029507137E-01  0.12933276982E+00  0.17182275111E-01 0.  0.
         14    1    1    2    0    0 -0.27910785237E-02 -0.15687406831E-01 -0.17639076332E-01  0.23770188604E-01  0.00000000000E+00 0. -1.
     999901    1    3    3    0    0  0.60821755154E-01  0.12197802669E+00 -0.24390430804E-01  0.89082704158E+00  0.88000000000E+00 0. -1.
        -11    1    4    4    0    0 -0.79001873409E-02 -0.27263901848E-01  0.13896064529E-01  0.31608464600E-01  0.51100000000E-03 0.  1.
         11    1    4    4    0    0 -0.50130489289E-01 -0.79026718012E-01  0.28133442608E-01  0.97724305217E-01  0.51100000000E-03 0. -1.
</event>
<event>
 8    1  0.1146431E+005  0.1043930E+01  0.7957747E-01            NaN
         13   -1    0    0    0    0  0.00000000000E+00  0.00000000000E+00  0.74505805969E-08  0.10566000000E+00  0.10566000000E+00 0.  1.
     999900   -1    0    0    0    0 -0.00000000000E+00 -0.00000000000E+00 -0.74505805969E-08  0.93827000000E+00  0.93827000000E+00 0. -1.
     999902    2    1    2    0    0  0.58350550899E-02 -0.24396572829E-02  0.23023539868E-01  0.10200535852E+01  0.10197741091E+01 0.  0.
     999903    2    3    3    0    0  0.67310287012E-03 -0.11095153533E+00  0.67963523813E-01  0.13223543063E+00  0.23589664817E-01 0.  0.
         14    1    1    2    0    0 -0.58350550899E-02  0.24396572829E-02 -0.23023539868E-01  0.23876414798E-01  0.00000000000E+00 0. -1.
     999901    1    3    3    0    0  0.51619522198E-02  0.10851187804E+00 -0.44939983945E-01  0.88781815457E+00  0.88000000000E+00 0.  1.
        -11    1    4    4    0    0  0.73063849810E-02 -0.23296232637E-01  0.22779664765E-01  0.33395687811E-01  0.51100000000E-03 0.  1.
         11    1    4    4    0    0 -0.66332821109E-02 -0.87655302690E-01  0.45183859048E-01  0.98839742820E-01  0.51100000000E-03 0. -1.
</event>
<event>
 8    1  0.1146431E+005  0.1043930E+01  0.7957747E-01            NaN
         13   -1    0    0    0    0  0.00000000000E+00  0.00000000000E+00  0.74505805969E-08  0.10566000000E+00  0.10566000000E+00 0. -1.
     999900   -1    0    0    0    0 -0.00000000000E+00 -0.00000000000E+00 -0.74505805969E-08  0.93827000000E+00  0.93827000000E+00 0. -1.
     999902    2    1    2    0    0  0.63373350820E-02 -0.12531547697E-01  0.20799366942E-01  0.10188338814E+01  0.10185247482E+01 0.  0.
     999903    2    3    3    0    0  0.12295796005E-01 -0.35211279126E-01 -0.12014879533E+00  0.12730919979E+00  0.19516110149E-01 0.  0.
         14    1    1    2    0    0 -0.63373350820E-02  0.12531547697E-01 -0.20799366942E-01  0.25096118600E-01  0.00000000000E+00 0.  1.
     999901    1    3    3    0    0 -0.59584609230E-02  0.22679731429E-01  0.14094816227E+00  0.89152468161E+00  0.88000000000E+00 0.  1.
        -11    1    4    4    0    0 -0.74785109706E-03 -0.25487104772E-01 -0.65580348456E-01  0.70364728491E-01  0.51100000000E-03 0.  1.
         11    1    4    4    0    0  0.13043647102E-01 -0.97241743541E-02 -0.54568446870E-01  0.56944471298E-01  0.51100000000E-03 0. -1.
</event>
<event>
 8    1  0.1146431E+005  0.1043930E+01  0.7957747E-01            NaN
         13   -1    0    0    0    0  0.00000000000E+00  0.00000000000E+00  0.74505805969E-08  0.10566000000E+00  0.10566000000E+00 0.  1.
     999900   -1    0    0    0    0 -0.00000000000E+00 -0.00000000000E+00 -0.74505805969E-08  0.93827000000E+00  0.93827000000E+00 0. -1.
     999902    2    1    2    0    0 -0.17500625670E-01  0.59095915194E-02 -0.16323532517E-01  0.10192793837E+01  0.10189812604E+01 0.  0.
     999903    2    3    3    0    0 -0.82735600885E-01  0.76602094050E-01 -0.66694915952E-01  0.13260565104E+00  0.20566633318E-01 0.  0.
         14    1    1    2    0    0  0.17500625670E-01 -0.59095915194E-02  0.16323532517E-01  0.24650616313E-01  0.00000000000E+00 0. -1.
     999901    1    3    3    0    0  0.65234975216E-01 -0.70692502531E-01  0.50371383435E-01  0.88667373265E+00  0.88000000000E+00 0.  1.
        -11    1    4    4    0    0 -0.61996095908E-01  0.62846783577E-01 -0.42830044460E-01  0.98121903484E-01  0.51100000000E-03 0. -1.
         11    1    4    4    0    0 -0.20739504977E-01  0.13755310473E-01 -0.23864871491E-01  0.34483747552E-01  0.51100000000E-03 0.  1.
</event>
<event>
 8    1  0.1146431E+005  0.1043930E+01  0.7957747E-01            NaN
         13   -1    0    0    0    0  0.00000000000E+00  0.00000000000E+00  0.74505805969E-08  0.10566000000E+00  0.10566000000E+00 0. -1.
     999900   -1    0    0    0    0 -0.00000000000E+00 -0.00000000000E+00 -0.74505805969E-08  0.93827000000E+00  0.93827000000E+00 0.  1.
     999902    2    1    2    0    0  0.13283546363E-02  0.17457309791E-01 -0.15540749218E-01  0.10205198083E+01  0.10202512641E+01 0.  0.
     999903    2    3    3    0    0  0.12135236382E+00 -0.23050699068E-01  0.35262122854E-01  0.12999884086E+00  0.19963726700E-01 0.  0.
         14    1    1    2    0    0 -0.13283546363E-02 -0.17457309791E-01  0.15540749218E-01  0.23410191743E-01  0.00000000000E+00 0. -1.
     999901    1    3    3    0    0 -0.12002400919E+00  0.40508008859E-01 -0.50802872072E-01  0.89052096740E+00  0.88000000000E+00 0.  1.
        -11    1    4    4    0    0  0.52917017781E-01 -0.19158490428E-01  0.11456142863E-01  0.57434857505E-01  0.51100000000E-03 0. -1.
         11    1    4    4    0    0  0.68435346043E-01 -0.38922086397E-02  0.23805979991E-01  0.72563983356E-01  0.51100000000E-03 0.  1.
</event>
<event>
 8    1  0.1146431E+005  0.1043930E+01  0.7957747E-01            NaN
         13   -1    0    0    0    0  0.00000000000E+00  0.00000000000E+00  0.74505805969E-08  0.10566000000E+00  0.10566000000E+00 0.  1.
     999900   -1    0    0    0    0 -0.00000000000E+00 -0.00000000000E+00 -0.74505805969E-08  0.93827000000E+00  0.93827000000E+00 0. -1.
     999902    2    1    2    0    0 -0.79973088751E-02  0.18212502367E-01  0.12518643700E-01  0.10204274761E+01  0.10201567846E+01 0.  0.
     999903    2    3    3    0    0  0.52203829392E-01 -0.84645327383E-01 -0.77744584669E-01  0.12781817710E+00  0.20079708664E-01 0.  0.
         14    1    1    2    0    0  0.79973088751E-02 -0.18212502367E-01 -0.12518643700E-01  0.23502523946E-01  0.00000000000E+00 0. -1.
     999901    1    3    3    0    0 -0.60201138267E-01  0.10285782975E+00  0.90263228370E-01  0.89260929896E+00  0.88000000000E+00 0. -1.
        -11    1    4    4    0    0  0.37282950194E-01 -0.42965915332E-01 -0.38866701441E-01  0.68898257289E-01  0.51100000000E-03 0.  1.
         11    1    4    4    0    0  0.14920879199E-01 -0.41679412050E-01 -0.38877883228E-01  0.58919919808E-01  0.51100000000E-03 0. -1.
</event>
<event>
 8    1  0.1146431E+005  0.1043930E+01  0.7957747E-01            NaN
         13   -1    0    0    0    0  0.00000000000E+00  0.00000000000E+00  0.74505805969E-08  0.10566000000E+00  0.10566000000E+00 0. -1.
     999900   -1    0    0    0    0 -0.00000000000E+00 -0.00000000000E+00 -0.74505805969E-08  0.93827000000E+00  0.93827000000E+00 0.  1.
     999902    2    1    2    0    0  0.20398760350E-01 -0.53602222701E-03 -0.10354190127E-01  0.10210475614E+01  0.10207911229E+01 0.  0.
     999903    2    3    3    0    0 -0.55468600970E-01 -0.11579417365E+00  0.11845302952E-01  0.13001831637E+00  0.16715114296E-01 0.  0.
         14    1    1    2    0    0 -0.20398760350E-01  0.53602222701E-03  0.10354190127E-01  0.22882438612E-01  0.00000000000E+00 0. -1.
     999901    1    3    3    0    0  0.75867361320E-01  0.11525815142E+00 -0.22199493079E-01  0.89102924502E+00  0.88000000000E+00 0.  1.
        -11    1    4    4    0    0 -0.43435798212E-02 -0.13353394278E-01 -0.35610872616E-02  0.14495595465E-01  0.51100000000E-03 0. -1.
         11    1    4    4    0    0 -0.51125021149E-01 -0.10244077937E+00  0.15406390213E-01  0.11552272091E+00  0.51100000000E-03 0.  1.
</event>
<event>
 8    1  0.1146431E+005  0.1043930E+01  0.7957747E-01            NaN
         13   -1    0    0    0    0  0.00000000000E+00  0.00000000000E+00  0.74505805969E-08  0.10566000000E+00  0.10566000000E+00 0. -1.
     999900   -1    0    0    0    0 -0.00000000000E+00 -0.00000000000E+00 -0.74505805969E-08  0.93827000000E+00  0.93827000000E+00 0.  1.
     999902    2    1    2    0    0  0.22374559746E-01  0.56945118145E-02  0.43605766234E-02  0.10204339787E+01  0.10201634388E+01 0.  0.
     999903    2    3    3    0    0  0.73092441411E-01  0.89889634576E-01  0.62167398392E-01  0.13307680661E+00  0.20542629771E-01 0.  0.
         14    1    1    2    0    0 -0.22374559746E-01 -0.56945118145E-02 -0.43605766234E-02  0.23496021304E-01  0.00000000000E+00 0.  1.
     999901    1    3    3    0    0 -0.50717881666E-01 -0.84195122761E-01 -0.57806821768E-01  0.88735717209E+00  0.88000000000E+00 0.  1.
        -11    1    4    4    0    0  0.30401860769E-01  0.29219385023E-01  0.32236123245E-01  0.53079886607E-01  0.51100000000E-03 0. -1.
         11    1    4    4    0    0  0.42690580642E-01  0.60670249553E-01  0.29931275147E-01  0.79996919999E-01  0.51100000000E-03 0.  1.
</event>
<event>
 7    1  0.1155899E+005  0.1043930E+01  0.7957747E-01            NaN
         13   -1    0    0    0    0  0.00000000000E+00  0.00000000000E+00  0.74505805969E-08  0.10566000000E+00  0.10566000000E+00 0.  1.
     999900   -1    0    0    0    0 -0.00000000000E+00 -0.00000000000E+00 -0.74505805969E-08  0.93827000000E+00  0.93827000000E+00 0.  1.
     999903    2    1    2    0    0  0.53248921910E-01  0.63890111833E-01 -0.20986662838E-01  0.88141660094E-01  0.20276048740E-01 0.  0.
         14    1    1    2    0    0  0.29470870749E-01  0.55949370650E-01  0.78799445466E-02  0.63725644954E-01  0.00000000000E+00 0.  1.
     999901    1    1    2    0    0 -0.82719792659E-01 -0.11983948248E+00  0.13106718291E-01  0.89206269495E+00  0.88000000000E+00 0. -1.
        -11    1    3    3    0    0  0.20439692585E-01  0.34428248791E-01 -0.18924202782E-02  0.40086503006E-01  0.51100000000E-03 0.  1.
         11    1    3    3    0    0  0.32809229326E-01  0.29461863043E-01 -0.19094242559E-01  0.48055157088E-01  0.51100000000E-03 0. -1.
</event>
<event>
 8    1  0.1146431E+005  0.1043930E+01  0.7957747E-01            NaN
         13   -1    0    0    0    0  0.00000000000E+00  0.00000000000E+00  0.74505805969E-08  0.10566000000E+00  0.10566000000E+00 0.  1.
     999900   -1    0    0    0    0 -0.00000000000E+00 -0.00000000000E+00 -0.74505805969E-08  0.93827000000E+00  0.93827000000E+00 0. -1.
     999902    2    1    2    0    0  0.11051318067E-01  0.49999582509E-02  0.20758954413E-01  0.10198870093E+01  0.10196035731E+01 0.  0.
     999903    2    3    3    0    0  0.24442251056E-01 -0.23072394785E-02  0.12909429893E+00  0.13311237102E+00  0.21232482484E-01 0.  0.
         14    1    1    2    0    0 -0.11051318067E-01 -0.49999582509E-02 -0.20758954413E-01  0.24042990701E-01  0.00000000000E+00 0. -1.
     999901    1    3    3    0    0 -0.13390932989E-01  0.73071977294E-02 -0.10833534451E+00  0.88677463828E+00  0.88000000000E+00 0. -1.
        -11    1    4    4    0    0  0.69536130940E-03 -0.81607007378E-03  0.60410626014E-01  0.60422300139E-01  0.51100000000E-03 0.  1.
         11    1    4    4    0    0  0.23746889747E-01 -0.14911694047E-02  0.68683672913E-01  0.72690070880E-01  0.51100000000E-03 0. -1.
</event>
<event>
 8    1  0.1146431E+005  0.1043930E+01  0.7957747E-01            NaN
         13   -1    0    0    0    0  0.00000000000E+00  0.00000000000E+00  0.74505805969E-08  0.10566000000E+00  0.10566000000E+00 0.  1.
     999900   -1    0    0    0    0 -0.00000000000E+00 -0.00000000000E+00 -0.74505805969E-08  0.93827000000E+00  0.93827000000E+00 0. -1.
     999902    2    1    2    0    0 -0.26193618793E-02  0.22593281247E-01 -0.73509330559E-02  0.10200269954E+01  0.10197468890E+01 0.  0.
     999903    2    3    3    0    0  0.91321724397E-01 -0.87524171652E-01  0.15703503471E-02  0.12815796326E+00  0.20539220423E-01 0.  0.
         14    1    1    2    0    0  0.26193618793E-02 -0.22593281247E-01  0.73509330559E-02  0.23903004643E-01  0.00000000000E+00 0. -1.
     999901    1    3    3    0    0 -0.93941086276E-01  0.11011745290E+00 -0.89212834031E-02  0.89186903210E+00  0.88000000000E+00 0. -1.
        -11    1    4    4    0    0  0.39115842570E-01 -0.37935789060E-01  0.10835316056E-01  0.55559323489E-01  0.51100000000E-03 0. -1.
         11    1    4    4    0    0  0.52205881827E-01 -0.49588382592E-01 -0.92649657089E-02  0.72598639767E-01  0.51100000000E-03 0.  1.
</event>
<event>
 8    1  0.1146431E+005  0.1043930E+01  0.7957747E-01            NaN
         13   -1    0    0    0    0  0.00000000000E+00  0.00000000000E+00  0.74505805969E-08  0.10566000000E+00  0.10566000000E+00 0.  1.
     999900   -1    0    0    0    0 -0.00000000000E+00 -0.00000000000E+00 -0.74505805969E-08  0.93827000000E+00  0.93827000000E+00 0. -1.
     999902    2    1    2    0    0  0.14844255205E-01 -0.18014220439E-01 -0.43929906750E-03  0.10205835434E+01  0.10203164764E+01 0.  0.
     999903    2    3    3    0    0  0.64881756820E-01 -0.10927118844E+00  0.36750086637E-01  0.13367056225E+00  0.19168081658E-01 0.  0.
         14    1    1    2    0    0 -0.14844255205E-01  0.18014220439E-01  0.43929906750E-03  0.23346456568E-01  0.00000000000E+00 0. -1.
     999901    1    3    3    0    0 -0.50037501615E-01  0.91256967998E-01 -0.37189385704E-01  0.88691298118E+00  0.88000000000E+00 0. -1.
        -11    1    4    4    0    0  0.29786369123E-01 -0.41467030547E-01  0.23385694213E-01  0.56159542580E-01  0.51100000000E-03 0. -1.
         11    1    4    4    0    0  0.35095387696E-01 -0.67804157891E-01  0.13364392423E-01  0.77511019672E-01  0.51100000000E-03 0.  1.
</event>
<event>
 8    1  0.1146431E+005  0.1043930E+01  0.7957747E-01            NaN
         13   -1    0    0    0    0  0.00000000000E+00  0.00000000000E+00  0.74505805969E-08  0.10566000000E+00  0.10566000000E+00 0.  1.
     999900   -1    0    0    0    0 -0.00000000000E+00 -0.00000000000E+00 -0.74505805969E-08  0.93827000000E+00  0.93827000000E+00 0. -1.
     999902    2    1    2    0    0 -0.30739610825E-02 -0.91268283423E-02 -0.21314529992E-01  0.10205407413E+01  0.10202726828E+01 0.  0.
     999903    2    3    3    0    0 -0.66334851004E-01 -0.46059640453E-02 -0.11388248787E+00  0.13341549356E+00  0.20222401354E-01 0.  0.
         14    1    1    2    0    0  0.30739610825E-02  0.91268283423E-02  0.21314529992E-01  0.23389258669E-01  0.00000000000E+00 0.  1.
     999901    1    3    3    0    0  0.63260889921E-01 -0.45208642970E-02  0.92567957875E-01  0.88712524777E+00  0.88000000000E+00 0.  1.
        -11    1    4    4    0    0 -0.16753914369E-01  0.16728163407E-02 -0.46958477121E-01  0.49888391993E-01  0.51100000000E-03 0.  1.
         11    1    4    4    0    0 -0.49580936634E-01 -0.62787803860E-02 -0.66924010747E-01  0.83527101566E-01  0.51100000000E-03 0. -1.
</event>
<event>
 8    1  0.1146431E+005  0.1043930E+01  0.7957747E-01            NaN
         13   -1    0    0    0    0  0.00000000000E+00  0.00000000000E+00  0.74505805969E-08  0.10566000000E+00  0.10566000000E+00 0. -1.
     999900   -1    0    0    0    0 -0.00000000000E+00 -0.00000000000E+00 -0.74505805969E-08  0.93827000000E+00  0.93827000000E+00 0.  1.
     999902    2    1    2    0    0 -0.65627647764E-02  0.61816462505E-02 -0.22381603534E-01  0.10198007893E+01  0.10195152922E+01 0.  0.
     999903    2    3    3    0    0 -0.14089718656E-01 -0.69954466758E-01  0.10376935008E+00  0.12751864456E+00  0.20019468111E-01 0.  0.
         14    1    1    2    0    0  0.65627647764E-02 -0.61816462505E-02  0.22381603534E-01  0.24129210692E-01  0.00000000000E+00 0. -1.
     999901    1    3    3    0    0  0.75269538794E-02  0.76136113008E-01 -0.12615095361E+00  0.89228214475E+00  0.88000000000E+00 0.  1.
        -11    1    4    4    0    0 -0.13986067903E-01 -0.29521361794E-01  0.36105027334E-01  0.48692453393E-01  0.51100000000E-03 0. -1.
         11    1    4    4    0    0 -0.10365075256E-03 -0.40433104964E-01  0.67664322744E-01  0.78826191167E-01  0.51100000000E-03 0.  1.
</event>
<event>
 8    1  0.1146431E+005  0.1043930E+01  0.7957747E-01            NaN
         13   -1    0    0    0    0  0.00000000000E+00  0.00000000000E+00  0.74505805969E-08  0.10566000000E+00  0.10566000000E+00 0. -1.
     999900   -1    0    0    0    0 -0.00000000000E+00 -0.00000000000E+00 -0.74505805969E-08  0.93827000000E+00  0.93827000000E+00 0. -1.
     999902    2    1    2    0    0  0.81926573013E-02  0.60479695455E-02  0.20874673333E-01  0.10207039466E+01  0.10204396587E+01 0.  0.
     999903    2    3    3    0    0 -0.14800090712E-01  0.11908946987E+00  0.54556147849E-01  0.13253645735E+00  0.13718408768E-01 0.  0.
         14    1    1    2    0    0 -0.81926573013E-02 -0.60479695455E-02 -0.20874673333E-01  0.23226053389E-01  0.00000000000E+00 0.  1.
     999901    1    3    3    0    0  0.22992748014E-01 -0.11304150033E+00 -0.33681474517E-01  0.88816748926E+00  0.88000000000E+00 0. -1.
        -11    1    4    4    0    0 -0.74883960476E-02  0.94497188039E-01  0.38827617474E-01  0.10243846749E+00  0.51100000000E-03 0.  1.
         11    1    4    4    0    0 -0.73116946647E-02  0.24592281832E-01  0.15728530375E-01  0.30097989855E-01  0.51100000000E-03 0. -1.
</event>
<event>
 8    1  0.1146431E+005  0.1043930E+01  0.7957747E-01            NaN
         13   -1    0    0    0    0  0.00000000000E+00  0.00000000000E+00  0.74505805969E-08  0.10566000000E+00  0.10566000000E+00 0. -1.
     999900   -1    0    0    0    0 -0.00000000000E+00 -0.00000000000E+00 -0.74505805969E-08  0.93827000000E+00  0.93827000000E+00 0. -1.
     999902    2    1    2    0    0 -0.36639773818E-02 -0.12178119129E-01  0.21648363712E-01  0.10188225715E+01  0.10185131561E+01 0.  0.
     999903    2    3    3    0    0  0.11306186420E+00  0.34798384985E-01  0.48897366458E-01  0.12945525580E+00  0.19333858250E-01 0.  0.
         14    1    1    2    0    0  0.36639773818E-02  0.12178119129E-01 -0.21648363712E-01  0.25107428525E-01  0.00000000000E+00 0.  1.
     999901    1    3    3    0    0 -0.11672584158E+00 -0.46976504114E-01 -0.27249002746E-01  0.88936731567E+00  0.88000000000E+00 0. -1.
        -11    1    4    4    0    0  0.33436487434E-01  0.13343706523E-02  0.14854116061E-01  0.36615367292E-01  0.51100000000E-03 0. -1.
         11    1    4    4    0    0  0.79625376766E-01  0.33464014333E-01  0.34043250396E-01  0.92839888512E-01  0.51100000000E-03 0.  1.
</event>
<event>
 8    1  0.1146431E+005  0.1043930E+01  0.7957747E-01            NaN
         13   -1    0    0    0    0  0.00000000000E+00  0.00000000000E+00  0.74505805969E-08  0.10566000000E+00  0.10566000000E+00 0.  1.
     999900   -1    0    0    0    0 -0.00000000000E+00 -0.00000000000E+00 -0.74505805969E-08  0.93827000000E+00  0.93827000000E+00 0. -1.
     999902    2    1    2    0    0 -0.11359498775E-01  0.95800950514E-02 -0.18704681715E-01  0.10200410580E+01  0.10197612850E+01 0.  0.
     999903    2    3    3    0    0 -0.31722318343E-01  0.68800521128E-01  0.10296407117E+00  0.12946540777E+00  0.20490843542E-01 0.  0.
         14    1    1    2    0    0  0.11359498775E-01 -0.95800950514E-02  0.18704681715E-01  0.23888942038E-01  0.00000000000E+00 0.  1.
     999901    1    3    3    0    0  0.20362819568E-01 -0.59220426076E-01 -0.12166875288E+00  0.89057565019E+00  0.88000000000E+00 0. -1.
        -11    1    4    4    0    0 -0.31753257320E-01  0.64636128947E-01  0.86900893455E-01  0.11286330192E+00  0.51100000000E-03 0.  1.
         11    1    4    4    0    0  0.30938976914E-04  0.41643921805E-02  0.16063177714E-01  0.16602105853E-01  0.51100000000E-03 0. -1.
</event>
<event>
 8    1  0.1146431E+005  0.1043930E+01  0.7957747E-01            NaN
         13   -1    0    0    0    0  0.00000000000E+00  0.00000000000E+00  0.74505805969E-08  0.10566000000E+00  0.10566000000E+00 0.  1.
     999900   -1    0    0    0    0 -0.00000000000E+00 -0.00000000000E+00 -0.74505805969E-08  0.93827000000E+00  0.93827000000E+00 0. -1.
     999902    2    1    2    0    0 -0.13254232885E-01 -0.19194969723E-01  0.44974045720E-02  0.10201739860E+01  0.10198973544E+01 0.  0.
     999903    2    3    3    0    0  0.81946504128E-01  0.88563382827E-01  0.37563017998E-01  0.12789130791E+00  0.19659705023E-01 0.  0.
         14    1    1    2    0    0  0.13254232885E-01  0.19194969723E-01 -0.44974045720E-02  0.23756013974E-01  0.00000000000E+00 0. -1.
     999901    1    3    3    0    0 -0.95200737013E-01 -0.10775835255E+00 -0.33065613426E-01  0.89228267811E+00  0.88000000000E+00 0. -1.
        -11    1    4    4    0    0  0.46597107316E-01  0.54133194854E-01  0.12395220750E-01  0.72495488230E-01  0.51100000000E-03 0.  1.
         11    1    4    4    0    0  0.35349396812E-01  0.34430187974E-01  0.25167797247E-01  0.55395819681E-01  0.51100000000E-03 0. -1.
</event>
<event>
 8    1  0.1146431E+005  0.1043930E+01  0.7957747E-01            NaN
         13   -1    0    0    0    0  0.00000000000E+00  0.00000000000E+00  0.74505805969E-08  0.10566000000E+00  0.10566000000E+00 0.  1.
     999900   -1    0    0    0    0 -0.00000000000E+00 -0.00000000000E+00 -0.74505805969E-08  0.93827000000E+00  0.93827000000E+00 0.  1.
     999902    2    1    2    0    0 -0.37069759781E-02  0.18770331621E-01  0.15416489431E-01  0.10193589771E+01  0.10190627994E+01 0.  0.
     999903    2    3    3    0    0 -0.88088412025E-01  0.87104026671E-01  0.41345202486E-01  0.13230654416E+00  0.21187639380E-01 0.  0.
         14    1    1    2    0    0  0.37069759781E-02 -0.18770331621E-01 -0.15416489431E-01  0.24571022902E-01  0.00000000000E+00 0. -1.
     999901    1    3    3    0    0  0.84381436046E-01 -0.68333695050E-01 -0.25928713054E-01  0.88705243294E+00  0.88000000000E+00 0. -1.
        -11    1    4    4    0    0 -0.46469562289E-01  0.35451231376E-01  0.27247614787E-01  0.64489562395E-01  0.51100000000E-03 0. -1.
         11    1    4    4    0    0 -0.41618849736E-01  0.51652795295E-01  0.14097587699E-01  0.67816981760E-01  0.51100000000E-03 0.  1.
</event>
<event>
 8    1  0.1146431E+005  0.1043930E+01  0.7957747E-01            NaN
         13   -1    0    0    0    0  0.00000000000E+00  0.00000000000E+00  0.74505805969E-08  0.10566000000E+00  0.10566000000E+00 0. -1.
     999900   -1    0    0    0    0 -0.00000000000E+00 -0.00000000000E+00 -0.74505805969E-08  0.93827000000E+00  0.93827000000E+00 0.  1.
     999902    2    1    2    0    0 -0.11373667641E-02 -0.84012409953E-02 -0.19199562075E-01  0.10229419644E+01  0.10227266326E+01 0.  0.
     999903    2    3    3    0    0  0.96812575220E-01  0.86531720152E-01 -0.18261478675E-01  0.13243236973E+00  0.18559031097E-01 0.  0.
         14    1    1    2    0    0  0.11373667641E-02  0.84012409953E-02  0.19199562075E-01  0.20988035575E-01  0.00000000000E+00 0. -1.
     999901    1    3    3    0    0 -0.97949941984E-01 -0.94932961147E-01 -0.93808339953E-03  0.89050959470E+00  0.88000000000E+00 0.  1.
        -11    1    4    4    0    0  0.40346823388E-01  0.48237276988E-01 -0.10593657278E-01  0.63774507009E-01  0.51100000000E-03 0. -1.
         11    1    4    4    0    0  0.56465751833E-01  0.38294443164E-01 -0.76678213975E-02  0.68657862720E-01  0.51100000000E-03 0.  1.
</event>
<event>
 8    1  0.1146431E+005  0.1043930E+01  0.7957747E-01            NaN
         13   -1    0    0    0    0  0.00000000000E+00  0.00000000000E+00  0.74505805969E-08  0.10566000000E+00  0.10566000000E+00 0. -1.
     999900   -1    0    0    0    0 -0.00000000000E+00 -0.00000000000E+00 -0.74505805969E-08  0.93827000000E+00  0.93827000000E+00 0. -1.
     999902    2    1    2    0    0 -0.14319043292E-01  0.16561539954E-01  0.95699429238E-02  0.10200364148E+01  0.10197565318E+01 0.  0.
     999903    2    3    3    0    0  0.11175521843E+00  0.60030886056E-01 -0.16695639842E-01  0.12960158598E+00  0.20612873960E-01 0.  0.
         14    1    1    2    0    0  0.14319043292E-01 -0.16561539954E-01 -0.95699429238E-02  0.23893585206E-01  0.00000000000E+00 0. -1.
     999901    1    3    3    0    0 -0.12607426172E+00 -0.43469346102E-01  0.26265582766E-01  0.89043482881E+00  0.88000000000E+00 0.  1.
        -11    1    4    4    0    0  0.50214904986E-01  0.15596038866E-01 -0.82270739698E-02  0.53223293567E-01  0.51100000000E-03 0.  1.
         11    1    4    4    0    0  0.61540313445E-01  0.44434847190E-01 -0.84685658723E-02  0.76378292417E-01  0.51100000000E-03 0. -1.
</event>
<event>
 8    1  0.1146431E+005  0.1043930E+01  0.7957747E-01            NaN
         13   -1    0    0    0    0  0.00000000000E+00  0.00000000000E+00  0.74505805969E-08  0.10566000000E+00  0.10566000000E+00 0. -1.
     999900   -1    0    0    0    0 -0.00000000000E+00 -0.00000000000E+00 -0.74505805969E-08  0.93827000000E+00  0.93827000000E+00 0.  1.
     999902    2    1    2    0    0 -0.14801880201E-01 -0.10350926728E-01 -0.14821283676E-01  0.10205653303E+01  0.10202978416E+01 0.  0.
     999903    2    3    3    0    0  0.87869805542E-01 -0.76202238172E-01 -0.57179853156E-01  0.13114297915E+00  0.20026521034E-01 0.  0.
         14    1    1    2    0    0  0.14801880201E-01  0.10350926728E-01  0.14821283676E-01  0.23364669726E-01  0.00000000000E+00 0. -1.
     999901    1    3    3    0    0 -0.10267168574E+00  0.65851311444E-01  0.42358569480E-01  0.88942235112E+00  0.88000000000E+00 0.  1.
        -11    1    4    4    0    0  0.16832275665E-02 -0.44980246782E-02  0.84334385490E-03  0.49028390657E-02  0.51100000000E-03 0.  1.
         11    1    4    4    0    0  0.86186577975E-01 -0.71704213494E-01 -0.58023197011E-01  0.12624014008E+00  0.51100000000E-03 0. -1.
</event>
<event>
 8    1  0.1146431E+005  0.1043930E+01  0.7957747E-01            NaN
         13   -1    0    0    0    0  0.00000000000E+00  0.00000000000E+00  0.74505805969E-08  0.10566000000E+00  0.10566000000E+00 0. -1.
     999900   -1    0    0    0    0 -0.00000000000E+00 -0.00000000000E+00 -0.74505805969E-08  0.93827000000E+00  0.93827000000E+00 0.  1.
     999902    2    1    2    0    0  0.19018845228E-01 -0.31371523302E-02  0.11129135971E-01  0.10216720606E+01  0.10214295784E+01 0.  0.
     999903    2    3    3    0    0 -0.71140812839E-01  0.48169707097E-01 -0.94648142020E-01  0.12928761974E+00  0.19382515226E-01 0.  0.
         14    1    1    2    0    0 -0.19018845228E-01  0.31371523302E-02 -0.11129135971E-01  0.22257939392E-01  0.00000000000E+00 0.  1.
     999901    1    3    3    0    0  0.90159658067E-01 -0.51306859427E-01  0.10577727799E+00  0.89238444087E+00  0.88000000000E+00 0. -1.
        -11    1    4    4    0    0 -0.26017155861E-01  0.22444678202E-01 -0.50686598022E-01  0.61237638089E-01  0.51100000000E-03 0.  1.
         11    1    4    4    0    0 -0.45123656978E-01  0.25725028895E-01 -0.43961543997E-01  0.68049981649E-01  0.51100000000E-03 0. -1.
</event>
<event>
 7    1  0.1313805E+005  0.1043930E+01  0.7957747E-01            NaN
         13   -1    0    0    0    0  0.00000000000E+00  0.00000000000E+00  0.74505805969E-08  0.10566000000E+00  0.10566000000E+00 0.  1.
     999900   -1    0    0    0    0 -0.00000000000E+00 -0.00000000000E+00 -0.74505805969E-08  0.93827000000E+00  0.93827000000E+00 0. -1.
     999903    2    1    2    0    0 -0.10181728420E-01  0.57142960913E-01  0.48034666395E-01  0.78000375082E-01  0.20192666038E-01 0.  0.
         14    1    1    2    0    0  0.25695870897E-01  0.41229489814E-01 -0.63776836184E-01  0.80172523006E-01  0.00000000000E+00 0. -1.
     999901    1    1    2    0    0 -0.15514142478E-01 -0.98372450727E-01  0.15742169789E-01  0.88575710191E+00  0.88000000000E+00 0. -1.
        -11    1    3    3    0    0  0.55126756154E-02  0.14651053525E-01  0.16843315727E-01  0.23000029728E-01  0.51100000000E-03 0.  1.
         11    1    3    3    0    0 -0.15694404035E-01  0.42491907389E-01  0.31191350668E-01  0.55000345354E-01  0.51100000000E-03 0. -1.
</event>
<event>
 8    1  0.1146431E+005  0.1043930E+01  0.7957747E-01            NaN
         13   -1    0    0    0    0  0.00000000000E+00  0.00000000000E+00  0.74505805969E-08  0.10566000000E+00  0.10566000000E+00 0.  1.
     999900   -1    0    0    0    0 -0.00000000000E+00 -0.00000000000E+00 -0.74505805969E-08  0.93827000000E+00  0.93827000000E+00 0.  1.
     999902    2    1    2    0    0  0.30121111599E-02  0.15742697856E-01  0.18209608637E-01  0.10196710801E+01  0.10193824681E+01 0.  0.
     999903    2    3    3    0    0  0.68475389136E-02  0.45830332384E-01 -0.11855712715E+00  0.12859021041E+00  0.18230240266E-01 0.  0.
         14    1    1    2    0    0 -0.30121111599E-02 -0.15742697856E-01 -0.18209608637E-01  0.24258919929E-01  0.00000000000E+00 0. -1.
     999901    1    3    3    0    0 -0.38354277537E-02 -0.30087634528E-01  0.13676673578E+00  0.89108086966E+00  0.88000000000E+00 0. -1.
        -11    1    4    4    0    0  0.69830735901E-02  0.67663686204E-02 -0.35375246255E-01  0.36690819420E-01  0.51100000000E-03 0.  1.
         11    1    4    4    0    0 -0.13553467645E-03  0.39063963764E-01 -0.83181880893E-01  0.91899390991E-01  0.51100000000E-03 0. -1.
</event>
<event>
 8    1  0.1146431E+005  0.1043930E+01  0.7957747E-01            NaN
         13   -1    0    0    0    0  0.00000000000E+00  0.00000000000E+00  0.74505805969E-08  0.10566000000E+00  0.10566000000E+00 0. -1.
     999900   -1    0    0    0    0 -0.00000000000E+00 -0.00000000000E+00 -0.74505805969E-08  0.93827000000E+00  0.93827000000E+00 0.  1.
     999902    2    1    2    0    0 -0.77654762324E-02  0.50086492184E-02  0.22959978363E-01  0.10191802567E+01  0.10188797013E+01 0.  0.
     999903    2    3    3    0    0 -0.72760944013E-01  0.61273409068E-01  0.90335085788E-01  0.13242801443E+00  0.18115342906E-01 0.  0.
         14    1    1    2    0    0  0.77654762324E-02 -0.50086492184E-02 -0.22959978363E-01  0.24749743322E-01  0.00000000000E+00 0.  1.
     999901    1    3    3    0    0  0.64995467781E-01 -0.56264759850E-01 -0.67375107426E-01  0.88675224225E+00  0.88000000000E+00 0.  1.
        -11    1    4    4    0    0 -0.19643695928E-01  0.89171575863E-02  0.27121344252E-01  0.34658605341E-01  0.51100000000E-03 0.  1.
         11    1    4    4    0    0 -0.53117248085E-01  0.52356251482E-01  0.63213741536E-01  0.97769409088E-01  0.51100000000E-03 0. -1.
</event>
<event>
 8    1  0.1146431E+005  0.1043930E+01  0.7957747E-01            NaN
         13   -1    0    0    0    0  0.00000000000E+00  0.00000000000E+00  0.74505805969E-08  0.10566000000E+00  0.10566000000E+00 0. -1.
     999900   -1    0    0    0    0 -0.00000000000E+00 -0.00000000000E+00 -0.74505805969E-08  0.93827000000E+00  0.93827000000E+00 0. -1.
     999902    2    1    2    0    0 -0.14315086237E-01 -0.19317867934E-01 -0.31186851669E-02  0.10196848373E+01  0.10193965566E+01 0.  0.
     999903    2    3    3    0    0  0.12126888325E+00 -0.14985146342E-01  0.33656472012E-01  0.12853154107E+00  0.21375272794E-01 0.  0.
         14    1    1    2    0    0  0.14315086237E-01  0.19317867934E-01  0.31186851669E-02  0.24245162665E-01  0.00000000000E+00 0. -1.
     999901    1    3    3    0    0 -0.13558396948E+00 -0.43327215913E-02 -0.36775157179E-01  0.89115329626E+00  0.88000000000E+00 0. -1.
        -11    1    4    4    0    0  0.57850759380E-01 -0.82245868182E-02  0.51183311478E-02  0.58658440347E-01  0.51100000000E-03 0.  1.
         11    1    4    4    0    0  0.63418123866E-01 -0.67605595241E-02  0.28538140864E-01  0.69873100724E-01  0.51100000000E-03 0. -1.
</event>
<event>
 8    1  0.1146431E+005  0.1043930E+01  0.7957747E-01            NaN
         13   -1    0    0    0    0  0.00000000000E+00  0.00000000000E+00  0.74505805969E-08  0.10566000000E+00  0.10566000000E+00 0. -1.
     999900   -1    0    0    0    0 -0.00000000000E+00 -0.00000000000E+00 -0.74505805969E-08  0.93827000000E+00  0.93827000000E+00 0. -1.
     999902    2    1    2    0    0  0.85058889630E-02 -0.19680515495E-01 -0.87547506567E-02  0.10207714487E+01  0.10205087124E+01 0.  0.
     999903    2    3    3    0    0 -0.11245132043E+00 -0.57901733771E-01  0.26529177362E-01  0.13097570611E+00  0.21282107476E-01 0.  0.
         14    1    1    2    0    0 -0.85058889630E-02  0.19680515495E-01  0.87547506567E-02  0.23158551256E-01  0.00000000000E+00 0. -1.
     999901    1    3    3    0    0  0.12095720940E+00  0.38221218276E-01 -0.35283928018E-01  0.88979574263E+00  0.88000000000E+00 0. -1.
        -11    1    4    4    0    0 -0.10160224135E+00 -0.44704598368E-01  0.25229892742E-01  0.11383463959E+00  0.51100000000E-03 0. -1.
         11    1    4    4    0    0 -0.10849079084E-01 -0.13197135404E-01  0.12992846199E-02  0.17141066518E-01  0.51100000000E-03 0.  1.
</event>
<event>
 8    1  0.1146431E+005  0.1043930E+01  0.7957747E-01            NaN
         13   -1    0    0    0    0  0.00000000000E+00  0.00000000000E+00  0.74505805969E-08  0.10566000000E+00  0.10566000000E+00 0.  1.
     999900   -1    0    0    0    0 -0.00000000000E+00 -0.00000000000E+00 -0.74505805969E-08  0.93827000000E+00  0.93827000000E+00 0. -1.
     999902    2    1    2    0    0  0.98603814744E-02  0.16448598130E-01  0.90484887571E-02  0.10227248437E+01  0.10225049865E+01 0.  0.
     999903    2    3    3    0    0  0.80772063277E-01 -0.65177484076E-01  0.80644923395E-01  0.13322086209E+00  0.21724727632E-01 0.  0.
         14    1    1    2    0    0 -0.98603814744E-02 -0.16448598130E-01 -0.90484887571E-02  0.21205156261E-01  0.00000000000E+00 0. -1.
     999901    1    3    3    0    0 -0.70911681803E-01  0.81626082206E-01 -0.71596434638E-01  0.88950398165E+00  0.88000000000E+00 0. -1.
        -11    1    4    4    0    0  0.31574679896E-01 -0.13534341928E-01  0.31406949070E-01  0.46548860274E-01  0.51100000000E-03 0. -1.
         11    1    4    4    0    0  0.49197383381E-01 -0.51643142149E-01  0.49237974325E-01  0.86672001819E-01  0.51100000000E-03 0.  1.
</event>
<event>
 8    1  0.1146431E+005  0.1043930E+01  0.7957747E-01            NaN
         13   -1    0    0    0    0  0.00000000000E+00  0.00000000000E+00  0.74505805969E-08  0.10566000000E+00  0.10566000000E+00 0. -1.
     999900   -1    0    0    0    0 -0.00000000000E+00 -0.00000000000E+00 -0.74505805969E-08  0.93827000000E+00  0.93827000000E+00 0. -1.
     999902    2    1    2    0    0 -0.55958258480E-02 -0.14595820128E-01 -0.17132958384E-01  0.10207375552E+01  0.10204740404E+01 0.  0.
     999903    2    3    3    0    0  0.10697466383E+00 -0.21788278843E-02  0.69792423818E-01  0.12923190806E+00  0.19534012497E-01 0.  0.
         14    1    1    2    0    0  0.55958258480E-02  0.14595820128E-01  0.17132958384E-01  0.23192444786E-01  0.00000000000E+00 0. -1.
     999901    1    3    3    0    0 -0.11257048968E+00 -0.12416992244E-01 -0.86925382202E-01  0.89150564716E+00  0.88000000000E+00 0. -1.
        -11    1    4    4    0    0  0.61660363788E-01  0.30913022145E-02  0.29770295923E-01  0.68542601732E-01  0.51100000000E-03 0. -1.
         11    1    4    4    0    0  0.45314300046E-01 -0.52701300989E-02  0.40022127895E-01  0.60689306324E-01  0.51100000000E-03 0.  1.
</event>
<event>
 8    1  0.1146431E+005  0.1043930E+01  0.7957747E-01            NaN
         13   -1    0    0    0    0  0.00000000000E+00  0.00000000000E+00  0.74505805969E-08  0.10566000000E+00  0.10566000000E+00 0. -1.
     999900   -1    0    0    0    0 -0.00000000000E+00 -0.00000000000E+00 -0.74505805969E-08  0.93827000000E+00  0.93827000000E+00 0. -1.
     999902    2    1    2    0    0  0.19701029731E-01 -0.98611952927E-02  0.10540661117E-01  0.10195070747E+01  0.10192144995E+01 0.  0.
     999903    2    3    3    0    0 -0.84183243322E-01 -0.94896124444E-01  0.13816961981E-01  0.12931966995E+00  0.20989895374E-01 0.  0.
         14    1    1    2    0    0 -0.19701029731E-01  0.98611952927E-02 -0.10540661117E-01  0.24422925333E-01  0.00000000000E+00 0. -1.
     999901    1    3    3    0    0  0.10388427305E+00  0.85034929151E-01 -0.32763008638E-02  0.89018740471E+00  0.88000000000E+00 0. -1.
        -11    1    4    4    0    0 -0.19752582848E-01 -0.10854927978E-01  0.16752313897E-03  0.22545136406E-01  0.51100000000E-03 0. -1.
         11    1    4    4    0    0 -0.64430660474E-01 -0.84041196466E-01  0.13649438842E-01  0.10677453355E+00  0.51100000000E-03 0.  1.
</event>
<event>
 8    1  0.1146431E+005  0.1043930E+01  0.7957747E-01            NaN
         13   -1    0    0    0    0  0.00000000000E+00  0.00000000000E+00  0.74505805969E-08  0.10566000000E+00  0.10566000000E+00 0.  1.
     999900   -1    0    0    0    0 -0.00000000000E+00 -0.00000000000E+00 -0.74505805969E-08  0.93827000000E+00  0.93827000000E+00 0.  1.
     999902    2    1    2    0    0 -0.11838611224E-01  0.19866374028E-01  0.25918090738E-02  0.10206589234E+01  0.10203935980E+01 0.  0.
     999903    2    3    3    0    0 -0.14264333190E-01 -0.16484101531E-01 -0.12708468927E+00  0.13040994954E+00  0.19520243051E-01 0.  0.
         14    1    1    2    0    0  0.11838611224E-01 -0.19866374028E-01 -0.25918090738E-02  0.23271076619E-01  0.00000000000E+00 0. -1.
     999901    1    3    3    0    0  0.24257219662E-02  0.36350475559E-01  0.12967649834E+00  0.89024897384E+00  0.88000000000E+00 0. -1.
        -11    1    4    4    0    0 -0.31022566616E-02 -0.15956300351E-01 -0.96131719081E-01  0.97497672033E-01  0.51100000000E-03 0.  1.
         11    1    4    4    0    0 -0.11162076528E-01 -0.52780117943E-03 -0.30952970186E-01  0.32912277509E-01  0.51100000000E-03 0. -1.
</event>
<event>
 8    1  0.1146431E+005  0.1043930E+01  0.7957747E-01            NaN
         13   -1    0    0    0    0  0.00000000000E+00  0.00000000000E+00  0.74505805969E-08  0.10566000000E+00  0.10566000000E+00 0. -1.
     999900   -1    0    0    0    0 -0.00000000000E+00 -0.00000000000E+00 -0.74505805969E-08  0.93827000000E+00  0.93827000000E+00 0. -1.
     999902    2    1    2    0    0 -0.64235872223E-02  0.22596538738E-01  0.14715723881E-02  0.10203921250E+01  0.10201206091E+01 0.  0.
     999903    2    3    3    0    0  0.81318446781E-01  0.99302364503E-01  0.27562810828E-01  0.13232500985E+00  0.16629801777E-01 0.  0.
         14    1    1    2    0    0  0.64235872223E-02 -0.22596538738E-01 -0.14715723881E-02  0.23537875033E-01  0.00000000000E+00 0. -1.
     999901    1    3    3    0    0 -0.87742034004E-01 -0.76705825764E-01 -0.26091238440E-01  0.88806711512E+00  0.88000000000E+00 0. -1.
        -11    1    4    4    0    0  0.26506056339E-01  0.30230792802E-01  0.95860970810E-03  0.40220043631E-01  0.51100000000E-03 0. -1.
         11    1    4    4    0    0  0.54812390442E-01  0.69071571701E-01  0.26604201120E-01  0.92104966215E-01  0.51100000000E-03 0.  1.
</event>
<event>
 8    1  0.1146431E+005  0.1043930E+01  0.7957747E-01            NaN
         13   -1    0    0    0    0  0.00000000000E+00  0.00000000000E+00  0.74505805969E-08  0.10566000000E+00  0.10566000000E+00 0.  1.
     999900   -1    0    0    0    0 -0.00000000000E+00 -0.00000000000E+00 -0.74505805969E-08  0.93827000000E+00  0.93827000000E+00 0.  1.
     999902    2    1    2    0    0  0.63565500042E-02  0.11942558307E-01  0.20324369410E-01  0.10195146274E+01  0.10192222354E+01 0.  0.
     999903    2    3    3    0    0  0.51821886904E-01 -0.10298159487E+00  0.56932133776E-01  0.13012450701E+00  0.20010063095E-01 0.  0.
         14    1    1    2    0    0 -0.63565500042E-02 -0.11942558307E-01 -0.20324369410E-01  0.24415372591E-01  0.00000000000E+00 0. -1.
     999901    1    3    3    0    0 -0.45465336900E-01  0.11492415318E+00 -0.36607764367E-01  0.88939012039E+00  0.88000000000E+00 0. -1.
        -11    1    4    4    0    0  0.36913336070E-01 -0.72641192023E-01  0.50032989258E-01  0.95618503928E-01  0.51100000000E-03 0. -1.
         11    1    4    4    0    0  0.14908550834E-01 -0.30340402848E-01  0.68991445185E-02  0.34506003087E-01  0.51100000000E-03 0.  1.
</event>
<event>
 8    1  0.1146431E+005  0.1043930E+01  0.7957747E-01            NaN
         13   -1    0    0    0    0  0.00000000000E+00  0.00000000000E+00  0.74505805969E-08  0.10566000000E+00  0.10566000000E+00 0.  1.
     999900   -1    0    0    0    0 -0.00000000000E+00 -0.00000000000E+00 -0.74505805969E-08  0.93827000000E+00  0.93827000000E+00 0.  1.
     999902    2    1    2    0    0 -0.99128947320E-02  0.20882226849E-01  0.36101099373E-02  0.10205341505E+01  0.10202659391E+01 0.  0.
     999903    2    3    3    0    0 -0.99770548643E-01 -0.80213338226E-01 -0.11384023331E-01  0.13007385645E+00  0.20031728301E-01 0.  0.
         14    1    1    2    0    0  0.99128947320E-02 -0.20882226849E-01 -0.36101099373E-02  0.23395849502E-01  0.00000000000E+00 0. -1.
     999901    1    3    3    0    0  0.89857653911E-01  0.10109556507E+00  0.14994133269E-01  0.89046029405E+00  0.88000000000E+00 0.  1.
        -11    1    4    4    0    0 -0.81000138521E-02 -0.26127717219E-02 -0.48053925191E-02  0.97872222177E-02  0.51100000000E-03 0. -1.
         11    1    4    4    0    0 -0.91670534791E-01 -0.77600566504E-01 -0.65786308123E-02  0.12028663423E+00  0.51100000000E-03 0.  1.
</event>
<event>
 8    1  0.1146431E+005  0.1043930E+01  0.7957747E-01            NaN
         13   -1    0    0    0    0  0.00000000000E+00  0.00000000000E+00  0.74505805969E-08  0.10566000000E+00  0.10566000000E+00 0.  1.
     999900   -1    0    0    0    0 -0.00000000000E+00 -0.00000000000E+00 -0.74505805969E-08  0.93827000000E+00  0.93827000000E+00 0. -1.
     999902    2    1    2    0    0  0.20669803052E-01 -0.16512177911E-02 -0.40778735277E-02  0.10227971741E+01  0.10225788297E+01 0.  0.
     999903    2    3    3    0    0 -0.59380697225E-01  0.11514812962E+00  0.68252821333E-02  0.13141114719E+00  0.20908040818E-01 0.  0.
         14    1    1    2    0    0 -0.20669803052E-01  0.16512177911E-02  0.40778735277E-02  0.21132825909E-01  0.00000000000E+00 0. -1.
     999901    1    3    3    0    0  0.80050500276E-01 -0.11679934741E+00 -0.10903155661E-01  0.89138602690E+00  0.88000000000E+00 0. -1.
        -11    1    4    4    0    0 -0.48101275605E-01  0.99658048701E-01  0.12640581357E-01  0.11138000181E+00  0.51100000000E-03 0.  1.
         11    1    4    4    0    0 -0.11279421619E-01  0.15490080922E-01 -0.58152992237E-02  0.20031145377E-01  0.51100000000E-03 0. -1.
</event>
<event>
 8    1  0.1146431E+005  0.1043930E+01  0.7957747E-01            NaN
         13   -1    0    0    0    0  0.00000000000E+00  0.00000000000E+00  0.74505805969E-08  0.10566000000E+00  0.10566000000E+00 0.  1.
     999900   -1    0    0    0    0 -0.00000000000E+00 -0.00000000000E+00 -0.74505805969E-08  0.93827000000E+00  0.93827000000E+00 0. -1.
     999902    2    1    2    0    0 -0.22847508141E-02  0.85583817282E-02  0.22255816406E-01  0.10199761413E+01  0.10196948276E+01 0.  0.
     999903    2    3    3    0    0 -0.34777657661E-01  0.31229592275E-03 -0.12130359895E+00  0.12771323570E+00  0.19660225173E-01 0.  0.
         14    1    1    2    0    0  0.22847508141E-02 -0.85583817282E-02 -0.22255816406E-01  0.23953858729E-01  0.00000000000E+00 0. -1.
     999901    1    3    3    0    0  0.32492906847E-01  0.82460858054E-02  0.14355941535E+00  0.89226290557E+00  0.88000000000E+00 0.  1.
        -11    1    4    4    0    0 -0.14263865246E-01 -0.88180599852E-02 -0.64078054947E-01  0.66238012353E-01  0.51100000000E-03 0.  1.
         11    1    4    4    0    0 -0.20513792415E-01  0.91303559079E-02 -0.57225543999E-01  0.61475223344E-01  0.51100000000E-03 0. -1.
</event>
<event>
 8    1  0.1146431E+005  0.1043930E+01  0.7957747E-01            NaN
         13   -1    0    0    0    0  0.00000000000E+00  0.00000000000E+00  0.74505805969E-08  0.10566000000E+00  0.10566000000E+00 0.  1.
     999900   -1    0    0    0    0 -0.00000000000E+00 -0.00000000000E+00 -0.74505805969E-08  0.93827000000E+00  0.93827000000E+00 0. -1.
     999902    2    1    2    0    0  0.14733948943E-01 -0.32047423173E-02 -0.18227094544E-01  0.10202744171E+01  0.10200001469E+01 0.  0.
     999903    2    3    3    0    0  0.23209309769E-01 -0.12760608335E+00 -0.37425672963E-02  0.13136647651E+00  0.20522177582E-01 0.  0.
         14    1    1    2    0    0 -0.14733948943E-01  0.32047423173E-02  0.18227094544E-01  0.23655582857E-01  0.00000000000E+00 0.  1.
     999901    1    3    3    0    0 -0.84753608257E-02  0.12440134103E+00 -0.14484527248E-01  0.88890794063E+00  0.88000000000E+00 0. -1.
        -11    1    4    4    0    0  0.18086024963E-01 -0.98118010026E-01  0.58202722009E-02  0.99941907526E-01  0.51100000000E-03 0. -1.
         11    1    4    4    0    0  0.51232848061E-02 -0.29488073324E-01 -0.95628394972E-02  0.31424568984E-01  0.51100000000E-03 0.  1.
</event>
<event>
 8    1  0.1146431E+005  0.1043930E+01  0.7957747E-01            NaN
         13   -1    0    0    0    0  0.00000000000E+00  0.00000000000E+00  0.74505805969E-08  0.10566000000E+00  0.10566000000E+00 0.  1.
     999900   -1    0    0    0    0 -0.00000000000E+00 -0.00000000000E+00 -0.74505805969E-08  0.93827000000E+00  0.93827000000E+00 0.  1.
     999902    2    1    2    0    0 -0.14989749645E-01  0.15363167347E-01 -0.97567773306E-02  0.10203521670E+01  0.10200797177E+01 0.  0.
     999903    2    3    3    0    0  0.85991270719E-01  0.74751366506E-01  0.59257510374E-01  0.12991008770E+00  0.19568160772E-01 0.  0.
         14    1    1    2    0    0  0.14989749645E-01 -0.15363167347E-01  0.97567773306E-02  0.23577833005E-01  0.00000000000E+00 0.  1.
     999901    1    3    3    0    0 -0.10098102036E+00 -0.59388199159E-01 -0.69014287704E-01  0.89044207930E+00  0.88000000000E+00 0. -1.
        -11    1    4    4    0    0  0.62757346737E-01  0.42283202332E-01  0.38197952178E-01  0.84768499105E-01  0.51100000000E-03 0. -1.
         11    1    4    4    0    0  0.23233923982E-01  0.32468164174E-01  0.21059558196E-01  0.45141588594E-01  0.51100000000E-03 0.  1.
</event>
<event>
 8    1  0.1146431E+005  0.1043930E+01  0.7957747E-01            NaN
         13   -1    0    0    0    0  0.00000000000E+00  0.00000000000E+00  0.74505805969E-08  0.10566000000E+00  0.10566000000E+00 0.  1.
     999900   -1    0    0    0    0 -0.00000000000E+00 -0.00000000000E+00 -0.74505805969E-08  0.93827000000E+00  0.93827000000E+00 0.  1.
     999902    2    1    2    0    0  0.17019246104E-01 -0.45226655075E-02  0.17635368692E-01  0.10190078117E+01  0.10187030013E+01 0.  0.
     999903    2    3    3    0    0 -0.99280612672E-02 -0.12716626031E+00  0.14624924365E-01  0.13008899003E+00  0.20962651386E-01 0.  0.
         14    1    1    2    0    0 -0.17019246104E-01  0.45226655075E-02 -0.17635368692E-01  0.24922188310E-01  0.00000000000E+00 0. -1.
     999901    1    3    3    0    0  0.26947307372E-01  0.12264359480E+00  0.30104443271E-02  0.88891882166E+00  0.88000000000E+00 0.  1.
        -11    1    4    4    0    0  0.21680210083E-02 -0.89431001688E-01  0.13255551387E-01  0.90435475018E-01  0.51100000000E-03 0.  1.
         11    1    4    4    0    0 -0.12096082276E-01 -0.37735258623E-01  0.13693729783E-02  0.39653515016E-01  0.51100000000E-03 0. -1.
</event>
<event>
 8    1  0.1146431E+005  0.1043930E+01  0.7957747E-01            NaN
         13   -1    0    0    0    0  0.00000000000E+00  0.00000000000E+00  0.74505805969E-08  0.10566000000E+00  0.10566000000E+00 0.  1.
     999900   -1    0    0    0    0 -0.00000000000E+00 -0.00000000000E+00 -0.74505805969E-08  0.93827000000E+00  0.93827000000E+00 0. -1.
     999902    2    1    2    0    0  0.50652000980E-02  0.11896915370E-01 -0.19421540912E-01  0.10205978527E+01  0.10203311167E+01 0.  0.
     999903    2    3    3    0    0  0.11485828545E+00  0.20290231572E-02 -0.63269875482E-01  0.13263694513E+00  0.19822699087E-01 0.  0.
         14    1    1    2    0    0 -0.50652000980E-02 -0.11896915370E-01  0.19421540912E-01  0.23332147324E-01  0.00000000000E+00 0.  1.
     999901    1    3    3    0    0 -0.10979308535E+00  0.98678922130E-02  0.43848334570E-01  0.88796090755E+00  0.88000000000E+00 0.  1.
        -11    1    4    4    0    0  0.88370597583E-01 -0.61994111683E-02 -0.51768180975E-01  0.10260604709E+00  0.51100000000E-03 0.  1.
         11    1    4    4    0    0  0.26487687864E-01  0.82284343255E-02 -0.11501694506E-01  0.30030898044E-01  0.51100000000E-03 0. -1.
</event>
<event>
 8    1  0.1146431E+005  0.1043930E+01  0.7957747E-01            NaN
         13   -1    0    0    0    0  0.00000000000E+00  0.00000000000E+00  0.74505805969E-08  0.10566000000E+00  0.10566000000E+00 0.  1.
     999900   -1    0    0    0    0 -0.00000000000E+00 -0.00000000000E+00 -0.74505805969E-08  0.93827000000E+00  0.93827000000E+00 0.  1.
     999902    2    1    2    0    0  0.13196082078E-01  0.18212595138E-01  0.64009011051E-02  0.10205461009E+01  0.10202781666E+01 0.  0.
     999903    2    3    3    0    0  0.56433838166E-02  0.13109917565E+00  0.13136363972E-01  0.13327737620E+00  0.19273124054E-01 0.  0.
         14    1    1    2    0    0 -0.13196082078E-01 -0.18212595138E-01 -0.64009011051E-02  0.23383899137E-01  0.00000000000E+00 0. -1.
     999901    1    3    3    0    0  0.75526982618E-02 -0.11288658051E+00 -0.67354628668E-02  0.88726872467E+00  0.88000000000E+00 0. -1.
        -11    1    4    4    0    0  0.59383636472E-02  0.71832212542E-01 -0.19942835358E-02  0.72106651630E-01  0.51100000000E-03 0.  1.
         11    1    4    4    0    0 -0.29497983069E-03  0.59266963107E-01  0.15130647508E-01  0.61170724567E-01  0.51100000000E-03 0. -1.
</event>
<event>
 8    1  0.1146431E+005  0.1043930E+01  0.7957747E-01            NaN
         13   -1    0    0    0    0  0.00000000000E+00  0.00000000000E+00  0.74505805969E-08  0.10566000000E+00  0.10566000000E+00 0. -1.
     999900   -1    0    0    0    0 -0.00000000000E+00 -0.00000000000E+00 -0.74505805969E-08  0.93827000000E+00  0.93827000000E+00 0.  1.
     999902    2    1    2    0    0 -0.59761890076E-02 -0.21184591971E-01 -0.92014933935E-02  0.10200727317E+01  0.10197937089E+01 0.  0.
     999903    2    3    3    0    0  0.19779435351E-01 -0.97682703966E-02  0.12581355672E+00  0.12932992459E+00  0.20261618178E-01 0.  0.
         14    1    1    2    0    0  0.59761890076E-02  0.21184591971E-01  0.92014933935E-02  0.23857268341E-01  0.00000000000E+00 0.  1.
     999901    1    3    3    0    0 -0.25755624359E-01 -0.11416321574E-01 -0.13501505011E+00  0.89074280707E+00  0.88000000000E+00 0.  1.
        -11    1    4    4    0    0  0.23885811811E-01 -0.85102227855E-02  0.10057224943E+00  0.10372075190E+00  0.51100000000E-03 0. -1.
         11    1    4    4    0    0 -0.41063764598E-02 -0.12580476111E-02  0.25241307285E-01  0.25609172690E-01  0.51100000000E-03 0.  1.
</event>
<event>
 8    1  0.1146431E+005  0.1043930E+01  0.7957747E-01            NaN
         13   -1    0    0    0    0  0.00000000000E+00  0.00000000000E+00  0.74505805969E-08  0.10566000000E+00  0.10566000000E+00 0.  1.
     999900   -1    0    0    0    0 -0.00000000000E+00 -0.00000000000E+00 -0.74505805969E-08  0.93827000000E+00  0.93827000000E+00 0.  1.
     999902    2    1    2    0    0  0.27447053530E-01 -0.43372888981E-02 -0.64913001410E-03  0.10161347811E+01  0.10157545566E+01 0.  0.
     999903    2    3    3    0    0  0.91036723775E-01  0.10393010090E-01  0.88998122775E-01  0.12917522297E+00  0.19232073153E-01 0.  0.
         14    1    1    2    0    0 -0.27447053530E-01  0.43372888981E-02  0.64913001410E-03  0.27795218874E-01  0.00000000000E+00 0. -1.
     999901    1    3    3    0    0 -0.63589670244E-01 -0.14730298988E-01 -0.89647252789E-01  0.88695955816E+00  0.88000000000E+00 0. -1.
        -11    1    4    4    0    0  0.28586231287E-01 -0.51133134078E-02  0.23557754477E-01  0.37397159119E-01  0.51100000000E-03 0.  1.
         11    1    4    4    0    0  0.62450492488E-01  0.15506323498E-01  0.65440368298E-01  0.91778063852E-01  0.51100000000E-03 0. -1.
</event>
<event>
 8    1  0.1146431E+005  0.1043930E+01  0.7957747E-01            NaN
         13   -1    0    0    0    0  0.00000000000E+00  0.00000000000E+00  0.74505805969E-08  0.10566000000E+00  0.10566000000E+00 0.  1.
     999900   -1    0    0    0    0 -0.00000000000E+00 -0.00000000000E+00 -0.74505805969E-08  0.93827000000E+00  0.93827000000E+00 0.  1.
     999902    2    1    2    0    0 -0.14313875936E-01 -0.15109291041E-01 -0.56176771328E-02  0.10223722632E+01  0.10221449547E+01 0.  0.
     999903    2    3    3    0    0 -0.69847820078E-01  0.92885385993E-01 -0.60203174876E-01  0.13235740613E+00  0.19688773243E-01 0.  0.
         14    1    1    2    0    0  0.14313875936E-01  0.15109291041E-01  0.56176771328E-02  0.21557736812E-01  0.00000000000E+00 0.  1.
     999901    1    3    3    0    0  0.55533944142E-01 -0.10799467703E+00  0.54585497743E-01  0.89001485706E+00  0.88000000000E+00 0. -1.
        -11    1    4    4    0    0 -0.19499852143E-01  0.32019410865E-01 -0.10153954035E-01  0.38843928860E-01  0.51100000000E-03 0.  1.
         11    1    4    4    0    0 -0.50347967935E-01  0.60865975128E-01 -0.50049220841E-01  0.93513477271E-01  0.51100000000E-03 0. -1.
</event>
<event>
 8    1  0.1146431E+005  0.1043930E+01  0.7957747E-01            NaN
         13   -1    0    0    0    0  0.00000000000E+00  0.00000000000E+00  0.74505805969E-08  0.10566000000E+00  0.10566000000E+00 0. -1.
     999900   -1    0    0    0    0 -0.00000000000E+00 -0.00000000000E+00 -0.74505805969E-08  0.93827000000E+00  0.93827000000E+00 0. -1.
     999902    2    1    2    0    0 -0.16431317018E-02 -0.25593665432E-01 -0.36281324549E-02  0.10180282831E+01  0.10176987208E+01 0.  0.
     999903    2    3    3    0    0 -0.61961274567E-01 -0.11343661418E+00  0.12644056264E-01  0.13145090572E+00  0.20307719520E-01 0.  0.
         14    1    1    2    0    0  0.16431317018E-02  0.25593665432E-01  0.36281324549E-02  0.25901716876E-01  0.00000000000E+00 0. -1.
     999901    1    3    3    0    0  0.60318142865E-01  0.87842948750E-01 -0.16272188719E-01  0.88657737741E+00  0.88000000000E+00 0.  1.
        -11    1    4    4    0    0 -0.27964689673E-01 -0.47911430049E-01 -0.45162706712E-02  0.55661358406E-01  0.51100000000E-03 0.  1.
         11    1    4    4    0    0 -0.33996584894E-01 -0.65525184133E-01  0.17160326935E-01  0.75789547311E-01  0.51100000000E-03 0. -1.
</event>
<event>
 8    1  0.1146431E+005  0.1043930E+01  0.7957747E-01            NaN
         13   -1    0    0    0    0  0.00000000000E+00  0.00000000000E+00  0.74505805969E-08  0.10566000000E+00  0.10566000000E+00 0.  1.
     999900   -1    0    0    0    0 -0.00000000000E+00 -0.00000000000E+00 -0.74505805969E-08  0.93827000000E+00  0.93827000000E+00 0.  1.
     999902    2    1    2    0    0 -0.16136738096E-01  0.20647490698E-02  0.19028861634E-01  0.10188949230E+01  0.10185873105E+01 0.  0.
     999903    2    3    3    0    0  0.10849827528E+00  0.64023067944E-01  0.61190438199E-02  0.12786216085E+00  0.20987151119E-01 0.  0.
         14    1    1    2    0    0  0.16136738096E-01 -0.20647490698E-02 -0.19028861634E-01  0.25035076996E-01  0.00000000000E+00 0. -1.
     999901    1    3    3    0    0 -0.12463501338E+00 -0.61958318874E-01  0.12909817814E-01  0.89103276215E+00  0.88000000000E+00 0. -1.
        -11    1    4    4    0    0  0.14216923531E-01  0.18670653358E-02 -0.26654650921E-02  0.14593583275E-01  0.51100000000E-03 0.  1.
         11    1    4    4    0    0  0.94281351750E-01  0.62156002608E-01  0.87845089120E-02  0.11326857757E+00  0.51100000000E-03 0. -1.
</event>
<event>
 8    1  0.1146431E+005  0.1043930E+01  0.7957747E-01            NaN
         13   -1    0    0    0    0  0.00000000000E+00  0.00000000000E+00  0.74505805969E-08  0.10566000000E+00  0.10566000000E+00 0.  1.
     999900   -1    0    0    0    0 -0.00000000000E+00 -0.00000000000E+00 -0.74505805969E-08  0.93827000000E+00  0.93827000000E+00 0. -1.
     999902    2    1    2    0    0  0.16448935045E-01 -0.95914849409E-02 -0.27890561406E-02  0.10246857052E+01  0.10245049788E+01 0.  0.
     999903    2    3    3    0    0  0.21567841501E-01  0.93830495785E-01  0.90849402839E-01  0.13368039081E+00  0.18641329491E-01 0.  0.
         14    1    1    2    0    0 -0.16448935045E-01  0.95914849409E-02  0.27890561406E-02  0.19244294781E-01  0.00000000000E+00 0. -1.
     999901    1    3    3    0    0 -0.51189064560E-02 -0.10342198073E+00 -0.93638458979E-01  0.89100531441E+00  0.88000000000E+00 0. -1.
        -11    1    4    4    0    0  0.10200860705E-01  0.38446799558E-01  0.25432159053E-01  0.47215143657E-01  0.51100000000E-03 0.  1.
         11    1    4    4    0    0  0.11366980796E-01  0.55383696227E-01  0.65417243785E-01  0.86465247155E-01  0.51100000000E-03 0. -1.
</event>
<event>
 8    1  0.1146431E+005  0.1043930E+01  0.7957747E-01            NaN
         13   -1    0    0    0    0  0.00000000000E+00  0.00000000000E+00  0.74505805969E-08  0.10566000000E+00  0.10566000000E+00 0. -1.
     999900   -1    0    0    0    0 -0.00000000000E+00 -0.00000000000E+00 -0.74505805969E-08  0.93827000000E+00  0.93827000000E+00 0. -1.
     999902    2    1    2    0    0 -0.38164321387E-02 -0.24339646798E-01 -0.48712721987E-02  0.10188160028E+01  0.10185064235E+01 0.  0.
     999903    2    3    3    0    0 -0.20372498025E-01 -0.42173876698E-01 -0.12044014754E+00  0.13092618534E+00  0.21027655968E-01 0.  0.
         14    1    1    2    0    0  0.38164321387E-02  0.24339646798E-01  0.48712721987E-02  0.25113997160E-01  0.00000000000E+00 0. -1.
     999901    1    3    3    0    0  0.16556065886E-01  0.17834229899E-01  0.11556887534E+00  0.88788981750E+00  0.88000000000E+00 0.  1.
        -11    1    4    4    0    0 -0.97651115074E-02 -0.28803062307E-01 -0.98708176814E-01  0.10328862034E+00  0.51100000000E-03 0. -1.
         11    1    4    4    0    0 -0.10607386518E-01 -0.13370814391E-01 -0.21731970729E-01  0.27637564997E-01  0.51100000000E-03 0.  1.
</event>
<event>
 8    1  0.1146431E+005  0.1043930E+01  0.7957747E-01            NaN
         13   -1    0    0    0    0  0.00000000000E+00  0.00000000000E+00  0.74505805969E-08  0.10566000000E+00  0.10566000000E+00 0.  1.
     999900   -1    0    0    0    0 -0.00000000000E+00 -0.00000000000E+00 -0.74505805969E-08  0.93827000000E+00  0.93827000000E+00 0. -1.
     999902    2    1    2    0    0  0.77528149325E-02  0.19746624579E-01 -0.11021254052E-01  0.10200238635E+01  0.10197436829E+01 0.  0.
     999903    2    3    3    0    0 -0.11697484203E+00 -0.37153685136E-01  0.31499662536E-01  0.12839464571E+00  0.20723086637E-01 0.  0.
         14    1    1    2    0    0 -0.77528149325E-02 -0.19746624579E-01  0.11021254052E-01  0.23906136503E-01  0.00000000000E+00 0. -1.
     999901    1    3    3    0    0  0.12472765697E+00  0.56900309715E-01 -0.42520916587E-01  0.89162921778E+00  0.88000000000E+00 0. -1.
        -11    1    4    4    0    0 -0.77811678762E-01 -0.31311785103E-01  0.13740485709E-01  0.84994984009E-01  0.51100000000E-03 0.  1.
         11    1    4    4    0    0 -0.39163163272E-01 -0.58419000327E-02  0.17759176827E-01  0.43399661704E-01  0.51100000000E-03 0. -1.
</event>
<event>
 8    1  0.1675616E+005  0.1043930E+01  0.7957747E-01            NaN
         13   -1    0    0    0    0  0.00000000000E+00  0.00000000000E+00  0.74505805969E-08  0.10566000000E+00  0.10566000000E+00 0.  1.
     999900   -1    0    0    0    0 -0.00000000000E+00 -0.00000000000E+00 -0.74505805969E-08  0.93827000000E+00  0.93827000000E+00 0. -1.
     999902    2    1    2    0    0  0.16842543063E-01  0.10527874710E-02 -0.16442858174E-01  0.10203684380E+01  0.10200963690E+01 0.  0.
     999903    2    3    3    0    0  0.12516909921E+00 -0.39015554953E-01 -0.54379529066E-03  0.13267879910E+00  0.20343330420E-01 0.  0.
         14    1    1    2    0    0 -0.16842543063E-01 -0.10527874710E-02  0.16442858174E-01  0.23561561986E-01  0.00000000000E+00 0.  1.
     999901    1    3    3    0    0 -0.10832655615E+00  0.40068342424E-01 -0.15899062883E-01  0.88768963891E+00  0.88000000000E+00 0. -1.
        -11    1    4    4    0    0  0.42289445679E-01 -0.50309800398E-02  0.52520440205E-02  0.42913320350E-01  0.51100000000E-03 0. -1.
         11    1    4    4    0    0  0.82879653530E-01 -0.33984574913E-01 -0.57958393111E-02  0.89765478752E-01  0.51100000000E-03 0.  1.
</event>
<event>
 8    1  0.1146431E+005  0.1043930E+01  0.7957747E-01            NaN
         13   -1    0    0    0    0  0.00000000000E+00  0.00000000000E+00  0.74505805969E-08  0.10566000000E+00  0.10566000000E+00 0. -1.
     999900   -1    0    0    0    0 -0.00000000000E+00 -0.00000000000E+00 -0.74505805969E-08  0.93827000000E+00  0.93827000000E+00 0.  1.
     999902    2    1    2    0    0 -0.17937002783E-01  0.87307156900E-02  0.10286319625E-01  0.10214851824E+01  0.10212385657E+01 0.  0.
     999903    2    3    3    0    0  0.67911213899E-01  0.37396377760E-02  0.11082156208E+00  0.13159633421E+00  0.20254843660E-01 0.  0.
         14    1    1    2    0    0  0.17937002783E-01 -0.87307156900E-02 -0.10286319625E-01  0.22444817592E-01  0.00000000000E+00 0.  1.
     999901    1    3    3    0    0 -0.85848216682E-01  0.49910779140E-02 -0.10053524246E+00  0.88988884820E+00  0.88000000000E+00 0.  1.
        -11    1    4    4    0    0  0.45721141123E-01 -0.65451673462E-02  0.78176854767E-01  0.90802773655E-01  0.51100000000E-03 0.  1.
         11    1    4    4    0    0  0.22190072776E-01  0.10284805122E-01  0.32644707317E-01  0.40793560558E-01  0.51100000000E-03 0. -1.
</event>
<event>
 8    1  0.1146431E+005  0.1043930E+01  0.7957747E-01            NaN
         13   -1    0    0    0    0  0.00000000000E+00  0.00000000000E+00  0.74505805969E-08  0.10566000000E+00  0.10566000000E+00 0.  1.
     999900   -1    0    0    0    0 -0.00000000000E+00 -0.00000000000E+00 -0.74505805969E-08  0.93827000000E+00  0.93827000000E+00 0.  1.
     999902    2    1    2    0    0  0.89604635106E-03  0.25282794647E-01  0.11680357877E-01  0.10160650872E+01  0.10156829270E+01 0.  0.
     999903    2    3    3    0    0  0.52622807135E-01 -0.17006551748E-01 -0.11047831581E+00  0.12511795739E+00  0.19765180575E-01 0.  0.
         14    1    1    2    0    0 -0.89604635106E-03 -0.25282794647E-01 -0.11680357877E-01  0.27864912782E-01  0.00000000000E+00 0.  1.
     999901    1    3    3    0    0 -0.51726760784E-01  0.42289346395E-01  0.12215867369E+00  0.89094712983E+00  0.88000000000E+00 0. -1.
        -11    1    4    4    0    0  0.18553340911E-01 -0.14069663867E-01 -0.32636918407E-01  0.40095030420E-01  0.51100000000E-03 0. -1.
         11    1    4    4    0    0  0.34069466223E-01 -0.29368878812E-02 -0.77841397403E-01  0.85022926965E-01  0.51100000000E-03 0.  1.
</event>
<event>
 8    1  0.1146431E+005  0.1043930E+01  0.7957747E-01            NaN
         13   -1    0    0    0    0  0.00000000000E+00  0.00000000000E+00  0.74505805969E-08  0.10566000000E+00  0.10566000000E+00 0. -1.
     999900   -1    0    0    0    0 -0.00000000000E+00 -0.00000000000E+00 -0.74505805969E-08  0.93827000000E+00  0.93827000000E+00 0. -1.
     999902    2    1    2    0    0  0.62046463895E-02  0.10831604090E-01 -0.20058579545E-01  0.10203044228E+01  0.10200308561E+01 0.  0.
     999903    2    3    3    0    0  0.10034473295E+00 -0.80356939602E-01 -0.11734792987E-01  0.13055895819E+00  0.19535429964E-01 0.  0.
         14    1    1    2    0    0 -0.62046463895E-02 -0.10831604090E-01  0.20058579545E-01  0.23625577186E-01  0.00000000000E+00 0. -1.
     999901    1    3    3    0    0 -0.94140086561E-01  0.91188543692E-01 -0.83237865585E-02  0.88974546463E+00  0.88000000000E+00 0. -1.
        -11    1    4    4    0    0  0.27629494379E-01 -0.13221799640E-01  0.17029945898E-02  0.30681692537E-01  0.51100000000E-03 0. -1.
         11    1    4    4    0    0  0.72715238571E-01 -0.67135139962E-01 -0.13437787576E-01  0.99877265652E-01  0.51100000000E-03 0.  1.
</event>
<event>
 8    1  0.1146431E+005  0.1043930E+01  0.7957747E-01            NaN
         13   -1    0    0    0    0  0.00000000000E+00  0.00000000000E+00  0.74505805969E-08  0.10566000000E+00  0.10566000000E+00 0.  1.
     999900   -1    0    0    0    0 -0.00000000000E+00 -0.00000000000E+00 -0.74505805969E-08  0.93827000000E+00  0.93827000000E+00 0. -1.
     999902    2    1    2    0    0  0.14088909931E-01 -0.16395361989E-01 -0.97211164244E-02  0.10202275659E+01  0.10199521954E+01 0.  0.
     999903    2    3    3    0    0 -0.50955386883E-01  0.86420572464E-01 -0.78698083827E-01  0.12918340372E+00  0.20736359386E-01 0.  0.
         14    1    1    2    0    0 -0.14088909931E-01  0.16395361989E-01  0.97211164244E-02  0.23702434102E-01  0.00000000000E+00 0.  1.
     999901    1    3    3    0    0  0.65044296814E-01 -0.10281593445E+00  0.68976967402E-01  0.89104416218E+00  0.88000000000E+00 0.  1.
        -11    1    4    4    0    0 -0.28590228709E-01  0.66885521310E-01 -0.56367917983E-01  0.92025417343E-01  0.51100000000E-03 0.  1.
         11    1    4    4    0    0 -0.22365158174E-01  0.19535051154E-01 -0.22330165844E-01  0.37157986374E-01  0.51100000000E-03 0. -1.
</event>
<event>
 8    1  0.1146431E+005  0.1043930E+01  0.7957747E-01            NaN
         13   -1    0    0    0    0  0.00000000000E+00  0.00000000000E+00  0.74505805969E-08  0.10566000000E+00  0.10566000000E+00 0.  1.
     999900   -1    0    0    0    0 -0.00000000000E+00 -0.00000000000E+00 -0.74505805969E-08  0.93827000000E+00  0.93827000000E+00 0.  1.
     999902    2    1    2    0    0  0.13567168971E-01 -0.16057278979E-01 -0.69624663124E-02  0.10217854698E+01  0.10215454792E+01 0.  0.
     999903    2    3    3    0    0 -0.52367141489E-01  0.11536805650E+00  0.16028043226E-01  0.12928980276E+00  0.20170497229E-01 0.  0.
         14    1    1    2    0    0 -0.13567168971E-01  0.16057278979E-01  0.69624663124E-02  0.22144530233E-01  0.00000000000E+00 0.  1.
     999901    1    3    3    0    0  0.65934310460E-01 -0.13142533548E+00 -0.22990509538E-01  0.89249566701E+00  0.88000000000E+00 0. -1.
        -11    1    4    4    0    0 -0.19243864540E-01  0.45662412117E-01  0.16127434120E-01  0.52112737935E-01  0.51100000000E-03 0. -1.
         11    1    4    4    0    0 -0.33123276949E-01  0.69705644385E-01 -0.99390894370E-04  0.77177064822E-01  0.51100000000E-03 0.  1.
</event>
<event>
 8    1  0.1146431E+005  0.1043930E+01  0.7957747E-01            NaN
         13   -1    0    0    0    0  0.00000000000E+00  0.00000000000E+00  0.74505805969E-08  0.10566000000E+00  0.10566000000E+00 0. -1.
     999900   -1    0    0    0    0 -0.00000000000E+00 -0.00000000000E+00 -0.74505805969E-08  0.93827000000E+00  0.93827000000E+00 0. -1.
     999902    2    1    2    0    0  0.12924799100E-02  0.15524613430E-02 -0.23411319065E-01  0.10204316915E+01  0.10201610983E+01 0.  0.
     999903    2    3    3    0    0  0.49689907249E-01  0.86586371507E-01  0.80259283228E-01  0.12896062042E+00  0.14933266933E-01 0.  0.
         14    1    1    2    0    0 -0.12924799100E-02 -0.15524613430E-02  0.23411319065E-01  0.23498308469E-01  0.00000000000E+00 0. -1.
     999901    1    3    3    0    0 -0.48397427339E-01 -0.85033910164E-01 -0.10367060229E+00  0.89147107111E+00  0.88000000000E+00 0. -1.
        -11    1    4    4    0    0  0.47004068903E-01  0.77482360136E-01  0.76971683530E-01  0.11890248026E+00  0.51100000000E-03 0. -1.
         11    1    4    4    0    0  0.26858383459E-02  0.91040113702E-02  0.32875996977E-02  0.10058140157E-01  0.51100000000E-03 0.  1.
</event>
<event>
 8    1  0.1146431E+005  0.1043930E+01  0.7957747E-01            NaN
         13   -1    0    0    0    0  0.00000000000E+00  0.00000000000E+00  0.74505805969E-08  0.10566000000E+00  0.10566000000E+00 0.  1.
     999900   -1    0    0    0    0 -0.00000000000E+00 -0.00000000000E+00 -0.74505805969E-08  0.93827000000E+00  0.93827000000E+00 0. -1.
     999902    2    1    2    0    0  0.12195302894E-01  0.11178721894E-01  0.19048969139E-01  0.10187000087E+01  0.10183875271E+01 0.  0.
     999903    2    3    3    0    0 -0.26662507296E-01 -0.15687340900E-01  0.12579365667E+00  0.13099164270E+00  0.19436677715E-01 0.  0.
         14    1    1    2    0    0 -0.12195302894E-01 -0.11178721894E-01 -0.19048969139E-01  0.25229991302E-01  0.00000000000E+00 0. -1.
     999901    1    3    3    0    0  0.38857810190E-01  0.26866062794E-01 -0.10674468753E+00  0.88770836600E+00  0.88000000000E+00 0. -1.
        -11    1    4    4    0    0 -0.32666966004E-02 -0.33144749571E-02  0.58375205733E-01  0.58562640107E-01  0.51100000000E-03 0. -1.
         11    1    4    4    0    0 -0.23395810696E-01 -0.12372865943E-01  0.67418450934E-01  0.72429002596E-01  0.51100000000E-03 0.  1.
</event>
<event>
 8    1  0.1146431E+005  0.1043930E+01  0.7957747E-01            NaN
         13   -1    0    0    0    0  0.00000000000E+00  0.00000000000E+00  0.74505805969E-08  0.10566000000E+00  0.10566000000E+00 0.  1.
     999900   -1    0    0    0    0 -0.00000000000E+00 -0.00000000000E+00 -0.74505805969E-08  0.93827000000E+00  0.93827000000E+00 0. -1.
     999902    2    1    2    0    0 -0.16578474268E-01  0.14461682633E-01  0.10168019532E-01  0.10196941857E+01  0.10194061299E+01 0.  0.
     999903    2    3    3    0    0 -0.10037199985E+00 -0.11440950970E-01  0.83813497273E-01  0.13227322711E+00  0.16311669806E-01 0.  0.
         14    1    1    2    0    0  0.16578474268E-01 -0.14461682633E-01 -0.10168019532E-01  0.24235814301E-01  0.00000000000E+00 0.  1.
     999901    1    3    3    0    0  0.83793525579E-01  0.25902633603E-01 -0.73645477741E-01  0.88742095859E+00  0.88000000000E+00 0.  1.
        -11    1    4    4    0    0 -0.79455004665E-01 -0.85786779547E-02  0.74262648697E-01  0.10909580008E+00  0.51100000000E-03 0.  1.
         11    1    4    4    0    0 -0.20916995182E-01 -0.28622730148E-02  0.95508485756E-02  0.23177427031E-01  0.51100000000E-03 0. -1.
</event>
<event>
 8    1  0.1146431E+005  0.1043930E+01  0.7957747E-01            NaN
         13   -1    0    0    0    0  0.00000000000E+00  0.00000000000E+00  0.74505805969E-08  0.10566000000E+00  0.10566000000E+00 0. -1.
     999900   -1    0    0    0    0 -0.00000000000E+00 -0.00000000000E+00 -0.74505805969E-08  0.93827000000E+00  0.93827000000E+00 0.  1.
     999902    2    1    2    0    0  0.12489729716E-01 -0.12820944400E-01 -0.17100861939E-01  0.10191750118E+01  0.10188743275E+01 0.  0.
     999903    2    3    3    0    0  0.89725412477E-01  0.89149126042E-01  0.16962063473E-01  0.12927415838E+00  0.20636862880E-01 0.  0.
         14    1    1    2    0    0 -0.12489729716E-01  0.12820944400E-01  0.17100861939E-01  0.24754988240E-01  0.00000000000E+00 0.  1.
     999901    1    3    3    0    0 -0.77235682761E-01 -0.10197007044E+00 -0.34062925413E-01  0.88990085338E+00  0.88000000000E+00 0.  1.
        -11    1    4    4    0    0  0.86078050732E-02  0.11323420101E-01 -0.42950808159E-02  0.14866842004E-01  0.51100000000E-03 0. -1.
         11    1    4    4    0    0  0.81117607403E-01  0.77825705942E-01  0.21257144289E-01  0.11440731638E+00  0.51100000000E-03 0.  1.
</event>
<event>
 8    1  0.1146431E+005  0.1043930E+01  0.7957747E-01            NaN
         13   -1    0    0    0    0  0.00000000000E+00  0.00000000000E+00  0.74505805969E-08  0.10566000000E+00  0.10566000000E+00 0.  1.
     999900   -1    0    0    0    0 -0.00000000000E+00 -0.00000000000E+00 -0.74505805969E-08  0.93827000000E+00  0.93827000000E+00 0. -1.
     999902    2    1    2    0    0 -0.24083317957E-03  0.12375444774E-02  0.24003928430E-01  0.10198929849E+01  0.10196096912E+01 0.  0.
     999903    2    3    3    0    0 -0.32050913987E-01 -0.56911980278E-01 -0.10773580061E+00  0.12762138681E+00  0.20346524343E-01 0.  0.
         14    1    1    2    0    0  0.24083317957E-03 -0.12375444774E-02 -0.24003928430E-01  0.24037015144E-01  0.00000000000E+00 0. -1.
     999901    1    3    3    0    0  0.31810080808E-01  0.58149524755E-01  0.13173972904E+00  0.89227159804E+00  0.88000000000E+00 0.  1.
        -11    1    4    4    0    0 -0.99737652469E-02 -0.37461858729E-01 -0.56198926796E-01  0.68274792908E-01  0.51100000000E-03 0.  1.
         11    1    4    4    0    0 -0.22077148740E-01 -0.19450121549E-01 -0.51536873811E-01  0.59346593904E-01  0.51100000000E-03 0. -1.
</event>
<event>
 8    1  0.1146431E+005  0.1043930E+01  0.7957747E-01            NaN
         13   -1    0    0    0    0  0.00000000000E+00  0.00000000000E+00  0.74505805969E-08  0.10566000000E+00  0.10566000000E+00 0. -1.
     999900   -1    0    0    0    0 -0.00000000000E+00 -0.00000000000E+00 -0.74505805969E-08  0.93827000000E+00  0.93827000000E+00 0. -1.
     999902    2    1    2    0    0 -0.19322526153E-01  0.13025476271E-01  0.43483181973E-02  0.10202249178E+01  0.10199494851E+01 0.  0.
     999903    2    3    3    0    0 -0.65009646608E-01 -0.79069634793E-01 -0.78112636765E-01  0.13041109936E+00  0.20669047314E-01 0.  0.
         14    1    1    2    0    0  0.19322526153E-01 -0.13025476271E-01 -0.43483181973E-02  0.23705082159E-01  0.00000000000E+00 0.  1.
     999901    1    3    3    0    0  0.45687120454E-01  0.92095111064E-01  0.82460954962E-01  0.88981381848E+00  0.88000000000E+00 0.  1.
        -11    1    4    4    0    0 -0.50919730310E-02 -0.16649075726E-01 -0.86213297229E-02  0.19434720453E-01  0.51100000000E-03 0.  1.
         11    1    4    4    0    0 -0.59917673577E-01 -0.62420559067E-01 -0.69491307042E-01  0.11097637891E+00  0.51100000000E-03 0. -1.
</event>
<event>
 8    1  0.1146431E+005  0.1043930E+01  0.7957747E-01            NaN
         13   -1    0    0    0    0  0.00000000000E+00  0.00000000000E+00  0.74505805969E-08  0.10566000000E+00  0.10566000000E+00 0. -1.
     999900   -1    0    0    0    0 -0.00000000000E+00 -0.00000000000E+00 -0.74505805969E-08  0.93827000000E+00  0.93827000000E+00 0. -1.
     999902    2    1    2    0    0 -0.20094566494E-01  0.10783968762E-01 -0.63509819741E-02  0.10202567966E+01  0.10199821129E+01 0.  0.
     999903    2    3    3    0    0  0.71046321745E-01 -0.10407375727E+00  0.87876204065E-02  0.12799666865E+00  0.20663932992E-01 0.  0.
         14    1    1    2    0    0  0.20094566494E-01 -0.10783968762E-01  0.63509819741E-02  0.23673203350E-01  0.00000000000E+00 0. -1.
     999901    1    3    3    0    0 -0.91140888239E-01  0.11485772603E+00 -0.15138602381E-01  0.89226012800E+00  0.88000000000E+00 0. -1.
        -11    1    4    4    0    0  0.22411806274E-01 -0.40465288107E-01 -0.57470477930E-02  0.46615644170E-01  0.51100000000E-03 0. -1.
         11    1    4    4    0    0  0.48634515472E-01 -0.63608469164E-01  0.14534668199E-01  0.81381024479E-01  0.51100000000E-03 0.  1.
</event>
<event>
 8    1  0.1146431E+005  0.1043930E+01  0.7957747E-01            NaN
         13   -1    0    0    0    0  0.00000000000E+00  0.00000000000E+00  0.74505805969E-08  0.10566000000E+00  0.10566000000E+00 0. -1.
     999900   -1    0    0    0    0 -0.00000000000E+00 -0.00000000000E+00 -0.74505805969E-08  0.93827000000E+00  0.93827000000E+00 0.  1.
     999902    2    1    2    0    0 -0.13847961530E-01 -0.18050815431E-01  0.34618428608E-02  0.10209173441E+01  0.10206579452E+01 0.  0.
     999903    2    3    3    0    0  0.11628331464E+00 -0.41448130246E-01 -0.35139872963E-01  0.13020320597E+00  0.21870240244E-01 0.  0.
         14    1    1    2    0    0  0.13847961530E-01  0.18050815431E-01 -0.34618428608E-02  0.23012655915E-01  0.00000000000E+00 0. -1.
     999901    1    3    3    0    0 -0.13013127617E+00  0.23397314815E-01  0.38601715824E-01  0.89071413812E+00  0.88000000000E+00 0. -1.
        -11    1    4    4    0    0  0.52492892628E-01 -0.26611115907E-01 -0.83650685809E-02  0.59446536986E-01  0.51100000000E-03 0.  1.
         11    1    4    4    0    0  0.63790422009E-01 -0.14837014339E-01 -0.26774804382E-01  0.70756668981E-01  0.51100000000E-03 0. -1.
</event>
<event>
 8    1  0.1146431E+005  0.1043930E+01  0.7957747E-01            NaN
         13   -1    0    0    0    0  0.00000000000E+00  0.00000000000E+00  0.74505805969E-08  0.10566000000E+00  0.10566000000E+00 0. -1.
     999900   -1    0    0    0    0 -0.00000000000E+00 -0.00000000000E+00 -0.74505805969E-08  0.93827000000E+00  0.93827000000E+00 0. -1.
     999902    2    1    2    0    0  0.97791700302E-02 -0.21553431644E-01  0.89172152390E-03  0.10202450312E+01  0.10199700711E+01 0.  0.
     999903    2    3    3    0    0  0.60963878579E-01 -0.62868103862E-01  0.97508447841E-01  0.13251671216E+00  0.19590523916E-01 0.  0.
         14    1    1    2    0    0 -0.97791700302E-02  0.21553431644E-01 -0.89172152390E-03  0.23684968849E-01  0.00000000000E+00 0. -1.
     999901    1    3    3    0    0 -0.51184708549E-01  0.41314672218E-01 -0.96616726317E-01  0.88772831899E+00  0.88000000000E+00 0. -1.
        -11    1    4    4    0    0  0.58624591598E-01 -0.52629637129E-01  0.89908331540E-01  0.11954284021E+00  0.51100000000E-03 0.  1.
         11    1    4    4    0    0  0.23392869815E-02 -0.10238466733E-01  0.76001163014E-02  0.12973871952E-01  0.51100000000E-03 0. -1.
</event>
<event>
 8    1  0.1146431E+005  0.1043930E+01  0.7957747E-01            NaN
         13   -1    0    0    0    0  0.00000000000E+00  0.00000000000E+00  0.74505805969E-08  0.10566000000E+00  0.10566000000E+00 0. -1.
     999900   -1    0    0    0    0 -0.00000000000E+00 -0.00000000000E+00 -0.74505805969E-08  0.93827000000E+00  0.93827000000E+00 0.  1.
     999902    2    1    2    0    0 -0.11918213485E-01  0.15602534189E-01  0.12820927797E-01  0.10204809259E+01  0.10202114786E+01 0.  0.
     999903    2    3    3    0    0 -0.51514843132E-01  0.31050246061E-02 -0.11757783441E+00  0.12990363112E+00  0.19671959568E-01 0.  0.
         14    1    1    2    0    0  0.11918213485E-01 -0.15602534189E-01 -0.12820927797E-01  0.23449074084E-01  0.00000000000E+00 0.  1.
     999901    1    3    3    0    0  0.39596629647E-01  0.12497509583E-01  0.13039876220E+00  0.89057729480E+00  0.88000000000E+00 0. -1.
        -11    1    4    4    0    0 -0.89341770702E-02 -0.13138508896E-02 -0.42728608359E-01  0.43675402887E-01  0.51100000000E-03 0. -1.
         11    1    4    4    0    0 -0.42580666062E-01  0.44188754956E-02 -0.74849226048E-01  0.86228228231E-01  0.51100000000E-03 0.  1.
</event>
<event>
 8    1  0.1146431E+005  0.1043930E+01  0.7957747E-01            NaN
         13   -1    0    0    0    0  0.00000000000E+00  0.00000000000E+00  0.74505805969E-08  0.10566000000E+00  0.10566000000E+00 0.  1.
     999900   -1    0    0    0    0 -0.00000000000E+00 -0.00000000000E+00 -0.74505805969E-08  0.93827000000E+00  0.93827000000E+00 0.  1.
     999902    2    1    2    0    0  0.15870510496E-01  0.15366904612E-01 -0.79068003009E-02  0.10204665742E+01  0.10201967931E+01 0.  0.
     999903    2    3    3    0    0  0.12119951373E+00 -0.14497440453E-01 -0.47971274460E-01  0.13277786740E+00  0.20717649265E-01 0.  0.
         14    1    1    2    0    0 -0.15870510496E-01 -0.15366904612E-01  0.79068003009E-02  0.23463425831E-01  0.00000000000E+00 0.  1.
     999901    1    3    3    0    0 -0.10532900323E+00  0.29864345065E-01  0.40064474159E-01  0.88768870676E+00  0.88000000000E+00 0.  1.
        -11    1    4    4    0    0  0.67593682549E-01  0.22144314186E-02 -0.24892382893E-01  0.72067339858E-01  0.51100000000E-03 0. -1.
         11    1    4    4    0    0  0.53605831180E-01 -0.16711871872E-01 -0.23078891567E-01  0.60710527546E-01  0.51100000000E-03 0.  1.
</event>
<event>
 8    1  0.1146431E+005  0.1043930E+01  0.7957747E-01            NaN
         13   -1    0    0    0    0  0.00000000000E+00  0.00000000000E+00  0.74505805969E-08  0.10566000000E+00  0.10566000000E+00 0. -1.
     999900   -1    0    0    0    0 -0.00000000000E+00 -0.00000000000E+00 -0.74505805969E-08  0.93827000000E+00  0.93827000000E+00 0. -1.
     999902    2    1    2    0    0  0.18128422708E-01  0.43075909370E-03  0.15537469343E-01  0.10200503388E+01  0.10197707858E+01 0.  0.
     999903    2    3    3    0    0 -0.46516653192E-01  0.64495679369E-01 -0.98184805000E-01  0.12807721395E+00  0.20976775724E-01 0.  0.
         14    1    1    2    0    0 -0.18128422708E-01 -0.43075909370E-03 -0.15537469343E-01  0.23879661155E-01  0.00000000000E+00 0.  1.
     999901    1    3    3    0    0  0.64645075900E-01 -0.64064920275E-01  0.11372227434E+00  0.89197312489E+00  0.88000000000E+00 0.  1.
        -11    1    4    4    0    0 -0.28818456238E-01  0.49047553613E-01 -0.56221484019E-01  0.79983012707E-01  0.51100000000E-03 0.  1.
         11    1    4    4    0    0 -0.17698196954E-01  0.15448125756E-01 -0.41963320981E-01  0.48094201247E-01  0.51100000000E-03 0. -1.
</event>
<event>
 8    1  0.1146431E+005  0.1043930E+01  0.7957747E-01            NaN
         13   -1    0    0    0    0  0.00000000000E+00  0.00000000000E+00  0.74505805969E-08  0.10566000000E+00  0.10566000000E+00 0. -1.
     999900   -1    0    0    0    0 -0.00000000000E+00 -0.00000000000E+00 -0.74505805969E-08  0.93827000000E+00  0.93827000000E+00 0. -1.
     999902    2    1    2    0    0 -0.10846937614E-01  0.13602933958E-01 -0.17268626058E-01  0.10194167115E+01  0.10191219409E+01 0.  0.
     999903    2    3    3    0    0  0.22344182998E-01 -0.54638261677E-01  0.11041024549E+00  0.12697040749E+00  0.21129598132E-01 0.  0.
         14    1    1    2    0    0  0.10846937614E-01 -0.13602933958E-01  0.17268626058E-01  0.24513288515E-01  0.00000000000E+00 0. -1.
     999901    1    3    3    0    0 -0.33191120612E-01  0.68241195635E-01 -0.12767887155E+00  0.89244630399E+00  0.88000000000E+00 0. -1.
        -11    1    4    4    0    0  0.51030509264E-02 -0.31584516646E-01  0.73463200180E-01  0.80129431061E-01  0.51100000000E-03 0.  1.
         11    1    4    4    0    0  0.17241132072E-01 -0.23053745031E-01  0.36947045309E-01  0.46840976433E-01  0.51100000000E-03 0. -1.
</event>
<event>
 8    1  0.1146431E+005  0.1043930E+01  0.7957747E-01            NaN
         13   -1    0    0    0    0  0.00000000000E+00  0.00000000000E+00  0.74505805969E-08  0.10566000000E+00  0.10566000000E+00 0.  1.
     999900   -1    0    0    0    0 -0.00000000000E+00 -0.00000000000E+00 -0.74505805969E-08  0.93827000000E+00  0.93827000000E+00 0.  1.
     999902    2    1    2    0    0  0.18445052745E-01 -0.15160862835E-01 -0.75634545856E-02  0.10188844899E+01  0.10185766177E+01 0.  0.
     999903    2    3    3    0    0  0.23829212821E-01  0.72265157459E-01  0.10167313301E+00  0.12781494697E+00  0.14462030495E-01 0.  0.
         14    1    1    2    0    0 -0.18445052745E-01  0.15160862835E-01  0.75634545856E-02  0.25045510135E-01  0.00000000000E+00 0.  1.
     999901    1    3    3    0    0 -0.53841600764E-02 -0.87426020294E-01 -0.10923658760E+00  0.89106954289E+00  0.88000000000E+00 0.  1.
        -11    1    4    4    0    0 -0.19515114132E-02  0.42797000487E-02  0.67678523752E-02  0.82576737690E-02  0.51100000000E-03 0. -1.
         11    1    4    4    0    0  0.25780724234E-01  0.67985457410E-01  0.94905280638E-01  0.11955727320E+00  0.51100000000E-03 0.  1.
</event>
<event>
 8    1  0.1146431E+005  0.1043930E+01  0.7957747E-01            NaN
         13   -1    0    0    0    0  0.00000000000E+00  0.00000000000E+00  0.74505805969E-08  0.10566000000E+00  0.10566000000E+00 0. -1.
     999900   -1    0    0    0    0 -0.00000000000E+00 -0.00000000000E+00 -0.74505805969E-08  0.93827000000E+00  0.93827000000E+00 0.  1.
     999902    2    1    2    0    0 -0.67851871896E-02 -0.11069186816E-01  0.19606665806E-01  0.10204143243E+01  0.10201433263E+01 0.  0.
     999903    2    3    3    0    0 -0.11226940310E+00 -0.65947691395E-01  0.13939010956E-01  0.13239929488E+00  0.19538689459E-01 0.  0.
         14    1    1    2    0    0  0.67851871896E-02  0.11069186816E-01 -0.19606665806E-01  0.23515675750E-01  0.00000000000E+00 0. -1.
     999901    1    3    3    0    0  0.10548421591E+00  0.54878504579E-01  0.56676548498E-02  0.88801502937E+00  0.88000000000E+00 0. -1.
        -11    1    4    4    0    0 -0.16439564460E-01 -0.63911185957E-02  0.81066707003E-02  0.19418674192E-01  0.51100000000E-03 0.  1.
         11    1    4    4    0    0 -0.95829838642E-01 -0.59556572799E-01  0.58323402556E-02  0.11298062069E+00  0.51100000000E-03 0. -1.
</event>
<event>
 8    1  0.1146431E+005  0.1043930E+01  0.7957747E-01            NaN
         13   -1    0    0    0    0  0.00000000000E+00  0.00000000000E+00  0.74505805969E-08  0.10566000000E+00  0.10566000000E+00 0. -1.
     999900   -1    0    0    0    0 -0.00000000000E+00 -0.00000000000E+00 -0.74505805969E-08  0.93827000000E+00  0.93827000000E+00 0. -1.
     999902    2    1    2    0    0  0.46817939608E-03 -0.14286239065E-01  0.19099376003E-01  0.10200741416E+01  0.10197951521E+01 0.  0.
     999903    2    3    3    0    0 -0.25115243555E-01  0.11906117962E+00 -0.34764266477E-01  0.12803303399E+00  0.19430996302E-01 0.  0.
         14    1    1    2    0    0 -0.46817939608E-03  0.14286239065E-01 -0.19099376003E-01  0.23855858448E-01  0.00000000000E+00 0.  1.
     999901    1    3    3    0    0  0.25583422951E-01 -0.13334741869E+00  0.53863642480E-01  0.89204110756E+00  0.88000000000E+00 0. -1.
        -11    1    4    4    0    0 -0.24812839820E-01  0.74598058957E-01 -0.19286288800E-01  0.80949178357E-01  0.51100000000E-03 0.  1.
         11    1    4    4    0    0 -0.30240373503E-03  0.44463120664E-01 -0.15477977677E-01  0.47083855632E-01  0.51100000000E-03 0. -1.
</event>
<event>
 8    1  0.1146431E+005  0.1043930E+01  0.7957747E-01            NaN
         13   -1    0    0    0    0  0.00000000000E+00  0.00000000000E+00  0.74505805969E-08  0.10566000000E+00  0.10566000000E+00 0.  1.
     999900   -1    0    0    0    0 -0.00000000000E+00 -0.00000000000E+00 -0.74505805969E-08  0.93827000000E+00  0.93827000000E+00 0. -1.
     999902    2    1    2    0    0  0.95820366002E-02 -0.17523404827E-01 -0.12648697572E-01  0.10202894693E+01  0.10200155521E+01 0.  0.
     999903    2    3    3    0    0 -0.34593352833E-01  0.80852773573E-01  0.90026687657E-01  0.12778088544E+00  0.22119655029E-01 0.  0.
         14    1    1    2    0    0 -0.95820366002E-02  0.17523404827E-01  0.12648697572E-01  0.23640530713E-01  0.00000000000E+00 0. -1.
     999901    1    3    3    0    0  0.44175389433E-01 -0.98376178400E-01 -0.10267538523E+00  0.89250858385E+00  0.88000000000E+00 0. -1.
        -11    1    4    4    0    0  0.29227101303E-03  0.23782335243E-01  0.23271110679E-01  0.33278981433E-01  0.51100000000E-03 0.  1.
         11    1    4    4    0    0 -0.34885623846E-01  0.57070438330E-01  0.66755576978E-01  0.94501904007E-01  0.51100000000E-03 0. -1.
</event>
<event>
 8    1  0.1146431E+005  0.1043930E+01  0.7957747E-01            NaN
         13   -1    0    0    0    0  0.00000000000E+00  0.00000000000E+00  0.74505805969E-08  0.10566000000E+00  0.10566000000E+00 0. -1.
     999900   -1    0    0    0    0 -0.00000000000E+00 -0.00000000000E+00 -0.74505805969E-08  0.93827000000E+00  0.93827000000E+00 0. -1.
     999902    2    1    2    0    0  0.19109667451E-01 -0.13064655998E-01  0.55482219914E-02  0.10201256434E+01  0.10198478715E+01 0.  0.
     999903    2    3    3    0    0  0.83149929897E-01 -0.70385053095E-01 -0.72749434071E-01  0.13247858172E+00  0.19751656050E-01 0.  0.
         14    1    1    2    0    0 -0.19109667451E-01  0.13064655998E-01 -0.55482219914E-02  0.23804356612E-01  0.00000000000E+00 0.  1.
     999901    1    3    3    0    0 -0.64040262446E-01  0.57320397097E-01  0.78297656062E-01  0.88764706166E+00  0.88000000000E+00 0.  1.
        -11    1    4    4    0    0  0.50987978377E-01 -0.35645964159E-01 -0.50676051839E-01  0.80241710169E-01  0.51100000000E-03 0. -1.
         11    1    4    4    0    0  0.32161951520E-01 -0.34739088936E-01 -0.22073382232E-01  0.52236871554E-01  0.51100000000E-03 0.  1.
</event>
<event>
 8    1  0.1146431E+005  0.1043930E+01  0.7957747E-01            NaN
         13   -1    0    0    0    0  0.00000000000E+00  0.00000000000E+00  0.74505805969E-08  0.10566000000E+00  0.10566000000E+00 0. -1.
     999900   -1    0    0    0    0 -0.00000000000E+00 -0.00000000000E+00 -0.74505805969E-08  0.93827000000E+00  0.93827000000E+00 0.  1.
     999902    2    1    2    0    0  0.18832706970E-02  0.13325953026E-01 -0.20250723352E-01  0.10196149938E+01  0.10193250296E+01 0.  0.
     999903    2    3    3    0    0 -0.14467793857E-01  0.12554365801E+00 -0.32701170157E-01  0.13225081584E+00  0.21222267409E-01 0.  0.
         14    1    1    2    0    0 -0.18832706970E-02 -0.13325953026E-01  0.20250723352E-01  0.24315006248E-01  0.00000000000E+00 0. -1.
     999901    1    3    3    0    0  0.16351064554E-01 -0.11221770498E+00  0.12450446805E-01  0.88736417792E+00  0.88000000000E+00 0. -1.
        -11    1    4    4    0    0 -0.35625443624E-03  0.66132359075E-01 -0.89937788903E-02  0.66744026054E-01  0.51100000000E-03 0.  1.
         11    1    4    4    0    0 -0.14111539421E-01  0.59411298934E-01 -0.23707391266E-01  0.65506789782E-01  0.51100000000E-03 0. -1.
</event>
<event>
 8    1  0.1146431E+005  0.1043930E+01  0.7957747E-01            NaN
         13   -1    0    0    0    0  0.00000000000E+00  0.00000000000E+00  0.74505805969E-08  0.10566000000E+00  0.10566000000E+00 0.  1.
     999900   -1    0    0    0    0 -0.00000000000E+00 -0.00000000000E+00 -0.74505805969E-08  0.93827000000E+00  0.93827000000E+00 0.  1.
     999902    2    1    2    0    0 -0.37838671132E-02  0.65899192393E-02 -0.22572139459E-01  0.10201130698E+01  0.10198350008E+01 0.  0.
     999903    2    3    3    0    0  0.21598314957E-01  0.23079791675E-01  0.12208948576E+00  0.12778848932E+00  0.20612895884E-01 0.  0.
         14    1    1    2    0    0  0.37838671132E-02 -0.65899192393E-02  0.22572139459E-01  0.23816930232E-01  0.00000000000E+00 0.  1.
     999901    1    3    3    0    0 -0.25382182070E-01 -0.16489872435E-01 -0.14466162522E+00  0.89232458045E+00  0.88000000000E+00 0.  1.
        -11    1    4    4    0    0  0.29061417319E-02  0.23538194306E-02  0.15862918248E-02  0.40943336980E-02  0.51100000000E-03 0. -1.
         11    1    4    4    0    0  0.18692173225E-01  0.20725972244E-01  0.12050319394E+00  0.12369415562E+00  0.51100000000E-03 0.  1.
</event>
<event>
 8    1  0.1146431E+005  0.1043930E+01  0.7957747E-01            NaN
         13   -1    0    0    0    0  0.00000000000E+00  0.00000000000E+00  0.74505805969E-08  0.10566000000E+00  0.10566000000E+00 0.  1.
     999900   -1    0    0    0    0 -0.00000000000E+00 -0.00000000000E+00 -0.74505805969E-08  0.93827000000E+00  0.93827000000E+00 0.  1.
     999902    2    1    2    0    0 -0.22486944456E-01  0.27037210242E-04  0.71829076036E-02  0.10203236965E+01  0.10200505812E+01 0.  0.
     999903    2    3    3    0    0  0.10015880674E+00  0.56263567505E-01  0.54671677760E-01  0.12877464520E+00  0.19913344800E-01 0.  0.
         14    1    1    2    0    0  0.22486944456E-01 -0.27037210242E-04 -0.71829076036E-02  0.23606303472E-01  0.00000000000E+00 0. -1.
     999901    1    3    3    0    0 -0.12264575120E+00 -0.56236530295E-01 -0.47488770157E-01  0.89154905132E+00  0.88000000000E+00 0.  1.
        -11    1    4    4    0    0  0.33351591963E-01  0.28503899048E-01  0.25656093846E-01  0.50826147010E-01  0.51100000000E-03 0. -1.
         11    1    4    4    0    0  0.66807214781E-01  0.27759668457E-01  0.29015583914E-01  0.77948498193E-01  0.51100000000E-03 0.  1.
</event>
<event>
 8    1  0.1146431E+005  0.1043930E+01  0.7957747E-01            NaN
         13   -1    0    0    0    0  0.00000000000E+00  0.00000000000E+00  0.74505805969E-08  0.10566000000E+00  0.10566000000E+00 0. -1.
     999900   -1    0    0    0    0 -0.00000000000E+00 -0.00000000000E+00 -0.74505805969E-08  0.93827000000E+00  0.93827000000E+00 0. -1.
     999902    2    1    2    0    0  0.66258294962E-02  0.22558144474E-01 -0.10676327303E-02  0.10203946789E+01  0.10201232227E+01 0.  0.
     999903    2    3    3    0    0 -0.36227859554E-01  0.16530143212E-01 -0.12308213067E+00  0.13092274953E+00  0.20145769091E-01 0.  0.
         14    1    1    2    0    0 -0.66258294962E-02 -0.22558144474E-01  0.10676327303E-02  0.23535321079E-01  0.00000000000E+00 0. -1.
     999901    1    3    3    0    0  0.42853689050E-01  0.60280012622E-02  0.12201449794E+00  0.88947192939E+00  0.88000000000E+00 0.  1.
        -11    1    4    4    0    0 -0.30099094774E-01  0.16358439764E-01 -0.75077015407E-01  0.82524986647E-01  0.51100000000E-03 0. -1.
         11    1    4    4    0    0 -0.61287647792E-02  0.17170344840E-03 -0.48005115263E-01  0.48397762884E-01  0.51100000000E-03 0.  1.
</event>
<event>
 8    1  0.1146431E+005  0.1043930E+01  0.7957747E-01            NaN
         13   -1    0    0    0    0  0.00000000000E+00  0.00000000000E+00  0.74505805969E-08  0.10566000000E+00  0.10566000000E+00 0.  1.
     999900   -1    0    0    0    0 -0.00000000000E+00 -0.00000000000E+00 -0.74505805969E-08  0.93827000000E+00  0.93827000000E+00 0.  1.
     999902    2    1    2    0    0 -0.73659252541E-02 -0.53455720761E-03  0.22958580636E-01  0.10198128063E+01  0.10195275969E+01 0.  0.
     999903    2    3    3    0    0  0.87916007144E-01  0.58925669752E-01  0.74690788224E-01  0.13116755284E+00  0.20609565838E-01 0.  0.
         14    1    1    2    0    0  0.73659252541E-02  0.53455720761E-03 -0.22958580636E-01  0.24117193681E-01  0.00000000000E+00 0. -1.
     999901    1    3    3    0    0 -0.95281932399E-01 -0.59460226960E-01 -0.51732207588E-01  0.88864525348E+00  0.88000000000E+00 0.  1.
        -11    1    4    4    0    0  0.38948377270E-01  0.14141513810E-01  0.30092930243E-01  0.51213319326E-01  0.51100000000E-03 0.  1.
         11    1    4    4    0    0  0.48967629875E-01  0.44784155942E-01  0.44597857981E-01  0.79954233512E-01  0.51100000000E-03 0. -1.
</event>
<event>
 8    1  0.1146431E+005  0.1043930E+01  0.7957747E-01            NaN
         13   -1    0    0    0    0  0.00000000000E+00  0.00000000000E+00  0.74505805969E-08  0.10566000000E+00  0.10566000000E+00 0. -1.
     999900   -1    0    0    0    0 -0.00000000000E+00 -0.00000000000E+00 -0.74505805969E-08  0.93827000000E+00  0.93827000000E+00 0. -1.
     999902    2    1    2    0    0  0.48362469648E-02  0.23731234119E-01  0.75869169596E-03  0.10196991030E+01  0.10194111654E+01 0.  0.
     999903    2    3    3    0    0  0.10255634374E+00 -0.21348037609E-01  0.74477890613E-01  0.13008352401E+00  0.20030593497E-01 0.  0.
         14    1    1    2    0    0 -0.48362469648E-02 -0.23731234119E-01 -0.75869169596E-03  0.24230897025E-01  0.00000000000E+00 0.  1.
     999901    1    3    3    0    0 -0.97720096780E-01  0.45079271729E-01 -0.73719198917E-01  0.88961557897E+00  0.88000000000E+00 0. -1.
        -11    1    4    4    0    0  0.73013126314E-01 -0.14951943214E-01  0.63522483810E-01  0.97927750359E-01  0.51100000000E-03 0. -1.
         11    1    4    4    0    0  0.29543217430E-01 -0.63960943955E-02  0.10955406803E-01  0.32155773648E-01  0.51100000000E-03 0.  1.
</event>
<event>
 8    1  0.1146431E+005  0.1043930E+01  0.7957747E-01            NaN
         13   -1    0    0    0    0  0.00000000000E+00  0.00000000000E+00  0.74505805969E-08  0.10566000000E+00  0.10566000000E+00 0. -1.
     999900   -1    0    0    0    0 -0.00000000000E+00 -0.00000000000E+00 -0.74505805969E-08  0.93827000000E+00  0.93827000000E+00 0. -1.
     999902    2    1    2    0    0 -0.22922676972E-01 -0.23735433852E-02 -0.30723919901E-02  0.10206808619E+01  0.10204160424E+01 0.  0.
     999903    2    3    3    0    0 -0.11069461581E+00  0.69648741475E-01 -0.15787725564E-01  0.13329548767E+00  0.20351648484E-01 0.  0.
         14    1    1    2    0    0  0.22922676972E-01  0.23735433852E-02  0.30723919901E-02  0.23249138055E-01  0.00000000000E+00 0. -1.
     999901    1    3    3    0    0  0.87771938843E-01 -0.72022284860E-01  0.12715333574E-01  0.88738537427E+00  0.88000000000E+00 0. -1.
        -11    1    4    4    0    0 -0.12387447366E-01  0.15915409169E-01 -0.46881013858E-02  0.20712037970E-01  0.51100000000E-03 0. -1.
         11    1    4    4    0    0 -0.98307168449E-01  0.53733332306E-01 -0.11099624178E-01  0.11258344970E+00  0.51100000000E-03 0.  1.
</event>
<event>
 8    1  0.1146431E+005  0.1043930E+01  0.7957747E-01            NaN
         13   -1    0    0    0    0  0.00000000000E+00  0.00000000000E+00  0.74505805969E-08  0.10566000000E+00  0.10566000000E+00 0.  1.
     999900   -1    0    0    0    0 -0.00000000000E+00 -0.00000000000E+00 -0.74505805969E-08  0.93827000000E+00  0.93827000000E+00 0. -1.
     999902    2    1    2    0    0 -0.98237844817E-02  0.20352290001E-01 -0.43310789470E-02  0.10209195525E+01  0.10206602040E+01 0.  0.
     999903    2    3    3    0    0  0.16871243661E-01 -0.74983201359E-01  0.10160913273E+00  0.12905363830E+00  0.20574410241E-01 0.  0.
         14    1    1    2    0    0  0.98237844817E-02 -0.20352290001E-01  0.43310789470E-02  0.23010447511E-01  0.00000000000E+00 0.  1.
     999901    1    3    3    0    0 -0.26695028142E-01  0.95335491360E-01 -0.10594021167E+00  0.89186591419E+00  0.88000000000E+00 0. -1.
        -11    1    4    4    0    0  0.26749160049E-03 -0.43205810981E-01  0.62640074465E-01  0.76097658993E-01  0.51100000000E-03 0.  1.
         11    1    4    4    0    0  0.16603752060E-01 -0.31777390379E-01  0.38969058261E-01  0.52955979308E-01  0.51100000000E-03 0. -1.
</event>
<event>
 8    1  0.1146431E+005  0.1043930E+01  0.7957747E-01            NaN
         13   -1    0    0    0    0  0.00000000000E+00  0.00000000000E+00  0.74505805969E-08  0.10566000000E+00  0.10566000000E+00 0.  1.
     999900   -1    0    0    0    0 -0.00000000000E+00 -0.00000000000E+00 -0.74505805969E-08  0.93827000000E+00  0.93827000000E+00 0. -1.
     999902    2    1    2    0    0  0.19425886146E-01 -0.95431285979E-02 -0.70669037773E-02  0.10211620953E+01  0.10209082463E+01 0.  0.
     999903    2    3    3    0    0  0.49163284828E-01 -0.10893027042E+00 -0.56273774767E-01  0.13370311990E+00  0.20662869001E-01 0.  0.
         14    1    1    2    0    0 -0.19425886146E-01  0.95431285979E-02  0.70669037773E-02  0.22767904713E-01  0.00000000000E+00 0. -1.
     999901    1    3    3    0    0 -0.29737398682E-01  0.99387141825E-01  0.49206870990E-01  0.88745897539E+00  0.88000000000E+00 0.  1.
        -11    1    4    4    0    0  0.49246592767E-01 -0.92952534648E-01 -0.50692741357E-01  0.11677078292E+00  0.51100000000E-03 0. -1.
         11    1    4    4    0    0 -0.83307938978E-04 -0.15977735775E-01 -0.55810334101E-02  0.16932336980E-01  0.51100000000E-03 0.  1.
</event>
<event>
 8    1  0.1146431E+005  0.1043930E+01  0.7957747E-01            NaN
         13   -1    0    0    0    0  0.00000000000E+00  0.00000000000E+00  0.74505805969E-08  0.10566000000E+00  0.10566000000E+00 0.  1.
     999900   -1    0    0    0    0 -0.00000000000E+00 -0.00000000000E+00 -0.74505805969E-08  0.93827000000E+00  0.93827000000E+00 0.  1.
     999902    2    1    2    0    0 -0.19577382013E-01  0.38508772987E-02  0.11526961779E-01  0.10208871271E+01  0.10206270388E+01 0.  0.
     999903    2    3    3    0    0 -0.65080559793E-01  0.59807522127E-01  0.98321023503E-01  0.13368089719E+00  0.19777250681E-01 0.  0.
         14    1    1    2    0    0  0.19577382013E-01 -0.38508772987E-02 -0.11526961779E-01  0.23042872875E-01  0.00000000000E+00 0.  1.
     999901    1    3    3    0    0  0.45503177779E-01 -0.55956644828E-01 -0.86794061725E-01  0.88720622994E+00  0.88000000000E+00 0.  1.
        -11    1    4    4    0    0 -0.51705012046E-01  0.36549097446E-01  0.74741572931E-01  0.97958198432E-01  0.51100000000E-03 0. -1.
         11    1    4    4    0    0 -0.13375547746E-01  0.23258424681E-01  0.23579450573E-01  0.35722698757E-01  0.51100000000E-03 0.  1.
</event>
<event>
 8    1  0.1146431E+005  0.1043930E+01  0.7957747E-01            NaN
         13   -1    0    0    0    0  0.00000000000E+00  0.00000000000E+00  0.74505805969E-08  0.10566000000E+00  0.10566000000E+00 0. -1.
     999900   -1    0    0    0    0 -0.00000000000E+00 -0.00000000000E+00 -0.74505805969E-08  0.93827000000E+00  0.93827000000E+00 0.  1.
     999902    2    1    2    0    0 -0.12377968751E-01  0.18849967274E-01  0.10181802886E-01  0.10191872337E+01  0.10188868498E+01 0.  0.
     999903    2    3    3    0    0  0.12195575180E-01  0.93486334188E-01  0.90370345572E-01  0.13205440892E+00  0.19573983340E-01 0.  0.
         14    1    1    2    0    0  0.12377968751E-01 -0.18849967274E-01 -0.10181802886E-01  0.24742766350E-01  0.00000000000E+00 0.  1.
     999901    1    3    3    0    0 -0.24573543930E-01 -0.74636366915E-01 -0.80188542685E-01  0.88713282473E+00  0.88000000000E+00 0.  1.
        -11    1    4    4    0    0  0.86104606138E-02  0.66987814451E-01  0.51794738499E-01  0.85114413433E-01  0.51100000000E-03 0.  1.
         11    1    4    4    0    0  0.35851145660E-02  0.26498519737E-01  0.38575607073E-01  0.46939995491E-01  0.51100000000E-03 0. -1.
</event>
<event>
 8    1  0.1146431E+005  0.1043930E+01  0.7957747E-01            NaN
         13   -1    0    0    0    0  0.00000000000E+00  0.00000000000E+00  0.74505805969E-08  0.10566000000E+00  0.10566000000E+00 0. -1.
     999900   -1    0    0    0    0 -0.00000000000E+00 -0.00000000000E+00 -0.74505805969E-08  0.93827000000E+00  0.93827000000E+00 0.  1.
     999902    2    1    2    0    0  0.15054686301E-01  0.17256922550E-01  0.61183482218E-02  0.10202260100E+01  0.10199506029E+01 0.  0.
     999903    2    3    3    0    0  0.78158304630E-01 -0.21242101287E-01 -0.10065482362E+00  0.13069537441E+00  0.19746896576E-01 0.  0.
         14    1    1    2    0    0 -0.15054686301E-01 -0.17256922550E-01 -0.61183482218E-02  0.23703989969E-01  0.00000000000E+00 0.  1.
     999901    1    3    3    0    0 -0.63103618330E-01  0.38499023837E-01  0.10677317184E+00  0.88953063562E+00  0.88000000000E+00 0. -1.
        -11    1    4    4    0    0  0.30545949161E-01  0.92319870421E-03 -0.42282770097E-01  0.52172800137E-01  0.51100000000E-03 0.  1.
         11    1    4    4    0    0  0.47612355470E-01 -0.22165299991E-01 -0.58372053523E-01  0.78522574273E-01  0.51100000000E-03 0. -1.
</event>
<event>
 8    1  0.1146431E+005  0.1043930E+01  0.7957747E-01            NaN
         13   -1    0    0    0    0  0.00000000000E+00  0.00000000000E+00  0.74505805969E-08  0.10566000000E+00  0.10566000000E+00 0. -1.
     999900   -1    0    0    0    0 -0.00000000000E+00 -0.00000000000E+00 -0.74505805969E-08  0.93827000000E+00  0.93827000000E+00 0. -1.
     999902    2    1    2    0    0  0.10261541827E-01  0.20393548877E-01  0.16981764532E-02  0.10210372090E+01  0.10207805358E+01 0.  0.
     999903    2    3    3    0    0  0.12597998116E+00  0.37993249116E-01 -0.13232706510E-02  0.13328181713E+00  0.21162445547E-01 0.  0.
         14    1    1    2    0    0 -0.10261541827E-01 -0.20393548877E-01 -0.16981764532E-02  0.22892790999E-01  0.00000000000E+00 0.  1.
     999901    1    3    3    0    0 -0.11571843933E+00 -0.17599700239E-01  0.30214471042E-02  0.88775539187E+00  0.88000000000E+00 0.  1.
        -11    1    4    4    0    0  0.73960579435E-02  0.74358935421E-03 -0.49256140924E-02  0.89318191550E-02  0.51100000000E-03 0. -1.
         11    1    4    4    0    0  0.11858392322E+00  0.37249659762E-01  0.36023434414E-02  0.12434999798E+00  0.51100000000E-03 0.  1.
</event>
<event>
 8    1  0.1146431E+005  0.1043930E+01  0.7957747E-01            NaN
         13   -1    0    0    0    0  0.00000000000E+00  0.00000000000E+00  0.74505805969E-08  0.10566000000E+00  0.10566000000E+00 0. -1.
     999900   -1    0    0    0    0 -0.00000000000E+00 -0.00000000000E+00 -0.74505805969E-08  0.93827000000E+00  0.93827000000E+00 0.  1.
     999902    2    1    2    0    0 -0.14560757599E-01 -0.99829477953E-02  0.15140044330E-01  0.10206728323E+01  0.10204078276E+01 0.  0.
     999903    2    3    3    0    0 -0.18921052794E-01 -0.41425000618E-01  0.12383172495E+00  0.13341779774E+00  0.19798377046E-01 0.  0.
         14    1    1    2    0    0  0.14560757599E-01  0.99829477953E-02 -0.15140044330E-01  0.23257167731E-01  0.00000000000E+00 0.  1.
     999901    1    3    3    0    0  0.43602951955E-02  0.31442052823E-01 -0.10869168062E+00  0.88725503453E+00  0.88000000000E+00 0.  1.
        -11    1    4    4    0    0 -0.15974972112E-01 -0.26179052399E-01  0.56208626312E-01  0.64032908035E-01  0.51100000000E-03 0. -1.
         11    1    4    4    0    0 -0.29460806823E-02 -0.15245948219E-01  0.67623098642E-01  0.69384889706E-01  0.51100000000E-03 0.  1.
</event>
<event>
 7    1  0.1917528E+005  0.1043930E+01  0.7957747E-01            NaN
         13   -1    0    0    0    0  0.00000000000E+00  0.00000000000E+00  0.74505805969E-08  0.10566000000E+00  0.10566000000E+00 0.  1.
     999900   -1    0    0    0    0 -0.00000000000E+00 -0.00000000000E+00 -0.74505805969E-08  0.93827000000E+00  0.93827000000E+00 0. -1.
     999903    2    1    2    0    0 -0.74629760130E-01 -0.62792996914E-01  0.29562848051E-01  0.10467194658E+00  0.23868239525E-01 0.  0.
         14    1    1    2    0    0  0.42458440088E-02  0.52590249145E-01 -0.19743040547E-01  0.56334262634E-01  0.00000000000E+00 0. -1.
     999901    1    1    2    0    0  0.70383916122E-01  0.10202747770E-01 -0.98198075041E-02  0.88292379078E+00  0.88000000000E+00 0.  1.
        -11    1    3    3    0    0 -0.61585658074E-01 -0.38382332593E-01  0.24016386847E-01  0.76439810923E-01  0.51100000000E-03 0.  1.
         11    1    3    3    0    0 -0.13044102056E-01 -0.24410664322E-01  0.55464612047E-02  0.28232135661E-01  0.51100000000E-03 0. -1.
</event>
<event>
 8    1  0.1146431E+005  0.1043930E+01  0.7957747E-01            NaN
         13   -1    0    0    0    0  0.00000000000E+00  0.00000000000E+00  0.74505805969E-08  0.10566000000E+00  0.10566000000E+00 0.  1.
     999900   -1    0    0    0    0 -0.00000000000E+00 -0.00000000000E+00 -0.74505805969E-08  0.93827000000E+00  0.93827000000E+00 0.  1.
     999902    2    1    2    0    0 -0.11160178163E-01  0.17425700423E-01 -0.53275518752E-02  0.10225620937E+01  0.10223388127E+01 0.  0.
     999903    2    3    3    0    0 -0.12255110562E+00  0.15371535098E-02 -0.51121126053E-01  0.13421675762E+00  0.19484151700E-01 0.  0.
         14    1    1    2    0    0  0.11160178163E-01 -0.17425700423E-01  0.53275518752E-02  0.21367906328E-01  0.00000000000E+00 0.  1.
     999901    1    3    3    0    0  0.11139092746E+00  0.15888546913E-01  0.45793574178E-01  0.88834533605E+00  0.88000000000E+00 0. -1.
        -11    1    4    4    0    0 -0.19479952743E-01  0.26375178280E-02 -0.15896317445E-01  0.25285946462E-01  0.51100000000E-03 0.  1.
         11    1    4    4    0    0 -0.10307115288E+00 -0.11003643182E-02 -0.35224808608E-01  0.10893081116E+00  0.51100000000E-03 0. -1.
</event>
<event>
 8    1  0.1146431E+005  0.1043930E+01  0.7957747E-01            NaN
         13   -1    0    0    0    0  0.00000000000E+00  0.00000000000E+00  0.74505805969E-08  0.10566000000E+00  0.10566000000E+00 0. -1.
     999900   -1    0    0    0    0 -0.00000000000E+00 -0.00000000000E+00 -0.74505805969E-08  0.93827000000E+00  0.93827000000E+00 0. -1.
     999902    2    1    2    0    0 -0.13559970474E-01 -0.11742197141E-01  0.15683928576E-01  0.10201027549E+01  0.10198244422E+01 0.  0.
     999903    2    3    3    0    0 -0.61058807981E-01  0.11290838408E+00 -0.18074062972E-04  0.12991150588E+00  0.20012940932E-01 0.  0.
         14    1    1    2    0    0  0.13559970474E-01  0.11742197141E-01 -0.15683928576E-01  0.23827245089E-01  0.00000000000E+00 0.  1.
     999901    1    3    3    0    0  0.47498837507E-01 -0.12465058123E+00  0.15702002639E-01  0.89019124903E+00  0.88000000000E+00 0.  1.
        -11    1    4    4    0    0 -0.55053342473E-01  0.85046405501E-01 -0.20554448234E-02  0.10133236196E+00  0.51100000000E-03 0. -1.
         11    1    4    4    0    0 -0.60054655076E-02  0.27861978583E-01  0.20373707604E-02  0.28579143919E-01  0.51100000000E-03 0.  1.
</event>
<event>
 8    1  0.1146431E+005  0.1043930E+01  0.7957747E-01            NaN
         13   -1    0    0    0    0  0.00000000000E+00  0.00000000000E+00  0.74505805969E-08  0.10566000000E+00  0.10566000000E+00 0.  1.
     999900   -1    0    0    0    0 -0.00000000000E+00 -0.00000000000E+00 -0.74505805969E-08  0.93827000000E+00  0.93827000000E+00 0.  1.
     999902    2    1    2    0    0  0.14334967831E-01  0.19192780955E-01  0.18293916242E-01  0.10137883094E+01  0.10133401278E+01 0.  0.
     999903    2    3    3    0    0 -0.10965364805E+00 -0.39865218783E-01  0.33818050382E-01  0.12300100425E+00  0.19298401855E-01 0.  0.
         14    1    1    2    0    0 -0.14334967831E-01 -0.19192780955E-01 -0.18293916242E-01  0.30141690646E-01  0.00000000000E+00 0. -1.
     999901    1    3    3    0    0  0.12398861588E+00  0.59057999738E-01 -0.15524134141E-01  0.89078730511E+00  0.88000000000E+00 0. -1.
        -11    1    4    4    0    0 -0.46718351207E-01 -0.78065960598E-02  0.95946992205E-02  0.48330804418E-01  0.51100000000E-03 0. -1.
         11    1    4    4    0    0 -0.62935296845E-01 -0.32058622723E-01  0.24223351162E-01  0.74670199828E-01  0.51100000000E-03 0.  1.
</event>
<event>
 8    1  0.1146431E+005  0.1043930E+01  0.7957747E-01            NaN
         13   -1    0    0    0    0  0.00000000000E+00  0.00000000000E+00  0.74505805969E-08  0.10566000000E+00  0.10566000000E+00 0. -1.
     999900   -1    0    0    0    0 -0.00000000000E+00 -0.00000000000E+00 -0.74505805969E-08  0.93827000000E+00  0.93827000000E+00 0. -1.
     999902    2    1    2    0    0 -0.24251560791E-01  0.62968248714E-02 -0.15150481731E-02  0.10188285344E+01  0.10185192678E+01 0.  0.
     999903    2    3    3    0    0  0.88830280864E-01 -0.75560062001E-01  0.44998249889E-01  0.12661133005E+00  0.20135655845E-01 0.  0.
         14    1    1    2    0    0  0.24251560791E-01 -0.62968248714E-02  0.15150481731E-02  0.25101465599E-01  0.00000000000E+00 0. -1.
     999901    1    3    3    0    0 -0.11308184166E+00  0.81856886872E-01 -0.46513298062E-01  0.89221720435E+00  0.88000000000E+00 0. -1.
        -11    1    4    4    0    0  0.26940416086E-01 -0.13844135939E-01  0.17492911966E-01  0.34981555265E-01  0.51100000000E-03 0. -1.
         11    1    4    4    0    0  0.61889864779E-01 -0.61715926062E-01  0.27505337923E-01  0.91629774786E-01  0.51100000000E-03 0.  1.
</event>
<event>
 8    1  0.1146431E+005  0.1043930E+01  0.7957747E-01            NaN
         13   -1    0    0    0    0  0.00000000000E+00  0.00000000000E+00  0.74505805969E-08  0.10566000000E+00  0.10566000000E+00 0.  1.
     999900   -1    0    0    0    0 -0.00000000000E+00 -0.00000000000E+00 -0.74505805969E-08  0.93827000000E+00  0.93827000000E+00 0. -1.
     999902    2    1    2    0    0 -0.47087771379E-02 -0.17918241803E-01 -0.13378093775E-01  0.10210780993E+01  0.10208223526E+01 0.  0.
     999903    2    3    3    0    0 -0.10012266912E+00 -0.81915777171E-01  0.22292147356E-01  0.13289351185E+00  0.20712369186E-01 0.  0.
         14    1    1    2    0    0  0.47087771379E-02  0.17918241803E-01  0.13378093775E-01  0.22851900676E-01  0.00000000000E+00 0. -1.
     999901    1    3    3    0    0  0.95413891985E-01  0.63997535368E-01 -0.35670241131E-01  0.88818458747E+00  0.88000000000E+00 0.  1.
        -11    1    4    4    0    0 -0.27379187275E-01 -0.32348442449E-01  0.13236691032E-01  0.44401719958E-01  0.51100000000E-03 0.  1.
         11    1    4    4    0    0 -0.72743481848E-01 -0.49567334723E-01  0.90554563238E-02  0.88491791897E-01  0.51100000000E-03 0. -1.
</event>
<event>
 8    1  0.1146431E+005  0.1043930E+01  0.7957747E-01            NaN
         13   -1    0    0    0    0  0.00000000000E+00  0.00000000000E+00  0.74505805969E-08  0.10566000000E+00  0.10566000000E+00 0. -1.
     999900   -1    0    0    0    0 -0.00000000000E+00 -0.00000000000E+00 -0.74505805969E-08  0.93827000000E+00  0.93827000000E+00 0. -1.
     999902    2    1    2    0    0 -0.14313770440E-01 -0.18213970424E-01  0.44433040380E-02  0.10203423826E+01  0.10200697045E+01 0.  0.
     999903    2    3    3    0    0 -0.45862904620E-01  0.94563613326E-01  0.73163618353E-01  0.12992865134E+00  0.21973993760E-01 0.  0.
         14    1    1    2    0    0  0.14313770440E-01  0.18213970424E-01 -0.44433040380E-02  0.23587617378E-01  0.00000000000E+00 0.  1.
     999901    1    3    3    0    0  0.31549134179E-01 -0.11277758375E+00 -0.68720314315E-01  0.89041373129E+00  0.88000000000E+00 0.  1.
        -11    1    4    4    0    0 -0.26547890076E-01  0.66129881749E-01  0.59860026969E-01  0.93066834465E-01  0.51100000000E-03 0.  1.
         11    1    4    4    0    0 -0.19315014544E-01  0.28433731577E-01  0.13303591384E-01  0.36861816870E-01  0.51100000000E-03 0. -1.
</event>
<event>
 8    1  0.1146431E+005  0.1043930E+01  0.7957747E-01            NaN
         13   -1    0    0    0    0  0.00000000000E+00  0.00000000000E+00  0.74505805969E-08  0.10566000000E+00  0.10566000000E+00 0. -1.
     999900   -1    0    0    0    0 -0.00000000000E+00 -0.00000000000E+00 -0.74505805969E-08  0.93827000000E+00  0.93827000000E+00 0. -1.
     999902    2    1    2    0    0  0.13796435013E-01 -0.57541639450E-02 -0.19194827282E-01  0.10196011403E+01  0.10193108416E+01 0.  0.
     999903    2    3    3    0    0 -0.77164485312E-01 -0.79549015809E-01 -0.66017104838E-01  0.13060626128E+00  0.20428745519E-01 0.  0.
         14    1    1    2    0    0 -0.13796435013E-01  0.57541639450E-02  0.19194827282E-01  0.24328859738E-01  0.00000000000E+00 0. -1.
     999901    1    3    3    0    0  0.90960920325E-01  0.73794851864E-01  0.46822277556E-01  0.88899487899E+00  0.88000000000E+00 0.  1.
        -11    1    4    4    0    0 -0.42134253152E-01 -0.28922086292E-01 -0.31114511029E-01  0.59834407173E-01  0.51100000000E-03 0.  1.
         11    1    4    4    0    0 -0.35030232160E-01 -0.50626929517E-01 -0.34902593809E-01  0.70771854102E-01  0.51100000000E-03 0. -1.
</event>
<event>
 8    1  0.1146431E+005  0.1043930E+01  0.7957747E-01            NaN
         13   -1    0    0    0    0  0.00000000000E+00  0.00000000000E+00  0.74505805969E-08  0.10566000000E+00  0.10566000000E+00 0.  1.
     999900   -1    0    0    0    0 -0.00000000000E+00 -0.00000000000E+00 -0.74505805969E-08  0.93827000000E+00  0.93827000000E+00 0. -1.
     999902    2    1    2    0    0  0.17042106462E-02  0.10235881640E-01 -0.21369301467E-01  0.10201744817E+01  0.10198978617E+01 0.  0.
     999903    2    3    3    0    0  0.67684538676E-01 -0.10006397620E+00  0.39888133655E-01  0.12873074496E+00  0.19660757438E-01 0.  0.
         14    1    1    2    0    0 -0.17042106462E-02 -0.10235881640E-01  0.21369301467E-01  0.23755518350E-01  0.00000000000E+00 0.  1.
     999901    1    3    3    0    0 -0.65980328030E-01  0.11029985784E+00 -0.61257435122E-01  0.89144373669E+00  0.88000000000E+00 0. -1.
        -11    1    4    4    0    0  0.41560110273E-01 -0.46221129843E-01  0.25430770655E-01  0.67161155640E-01  0.51100000000E-03 0.  1.
         11    1    4    4    0    0  0.26124428403E-01 -0.53842846356E-01  0.14457363000E-01  0.61569589320E-01  0.51100000000E-03 0. -1.
</event>
<event>
 8    1  0.1146431E+005  0.1043930E+01  0.7957747E-01            NaN
         13   -1    0    0    0    0  0.00000000000E+00  0.00000000000E+00  0.74505805969E-08  0.10566000000E+00  0.10566000000E+00 0.  1.
     999900   -1    0    0    0    0 -0.00000000000E+00 -0.00000000000E+00 -0.74505805969E-08  0.93827000000E+00  0.93827000000E+00 0.  1.
     999902    2    1    2    0    0  0.18911275303E-01  0.88062474594E-02 -0.21529598721E-01  0.10139515086E+01  0.10135082396E+01 0.  0.
     999903    2    3    3    0    0  0.32973840015E-01 -0.34202717196E-01 -0.11676896474E+00  0.12765693924E+00  0.20104800917E-01 0.  0.
         14    1    1    2    0    0 -0.18911275303E-01 -0.88062474594E-02  0.21529598721E-01  0.29978491439E-01  0.00000000000E+00 0.  1.
     999901    1    3    3    0    0 -0.14062564713E-01  0.43008964656E-01  0.95239366022E-01  0.88629456932E+00  0.88000000000E+00 0. -1.
        -11    1    4    4    0    0  0.19792820050E-01 -0.12188187628E-01 -0.35534403893E-01  0.42464839859E-01  0.51100000000E-03 0.  1.
         11    1    4    4    0    0  0.13181019965E-01 -0.22014529569E-01 -0.81234560850E-01  0.85192099381E-01  0.51100000000E-03 0. -1.
</event>
<event>
 8    1  0.1146431E+005  0.1043930E+01  0.7957747E-01            NaN
         13   -1    0    0    0    0  0.00000000000E+00  0.00000000000E+00  0.74505805969E-08  0.10566000000E+00  0.10566000000E+00 0.  1.
     999900   -1    0    0    0    0 -0.00000000000E+00 -0.00000000000E+00 -0.74505805969E-08  0.93827000000E+00  0.93827000000E+00 0. -1.
     999902    2    1    2    0    0 -0.16012195144E-01  0.14474338224E-01 -0.97887467764E-02  0.10202294425E+01  0.10199541161E+01 0.  0.
     999903    2    3    3    0    0 -0.71534585223E-01 -0.29921101360E-01 -0.10531505973E+00  0.13220975395E+00  0.19382673853E-01 0.  0.
         14    1    1    2    0    0  0.16012195144E-01 -0.14474338224E-01  0.97887467764E-02  0.23700557458E-01  0.00000000000E+00 0.  1.
     999901    1    3    3    0    0  0.55522390079E-01  0.44395439585E-01  0.95526312949E-01  0.88801968859E+00  0.88000000000E+00 0.  1.
        -11    1    4    4    0    0 -0.12835651525E-01 -0.13808965588E-01 -0.28958080767E-01  0.34558255792E-01  0.51100000000E-03 0.  1.
         11    1    4    4    0    0 -0.58698933698E-01 -0.16112135773E-01 -0.76356978959E-01  0.97651498161E-01  0.51100000000E-03 0. -1.
</event>
<event>
 8    1  0.1146431E+005  0.1043930E+01  0.7957747E-01            NaN
         13   -1    0    0    0    0  0.00000000000E+00  0.00000000000E+00  0.74505805969E-08  0.10566000000E+00  0.10566000000E+00 0. -1.
     999900   -1    0    0    0    0 -0.00000000000E+00 -0.00000000000E+00 -0.74505805969E-08  0.93827000000E+00  0.93827000000E+00 0.  1.
     999902    2    1    2    0    0 -0.80266067084E-02  0.22230375993E-02 -0.23843961192E-01  0.10186732623E+01  0.10183601095E+01 0.  0.
     999903    2    3    3    0    0 -0.12340286776E+00  0.17612448529E-01  0.28971082383E-01  0.12943879135E+00  0.19406467392E-01 0.  0.
         14    1    1    2    0    0  0.80266067084E-02 -0.22230375993E-02  0.23843961192E-01  0.25256737650E-01  0.00000000000E+00 0. -1.
     999901    1    3    3    0    0  0.11537626106E+00 -0.15389410930E-01 -0.52815043575E-01  0.88923447100E+00  0.88000000000E+00 0.  1.
        -11    1    4    4    0    0 -0.97862887910E-01  0.12754162587E-01  0.14710564161E-01  0.99782139245E-01  0.51100000000E-03 0.  1.
         11    1    4    4    0    0 -0.25539979854E-01  0.48582859423E-02  0.14260518222E-01  0.29656652107E-01  0.51100000000E-03 0. -1.
</event>
<event>
 8    1  0.1146431E+005  0.1043930E+01  0.7957747E-01            NaN
         13   -1    0    0    0    0  0.00000000000E+00  0.00000000000E+00  0.74505805969E-08  0.10566000000E+00  0.10566000000E+00 0. -1.
     999900   -1    0    0    0    0 -0.00000000000E+00 -0.00000000000E+00 -0.74505805969E-08  0.93827000000E+00  0.93827000000E+00 0.  1.
     999902    2    1    2    0    0  0.15205349832E-01  0.82981324733E-03  0.17325848738E-01  0.10208632211E+01  0.10206025867E+01 0.  0.
     999903    2    3    3    0    0  0.10082889553E+00 -0.48253179415E-01  0.70788602846E-01  0.13373369403E+00  0.19463790227E-01 0.  0.
         14    1    1    2    0    0 -0.15205349832E-01 -0.82981324733E-03 -0.17325848738E-01  0.23066778883E-01  0.00000000000E+00 0.  1.
     999901    1    3    3    0    0 -0.85623545695E-01  0.49082992663E-01 -0.53462754107E-01  0.88712952708E+00  0.88000000000E+00 0.  1.
        -11    1    4    4    0    0  0.17387505410E-01 -0.10412577393E-02  0.13544604224E-01  0.22070953461E-01  0.51100000000E-03 0.  1.
         11    1    4    4    0    0  0.83441390117E-01 -0.47211921676E-01  0.57243998621E-01  0.11166274057E+00  0.51100000000E-03 0. -1.
</event>
<event>
 8    1  0.1146431E+005  0.1043930E+01  0.7957747E-01            NaN
         13   -1    0    0    0    0  0.00000000000E+00  0.00000000000E+00  0.74505805969E-08  0.10566000000E+00  0.10566000000E+00 0. -1.
     999900   -1    0    0    0    0 -0.00000000000E+00 -0.00000000000E+00 -0.74505805969E-08  0.93827000000E+00  0.93827000000E+00 0.  1.
     999902    2    1    2    0    0 -0.19550050838E-01 -0.58915629624E-03 -0.14489205490E-01  0.10195889099E+01  0.10192983157E+01 0.  0.
     999903    2    3    3    0    0  0.59494402014E-01 -0.97948139007E-01 -0.57161948767E-01  0.12967444204E+00  0.20360518784E-01 0.  0.
         14    1    1    2    0    0  0.19550050838E-01  0.58915629624E-03  0.14489205490E-01  0.24341090128E-01  0.00000000000E+00 0. -1.
     999901    1    3    3    0    0 -0.79044452851E-01  0.97358982711E-01  0.42672743277E-01  0.88991446783E+00  0.88000000000E+00 0. -1.
        -11    1    4    4    0    0  0.85869244772E-02 -0.18258767021E-01 -0.18940231543E-01  0.27678716317E-01  0.51100000000E-03 0.  1.
         11    1    4    4    0    0  0.50907477536E-01 -0.79689371986E-01 -0.38221717224E-01  0.10199572572E+00  0.51100000000E-03 0. -1.
</event>
<event>
 8    1  0.1146431E+005  0.1043930E+01  0.7957747E-01            NaN
         13   -1    0    0    0    0  0.00000000000E+00  0.00000000000E+00  0.74505805969E-08  0.10566000000E+00  0.10566000000E+00 0. -1.
     999900   -1    0    0    0    0 -0.00000000000E+00 -0.00000000000E+00 -0.74505805969E-08  0.93827000000E+00  0.93827000000E+00 0. -1.
     999902    2    1    2    0    0  0.13827300496E-01  0.20126820189E-01 -0.90699228927E-03  0.10194942523E+01  0.10192013661E+01 0.  0.
     999903    2    3    3    0    0 -0.96237695266E-01 -0.36020227464E-01 -0.73978046355E-01  0.12786306556E+00  0.17806218438E-01 0.  0.
         14    1    1    2    0    0 -0.13827300496E-01 -0.20126820189E-01  0.90699228927E-03  0.24435747686E-01  0.00000000000E+00 0.  1.
     999901    1    3    3    0    0  0.11006499576E+00  0.56147047653E-01  0.73071054065E-01  0.89163118676E+00  0.88000000000E+00 0. -1.
        -11    1    4    4    0    0 -0.53643597683E-01 -0.10995832579E-01 -0.41998292310E-01  0.69012039417E-01  0.51100000000E-03 0.  1.
         11    1    4    4    0    0 -0.42594097583E-01 -0.25024394885E-01 -0.31979754045E-01  0.58851026142E-01  0.51100000000E-03 0. -1.
</event>
<event>
 8    1  0.1146431E+005  0.1043930E+01  0.7957747E-01            NaN
         13   -1    0    0    0    0  0.00000000000E+00  0.00000000000E+00  0.74505805969E-08  0.10566000000E+00  0.10566000000E+00 0. -1.
     999900   -1    0    0    0    0 -0.00000000000E+00 -0.00000000000E+00 -0.74505805969E-08  0.93827000000E+00  0.93827000000E+00 0. -1.
     999902    2    1    2    0    0 -0.14626390915E-01  0.56446998866E-03 -0.18752603986E-01  0.10201411351E+01  0.10198637288E+01 0.  0.
     999903    2    3    3    0    0 -0.27251029894E-01  0.92775734944E-01 -0.88407840093E-01  0.13249585075E+00  0.19729385456E-01 0.  0.
         14    1    1    2    0    0  0.14626390915E-01 -0.56446998866E-03  0.18752603986E-01  0.23788864913E-01  0.00000000000E+00 0. -1.
     999901    1    3    3    0    0  0.12624638978E-01 -0.92211264956E-01  0.69655236107E-01  0.88764528434E+00  0.88000000000E+00 0.  1.
        -11    1    4    4    0    0 -0.17487291568E-01  0.30503700551E-01 -0.25469731415E-01  0.43419459382E-01  0.51100000000E-03 0. -1.
         11    1    4    4    0    0 -0.97637383258E-02  0.62272034394E-01 -0.62938108678E-01  0.89076391365E-01  0.51100000000E-03 0.  1.
</event>
<event>
 8    1  0.1146431E+005  0.1043930E+01  0.7957747E-01            NaN
         13   -1    0    0    0    0  0.00000000000E+00  0.00000000000E+00  0.74505805969E-08  0.10566000000E+00  0.10566000000E+00 0.  1.
     999900   -1    0    0    0    0 -0.00000000000E+00 -0.00000000000E+00 -0.74505805969E-08  0.93827000000E+00  0.93827000000E+00 0.  1.
     999902    2    1    2    0    0 -0.45697593568E-02 -0.74337214269E-02  0.21685465259E-01  0.10205547499E+01  0.10202870161E+01 0.  0.
     999903    2    3    3    0    0 -0.25188470071E-01 -0.12411298451E+00 -0.27931646807E-01  0.13122857829E+00  0.20056692587E-01 0.  0.
         14    1    1    2    0    0  0.45697593568E-02  0.74337214269E-02 -0.21685465259E-01  0.23375250123E-01  0.00000000000E+00 0. -1.
     999901    1    3    3    0    0  0.20618710714E-01  0.11667926308E+00  0.49617112065E-01  0.88932617159E+00  0.88000000000E+00 0. -1.
        -11    1    4    4    0    0 -0.58129906593E-02 -0.45622930393E-01 -0.97402551670E-03  0.46004918050E-01  0.51100000000E-03 0.  1.
         11    1    4    4    0    0 -0.19375479412E-01 -0.78490054117E-01 -0.26957621290E-01  0.85223660237E-01  0.51100000000E-03 0. -1.
</event>
<event>
 8    1  0.1146431E+005  0.1043930E+01  0.7957747E-01            NaN
         13   -1    0    0    0    0  0.00000000000E+00  0.00000000000E+00  0.74505805969E-08  0.10566000000E+00  0.10566000000E+00 0. -1.
     999900   -1    0    0    0    0 -0.00000000000E+00 -0.00000000000E+00 -0.74505805969E-08  0.93827000000E+00  0.93827000000E+00 0. -1.
     999902    2    1    2    0    0  0.61984121168E-02  0.21163972877E-01  0.80288840834E-02  0.10204609344E+01  0.10201910221E+01 0.  0.
     999903    2    3    3    0    0  0.66094604564E-01 -0.15641992633E-01  0.11084044770E+00  0.13169074443E+00  0.21063680465E-01 0.  0.
         14    1    1    2    0    0 -0.61984121168E-02 -0.21163972877E-01 -0.80288840834E-02  0.23469065604E-01  0.00000000000E+00 0.  1.
     999901    1    3    3    0    0 -0.59896192447E-01  0.36805965510E-01 -0.10281156362E+00  0.88877018997E+00  0.88000000000E+00 0. -1.
        -11    1    4    4    0    0  0.35902615983E-01 -0.18208775342E-01  0.71188702165E-01  0.81784165771E-01  0.51100000000E-03 0.  1.
         11    1    4    4    0    0  0.30191988581E-01  0.25667827091E-02  0.39651745537E-01  0.49906578655E-01  0.51100000000E-03 0. -1.
</event>
<event>
 8    1  0.1146431E+005  0.1043930E+01  0.7957747E-01            NaN
         13   -1    0    0    0    0  0.00000000000E+00  0.00000000000E+00  0.74505805969E-08  0.10566000000E+00  0.10566000000E+00 0.  1.
     999900   -1    0    0    0    0 -0.00000000000E+00 -0.00000000000E+00 -0.74505805969E-08  0.93827000000E+00  0.93827000000E+00 0. -1.
     999902    2    1    2    0    0 -0.27263678057E-03 -0.31461715938E-01  0.11288248840E-01  0.10105033869E+01  0.10099503733E+01 0.  0.
     999903    2    3    3    0    0  0.51042315665E-01 -0.24632199680E-02 -0.10733787285E+00  0.12058974287E+00  0.20225768081E-01 0.  0.
         14    1    1    2    0    0  0.27263678057E-03  0.31461715938E-01 -0.11288248840E-01  0.33426613087E-01  0.00000000000E+00 0. -1.
     999901    1    3    3    0    0 -0.51314952446E-01 -0.28998495970E-01  0.11862612169E+00  0.88991364405E+00  0.88000000000E+00 0.  1.
        -11    1    4    4    0    0  0.88634856833E-02 -0.67551783346E-02 -0.35074420185E-01  0.36805840367E-01  0.51100000000E-03 0.  1.
         11    1    4    4    0    0  0.42178829982E-01  0.42919583666E-02 -0.72263452669E-01  0.83783902499E-01  0.51100000000E-03 0. -1.
</event>
<event>
 8    1  0.1146431E+005  0.1043930E+01  0.7957747E-01            NaN
         13   -1    0    0    0    0  0.00000000000E+00  0.00000000000E+00  0.74505805969E-08  0.10566000000E+00  0.10566000000E+00 0. -1.
     999900   -1    0    0    0    0 -0.00000000000E+00 -0.00000000000E+00 -0.74505805969E-08  0.93827000000E+00  0.93827000000E+00 0.  1.
     999902    2    1    2    0    0 -0.66000305596E-02 -0.16288819297E-01 -0.15992492272E-01  0.10201677222E+01  0.10198909430E+01 0.  0.
     999903    2    3    3    0    0 -0.51871290878E-01 -0.67989958699E-01  0.96336926156E-01  0.13036977149E+00  0.20055140904E-01 0.  0.
         14    1    1    2    0    0  0.66000305596E-02  0.16288819297E-01  0.15992492272E-01  0.23762277806E-01  0.00000000000E+00 0. -1.
     999901    1    3    3    0    0  0.45271260319E-01  0.51701139402E-01 -0.11232941843E+00  0.88979795070E+00  0.88000000000E+00 0.  1.
        -11    1    4    4    0    0 -0.30143913811E-01 -0.54427577925E-01  0.68381159174E-01  0.92451397121E-01  0.51100000000E-03 0. -1.
         11    1    4    4    0    0 -0.21727377067E-01 -0.13562380774E-01  0.27955766982E-01  0.37918374373E-01  0.51100000000E-03 0.  1.
</event>
<event>
 8    1  0.1146431E+005  0.1043930E+01  0.7957747E-01            NaN
         13   -1    0    0    0    0  0.00000000000E+00  0.00000000000E+00  0.74505805969E-08  0.10566000000E+00  0.10566000000E+00 0. -1.
     999900   -1    0    0    0    0 -0.00000000000E+00 -0.00000000000E+00 -0.74505805969E-08  0.93827000000E+00  0.93827000000E+00 0. -1.
     999902    2    1    2    0    0 -0.11165476218E-01 -0.33533416146E-02  0.20902612495E-01  0.10199960917E+01  0.10197152519E+01 0.  0.
     999903    2    3    3    0    0 -0.78754987496E-01 -0.14701632115E-02  0.10577928549E+00  0.13333046246E+00  0.19576658159E-01 0.  0.
         14    1    1    2    0    0  0.11165476218E-01  0.33533416146E-02 -0.20902612495E-01  0.23933908337E-01  0.00000000000E+00 0.  1.
     999901    1    3    3    0    0  0.67589511278E-01 -0.18831784031E-02 -0.84876672997E-01  0.88666562921E+00  0.88000000000E+00 0. -1.
        -11    1    4    4    0    0 -0.74235076667E-01  0.10743250395E-02  0.10408242046E+00  0.12784917736E+00  0.51100000000E-03 0.  1.
         11    1    4    4    0    0 -0.45199108287E-02 -0.25444882510E-02  0.16968650289E-02  0.54812850943E-02  0.51100000000E-03 0. -1.
</event>
<event>
 8    1  0.1146431E+005  0.1043930E+01  0.7957747E-01            NaN
         13   -1    0    0    0    0  0.00000000000E+00  0.00000000000E+00  0.74505805969E-08  0.10566000000E+00  0.10566000000E+00 0. -1.
     999900   -1    0    0    0    0 -0.00000000000E+00 -0.00000000000E+00 -0.74505805969E-08  0.93827000000E+00  0.93827000000E+00 0.  1.
     999902    2    1    2    0    0 -0.12137504940E-01  0.12107905871E-01 -0.15957797837E-01  0.10205083920E+01  0.10202395828E+01 0.  0.
     999903    2    3    3    0    0  0.18615616652E-02 -0.51426783072E-01 -0.11998467634E+00  0.13199602739E+00  0.19453772393E-01 0.  0.
         14    1    1    2    0    0  0.12137504940E-01 -0.12107905871E-01  0.15957797837E-01  0.23421608026E-01  0.00000000000E+00 0. -1.
     999901    1    3    3    0    0 -0.13999066605E-01  0.63534688943E-01  0.10402687851E+00  0.88851236458E+00  0.88000000000E+00 0.  1.
        -11    1    4    4    0    0 -0.26417027821E-03 -0.13205609543E-01 -0.13746926162E-01  0.19070841860E-01  0.51100000000E-03 0.  1.
         11    1    4    4    0    0  0.21257319434E-02 -0.38221173529E-01 -0.10623775018E+00  0.11292518553E+00  0.51100000000E-03 0. -1.
</event>
<event>
 8    1  0.1146431E+005  0.1043930E+01  0.7957747E-01            NaN
         13   -1    0    0    0    0  0.00000000000E+00  0.00000000000E+00  0.74505805969E-08  0.10566000000E+00  0.10566000000E+00 0.  1.
     999900   -1    0    0    0    0 -0.00000000000E+00 -0.00000000000E+00 -0.74505805969E-08  0.93827000000E+00  0.93827000000E+00 0. -1.
     999902    2    1    2    0    0 -0.14383393242E-01 -0.20368388703E-01  0.85353521478E-03  0.10189804152E+01  0.10186749260E+01 0.  0.
     999903    2    3    3    0    0  0.11183367612E+00 -0.21171724356E-01 -0.55415085107E-01  0.12819561987E+00  0.20205748465E-01 0.  0.
         14    1    1    2    0    0  0.14383393242E-01  0.20368388703E-01 -0.85353521478E-03  0.24949584804E-01  0.00000000000E+00 0.  1.
     999901    1    3    3    0    0 -0.12621706936E+00  0.80333565306E-03  0.56268620322E-01  0.89078479532E+00  0.88000000000E+00 0. -1.
        -11    1    4    4    0    0  0.26372064681E-01 -0.42505953790E-02 -0.22950539733E-01  0.35221325240E-01  0.51100000000E-03 0. -1.
         11    1    4    4    0    0  0.85461611437E-01 -0.16921128977E-01 -0.32464545375E-01  0.92974294634E-01  0.51100000000E-03 0.  1.
</event>
<event>
 8    1  0.1146431E+005  0.1043930E+01  0.7957747E-01            NaN
         13   -1    0    0    0    0  0.00000000000E+00  0.00000000000E+00  0.74505805969E-08  0.10566000000E+00  0.10566000000E+00 0. -1.
     999900   -1    0    0    0    0 -0.00000000000E+00 -0.00000000000E+00 -0.74505805969E-08  0.93827000000E+00  0.93827000000E+00 0.  1.
     999902    2    1    2    0    0 -0.14444331517E-02 -0.10075902979E-01 -0.18907985281E-01  0.10224562459E+01  0.10222307238E+01 0.  0.
     999903    2    3    3    0    0 -0.75574030711E-01  0.14611747210E-02  0.10470008236E+00  0.13065623705E+00  0.19884061055E-01 0.  0.
         14    1    1    2    0    0  0.14444331517E-02  0.10075902979E-01  0.18907985281E-01  0.21473754105E-01  0.00000000000E+00 0. -1.
     999901    1    3    3    0    0  0.74129597560E-01 -0.11537077700E-01 -0.12360806764E+00  0.89180000885E+00  0.88000000000E+00 0.  1.
        -11    1    4    4    0    0 -0.54600312017E-01 -0.31699713042E-02  0.87256828174E-01  0.10298183322E+00  0.51100000000E-03 0. -1.
         11    1    4    4    0    0 -0.20973718695E-01  0.46311460252E-02  0.17443254184E-01  0.27674403822E-01  0.51100000000E-03 0.  1.
</event>
<event>
 8    1  0.1146431E+005  0.1043930E+01  0.7957747E-01            NaN
         13   -1    0    0    0    0  0.00000000000E+00  0.00000000000E+00  0.74505805969E-08  0.10566000000E+00  0.10566000000E+00 0.  1.
     999900   -1    0    0    0    0 -0.00000000000E+00 -0.00000000000E+00 -0.74505805969E-08  0.93827000000E+00  0.93827000000E+00 0. -1.
     999902    2    1    2    0    0 -0.11956168646E-01  0.23028745417E-01 -0.41268418232E-02  0.10176563648E+01  0.10173171447E+01 0.  0.
     999903    2    3    3    0    0 -0.22813361242E-01 -0.11376887677E+00  0.44053137715E-01  0.12571871085E+00  0.20017705748E-01 0.  0.
         14    1    1    2    0    0  0.11956168646E-01 -0.23028745417E-01  0.41268418232E-02  0.26273635219E-01  0.00000000000E+00 0.  1.
     999901    1    3    3    0    0  0.10857192597E-01  0.13679762219E+00 -0.48179979538E-01  0.89193765393E+00  0.88000000000E+00 0.  1.
        -11    1    4    4    0    0 -0.14962969613E-02 -0.88107884469E-02  0.97990061051E-02  0.13272171612E-01  0.51100000000E-03 0.  1.
         11    1    4    4    0    0 -0.21317064281E-01 -0.10495808832E+00  0.34254131609E-01  0.11244653924E+00  0.51100000000E-03 0. -1.
</event>
<event>
 8    1  0.1146431E+005  0.1043930E+01  0.7957747E-01            NaN
         13   -1    0    0    0    0  0.00000000000E+00  0.00000000000E+00  0.74505805969E-08  0.10566000000E+00  0.10566000000E+00 0.  1.
     999900   -1    0    0    0    0 -0.00000000000E+00 -0.00000000000E+00 -0.74505805969E-08  0.93827000000E+00  0.93827000000E+00 0.  1.
     999902    2    1    2    0    0  0.14799415809E-01  0.15653147057E-01  0.10338672636E-01  0.10200358193E+01  0.10197559221E+01 0.  0.
     999903    2    3    3    0    0 -0.13537374000E-01  0.12778039814E+00 -0.16199312786E-01  0.13207199187E+00  0.25874749435E-01 0.  0.
         14    1    1    2    0    0 -0.14799415809E-01 -0.15653147057E-01 -0.10338672636E-01  0.23894180734E-01  0.00000000000E+00 0. -1.
     999901    1    3    3    0    0  0.28336789809E-01 -0.11212725108E+00  0.26537985422E-01  0.88796382740E+00  0.88000000000E+00 0. -1.
        -11    1    4    4    0    0 -0.34064578588E-02  0.77451556966E-01  0.21297842712E-02  0.77557364148E-01  0.51100000000E-03 0.  1.
         11    1    4    4    0    0 -0.10130916141E-01  0.50328841174E-01 -0.18329097057E-01  0.54514627723E-01  0.51100000000E-03 0. -1.
</event>
<event>
 8    1  0.1146431E+005  0.1043930E+01  0.7957747E-01            NaN
         13   -1    0    0    0    0  0.00000000000E+00  0.00000000000E+00  0.74505805969E-08  0.10566000000E+00  0.10566000000E+00 0.  1.
     999900   -1    0    0    0    0 -0.00000000000E+00 -0.00000000000E+00 -0.74505805969E-08  0.93827000000E+00  0.93827000000E+00 0. -1.
     999902    2    1    2    0    0  0.46408793237E-03  0.35755506647E-02  0.23283009105E-01  0.10203694726E+01  0.10200974277E+01 0.  0.
     999903    2    3    3    0    0  0.98234316367E-01 -0.47903521695E-01 -0.65528343475E-01  0.12902410246E+00  0.20212048726E-01 0.  0.
         14    1    1    2    0    0 -0.46408793237E-03 -0.35755506647E-02 -0.23283009105E-01  0.23560527438E-01  0.00000000000E+00 0. -1.
     999901    1    3    3    0    0 -0.97770228435E-01  0.51479072360E-01  0.88811352579E-01  0.89134537010E+00  0.88000000000E+00 0.  1.
        -11    1    4    4    0    0  0.79538123943E-01 -0.34766065602E-01 -0.42772808528E-01  0.96771724942E-01  0.51100000000E-03 0.  1.
         11    1    4    4    0    0  0.18696192424E-01 -0.13137456093E-01 -0.22755534947E-01  0.32252377516E-01  0.51100000000E-03 0. -1.
</event>
<event>
 8    1  0.1146431E+005  0.1043930E+01  0.7957747E-01            NaN
         13   -1    0    0    0    0  0.00000000000E+00  0.00000000000E+00  0.74505805969E-08  0.10566000000E+00  0.10566000000E+00 0.  1.
     999900   -1    0    0    0    0 -0.00000000000E+00 -0.00000000000E+00 -0.74505805969E-08  0.93827000000E+00  0.93827000000E+00 0. -1.
     999902    2    1    2    0    0  0.25309651184E-01  0.10379586693E-01  0.10759418461E-01  0.10145347734E+01  0.10141088339E+01 0.  0.
     999903    2    3    3    0    0 -0.18928940001E-01 -0.12069445835E+00  0.77901420065E-02  0.12372262997E+00  0.17920541524E-01 0.  0.
         14    1    1    2    0    0 -0.25309651184E-01 -0.10379586693E-01 -0.10759418461E-01  0.29395226629E-01  0.00000000000E+00 0.  1.
     999901    1    3    3    0    0  0.44238591184E-01  0.13107404504E+00  0.29692764542E-02  0.89081214340E+00  0.88000000000E+00 0. -1.
        -11    1    4    4    0    0 -0.57581846489E-02 -0.59895187038E-01 -0.43766769908E-02  0.60332466743E-01  0.51100000000E-03 0.  1.
         11    1    4    4    0    0 -0.13170755352E-01 -0.60799271308E-01  0.12166818997E-01  0.63390163224E-01  0.51100000000E-03 0. -1.
</event>
<event>
 8    1  0.1146431E+005  0.1043930E+01  0.7957747E-01            NaN
         13   -1    0    0    0    0  0.00000000000E+00  0.00000000000E+00  0.74505805969E-08  0.10566000000E+00  0.10566000000E+00 0. -1.
     999900   -1    0    0    0    0 -0.00000000000E+00 -0.00000000000E+00 -0.74505805969E-08  0.93827000000E+00  0.93827000000E+00 0.  1.
     999902    2    1    2    0    0 -0.84993010525E-04  0.89452222104E-02  0.22402032529E-01  0.10198079088E+01  0.10195225821E+01 0.  0.
     999903    2    3    3    0    0 -0.85288902080E-01 -0.92591458666E-01 -0.22536212214E-01  0.12874738920E+00  0.14853764801E-01 0.  0.
         14    1    1    2    0    0  0.84993010525E-04 -0.89452222104E-02 -0.22402032529E-01  0.24122091237E-01  0.00000000000E+00 0.  1.
     999901    1    3    3    0    0  0.85203909069E-01  0.10153668088E+00  0.44938244744E-01  0.89106051956E+00  0.88000000000E+00 0.  1.
        -11    1    4    4    0    0 -0.40478478171E-01 -0.33268079636E-01 -0.10281574236E-01  0.53397043060E-01  0.51100000000E-03 0.  1.
         11    1    4    4    0    0 -0.44810423909E-01 -0.59323379030E-01 -0.12254637979E-01  0.75350346140E-01  0.51100000000E-03 0. -1.
</event>
<event>
 8    1  0.1146431E+005  0.1043930E+01  0.7957747E-01            NaN
         13   -1    0    0    0    0  0.00000000000E+00  0.00000000000E+00  0.74505805969E-08  0.10566000000E+00  0.10566000000E+00 0. -1.
     999900   -1    0    0    0    0 -0.00000000000E+00 -0.00000000000E+00 -0.74505805969E-08  0.93827000000E+00  0.93827000000E+00 0. -1.
     999902    2    1    2    0    0 -0.15719669827E-01  0.98620618846E-02  0.13439159154E-01  0.10210175736E+01  0.10207604549E+01 0.  0.
     999903    2    3    3    0    0 -0.17605107717E-01  0.98789701944E-03 -0.12726449157E+00  0.12979379532E+00  0.18419085988E-01 0.  0.
         14    1    1    2    0    0  0.15719669827E-01 -0.98620618846E-02 -0.13439159154E-01  0.22912426385E-01  0.00000000000E+00 0. -1.
     999901    1    3    3    0    0  0.18854378896E-02  0.88741648652E-02  0.14070365073E+00  0.89122377830E+00  0.88000000000E+00 0.  1.
        -11    1    4    4    0    0 -0.17349180309E-01  0.73865821917E-02 -0.10169522005E+00  0.10342985331E+00  0.51100000000E-03 0.  1.
         11    1    4    4    0    0 -0.25592740800E-03 -0.63986851723E-02 -0.25569271524E-01  0.26363942005E-01  0.51100000000E-03 0. -1.
</event>
<event>
 8    1  0.1169189E+005  0.1043930E+01  0.7957747E-01            NaN
         13   -1    0    0    0    0  0.00000000000E+00  0.00000000000E+00  0.74505805969E-08  0.10566000000E+00  0.10566000000E+00 0.  1.
     999900   -1    0    0    0    0 -0.00000000000E+00 -0.00000000000E+00 -0.74505805969E-08  0.93827000000E+00  0.93827000000E+00 0.  1.
     999902    2    1    2    0    0 -0.18063751295E-02 -0.10786678342E-01  0.15992631032E-01  0.10245552828E+01  0.10243720749E+01 0.  0.
     999903    2    3    3    0    0  0.78782781936E-01  0.94036353020E-02 -0.10443602715E+00  0.13247606951E+00  0.18651277141E-01 0.  0.
         14    1    1    2    0    0  0.18063751295E-02  0.10786678342E-01 -0.15992631032E-01  0.19374717240E-01  0.00000000000E+00 0. -1.
     999901    1    3    3    0    0 -0.80589157066E-01 -0.20190313644E-01  0.12042865818E+00  0.89207921325E+00  0.88000000000E+00 0. -1.
        -11    1    4    4    0    0  0.56086145603E-01  0.85817443007E-02 -0.60066259894E-01  0.82628801047E-01  0.51100000000E-03 0. -1.
         11    1    4    4    0    0  0.22696636333E-01  0.82189100134E-03 -0.44369767258E-01  0.49847268462E-01  0.51100000000E-03 0.  1.
</event>
<event>
 8    1  0.1146431E+005  0.1043930E+01  0.7957747E-01            NaN
         13   -1    0    0    0    0  0.00000000000E+00  0.00000000000E+00  0.74505805969E-08  0.10566000000E+00  0.10566000000E+00 0.  1.
     999900   -1    0    0    0    0 -0.00000000000E+00 -0.00000000000E+00 -0.74505805969E-08  0.93827000000E+00  0.93827000000E+00 0.  1.
     999902    2    1    2    0    0  0.31659901113E-01  0.24988655201E-02  0.10290922772E-01  0.10105459206E+01  0.10099943370E+01 0.  0.
     999903    2    3    3    0    0  0.97900478891E-01 -0.66720505094E-01 -0.31662648019E-01  0.12435224112E+00  0.20611332426E-01 0.  0.
         14    1    1    2    0    0 -0.31659901113E-01 -0.24988655201E-02 -0.10290922772E-01  0.33384079422E-01  0.00000000000E+00 0. -1.
     999901    1    3    3    0    0 -0.66240577778E-01  0.69219370614E-01  0.41953570792E-01  0.88619367946E+00  0.88000000000E+00 0.  1.
        -11    1    4    4    0    0  0.52355884347E-01 -0.24627133301E-01 -0.10393960853E-01  0.58787157302E-01  0.51100000000E-03 0.  1.
         11    1    4    4    0    0  0.45544594544E-01 -0.42093371793E-01 -0.21268687166E-01  0.65565083816E-01  0.51100000000E-03 0. -1.
</event>
<event>
 8    1  0.1146431E+005  0.1043930E+01  0.7957747E-01            NaN
         13   -1    0    0    0    0  0.00000000000E+00  0.00000000000E+00  0.74505805969E-08  0.10566000000E+00  0.10566000000E+00 0.  1.
     999900   -1    0    0    0    0 -0.00000000000E+00 -0.00000000000E+00 -0.74505805969E-08  0.93827000000E+00  0.93827000000E+00 0. -1.
     999902    2    1    2    0    0  0.68506873292E-02  0.77821525578E-02 -0.20994167884E-01  0.10205152845E+01  0.10202466354E+01 0.  0.
     999903    2    3    3    0    0  0.86427790190E-01 -0.24257511317E-01 -0.96385592725E-01  0.13313547729E+00  0.19408324395E-01 0.  0.
         14    1    1    2    0    0 -0.68506873292E-02 -0.77821525578E-02  0.20994167884E-01  0.23414715468E-01  0.00000000000E+00 0. -1.
     999901    1    3    3    0    0 -0.79577102861E-01  0.32039663875E-01  0.75391424841E-01  0.88737980724E+00  0.88000000000E+00 0.  1.
        -11    1    4    4    0    0  0.63657083412E-01 -0.26432218793E-01 -0.73890698719E-01  0.10104940840E+00  0.51100000000E-03 0.  1.
         11    1    4    4    0    0  0.22770706779E-01  0.21747074754E-02 -0.22494894006E-01  0.32086068895E-01  0.51100000000E-03 0. -1.
</event>
<event>
 8    1  0.1146431E+005  0.1043930E+01  0.7957747E-01            NaN
         13   -1    0    0    0    0  0.00000000000E+00  0.00000000000E+00  0.74505805969E-08  0.10566000000E+00  0.10566000000E+00 0.  1.
     999900   -1    0    0    0    0 -0.00000000000E+00 -0.00000000000E+00 -0.74505805969E-08  0.93827000000E+00  0.93827000000E+00 0.  1.
     999902    2    1    2    0    0 -0.21955437432E-01  0.85837287797E-02  0.94083702412E-03  0.10203374841E+01  0.10200646914E+01 0.  0.
     999903    2    3    3    0    0  0.44186687776E-01 -0.67943399033E-01 -0.98253191318E-01  0.12900666039E+00  0.20500243234E-01 0.  0.
         14    1    1    2    0    0  0.21955437432E-01 -0.85837287797E-02 -0.94083702412E-03  0.23592515908E-01  0.00000000000E+00 0. -1.
     999901    1    3    3    0    0 -0.66142125207E-01  0.76527127813E-01  0.99194028342E-01  0.89133082370E+00  0.88000000000E+00 0. -1.
        -11    1    4    4    0    0  0.22421560227E-01 -0.17904917237E-01 -0.39452690091E-01  0.48786148656E-01  0.51100000000E-03 0. -1.
         11    1    4    4    0    0  0.21765127548E-01 -0.50038481796E-01 -0.58800501227E-01  0.80220511737E-01  0.51100000000E-03 0.  1.
</event>
<event>
 7    1  0.1146431E+005  0.1043930E+01  0.7957747E-01            NaN
         13   -1    0    0    0    0  0.00000000000E+00  0.00000000000E+00  0.74505805969E-08  0.10566000000E+00  0.10566000000E+00 0.  1.
     999900   -1    0    0    0    0 -0.00000000000E+00 -0.00000000000E+00 -0.74505805969E-08  0.93827000000E+00  0.93827000000E+00 0. -1.
     999902    2    1    2    0    0 -0.21446268861E-01 -0.57468981261E-02  0.61259640554E-02  0.10208974856E+01  0.10206376337E+01 0.  0.
         14    1    1    2    0    0  0.21446268861E-01  0.57468981261E-02 -0.61259640554E-02  0.23032514447E-01  0.00000000000E+00 0. -1.
     999901    1    3    3    0    0 -0.23877342081E-01  0.11726314004E+00 -0.23780813819E-01  0.88841786260E+00  0.88000000000E+00 0. -1.
        -11    1    3    3    0    0 -0.91310951838E-02 -0.76319471621E-01  0.34309344307E-01  0.84175001488E-01  0.51100000000E-03 0.  1.
         11    1    3    3    0    0  0.11562168404E-01 -0.46690566549E-01 -0.44025664322E-02  0.48304621467E-01  0.51100000000E-03 0. -1.
</event>
<event>
 8    1  0.1146431E+005  0.1043930E+01  0.7957747E-01            NaN
         13   -1    0    0    0    0  0.00000000000E+00  0.00000000000E+00  0.74505805969E-08  0.10566000000E+00  0.10566000000E+00 0.  1.
     999900   -1    0    0    0    0 -0.00000000000E+00 -0.00000000000E+00 -0.74505805969E-08  0.93827000000E+00  0.93827000000E+00 0. -1.
     999902    2    1    2    0    0  0.10113702525E-01 -0.72767517089E-02  0.20700754924E-01  0.10197688877E+01  0.10194826261E+01 0.  0.
     999903    2    3    3    0    0 -0.85218363691E-02  0.25914771851E-01 -0.12268464882E+00  0.12735175732E+00  0.20560883784E-01 0.  0.
         14    1    1    2    0    0 -0.10113702525E-01  0.72767517089E-02 -0.20700754924E-01  0.24161112321E-01  0.00000000000E+00 0. -1.
     999901    1    3    3    0    0  0.18635538894E-01 -0.33191523559E-01  0.14338540374E+00  0.89241713036E+00  0.88000000000E+00 0.  1.
        -11    1    4    4    0    0 -0.65788218388E-02  0.22922549815E-01 -0.60059373310E-01  0.64622856872E-01  0.51100000000E-03 0. -1.
         11    1    4    4    0    0 -0.19430145304E-02  0.29922220355E-02 -0.62625275509E-01  0.62728900451E-01  0.51100000000E-03 0.  1.
</event>
<event>
 8    1  0.1146431E+005  0.1043930E+01  0.7957747E-01            NaN
         13   -1    0    0    0    0  0.00000000000E+00  0.00000000000E+00  0.74505805969E-08  0.10566000000E+00  0.10566000000E+00 0. -1.
     999900   -1    0    0    0    0 -0.00000000000E+00 -0.00000000000E+00 -0.74505805969E-08  0.93827000000E+00  0.93827000000E+00 0.  1.
     999902    2    1    2    0    0 -0.11262620406E-02 -0.52581887732E-02 -0.23062219033E-01  0.10202491436E+01  0.10199742800E+01 0.  0.
     999903    2    3    3    0    0 -0.89362748177E-01 -0.54818337338E-01  0.73352949919E-01  0.12921728631E+00  0.18047186762E-01 0.  0.
         14    1    1    2    0    0  0.11262620406E-02  0.52581887732E-02  0.23062219033E-01  0.23680856448E-01  0.00000000000E+00 0. -1.
     999901    1    3    3    0    0  0.88236486137E-01  0.49560148565E-01 -0.96415168952E-01  0.89103185724E+00  0.88000000000E+00 0.  1.
        -11    1    4    4    0    0 -0.42492367596E-01 -0.26474164741E-01  0.24151905248E-01  0.55588293289E-01  0.51100000000E-03 0. -1.
         11    1    4    4    0    0 -0.46870380581E-01 -0.28344172597E-01  0.49201044671E-01  0.73628993024E-01  0.51100000000E-03 0.  1.
</event>
<event>
 8    1  0.1146431E+005  0.1043930E+01  0.7957747E-01            NaN
         13   -1    0    0    0    0  0.00000000000E+00  0.00000000000E+00  0.74505805969E-08  0.10566000000E+00  0.10566000000E+00 0.  1.
     999900   -1    0    0    0    0 -0.00000000000E+00 -0.00000000000E+00 -0.74505805969E-08  0.93827000000E+00  0.93827000000E+00 0.  1.
     999902    2    1    2    0    0 -0.11731467360E-02 -0.12370678774E-01  0.19246213766E-01  0.10210209033E+01  0.10207638602E+01 0.  0.
     999903    2    3    3    0    0  0.28953904461E-01  0.61002736740E-01  0.11229638892E+00  0.13256739726E+00  0.20099089031E-01 0.  0.
         14    1    1    2    0    0  0.11731467360E-02  0.12370678774E-01 -0.19246213766E-01  0.22909096685E-01  0.00000000000E+00 0. -1.
     999901    1    3    3    0    0 -0.30127051197E-01 -0.73373415514E-01 -0.93050175153E-01  0.88845350605E+00  0.88000000000E+00 0.  1.
        -11    1    4    4    0    0  0.19092648566E-01  0.36768629640E-01  0.86043308445E-01  0.95499598973E-01  0.51100000000E-03 0. -1.
         11    1    4    4    0    0  0.98612558950E-02  0.24234107101E-01  0.26253080473E-01  0.37067798291E-01  0.51100000000E-03 0.  1.
</event>
<event>
 8    1  0.1146431E+005  0.1043930E+01  0.7957747E-01            NaN
         13   -1    0    0    0    0  0.00000000000E+00  0.00000000000E+00  0.74505805969E-08  0.10566000000E+00  0.10566000000E+00 0.  1.
     999900   -1    0    0    0    0 -0.00000000000E+00 -0.00000000000E+00 -0.74505805969E-08  0.93827000000E+00  0.93827000000E+00 0.  1.
     999902    2    1    2    0    0 -0.66300865974E-02 -0.21382567816E-01 -0.29064030570E-02  0.10213552479E+01  0.10211057354E+01 0.  0.
     999903    2    3    3    0    0  0.32793291877E-02  0.59703155616E-01 -0.11428927778E+00  0.13058073328E+00  0.20348663313E-01 0.  0.
         14    1    1    2    0    0  0.66300865974E-02  0.21382567816E-01  0.29064030570E-02  0.22574752123E-01  0.00000000000E+00 0.  1.
     999901    1    3    3    0    0 -0.99094157851E-02 -0.81085723431E-01  0.11138287473E+00  0.89077451459E+00  0.88000000000E+00 0.  1.
        -11    1    4    4    0    0  0.89133767886E-02  0.17122918383E-01 -0.46216419582E-01  0.50088533415E-01  0.51100000000E-03 0. -1.
         11    1    4    4    0    0 -0.56340476009E-02  0.42580237232E-01 -0.68072858200E-01  0.80492199869E-01  0.51100000000E-03 0.  1.
</event>
<event>
 8    1  0.1146431E+005  0.1043930E+01  0.7957747E-01            NaN
         13   -1    0    0    0    0  0.00000000000E+00  0.00000000000E+00  0.74505805969E-08  0.10566000000E+00  0.10566000000E+00 0. -1.
     999900   -1    0    0    0    0 -0.00000000000E+00 -0.00000000000E+00 -0.74505805969E-08  0.93827000000E+00  0.93827000000E+00 0. -1.
     999902    2    1    2    0    0  0.15157264568E-01  0.16403941645E-01 -0.78884344739E-02  0.10202433082E+01  0.10199683076E+01 0.  0.
     999903    2    3    3    0    0  0.41102909337E-01  0.51104794185E-01  0.11106444024E+00  0.13118362962E+00  0.23930851417E-01 0.  0.
         14    1    1    2    0    0 -0.15157264568E-01 -0.16403941645E-01  0.78884344739E-02  0.23686691814E-01  0.00000000000E+00 0.  1.
     999901    1    3    3    0    0 -0.25945644769E-01 -0.34700852540E-01 -0.11895287471E+00  0.88905967857E+00  0.88000000000E+00 0. -1.
        -11    1    4    4    0    0  0.36645279582E-03  0.56127931256E-02  0.25154628423E-01  0.25780888007E-01  0.51100000000E-03 0.  1.
         11    1    4    4    0    0  0.40736456541E-01  0.45492001060E-01  0.85909811817E-01  0.10540274161E+00  0.51100000000E-03 0. -1.
</event>
<event>
 8    1  0.1146431E+005  0.1043930E+01  0.7957747E-01            NaN
         13   -1    0    0    0    0  0.00000000000E+00  0.00000000000E+00  0.74505805969E-08  0.10566000000E+00  0.10566000000E+00 0.  1.
     999900   -1    0    0    0    0 -0.00000000000E+00 -0.00000000000E+00 -0.74505805969E-08  0.93827000000E+00  0.93827000000E+00 0. -1.
     999902    2    1    2    0    0  0.23961228303E-01 -0.32349001494E-02 -0.90379709554E-03  0.10197345068E+01  0.10194474202E+01 0.  0.
     999903    2    3    3    0    0 -0.35222354517E-01  0.24241511538E-01 -0.12033658578E+00  0.12927291827E+00  0.20058125082E-01 0.  0.
         14    1    1    2    0    0 -0.23961228303E-01  0.32349001494E-02  0.90379709554E-03  0.24195493174E-01  0.00000000000E+00 0. -1.
     999901    1    3    3    0    0  0.59183582819E-01 -0.27476411687E-01  0.11943278869E+00  0.89046158855E+00  0.88000000000E+00 0.  1.
        -11    1    4    4    0    0 -0.25889058201E-01  0.89460099731E-02 -0.53930085597E-01  0.60489583256E-01  0.51100000000E-03 0.  1.
         11    1    4    4    0    0 -0.93332963153E-02  0.15295501565E-01 -0.66406500185E-01  0.68783335017E-01  0.51100000000E-03 0. -1.
</event>
<event>
 8    1  0.1146431E+005  0.1043930E+01  0.7957747E-01            NaN
         13   -1    0    0    0    0  0.00000000000E+00  0.00000000000E+00  0.74505805969E-08  0.10566000000E+00  0.10566000000E+00 0.  1.
     999900   -1    0    0    0    0 -0.00000000000E+00 -0.00000000000E+00 -0.74505805969E-08  0.93827000000E+00  0.93827000000E+00 0. -1.
     999902    2    1    2    0    0 -0.10636235341E-01  0.20475244661E-01 -0.53444288741E-02  0.10202460800E+01  0.10199711445E+01 0.  0.
     999903    2    3    3    0    0 -0.12924271960E-02 -0.11984439457E+00  0.40076956110E-01  0.12792326280E+00  0.19845641205E-01 0.  0.
         14    1    1    2    0    0  0.10636235341E-01 -0.20475244661E-01  0.53444288741E-02  0.23683919991E-01  0.00000000000E+00 0.  1.
     999901    1    3    3    0    0 -0.93438081449E-02  0.14031963923E+00 -0.45421384984E-01  0.89232281721E+00  0.88000000000E+00 0.  1.
        -11    1    4    4    0    0 -0.47441053208E-02 -0.88123685180E-01  0.20904709445E-01  0.90694864370E-01  0.51100000000E-03 0.  1.
         11    1    4    4    0    0  0.34516781248E-02 -0.31720709392E-01  0.19172246664E-01  0.37228398426E-01  0.51100000000E-03 0. -1.
</event>
<event>
 8    1  0.1146431E+005  0.1043930E+01  0.7957747E-01            NaN
         13   -1    0    0    0    0  0.00000000000E+00  0.00000000000E+00  0.74505805969E-08  0.10566000000E+00  0.10566000000E+00 0. -1.
     999900   -1    0    0    0    0 -0.00000000000E+00 -0.00000000000E+00 -0.74505805969E-08  0.93827000000E+00  0.93827000000E+00 0.  1.
     999902    2    1    2    0    0 -0.10494142070E-01 -0.17621333603E-01 -0.12084275357E-01  0.10201252079E+01  0.10198474257E+01 0.  0.
     999903    2    3    3    0    0 -0.97086036565E-01  0.32578182346E-01 -0.80409524025E-01  0.13181980592E+00  0.20584781220E-01 0.  0.
         14    1    1    2    0    0  0.10494142070E-01  0.17621333603E-01  0.12084275357E-01  0.23804792094E-01  0.00000000000E+00 0. -1.
     999901    1    3    3    0    0  0.86591894494E-01 -0.50199515949E-01  0.68325248668E-01  0.88830540199E+00  0.88000000000E+00 0. -1.
        -11    1    4    4    0    0 -0.37490016748E-01  0.24504330151E-02 -0.26195858776E-01  0.45803822065E-01  0.51100000000E-03 0.  1.
         11    1    4    4    0    0 -0.59596019817E-01  0.30127749331E-01 -0.54213665249E-01  0.86015983854E-01  0.51100000000E-03 0. -1.
</event>
<event>
 8    1  0.1146431E+005  0.1043930E+01  0.7957747E-01            NaN
         13   -1    0    0    0    0  0.00000000000E+00  0.00000000000E+00  0.74505805969E-08  0.10566000000E+00  0.10566000000E+00 0. -1.
     999900   -1    0    0    0    0 -0.00000000000E+00 -0.00000000000E+00 -0.74505805969E-08  0.93827000000E+00  0.93827000000E+00 0. -1.
     999902    2    1    2    0    0  0.18449102719E-01 -0.22728442765E-02  0.15408858765E-01  0.10197852668E+01  0.10194993979E+01 0.  0.
     999903    2    3    3    0    0  0.11375492454E+00  0.54216055951E-01 -0.31207583538E-01  0.13161451284E+00  0.21654171416E-01 0.  0.
         14    1    1    2    0    0 -0.18449102719E-01  0.22728442765E-02 -0.15408858765E-01  0.24144733187E-01  0.00000000000E+00 0.  1.
     999901    1    3    3    0    0 -0.95305821820E-01 -0.56488900228E-01  0.46616442303E-01  0.88817075397E+00  0.88000000000E+00 0.  1.
        -11    1    4    4    0    0  0.56956620133E-02  0.90874841463E-02 -0.32505751351E-02  0.11218301725E-01  0.51100000000E-03 0. -1.
         11    1    4    4    0    0  0.10805926253E+00  0.45128571805E-01 -0.27957008403E-01  0.12039621111E+00  0.51100000000E-03 0.  1.
</event>
<event>
 8    1  0.1146431E+005  0.1043930E+01  0.7957747E-01            NaN
         13   -1    0    0    0    0  0.00000000000E+00  0.00000000000E+00  0.74505805969E-08  0.10566000000E+00  0.10566000000E+00 0.  1.
     999900   -1    0    0    0    0 -0.00000000000E+00 -0.00000000000E+00 -0.74505805969E-08  0.93827000000E+00  0.93827000000E+00 0. -1.
     999902    2    1    2    0    0  0.16915255035E-01 -0.52121458873E-02  0.15153355945E-01  0.10206294310E+01  0.10203634250E+01 0.  0.
     999903    2    3    3    0    0 -0.21322087319E-01 -0.10944612936E-01 -0.12489515398E+00  0.12871657618E+00  0.19868103468E-01 0.  0.
         14    1    1    2    0    0 -0.16915255035E-01  0.52121458873E-02 -0.15153355945E-01  0.23300568964E-01  0.00000000000E+00 0. -1.
     999901    1    3    3    0    0  0.38237342354E-01  0.57324670486E-02  0.14004850992E+00  0.89191285486E+00  0.88000000000E+00 0.  1.
        -11    1    4    4    0    0 -0.17004244292E-01 -0.15498282090E-01 -0.75716481623E-01  0.79136513583E-01  0.51100000000E-03 0.  1.
         11    1    4    4    0    0 -0.43178430267E-02  0.45536691537E-02 -0.49178672357E-01  0.49580062595E-01  0.51100000000E-03 0. -1.
</event>
<event>
 8    1  0.1146431E+005  0.1043930E+01  0.7957747E-01            NaN
         13   -1    0    0    0    0  0.00000000000E+00  0.00000000000E+00  0.74505805969E-08  0.10566000000E+00  0.10566000000E+00 0. -1.
     999900   -1    0    0    0    0 -0.00000000000E+00 -0.00000000000E+00 -0.74505805969E-08  0.93827000000E+00  0.93827000000E+00 0.  1.
     999902    2    1    2    0    0  0.22370895291E-01 -0.47597549805E-02  0.50106635307E-02  0.10205159236E+01  0.10202472893E+01 0.  0.
     999903    2    3    3    0    0 -0.55952286737E-01 -0.79191703427E-01  0.83510157731E-01  0.13043906942E+00  0.25266976565E-01 0.  0.
         14    1    1    2    0    0 -0.22370895291E-01  0.47597549805E-02 -0.50106635307E-02  0.23414076378E-01  0.00000000000E+00 0. -1.
     999901    1    3    3    0    0  0.78323182028E-01  0.74431948447E-01 -0.78499494200E-01  0.89007685420E+00  0.88000000000E+00 0.  1.
        -11    1    4    4    0    0 -0.26815948219E-01 -0.58171597342E-01  0.57538850411E-01  0.86104647052E-01  0.51100000000E-03 0. -1.
         11    1    4    4    0    0 -0.29136338518E-01 -0.21020106085E-01  0.25971307319E-01  0.44334422371E-01  0.51100000000E-03 0.  1.
</event>
<event>
 8    1  0.1146431E+005  0.1043930E+01  0.7957747E-01            NaN
         13   -1    0    0    0    0  0.00000000000E+00  0.00000000000E+00  0.74505805969E-08  0.10566000000E+00  0.10566000000E+00 0.  1.
     999900   -1    0    0    0    0 -0.00000000000E+00 -0.00000000000E+00 -0.74505805969E-08  0.93827000000E+00  0.93827000000E+00 0.  1.
     999902    2    1    2    0    0 -0.13066804620E-02  0.14478562343E-01 -0.19584657861E-01  0.10195395305E+01  0.10192477418E+01 0.  0.
     999903    2    3    3    0    0 -0.10111778342E+00 -0.75702551520E-01 -0.19037026350E-01  0.12931754158E+00  0.20123015577E-01 0.  0.
         14    1    1    2    0    0  0.13066804620E-02 -0.14478562343E-01  0.19584657861E-01  0.24390469550E-01  0.00000000000E+00 0.  1.
     999901    1    3    3    0    0  0.99811102963E-01  0.90181113863E-01 -0.54763151040E-03  0.89022198887E+00  0.88000000000E+00 0. -1.
        -11    1    4    4    0    0 -0.41841831612E-01 -0.37159991369E-01  0.48580549584E-03  0.55965176308E-01  0.51100000000E-03 0.  1.
         11    1    4    4    0    0 -0.59275951813E-01 -0.38542560151E-01 -0.19522831846E-01  0.73352365270E-01  0.51100000000E-03 0. -1.
</event>
<event>
 8    1  0.1146431E+005  0.1043930E+01  0.7957747E-01            NaN
         13   -1    0    0    0    0  0.00000000000E+00  0.00000000000E+00  0.74505805969E-08  0.10566000000E+00  0.10566000000E+00 0. -1.
     999900   -1    0    0    0    0 -0.00000000000E+00 -0.00000000000E+00 -0.74505805969E-08  0.93827000000E+00  0.93827000000E+00 0.  1.
     999902    2    1    2    0    0  0.19678361039E-01 -0.12854116226E-01  0.31699791216E-02  0.10202126021E+01  0.10199368796E+01 0.  0.
     999903    2    3    3    0    0  0.70916249661E-01 -0.10324242945E+00 -0.39952269585E-01  0.13305145733E+00  0.20454651024E-01 0.  0.
         14    1    1    2    0    0 -0.19678361039E-01  0.12854116226E-01 -0.31699791216E-02  0.23717397934E-01  0.00000000000E+00 0.  1.
     999901    1    3    3    0    0 -0.51237888622E-01  0.90388313220E-01  0.43122248706E-01  0.88716114474E+00  0.88000000000E+00 0. -1.
        -11    1    4    4    0    0  0.39270447030E-01 -0.44758044240E-01 -0.11140849153E-01  0.60579123261E-01  0.51100000000E-03 0. -1.
         11    1    4    4    0    0  0.31645802631E-01 -0.58484385206E-01 -0.28811420432E-01  0.72472334069E-01  0.51100000000E-03 0.  1.
</event>
<event>
 8    1  0.1146431E+005  0.1043930E+01  0.7957747E-01            NaN
         13   -1    0    0    0    0  0.00000000000E+00  0.00000000000E+00  0.74505805969E-08  0.10566000000E+00  0.10566000000E+00 0. -1.
     999900   -1    0    0    0    0 -0.00000000000E+00 -0.00000000000E+00 -0.74505805969E-08  0.93827000000E+00  0.93827000000E+00 0.  1.
     999902    2    1    2    0    0 -0.14080696848E-01 -0.44759205784E-02 -0.18695969556E-01  0.10201006239E+01  0.10198222608E+01 0.  0.
     999903    2    3    3    0    0 -0.49823412246E-01 -0.90409703976E-01 -0.82045768962E-01  0.13292794964E+00  0.16794183801E-01 0.  0.
         14    1    1    2    0    0  0.14080696848E-01  0.44759205784E-02  0.18695969556E-01  0.23829376123E-01  0.00000000000E+00 0. -1.
     999901    1    3    3    0    0  0.35742715398E-01  0.85933783397E-01  0.63349799406E-01  0.88717267424E+00  0.88000000000E+00 0. -1.
        -11    1    4    4    0    0 -0.35764058105E-01 -0.52330207855E-01 -0.56879124257E-01  0.85164631177E-01  0.51100000000E-03 0. -1.
         11    1    4    4    0    0 -0.14059354142E-01 -0.38079496121E-01 -0.25166644704E-01  0.47763318460E-01  0.51100000000E-03 0.  1.
</event>
<event>
 8    1  0.1146431E+005  0.1043930E+01  0.7957747E-01            NaN
         13   -1    0    0    0    0  0.00000000000E+00  0.00000000000E+00  0.74505805969E-08  0.10566000000E+00  0.10566000000E+00 0.  1.
     999900   -1    0    0    0    0 -0.00000000000E+00 -0.00000000000E+00 -0.74505805969E-08  0.93827000000E+00  0.93827000000E+00 0. -1.
     999902    2    1    2    0    0  0.12776865018E-01  0.80698624272E-02  0.18213611783E-01  0.10202634284E+01  0.10199889002E+01 0.  0.
     999903    2    3    3    0    0  0.44361334725E-01  0.66099400607E-01  0.10539469478E+00  0.13349088296E+00  0.19357566126E-01 0.  0.
         14    1    1    2    0    0 -0.12776865018E-01 -0.80698624272E-02 -0.18213611783E-01  0.23666571646E-01  0.00000000000E+00 0. -1.
     999901    1    3    3    0    0 -0.31584469707E-01 -0.58029538179E-01 -0.87181083001E-01  0.88677254539E+00  0.88000000000E+00 0. -1.
        -11    1    4    4    0    0  0.12543723932E-01  0.17653887877E-01  0.44085506449E-01  0.49120237857E-01  0.51100000000E-03 0. -1.
         11    1    4    4    0    0  0.31817610793E-01  0.48445512729E-01  0.61309188335E-01  0.84370645105E-01  0.51100000000E-03 0.  1.
</event>
<event>
 8    1  0.1146431E+005  0.1043930E+01  0.7957747E-01            NaN
         13   -1    0    0    0    0  0.00000000000E+00  0.00000000000E+00  0.74505805969E-08  0.10566000000E+00  0.10566000000E+00 0. -1.
     999900   -1    0    0    0    0 -0.00000000000E+00 -0.00000000000E+00 -0.74505805969E-08  0.93827000000E+00  0.93827000000E+00 0.  1.
     999902    2    1    2    0    0 -0.22211857282E-01  0.94176203856E-02 -0.43587744886E-03  0.10198001810E+01  0.10195146693E+01 0.  0.
     999903    2    3    3    0    0 -0.71667167596E-02  0.12797177511E+00  0.20838751937E-01  0.13146800564E+00  0.20529146873E-01 0.  0.
         14    1    1    2    0    0  0.22211857282E-01 -0.94176203856E-02  0.43587744886E-03  0.24129819038E-01  0.00000000000E+00 0.  1.
     999901    1    3    3    0    0 -0.15045140523E-01 -0.11855415472E+00 -0.21274629386E-01  0.88833217532E+00  0.88000000000E+00 0. -1.
        -11    1    4    4    0    0 -0.12398892790E-01  0.46635746077E-01  0.61417874340E-02  0.48647795720E-01  0.51100000000E-03 0.  1.
         11    1    4    4    0    0  0.52321760305E-02  0.81336029032E-01  0.14696964503E-01  0.82820209920E-01  0.51100000000E-03 0. -1.
</event>
<event>
 8    1  0.1146431E+005  0.1043930E+01  0.7957747E-01            NaN
         13   -1    0    0    0    0  0.00000000000E+00  0.00000000000E+00  0.74505805969E-08  0.10566000000E+00  0.10566000000E+00 0. -1.
     999900   -1    0    0    0    0 -0.00000000000E+00 -0.00000000000E+00 -0.74505805969E-08  0.93827000000E+00  0.93827000000E+00 0.  1.
     999902    2    1    2    0    0 -0.11310737021E-01 -0.23945313822E-02  0.20981155347E-01  0.10199743027E+01  0.10196929453E+01 0.  0.
     999903    2    3    3    0    0  0.54513511600E-01  0.11300066498E+00  0.28567872380E-01  0.12997068401E+00  0.18313441408E-01 0.  0.
         14    1    1    2    0    0  0.11310737021E-01  0.23945313822E-02 -0.20981155347E-01  0.23955697280E-01  0.00000000000E+00 0.  1.
     999901    1    3    3    0    0 -0.65824248621E-01 -0.11539519636E+00 -0.75867170335E-02  0.89000361871E+00  0.88000000000E+00 0. -1.
        -11    1    4    4    0    0  0.19538522628E-01  0.22778904142E-01  0.75320634550E-02  0.30945523768E-01  0.51100000000E-03 0.  1.
         11    1    4    4    0    0  0.34974988971E-01  0.90221760836E-01  0.21035808925E-01  0.99025160237E-01  0.51100000000E-03 0. -1.
</event>
<event>
 7    1  0.1146431E+005  0.1043930E+01  0.7957747E-01            NaN
         13   -1    0    0    0    0  0.00000000000E+00  0.00000000000E+00  0.74505805969E-08  0.10566000000E+00  0.10566000000E+00 0. -1.
     999900   -1    0    0    0    0 -0.00000000000E+00 -0.00000000000E+00 -0.74505805969E-08  0.93827000000E+00  0.93827000000E+00 0. -1.
     999903    2    1    2    0    0 -0.77337025731E-01 -0.30488922669E-01 -0.25771837603E-01  0.89300601170E-01  0.19995494528E-01 0.  0.
         14    1    1    2    0    0 -0.28397696380E-01 -0.55617722056E-01  0.14247012436E-01  0.64052615323E-01  0.00000000000E+00 0. -1.
     999901    1    1    2    0    0  0.10573472211E+00  0.86106644726E-01  0.11524825166E-01  0.89057678351E+00  0.88000000000E+00 0.  1.
        -11    1    3    3    0    0 -0.25080284776E-01 -0.11338356821E-01 -0.18505431306E-01  0.33170636542E-01  0.51100000000E-03 0. -1.
         11    1    3    3    0    0 -0.52256740955E-01 -0.19150565849E-01 -0.72664062969E-02  0.56129964628E-01  0.51100000000E-03 0.  1.
</event>
<event>
 8    1  0.1146431E+005  0.1043930E+01  0.7957747E-01            NaN
         13   -1    0    0    0    0  0.00000000000E+00  0.00000000000E+00  0.74505805969E-08  0.10566000000E+00  0.10566000000E+00 0. -1.
     999900   -1    0    0    0    0 -0.00000000000E+00 -0.00000000000E+00 -0.74505805969E-08  0.93827000000E+00  0.93827000000E+00 0. -1.
     999902    2    1    2    0    0  0.18555382018E-01 -0.11505522699E-01 -0.72453995692E-02  0.10209261945E+01  0.10206669973E+01 0.  0.
     999903    2    3    3    0    0  0.76214190283E-01 -0.10595651139E+00  0.20294284989E-01  0.13356834012E+00  0.19830743124E-01 0.  0.
         14    1    1    2    0    0 -0.18555382018E-01  0.11505522699E-01  0.72453995692E-02  0.23003805540E-01  0.00000000000E+00 0. -1.
     999901    1    3    3    0    0 -0.57658808265E-01  0.94450988690E-01 -0.27539684558E-01  0.88735785434E+00  0.88000000000E+00 0. -1.
        -11    1    4    4    0    0  0.27433856317E-01 -0.54058213956E-01  0.59767772049E-02  0.60917074415E-01  0.51100000000E-03 0.  1.
         11    1    4    4    0    0  0.48780333966E-01 -0.51898297432E-01  0.14317507784E-01  0.72651265704E-01  0.51100000000E-03 0. -1.
</event>
<event>
 8    1  0.1146431E+005  0.1043930E+01  0.7957747E-01            NaN
         13   -1    0    0    0    0  0.00000000000E+00  0.00000000000E+00  0.74505805969E-08  0.10566000000E+00  0.10566000000E+00 0. -1.
     999900   -1    0    0    0    0 -0.00000000000E+00 -0.00000000000E+00 -0.74505805969E-08  0.93827000000E+00  0.93827000000E+00 0. -1.
     999902    2    1    2    0    0  0.15206757426E-01  0.94304864103E-02 -0.14257309395E-01  0.10210509612E+01  0.10207945998E+01 0.  0.
     999903    2    3    3    0    0  0.54292080779E-01  0.52475132936E-02  0.11676629446E+00  0.13048240992E+00  0.20399150605E-01 0.  0.
         14    1    1    2    0    0 -0.15206757426E-01 -0.94304864103E-02  0.14257309395E-01  0.22879038803E-01  0.00000000000E+00 0. -1.
     999901    1    3    3    0    0 -0.39085323353E-01  0.41829731167E-02 -0.13102360385E+00  0.89056855128E+00  0.88000000000E+00 0. -1.
        -11    1    4    4    0    0  0.32791692800E-01 -0.62529662207E-02  0.75419065399E-01  0.82478428998E-01  0.51100000000E-03 0.  1.
         11    1    4    4    0    0  0.21500387980E-01  0.11500479514E-01  0.41347229056E-01  0.48003980918E-01  0.51100000000E-03 0. -1.
</event>
<event>
 8    1  0.1146431E+005  0.1043930E+01  0.7957747E-01            NaN
         13   -1    0    0    0    0  0.00000000000E+00  0.00000000000E+00  0.74505805969E-08  0.10566000000E+00  0.10566000000E+00 0. -1.
     999900   -1    0    0    0    0 -0.00000000000E+00 -0.00000000000E+00 -0.74505805969E-08  0.93827000000E+00  0.93827000000E+00 0. -1.
     999902    2    1    2    0    0 -0.21351330119E-02 -0.39431417491E-02 -0.23321821771E-01  0.10201810099E+01  0.10199045438E+01 0.  0.
     999903    2    3    3    0    0 -0.75214281132E-01 -0.58465002135E-01  0.84651411181E-01  0.12890584802E+00  0.19378123723E-01 0.  0.
         14    1    1    2    0    0  0.21351330119E-02  0.39431417491E-02  0.23321821771E-01  0.23748990096E-01  0.00000000000E+00 0. -1.
     999901    1    3    3    0    0  0.73079148120E-01  0.54521860386E-01 -0.10797323295E+00  0.89127516188E+00  0.88000000000E+00 0. -1.
        -11    1    4    4    0    0 -0.33153008939E-01 -0.14314779285E-01  0.28421795238E-01  0.45957529016E-01  0.51100000000E-03 0. -1.
         11    1    4    4    0    0 -0.42061272193E-01 -0.44150222850E-01  0.56229615943E-01  0.82948319009E-01  0.51100000000E-03 0.  1.
</event>
<event>
 8    1  0.1146431E+005  0.1043930E+01  0.7957747E-01            NaN
         13   -1    0    0    0    0  0.00000000000E+00  0.00000000000E+00  0.74505805969E-08  0.10566000000E+00  0.10566000000E+00 0. -1.
     999900   -1    0    0    0    0 -0.00000000000E+00 -0.00000000000E+00 -0.74505805969E-08  0.93827000000E+00  0.93827000000E+00 0. -1.
     999902    2    1    2    0    0  0.44296783457E-02  0.78000549796E-03  0.23143519391E-01  0.10203534661E+01  0.10200810472E+01 0.  0.
     999903    2    3    3    0    0  0.12016243411E+00 -0.32674645753E-02 -0.45320670327E-01  0.13013001215E+00  0.20740540190E-01 0.  0.
         14    1    1    2    0    0 -0.44296783457E-02 -0.78000549796E-03 -0.23143519391E-01  0.23576533855E-01  0.00000000000E+00 0.  1.
     999901    1    3    3    0    0 -0.11573275576E+00  0.40474700733E-02  0.68464189718E-01  0.89022345400E+00  0.88000000000E+00 0.  1.
        -11    1    4    4    0    0  0.88598339217E-01 -0.31654673278E-02 -0.23384898490E-01  0.91688606129E-01  0.51100000000E-03 0.  1.
         11    1    4    4    0    0  0.31564094891E-01 -0.10199724757E-03 -0.21935771836E-01  0.38441406020E-01  0.51100000000E-03 0. -1.
</event>
<event>
 8    1  0.1202927E+005  0.1043930E+01  0.7957747E-01            NaN
         13   -1    0    0    0    0  0.00000000000E+00  0.00000000000E+00  0.74505805969E-08  0.10566000000E+00  0.10566000000E+00 0.  1.
     999900   -1    0    0    0    0 -0.00000000000E+00 -0.00000000000E+00 -0.74505805969E-08  0.93827000000E+00  0.93827000000E+00 0. -1.
     999902    2    1    2    0    0  0.20498908566E-02 -0.11583307687E-01  0.20438683452E-01  0.10203479125E+01  0.10200753637E+01 0.  0.
     999903    2    3    3    0    0 -0.79093847408E-01 -0.10104932185E+00  0.25104099996E-01  0.13208542874E+00  0.18696055826E-01 0.  0.
         14    1    1    2    0    0 -0.20498908566E-02  0.11583307687E-01 -0.20438683452E-01  0.23582087497E-01  0.00000000000E+00 0.  1.
     999901    1    3    3    0    0  0.81143738265E-01  0.89466014168E-01 -0.46654165447E-02  0.88826248376E+00  0.88000000000E+00 0. -1.
        -11    1    4    4    0    0 -0.36556642831E-01 -0.42739170318E-01  0.20125167105E-01  0.59735318586E-01  0.51100000000E-03 0.  1.
         11    1    4    4    0    0 -0.42537204577E-01 -0.58310151536E-01  0.49789328914E-02  0.72350110153E-01  0.51100000000E-03 0. -1.
</event>
<event>
 8    1  0.1146431E+005  0.1043930E+01  0.7957747E-01            NaN
         13   -1    0    0    0    0  0.00000000000E+00  0.00000000000E+00  0.74505805969E-08  0.10566000000E+00  0.10566000000E+00 0.  1.
     999900   -1    0    0    0    0 -0.00000000000E+00 -0.00000000000E+00 -0.74505805969E-08  0.93827000000E+00  0.93827000000E+00 0.  1.
     999902    2    1    2    0    0  0.15788337557E-01  0.54264685467E-02  0.17044023789E-01  0.10200717329E+01  0.10197926864E+01 0.  0.
     999903    2    3    3    0    0  0.70202030610E-02 -0.21913466136E-01 -0.12456086305E+00  0.12828908211E+00  0.20327241229E-01 0.  0.
         14    1    1    2    0    0 -0.15788337557E-01 -0.54264685467E-02 -0.17044023789E-01  0.23858267134E-01  0.00000000000E+00 0. -1.
     999901    1    3    3    0    0  0.87681344956E-02  0.27339934683E-01  0.14160488684E+00  0.89178265076E+00  0.88000000000E+00 0. -1.
        -11    1    4    4    0    0  0.28678643575E-02 -0.14120137439E-02 -0.66400602157E-01  0.66479466880E-01  0.51100000000E-03 0.  1.
         11    1    4    4    0    0  0.41523387035E-02 -0.20501452393E-01 -0.58160260893E-01  0.61809615231E-01  0.51100000000E-03 0. -1.
</event>
<event>
 8    1  0.1146431E+005  0.1043930E+01  0.7957747E-01            NaN
         13   -1    0    0    0    0  0.00000000000E+00  0.00000000000E+00  0.74505805969E-08  0.10566000000E+00  0.10566000000E+00 0. -1.
     999900   -1    0    0    0    0 -0.00000000000E+00 -0.00000000000E+00 -0.74505805969E-08  0.93827000000E+00  0.93827000000E+00 0. -1.
     999902    2    1    2    0    0 -0.20572237924E-01 -0.24890918377E-02  0.92486598320E-02  0.10212374845E+01  0.10209853326E+01 0.  0.
     999903    2    3    3    0    0  0.30080622300E-01 -0.23482642906E-01  0.12477397981E+00  0.13199480615E+00  0.19945035856E-01 0.  0.
         14    1    1    2    0    0  0.20572237924E-01  0.24890918377E-02 -0.92486598320E-02  0.22692515508E-01  0.00000000000E+00 0. -1.
     999901    1    3    3    0    0 -0.50652860224E-01  0.20993551068E-01 -0.11552531998E+00  0.88924267835E+00  0.88000000000E+00 0. -1.
        -11    1    4    4    0    0  0.31138953953E-01 -0.15167360417E-01  0.98759120226E-01  0.10465805380E+00  0.51100000000E-03 0. -1.
         11    1    4    4    0    0 -0.10583316536E-02 -0.83152824894E-02  0.26014859587E-01  0.27336752351E-01  0.51100000000E-03 0.  1.
</event>
<event>
 8    1  0.1146431E+005  0.1043930E+01  0.7957747E-01            NaN
         13   -1    0    0    0    0  0.00000000000E+00  0.00000000000E+00  0.74505805969E-08  0.10566000000E+00  0.10566000000E+00 0.  1.
     999900   -1    0    0    0    0 -0.00000000000E+00 -0.00000000000E+00 -0.74505805969E-08  0.93827000000E+00  0.93827000000E+00 0. -1.
     999902    2    1    2    0    0  0.12415014974E-01 -0.18725456918E-01  0.88714335575E-03  0.10214452861E+01  0.10211977821E+01 0.  0.
     999903    2    3    3    0    0  0.54856689466E-01  0.11256446369E+00  0.20330088389E-01  0.13048155675E+00  0.30530465016E-01 0.  0.
         14    1    1    2    0    0 -0.12415014974E-01  0.18725456918E-01 -0.88714335575E-03  0.22484713850E-01  0.00000000000E+00 0.  1.
     999901    1    3    3    0    0 -0.42441674492E-01 -0.13128992061E+00 -0.19442945033E-01  0.89096372940E+00  0.88000000000E+00 0. -1.
        -11    1    4    4    0    0  0.17409776701E-01  0.45470880575E-01  0.22440136592E-01  0.53614570373E-01  0.51100000000E-03 0. -1.
         11    1    4    4    0    0  0.37446912765E-01  0.67093583115E-01 -0.21100482032E-02  0.76866986381E-01  0.51100000000E-03 0.  1.
</event>
<event>
 8    1  0.1146431E+005  0.1043930E+01  0.7957747E-01            NaN
         13   -1    0    0    0    0  0.00000000000E+00  0.00000000000E+00  0.74505805969E-08  0.10566000000E+00  0.10566000000E+00 0.  1.
     999900   -1    0    0    0    0 -0.00000000000E+00 -0.00000000000E+00 -0.74505805969E-08  0.93827000000E+00  0.93827000000E+00 0.  1.
     999902    2    1    2    0    0  0.19921015497E-01 -0.49808448570E-03 -0.11020834693E-01  0.10211582248E+01  0.10209042886E+01 0.  0.
     999903    2    3    3    0    0 -0.15829831595E-01  0.57937195969E-01 -0.11588609195E+00  0.13228842152E+00  0.21525285545E-01 0.  0.
         14    1    1    2    0    0 -0.19921015497E-01  0.49808448570E-03  0.11020834693E-01  0.22771775160E-01  0.00000000000E+00 0.  1.
     999901    1    3    3    0    0  0.35750847092E-01 -0.58435280454E-01  0.10486525725E+00  0.88886980332E+00  0.88000000000E+00 0. -1.
        -11    1    4    4    0    0 -0.76014695525E-02  0.38807674560E-01 -0.53597497209E-01  0.66609089262E-01  0.51100000000E-03 0.  1.
         11    1    4    4    0    0 -0.82283620425E-02  0.19129521408E-01 -0.62288594736E-01  0.65679332262E-01  0.51100000000E-03 0. -1.
</event>
<event>
 8    1  0.1146431E+005  0.1043930E+01  0.7957747E-01            NaN
         13   -1    0    0    0    0  0.00000000000E+00  0.00000000000E+00  0.74505805969E-08  0.10566000000E+00  0.10566000000E+00 0.  1.
     999900   -1    0    0    0    0 -0.00000000000E+00 -0.00000000000E+00 -0.74505805969E-08  0.93827000000E+00  0.93827000000E+00 0.  1.
     999902    2    1    2    0    0  0.19058177328E-01 -0.18030806825E-01 -0.81754576176E-02  0.10164497848E+01  0.10160782464E+01 0.  0.
     999903    2    3    3    0    0 -0.43732613147E-01 -0.10433162054E+00  0.55774008489E-01  0.12769782393E+00  0.19959101086E-01 0.  0.
         14    1    1    2    0    0 -0.19058177328E-01  0.18030806825E-01  0.81754576176E-02  0.27480215158E-01  0.00000000000E+00 0. -1.
     999901    1    3    3    0    0  0.62790790476E-01  0.86300813711E-01 -0.63949466107E-01  0.88875196092E+00  0.88000000000E+00 0. -1.
        -11    1    4    4    0    0 -0.90684929595E-02 -0.40577779983E-01  0.13529904222E-01  0.43727716864E-01  0.51100000000E-03 0.  1.
         11    1    4    4    0    0 -0.34664120188E-01 -0.63753840554E-01  0.42244104268E-01  0.83970107063E-01  0.51100000000E-03 0. -1.
</event>
<event>
 8    1  0.1146431E+005  0.1043930E+01  0.7957747E-01            NaN
         13   -1    0    0    0    0  0.00000000000E+00  0.00000000000E+00  0.74505805969E-08  0.10566000000E+00  0.10566000000E+00 0.  1.
     999900   -1    0    0    0    0 -0.00000000000E+00 -0.00000000000E+00 -0.74505805969E-08  0.93827000000E+00  0.93827000000E+00 0.  1.
     999902    2    1    2    0    0 -0.13058521941E-01 -0.12965041707E-01  0.14494042245E-01  0.10205057698E+01  0.10202368997E+01 0.  0.
     999903    2    3    3    0    0  0.11795727317E+00  0.50972658205E-02  0.48181643188E-01  0.12998556225E+00  0.25196730779E-01 0.  0.
         14    1    1    2    0    0  0.13058521941E-01  0.12965041707E-01 -0.14494042245E-01  0.23424230240E-01  0.00000000000E+00 0.  1.
     999901    1    3    3    0    0 -0.13101579511E+00 -0.18062307528E-01 -0.33687600944E-01  0.89052020751E+00  0.88000000000E+00 0.  1.
        -11    1    4    4    0    0  0.87911767998E-01 -0.51902447308E-02  0.28244838685E-01  0.92484861606E-01  0.51100000000E-03 0. -1.
         11    1    4    4    0    0  0.30045505169E-01  0.10287510551E-01  0.19936804503E-01  0.37500700646E-01  0.51100000000E-03 0.  1.
</event>
<event>
 8    1  0.1146431E+005  0.1043930E+01  0.7957747E-01            NaN
         13   -1    0    0    0    0  0.00000000000E+00  0.00000000000E+00  0.74505805969E-08  0.10566000000E+00  0.10566000000E+00 0. -1.
     999900   -1    0    0    0    0 -0.00000000000E+00 -0.00000000000E+00 -0.74505805969E-08  0.93827000000E+00  0.93827000000E+00 0.  1.
     999902    2    1    2    0    0 -0.21587529267E-01  0.48339789040E-02  0.49583591490E-02  0.10212590032E+01  0.10210073347E+01 0.  0.
     999903    2    3    3    0    0  0.46257374992E-01 -0.51222258152E-01 -0.10800257941E+00  0.12968432520E+00  0.19748482796E-01 0.  0.
         14    1    1    2    0    0  0.21587529267E-01 -0.48339789040E-02 -0.49583591490E-02  0.22670996832E-01  0.00000000000E+00 0. -1.
     999901    1    3    3    0    0 -0.67844904260E-01  0.56056237056E-01  0.11296093856E+00  0.89157467796E+00  0.88000000000E+00 0. -1.
        -11    1    4    4    0    0  0.23717910090E-01 -0.12147236449E-01 -0.38548431565E-01  0.46865096922E-01  0.51100000000E-03 0. -1.
         11    1    4    4    0    0  0.22539464902E-01 -0.39075021703E-01 -0.69454147845E-01  0.82819228281E-01  0.51100000000E-03 0.  1.
</event>
<event>
 8    1  0.1146431E+005  0.1043930E+01  0.7957747E-01            NaN
         13   -1    0    0    0    0  0.00000000000E+00  0.00000000000E+00  0.74505805969E-08  0.10566000000E+00  0.10566000000E+00 0. -1.
     999900   -1    0    0    0    0 -0.00000000000E+00 -0.00000000000E+00 -0.74505805969E-08  0.93827000000E+00  0.93827000000E+00 0. -1.
     999902    2    1    2    0    0 -0.18875133924E-01  0.14858414070E-01  0.20806860025E-01  0.10121499973E+01  0.10116509519E+01 0.  0.
     999903    2    3    3    0    0  0.10585508069E+00  0.42218133108E-01 -0.35799566844E-01  0.12113346082E+00  0.20100683423E-01 0.  0.
         14    1    1    2    0    0  0.18875133924E-01 -0.14858414070E-01 -0.20806860025E-01  0.31780002729E-01  0.00000000000E+00 0.  1.
     999901    1    3    3    0    0 -0.12473021461E+00 -0.27359719038E-01  0.56606426869E-01  0.89101653645E+00  0.88000000000E+00 0.  1.
        -11    1    4    4    0    0  0.24903703489E-01  0.11223712683E-02 -0.79668930689E-02  0.26176070578E-01  0.51100000000E-03 0. -1.
         11    1    4    4    0    0  0.80951377199E-01  0.41095761840E-01 -0.27832673775E-01  0.94957390245E-01  0.51100000000E-03 0.  1.
</event>
<event>
 8    1  0.1146431E+005  0.1043930E+01  0.7957747E-01            NaN
         13   -1    0    0    0    0  0.00000000000E+00  0.00000000000E+00  0.74505805969E-08  0.10566000000E+00  0.10566000000E+00 0. -1.
     999900   -1    0    0    0    0 -0.00000000000E+00 -0.00000000000E+00 -0.74505805969E-08  0.93827000000E+00  0.93827000000E+00 0.  1.
     999902    2    1    2    0    0  0.20602324574E-01  0.11188304709E-01 -0.37658639075E-02  0.10201851970E+01  0.10199088295E+01 0.  0.
     999903    2    3    3    0    0 -0.75825995212E-01 -0.73243152644E-01 -0.70519303706E-01  0.12839872388E+00  0.19977966382E-01 0.  0.
         14    1    1    2    0    0 -0.20602324574E-01 -0.11188304709E-01  0.37658639075E-02  0.23744803033E-01  0.00000000000E+00 0.  1.
     999901    1    3    3    0    0  0.96428319786E-01  0.84431457353E-01  0.66753439799E-01  0.89178647308E+00  0.88000000000E+00 0.  1.
        -11    1    4    4    0    0 -0.17199338063E-01 -0.71072893586E-02 -0.87458009589E-02  0.20568931602E-01  0.51100000000E-03 0.  1.
         11    1    4    4    0    0 -0.58626657149E-01 -0.66135863285E-01 -0.61773502747E-01  0.10782979228E+00  0.51100000000E-03 0. -1.
</event>
<event>
 8    1  0.1146431E+005  0.1043930E+01  0.7957747E-01            NaN
         13   -1    0    0    0    0  0.00000000000E+00  0.00000000000E+00  0.74505805969E-08  0.10566000000E+00  0.10566000000E+00 0. -1.
     999900   -1    0    0    0    0 -0.00000000000E+00 -0.00000000000E+00 -0.74505805969E-08  0.93827000000E+00  0.93827000000E+00 0.  1.
     999902    2    1    2    0    0 -0.21911527344E-01  0.10310099367E-01 -0.46503732430E-02  0.10192715501E+01  0.10189732350E+01 0.  0.
     999903    2    3    3    0    0  0.33898738129E-01  0.13222876445E-03 -0.12337200278E+00  0.12948887996E+00  0.19939333779E-01 0.  0.
         14    1    1    2    0    0  0.21911527344E-01 -0.10310099367E-01  0.46503732430E-02  0.24658449886E-01  0.00000000000E+00 0. -1.
     999901    1    3    3    0    0 -0.55810265473E-01  0.10177870602E-01  0.11872162954E+00  0.88978267015E+00  0.88000000000E+00 0. -1.
        -11    1    4    4    0    0  0.96192814022E-02 -0.82619005345E-02 -0.55079587182E-01  0.56522664660E-01  0.51100000000E-03 0.  1.
         11    1    4    4    0    0  0.24279456727E-01  0.83941292990E-02 -0.68292415602E-01  0.72966215301E-01  0.51100000000E-03 0. -1.
</event>
<event>
 8    1  0.1146431E+005  0.1043930E+01  0.7957747E-01            NaN
         13   -1    0    0    0    0  0.00000000000E+00  0.00000000000E+00  0.74505805969E-08  0.10566000000E+00  0.10566000000E+00 0. -1.
     999900   -1    0    0    0    0 -0.00000000000E+00 -0.00000000000E+00 -0.74505805969E-08  0.93827000000E+00  0.93827000000E+00 0.  1.
     999902    2    1    2    0    0 -0.15471770391E-02  0.13252590315E-01 -0.20785835317E-01  0.10192302863E+01  0.10189309597E+01 0.  0.
     999903    2    3    3    0    0 -0.30421422441E-01  0.53201774828E-01 -0.11545401558E+00  0.13278134601E+00  0.23353037211E-01 0.  0.
         14    1    1    2    0    0  0.15471770391E-02 -0.13252590315E-01  0.20785835317E-01  0.24699713696E-01  0.00000000000E+00 0. -1.
     999901    1    3    3    0    0  0.28874245402E-01 -0.39949184514E-01  0.94668180262E-01  0.88644894029E+00  0.88000000000E+00 0. -1.
        -11    1    4    4    0    0 -0.84068419099E-03  0.38831250081E-02 -0.26859335915E-01  0.27156407284E-01  0.51100000000E-03 0. -1.
         11    1    4    4    0    0 -0.29580738250E-01  0.49318649820E-01 -0.88594679664E-01  0.10562493873E+00  0.51100000000E-03 0.  1.
</event>
<event>
 8    1  0.1146431E+005  0.1043930E+01  0.7957747E-01            NaN
         13   -1    0    0    0    0  0.00000000000E+00  0.00000000000E+00  0.74505805969E-08  0.10566000000E+00  0.10566000000E+00 0.  1.
     999900   -1    0    0    0    0 -0.00000000000E+00 -0.00000000000E+00 -0.74505805969E-08  0.93827000000E+00  0.93827000000E+00 0.  1.
     999902    2    1    2    0    0  0.17569855141E-01  0.25584972618E-02 -0.14842068906E-01  0.10207884199E+01  0.10205260730E+01 0.  0.
     999903    2    3    3    0    0  0.63918387846E-01  0.10488705243E+00 -0.46792633806E-01  0.13307215994E+00  0.20779679999E-01 0.  0.
         14    1    1    2    0    0 -0.17569855141E-01 -0.25584972618E-02  0.14842068906E-01  0.23141580053E-01  0.00000000000E+00 0.  1.
     999901    1    3    3    0    0 -0.46348532705E-01 -0.10232855516E+00  0.31950564900E-01  0.88771626001E+00  0.88000000000E+00 0.  1.
        -11    1    4    4    0    0  0.27728339762E-01  0.28557774212E-01 -0.10788902908E-01  0.41244015819E-01  0.51100000000E-03 0.  1.
         11    1    4    4    0    0  0.36190048084E-01  0.76329278214E-01 -0.36003730898E-01  0.91828144120E-01  0.51100000000E-03 0. -1.
</event>
<event>
 7    1  0.1146431E+005  0.1043930E+01  0.7957747E-01            NaN
         13   -1    0    0    0    0  0.00000000000E+00  0.00000000000E+00  0.74505805969E-08  0.10566000000E+00  0.10566000000E+00 0. -1.
     999900   -1    0    0    0    0 -0.00000000000E+00 -0.00000000000E+00 -0.74505805969E-08  0.93827000000E+00  0.93827000000E+00 0. -1.
     999902    2    1    2    0    0 -0.16969189997E-01 -0.71607322315E-02 -0.11594643274E-02  0.10254753569E+01  0.10253092869E+01 0.  0.
         14    1    1    2    0    0  0.16969189997E-01  0.71607322315E-02  0.11594643274E-02  0.18454643122E-01  0.00000000000E+00 0.  1.
     999901    1    3    3    0    0  0.38924562349E-01 -0.64241178268E-01  0.10837439305E+00  0.88982417342E+00  0.88000000000E+00 0.  1.
        -11    1    3    3    0    0 -0.26460846456E-01  0.29502333291E-01 -0.56713145151E-01  0.69189638088E-01  0.51100000000E-03 0.  1.
         11    1    3    3    0    0 -0.29432905890E-01  0.27578112745E-01 -0.52820712224E-01  0.66461545367E-01  0.51100000000E-03 0. -1.
</event>
<event>
 8    1  0.1146431E+005  0.1043930E+01  0.7957747E-01            NaN
         13   -1    0    0    0    0  0.00000000000E+00  0.00000000000E+00  0.74505805969E-08  0.10566000000E+00  0.10566000000E+00 0. -1.
     999900   -1    0    0    0    0 -0.00000000000E+00 -0.00000000000E+00 -0.74505805969E-08  0.93827000000E+00  0.93827000000E+00 0.  1.
     999902    2    1    2    0    0 -0.20673705392E-01 -0.11417089588E-01  0.49674653768E-02  0.10197964602E+01  0.10195108595E+01 0.  0.
     999903    2    3    3    0    0  0.67700909874E-01 -0.10458318804E+00  0.32048385316E-01  0.13006426977E+00  0.19197886666E-01 0.  0.
         14    1    1    2    0    0  0.20673705392E-01  0.11417089588E-01 -0.49674653768E-02  0.24133539764E-01  0.00000000000E+00 0.  1.
     999901    1    3    3    0    0 -0.88374615266E-01  0.93166098447E-01 -0.27080919939E-01  0.88973219046E+00  0.88000000000E+00 0.  1.
        -11    1    4    4    0    0  0.44315756084E-01 -0.51091872171E-01  0.18768464472E-01  0.70191039449E-01  0.51100000000E-03 0.  1.
         11    1    4    4    0    0  0.23385153790E-01 -0.53491315864E-01  0.13279920845E-01  0.59873230323E-01  0.51100000000E-03 0. -1.
</event>
<event>
 8    1  0.1146431E+005  0.1043930E+01  0.7957747E-01            NaN
         13   -1    0    0    0    0  0.00000000000E+00  0.00000000000E+00  0.74505805969E-08  0.10566000000E+00  0.10566000000E+00 0. -1.
     999900   -1    0    0    0    0 -0.00000000000E+00 -0.00000000000E+00 -0.74505805969E-08  0.93827000000E+00  0.93827000000E+00 0. -1.
     999902    2    1    2    0    0  0.21237208045E-01 -0.90275917016E-02 -0.64862381483E-02  0.10199594409E+01  0.10196777302E+01 0.  0.
     999903    2    3    3    0    0  0.74686755213E-01 -0.30016460826E-01  0.10203445864E+00  0.13143587435E+00  0.19628015454E-01 0.  0.
         14    1    1    2    0    0 -0.21237208045E-01  0.90275917016E-02  0.64862381483E-02  0.23970559084E-01  0.00000000000E+00 0. -1.
     999901    1    3    3    0    0 -0.53449547169E-01  0.20988869124E-01 -0.10852069679E+00  0.88852356657E+00  0.88000000000E+00 0. -1.
        -11    1    4    4    0    0  0.38790506484E-01 -0.66599826040E-02  0.40621593774E-01  0.56563537401E-01  0.51100000000E-03 0.  1.
         11    1    4    4    0    0  0.35896248729E-01 -0.23356478222E-01  0.61412864864E-01  0.74872336945E-01  0.51100000000E-03 0. -1.
</event>
<event>
 8    1  0.1146431E+005  0.1043930E+01  0.7957747E-01            NaN
         13   -1    0    0    0    0  0.00000000000E+00  0.00000000000E+00  0.74505805969E-08  0.10566000000E+00  0.10566000000E+00 0.  1.
     999900   -1    0    0    0    0 -0.00000000000E+00 -0.00000000000E+00 -0.74505805969E-08  0.93827000000E+00  0.93827000000E+00 0. -1.
     999902    2    1    2    0    0 -0.17183759486E-01 -0.13647963212E-01  0.11324414497E-01  0.10192360563E+01  0.10189368713E+01 0.  0.
     999903    2    3    3    0    0  0.89222278693E-01 -0.49921868902E-01  0.77098988724E-01  0.12964944683E+00  0.20295738267E-01 0.  0.
         14    1    1    2    0    0  0.17183759486E-01  0.13647963212E-01 -0.11324414497E-01  0.24693943663E-01  0.00000000000E+00 0.  1.
     999901    1    3    3    0    0 -0.10640603818E+00  0.36273905689E-01 -0.65774574227E-01  0.88958660950E+00  0.88000000000E+00 0. -1.
        -11    1    4    4    0    0  0.76099428837E-01 -0.49024580569E-01  0.62572097934E-01  0.11004572291E+00  0.51100000000E-03 0. -1.
         11    1    4    4    0    0  0.13122849856E-01 -0.89728833233E-03  0.14526890790E-01  0.19603723925E-01  0.51100000000E-03 0.  1.
</event>
<event>
 8    1  0.1146431E+005  0.1043930E+01  0.7957747E-01            NaN
         13   -1    0    0    0    0  0.00000000000E+00  0.00000000000E+00  0.74505805969E-08  0.10566000000E+00  0.10566000000E+00 0.  1.
     999900   -1    0    0    0    0 -0.00000000000E+00 -0.00000000000E+00 -0.74505805969E-08  0.93827000000E+00  0.93827000000E+00 0.  1.
     999902    2    1    2    0    0 -0.19538731184E-01  0.12361471307E-01  0.49049343821E-02  0.10202947219E+01  0.10200209278E+01 0.  0.
     999903    2    3    3    0    0  0.32192490848E-01 -0.12201657653E+00 -0.10658639121E-01  0.12845628144E+00  0.21517626227E-01 0.  0.
         14    1    1    2    0    0  0.19538731184E-01 -0.12361471307E-01 -0.49049343821E-02  0.23635278091E-01  0.00000000000E+00 0. -1.
     999901    1    3    3    0    0 -0.51731222031E-01  0.13437804784E+00  0.15563573503E-01  0.89183844047E+00  0.88000000000E+00 0.  1.
        -11    1    4    4    0    0  0.13816807277E-01 -0.22458753357E-01 -0.63328958976E-02  0.27123171959E-01  0.51100000000E-03 0.  1.
         11    1    4    4    0    0  0.18375683571E-01 -0.99557823176E-01 -0.43257432231E-02  0.10133310948E+00  0.51100000000E-03 0. -1.
</event>
<event>
 8    1  0.1146431E+005  0.1043930E+01  0.7957747E-01            NaN
         13   -1    0    0    0    0  0.00000000000E+00  0.00000000000E+00  0.74505805969E-08  0.10566000000E+00  0.10566000000E+00 0. -1.
     999900   -1    0    0    0    0 -0.00000000000E+00 -0.00000000000E+00 -0.74505805969E-08  0.93827000000E+00  0.93827000000E+00 0. -1.
     999902    2    1    2    0    0 -0.72293025307E-02  0.44735321056E-02  0.22930131547E-01  0.10194746072E+01  0.10191812442E+01 0.  0.
     999903    2    3    3    0    0 -0.30977473360E-01  0.12251348032E+00  0.29859987601E-01  0.13124860673E+00  0.19115993103E-01 0.  0.
         14    1    1    2    0    0  0.72293025307E-02 -0.44735321056E-02 -0.22930131547E-01  0.24455392807E-01  0.00000000000E+00 0.  1.
     999901    1    3    3    0    0  0.23748170829E-01 -0.11803994822E+00 -0.69298560547E-02  0.88822600046E+00  0.88000000000E+00 0. -1.
        -11    1    4    4    0    0 -0.23238819209E-01  0.11351973328E+00  0.25945608218E-01  0.11874429783E+00  0.51100000000E-03 0.  1.
         11    1    4    4    0    0 -0.77386541506E-02  0.89937470483E-02  0.39143793835E-02  0.12504308897E-01  0.51100000000E-03 0. -1.
</event>
<event>
 8    1  0.1146431E+005  0.1043930E+01  0.7957747E-01            NaN
         13   -1    0    0    0    0  0.00000000000E+00  0.00000000000E+00  0.74505805969E-08  0.10566000000E+00  0.10566000000E+00 0.  1.
     999900   -1    0    0    0    0 -0.00000000000E+00 -0.00000000000E+00 -0.74505805969E-08  0.93827000000E+00  0.93827000000E+00 0. -1.
     999902    2    1    2    0    0 -0.12149600102E-02 -0.16108438025E-01  0.18549074792E-01  0.10193327221E+01  0.10190359033E+01 0.  0.
     999903    2    3    3    0    0  0.28295959394E-01  0.65466520299E-01  0.10755769675E+00  0.13059884577E+00  0.20021832817E-01 0.  0.
         14    1    1    2    0    0  0.12149600102E-02  0.16108438025E-01 -0.18549074792E-01  0.24597277879E-01  0.00000000000E+00 0. -1.
     999901    1    3    3    0    0 -0.29510919404E-01 -0.81574958323E-01 -0.89008621954E-01  0.88873387635E+00  0.88000000000E+00 0. -1.
        -11    1    4    4    0    0  0.17227835969E-01  0.35281870318E-01  0.76007312200E-01  0.85551045196E-01  0.51100000000E-03 0. -1.
         11    1    4    4    0    0  0.11068123424E-01  0.30184649981E-01  0.31550384546E-01  0.45047800575E-01  0.51100000000E-03 0.  1.
</event>
<event>
 8    1  0.1146431E+005  0.1043930E+01  0.7957747E-01            NaN
         13   -1    0    0    0    0  0.00000000000E+00  0.00000000000E+00  0.74505805969E-08  0.10566000000E+00  0.10566000000E+00 0.  1.
     999900   -1    0    0    0    0 -0.00000000000E+00 -0.00000000000E+00 -0.74505805969E-08  0.93827000000E+00  0.93827000000E+00 0. -1.
     999902    2    1    2    0    0  0.18980268479E-01 -0.65751281821E-02 -0.12535620476E-01  0.10202524857E+01  0.10199777007E+01 0.  0.
     999903    2    3    3    0    0 -0.81885319626E-01  0.70495303563E-01 -0.68562182398E-01  0.12938061280E+00  0.19072931537E-01 0.  0.
         14    1    1    2    0    0 -0.18980268479E-01  0.65751281821E-02  0.12535620476E-01  0.23677514288E-01  0.00000000000E+00 0.  1.
     999901    1    3    3    0    0  0.10086558811E+00 -0.77070431745E-01  0.56026561922E-01  0.89087187292E+00  0.88000000000E+00 0.  1.
        -11    1    4    4    0    0 -0.29428881890E-01  0.25580882434E-01 -0.14234713011E-01  0.41512995687E-01  0.51100000000E-03 0.  1.
         11    1    4    4    0    0 -0.52456437737E-01  0.44914421128E-01 -0.54327469387E-01  0.87867617108E-01  0.51100000000E-03 0. -1.
</event>
<event>
 8    1  0.1146431E+005  0.1043930E+01  0.7957747E-01            NaN
         13   -1    0    0    0    0  0.00000000000E+00  0.00000000000E+00  0.74505805969E-08  0.10566000000E+00  0.10566000000E+00 0. -1.
     999900   -1    0    0    0    0 -0.00000000000E+00 -0.00000000000E+00 -0.74505805969E-08  0.93827000000E+00  0.93827000000E+00 0.  1.
     999902    2    1    2    0    0  0.18700676981E-01  0.95605292483E-02 -0.11613210648E-01  0.10199302979E+01  0.10196478936E+01 0.  0.
     999903    2    3    3    0    0 -0.21423330087E-01 -0.12066944341E+00 -0.35298425759E-01  0.12912685655E+00  0.20191398554E-01 0.  0.
         14    1    1    2    0    0 -0.18700676981E-01 -0.95605292483E-02  0.11613210648E-01  0.23999702094E-01  0.00000000000E+00 0.  1.
     999901    1    3    3    0    0  0.40124007068E-01  0.13022997266E+00  0.23685215111E-01  0.89080344136E+00  0.88000000000E+00 0. -1.
        -11    1    4    4    0    0  0.30739068058E-02 -0.13694145847E-01 -0.74733204157E-02  0.15908808018E-01  0.51100000000E-03 0.  1.
         11    1    4    4    0    0 -0.24497236893E-01 -0.10697529756E+00 -0.27825105343E-01  0.11321804853E+00  0.51100000000E-03 0. -1.
</event>
<event>
 8    1  0.1146431E+005  0.1043930E+01  0.7957747E-01            NaN
         13   -1    0    0    0    0  0.00000000000E+00  0.00000000000E+00  0.74505805969E-08  0.10566000000E+00  0.10566000000E+00 0. -1.
     999900   -1    0    0    0    0 -0.00000000000E+00 -0.00000000000E+00 -0.74505805969E-08  0.93827000000E+00  0.93827000000E+00 0. -1.
     999902    2    1    2    0    0 -0.45507570734E-02 -0.19484280360E-01 -0.10575594938E-01  0.10212983898E+01  0.10210476048E+01 0.  0.
     999903    2    3    3    0    0  0.11335398749E+00  0.18432492804E-01  0.57590050386E-01  0.13001517687E+00  0.19961188415E-01 0.  0.
         14    1    1    2    0    0  0.45507570734E-02  0.19484280360E-01  0.10575594938E-01  0.22631610181E-01  0.00000000000E+00 0. -1.
     999901    1    3    3    0    0 -0.11790474456E+00 -0.37916773165E-01 -0.68165645324E-01  0.89128321295E+00  0.88000000000E+00 0. -1.
        -11    1    4    4    0    0  0.65788179934E-01  0.68693801519E-03  0.32391456352E-01  0.73335012568E-01  0.51100000000E-03 0.  1.
         11    1    4    4    0    0  0.47565807556E-01  0.17745554789E-01  0.25198594034E-01  0.56680164304E-01  0.51100000000E-03 0. -1.
</event>
<event>
 8    1  0.1146431E+005  0.1043930E+01  0.7957747E-01            NaN
         13   -1    0    0    0    0  0.00000000000E+00  0.00000000000E+00  0.74505805969E-08  0.10566000000E+00  0.10566000000E+00 0. -1.
     999900   -1    0    0    0    0 -0.00000000000E+00 -0.00000000000E+00 -0.74505805969E-08  0.93827000000E+00  0.93827000000E+00 0. -1.
     999902    2    1    2    0    0  0.80882658583E-02 -0.17004263627E-01 -0.15232250671E-01  0.10197104524E+01  0.10194227878E+01 0.  0.
     999903    2    3    3    0    0  0.37866162632E-01 -0.59853037367E-01 -0.11082447699E+00  0.13299707464E+00  0.19746513781E-01 0.  0.
         14    1    1    2    0    0 -0.80882658583E-02  0.17004263627E-01  0.15232250671E-01  0.24219547613E-01  0.00000000000E+00 0. -1.
     999901    1    3    3    0    0 -0.29777896773E-01  0.42848773740E-01  0.95592226323E-01  0.88671337775E+00  0.88000000000E+00 0.  1.
        -11    1    4    4    0    0  0.13054346569E-01 -0.27377260877E-01 -0.31321466767E-01  0.43603047817E-01  0.51100000000E-03 0. -1.
         11    1    4    4    0    0  0.24811816063E-01 -0.32475776490E-01 -0.79503010227E-01  0.89394026820E-01  0.51100000000E-03 0.  1.
</event>
<event>
 8    1  0.1146431E+005  0.1043930E+01  0.7957747E-01            NaN
         13   -1    0    0    0    0  0.00000000000E+00  0.00000000000E+00  0.74505805969E-08  0.10566000000E+00  0.10566000000E+00 0. -1.
     999900   -1    0    0    0    0 -0.00000000000E+00 -0.00000000000E+00 -0.74505805969E-08  0.93827000000E+00  0.93827000000E+00 0.  1.
     999902    2    1    2    0    0 -0.98740277229E-02 -0.12755386572E-01 -0.17760443665E-01  0.10199377165E+01  0.10196554888E+01 0.  0.
     999903    2    3    3    0    0 -0.65604432074E-01 -0.93563295571E-01  0.60771830291E-01  0.13100402142E+00  0.20268361711E-01 0.  0.
         14    1    1    2    0    0  0.98740277229E-02  0.12755386572E-01  0.17760443665E-01  0.23992283536E-01  0.00000000000E+00 0. -1.
     999901    1    3    3    0    0  0.55730404351E-01  0.80807908998E-01 -0.78532273956E-01  0.88893369504E+00  0.88000000000E+00 0.  1.
        -11    1    4    4    0    0 -0.12795726501E-01 -0.12241115589E-01  0.17224616002E-01  0.24708784773E-01  0.51100000000E-03 0. -1.
         11    1    4    4    0    0 -0.52808705573E-01 -0.81322179981E-01  0.43547214289E-01  0.10629523665E+00  0.51100000000E-03 0.  1.
</event>
<event>
 8    1  0.1658311E+005  0.1043930E+01  0.7957747E-01            NaN
         13   -1    0    0    0    0  0.00000000000E+00  0.00000000000E+00  0.74505805969E-08  0.10566000000E+00  0.10566000000E+00 0. -1.
     999900   -1    0    0    0    0 -0.00000000000E+00 -0.00000000000E+00 -0.74505805969E-08  0.93827000000E+00  0.93827000000E+00 0.  1.
     999902    2    1    2    0    0 -0.25088991215E-01 -0.71908795835E-02  0.52742262476E-02  0.10173032523E+01  0.10169547303E+01 0.  0.
     999903    2    3    3    0    0 -0.23914511391E-01 -0.23281414117E-01  0.12326137243E+00  0.12928227770E+00  0.20164654584E-01 0.  0.
         14    1    1    2    0    0  0.25088991215E-01  0.71908795835E-02 -0.52742262476E-02  0.26626747677E-01  0.00000000000E+00 0. -1.
     999901    1    3    3    0    0 -0.11744798240E-02  0.16090534533E-01 -0.11798714619E+00  0.88802097462E+00  0.88000000000E+00 0.  1.
        -11    1    4    4    0    0 -0.43673163605E-02 -0.16657302178E-01  0.71712138157E-01  0.73752498589E-01  0.51100000000E-03 0. -1.
         11    1    4    4    0    0 -0.19547195030E-01 -0.66241119387E-02  0.51549234277E-01  0.55529779111E-01  0.51100000000E-03 0.  1.
</event>
<event>
 8    1  0.1500943E+005  0.1043930E+01  0.7957747E-01            NaN
         13   -1    0    0    0    0  0.00000000000E+00  0.00000000000E+00  0.74505805969E-08  0.10566000000E+00  0.10566000000E+00 0. -1.
     999900   -1    0    0    0    0 -0.00000000000E+00 -0.00000000000E+00 -0.74505805969E-08  0.93827000000E+00  0.93827000000E+00 0. -1.
     999902    2    1    2    0    0 -0.21350512707E-01 -0.33843160969E-02  0.65369969866E-02  0.10213461492E+01  0.10210964333E+01 0.  0.
     999903    2    3    3    0    0 -0.25432180918E-01  0.11962150410E+00  0.45500296902E-01  0.13192767031E+00  0.19455927256E-01 0.  0.
         14    1    1    2    0    0  0.21350512707E-01  0.33843160969E-02 -0.65369969866E-02  0.22583850821E-01  0.00000000000E+00 0. -1.
     999901    1    3    3    0    0  0.40816682108E-02 -0.12300582020E+00 -0.38963299916E-01  0.88941847887E+00  0.88000000000E+00 0. -1.
        -11    1    4    4    0    0 -0.15544150201E-01  0.78919547477E-01  0.39495019050E-01  0.89610452684E-01  0.51100000000E-03 0. -1.
         11    1    4    4    0    0 -0.98880307161E-02  0.40701956623E-01  0.60052778525E-02  0.42317217624E-01  0.51100000000E-03 0.  1.
</event>
<event>
 8    1  0.1146431E+005  0.1043930E+01  0.7957747E-01            NaN
         13   -1    0    0    0    0  0.00000000000E+00  0.00000000000E+00  0.74505805969E-08  0.10566000000E+00  0.10566000000E+00 0.  1.
     999900   -1    0    0    0    0 -0.00000000000E+00 -0.00000000000E+00 -0.74505805969E-08  0.93827000000E+00  0.93827000000E+00 0.  1.
     999902    2    1    2    0    0  0.17046503350E-01  0.13637179000E-01 -0.60062443912E-02  0.10212886463E+01  0.10210376428E+01 0.  0.
     999903    2    3    3    0    0  0.45308521522E-01  0.93102951337E-01 -0.82832382098E-01  0.13392411796E+00  0.18800111110E-01 0.  0.
         14    1    1    2    0    0 -0.17046503350E-01 -0.13637179000E-01  0.60062443912E-02  0.22641353741E-01  0.00000000000E+00 0.  1.
     999901    1    3    3    0    0 -0.28262018172E-01 -0.79465772337E-01  0.76826137707E-01  0.88736452830E+00  0.88000000000E+00 0. -1.
        -11    1    4    4    0    0  0.15510026472E-01  0.23829289126E-01 -0.13479601145E-01  0.31469933420E-01  0.51100000000E-03 0.  1.
         11    1    4    4    0    0  0.29798495051E-01  0.69273662211E-01 -0.69352780953E-01  0.10245418454E+00  0.51100000000E-03 0. -1.
</event>
<event>
 8    1  0.1146431E+005  0.1043930E+01  0.7957747E-01            NaN
         13   -1    0    0    0    0  0.00000000000E+00  0.00000000000E+00  0.74505805969E-08  0.10566000000E+00  0.10566000000E+00 0.  1.
     999900   -1    0    0    0    0 -0.00000000000E+00 -0.00000000000E+00 -0.74505805969E-08  0.93827000000E+00  0.93827000000E+00 0. -1.
     999902    2    1    2    0    0 -0.42279480308E-02  0.24499145660E-01  0.47608762346E-03  0.10190641531E+01  0.10187607363E+01 0.  0.
     999903    2    3    3    0    0  0.83979718301E-01 -0.82076844442E-02 -0.95355412409E-01  0.12887652932E+00  0.19913461875E-01 0.  0.
         14    1    1    2    0    0  0.42279480308E-02 -0.24499145660E-01 -0.47608762346E-03  0.24865846900E-01  0.00000000000E+00 0.  1.
     999901    1    3    3    0    0 -0.88207666331E-01  0.32706830104E-01  0.95831500032E-01  0.89018762378E+00  0.88000000000E+00 0.  1.
        -11    1    4    4    0    0  0.61042301436E-01 -0.86862338180E-02 -0.81037684859E-01  0.10182819212E+00  0.51100000000E-03 0. -1.
         11    1    4    4    0    0  0.22937416864E-01  0.47854937373E-03 -0.14317727549E-01  0.27048337196E-01  0.51100000000E-03 0.  1.
</event>
<event>
 8    1  0.1146431E+005  0.1043930E+01  0.7957747E-01            NaN
         13   -1    0    0    0    0  0.00000000000E+00  0.00000000000E+00  0.74505805969E-08  0.10566000000E+00  0.10566000000E+00 0.  1.
     999900   -1    0    0    0    0 -0.00000000000E+00 -0.00000000000E+00 -0.74505805969E-08  0.93827000000E+00  0.93827000000E+00 0. -1.
     999902    2    1    2    0    0 -0.79031562434E-02  0.61167933261E-02 -0.19857001654E-01  0.10216999403E+01  0.10214580718E+01 0.  0.
     999903    2    3    3    0    0 -0.29443182639E-01  0.12569986027E+00 -0.27890858976E-01  0.13331453661E+00  0.18097231297E-01 0.  0.
         14    1    1    2    0    0  0.79031562434E-02 -0.61167933261E-02  0.19857001654E-01  0.22230059692E-01  0.00000000000E+00 0.  1.
     999901    1    3    3    0    0  0.21540026396E-01 -0.11958306695E+00  0.80338573212E-02  0.88838540370E+00  0.88000000000E+00 0. -1.
        -11    1    4    4    0    0 -0.91123382178E-02  0.39315567164E-01 -0.24353596714E-03  0.40361726425E-01  0.51100000000E-03 0. -1.
         11    1    4    4    0    0 -0.20330844421E-01  0.86384293110E-01 -0.27647323008E-01  0.92952810186E-01  0.51100000000E-03 0.  1.
</event>
<event>
 8    1  0.1146431E+005  0.1043930E+01  0.7957747E-01            NaN
         13   -1    0    0    0    0  0.00000000000E+00  0.00000000000E+00  0.74505805969E-08  0.10566000000E+00  0.10566000000E+00 0. -1.
     999900   -1    0    0    0    0 -0.00000000000E+00 -0.00000000000E+00 -0.74505805969E-08  0.93827000000E+00  0.93827000000E+00 0.  1.
     999902    2    1    2    0    0 -0.13619665515E-01 -0.11787003902E-01 -0.99482621598E-02  0.10233533951E+01  0.10231465069E+01 0.  0.
     999903    2    3    3    0    0 -0.22580936419E-01  0.86257045093E-01 -0.97956953204E-01  0.13350033440E+00  0.16631238243E-01 0.  0.
         14    1    1    2    0    0  0.13619665515E-01  0.11787003902E-01  0.99482621598E-02  0.20576604913E-01  0.00000000000E+00 0. -1.
     999901    1    3    3    0    0  0.89612709040E-02 -0.98044048995E-01  0.88008691045E-01  0.88985306069E+00  0.88000000000E+00 0. -1.
        -11    1    4    4    0    0 -0.65061830686E-02  0.56259922266E-01 -0.59577289018E-01  0.82202334269E-01  0.51100000000E-03 0.  1.
         11    1    4    4    0    0 -0.16074753351E-01  0.29997122827E-01 -0.38379664186E-01  0.51298000129E-01  0.51100000000E-03 0. -1.
</event>
<event>
 8    1  0.1146431E+005  0.1043930E+01  0.7957747E-01            NaN
         13   -1    0    0    0    0  0.00000000000E+00  0.00000000000E+00  0.74505805969E-08  0.10566000000E+00  0.10566000000E+00 0.  1.
     999900   -1    0    0    0    0 -0.00000000000E+00 -0.00000000000E+00 -0.74505805969E-08  0.93827000000E+00  0.93827000000E+00 0.  1.
     999902    2    1    2    0    0  0.18271318371E-01  0.14618328062E-01  0.46331489572E-02  0.10200762234E+01  0.10197972832E+01 0.  0.
     999903    2    3    3    0    0  0.87090054346E-01 -0.25723171049E-01  0.93437084186E-01  0.13201676934E+00  0.21250402155E-01 0.  0.
         14    1    1    2    0    0 -0.18271318371E-01 -0.14618328062E-01 -0.46331489572E-02  0.23853776632E-01  0.00000000000E+00 0. -1.
     999901    1    3    3    0    0 -0.68818735975E-01  0.40341499111E-01 -0.88803935229E-01  0.88805945403E+00  0.88000000000E+00 0. -1.
        -11    1    4    4    0    0  0.37243942207E-01 -0.21684740057E-01  0.47003529517E-01  0.63772502620E-01  0.51100000000E-03 0.  1.
         11    1    4    4    0    0  0.49846112139E-01 -0.40384309922E-02  0.46433554669E-01  0.68244266723E-01  0.51100000000E-03 0. -1.
</event>
<event>
 8    1  0.1146431E+005  0.1043930E+01  0.7957747E-01            NaN
         13   -1    0    0    0    0  0.00000000000E+00  0.00000000000E+00  0.74505805969E-08  0.10566000000E+00  0.10566000000E+00 0.  1.
     999900   -1    0    0    0    0 -0.00000000000E+00 -0.00000000000E+00 -0.74505805969E-08  0.93827000000E+00  0.93827000000E+00 0. -1.
     999902    2    1    2    0    0 -0.40975730589E-02  0.37310357525E-04  0.22987639856E-01  0.10205799875E+01  0.10203128382E+01 0.  0.
     999903    2    3    3    0    0  0.36988970813E-02 -0.54534953555E-01  0.12018466617E+00  0.13351393650E+00  0.19846265567E-01 0.  0.
         14    1    1    2    0    0  0.40975730589E-02 -0.37310357525E-04 -0.22987639856E-01  0.23350012488E-01  0.00000000000E+00 0. -1.
     999901    1    3    3    0    0 -0.77964701402E-02  0.54572263912E-01 -0.97197026318E-01  0.88706605101E+00  0.88000000000E+00 0. -1.
        -11    1    4    4    0    0  0.10753593558E-01 -0.22743304163E-01  0.60438124793E-01  0.65466981817E-01  0.51100000000E-03 0. -1.
         11    1    4    4    0    0 -0.70546964766E-02 -0.31791649392E-01  0.59746541382E-01  0.68046954682E-01  0.51100000000E-03 0.  1.
</event>
<event>
 8    1  0.1146431E+005  0.1043930E+01  0.7957747E-01            NaN
         13   -1    0    0    0    0  0.00000000000E+00  0.00000000000E+00  0.74505805969E-08  0.10566000000E+00  0.10566000000E+00 0. -1.
     999900   -1    0    0    0    0 -0.00000000000E+00 -0.00000000000E+00 -0.74505805969E-08  0.93827000000E+00  0.93827000000E+00 0.  1.
     999902    2    1    2    0    0 -0.21275800838E-01  0.79677438855E-02  0.61558803317E-02  0.10203919562E+01  0.10201204364E+01 0.  0.
     999903    2    3    3    0    0 -0.55715922037E-01 -0.50161237996E-01 -0.10528429003E+00  0.13079428754E+00  0.20048694767E-01 0.  0.
         14    1    1    2    0    0  0.21275800838E-01 -0.79677438855E-02 -0.61558803317E-02  0.23538043814E-01  0.00000000000E+00 0.  1.
     999901    1    3    3    0    0  0.34440121199E-01  0.58128981882E-01  0.11144017036E+00  0.88959766864E+00  0.88000000000E+00 0. -1.
        -11    1    4    4    0    0 -0.23206980012E-01 -0.14743742788E-01 -0.24730353767E-01  0.36983690881E-01  0.51100000000E-03 0. -1.
         11    1    4    4    0    0 -0.32508942024E-01 -0.35417495208E-01 -0.80553936261E-01  0.93810596664E-01  0.51100000000E-03 0.  1.
</event>
<event>
 8    1  0.1146431E+005  0.1043930E+01  0.7957747E-01            NaN
         13   -1    0    0    0    0  0.00000000000E+00  0.00000000000E+00  0.74505805969E-08  0.10566000000E+00  0.10566000000E+00 0. -1.
     999900   -1    0    0    0    0 -0.00000000000E+00 -0.00000000000E+00 -0.74505805969E-08  0.93827000000E+00  0.93827000000E+00 0. -1.
     999902    2    1    2    0    0  0.14166499998E-01  0.18420389766E-01 -0.62333270134E-02  0.10198705975E+01  0.10195867697E+01 0.  0.
     999903    2    3    3    0    0  0.53366617903E-02  0.12978052558E+00 -0.20268958304E-01  0.13269753390E+00  0.18064884543E-01 0.  0.
         14    1    1    2    0    0 -0.14166499998E-01 -0.18420389766E-01  0.62333270134E-02  0.24059402465E-01  0.00000000000E+00 0. -1.
     999901    1    3    3    0    0  0.88298382078E-02 -0.11136013582E+00  0.14035631290E-01  0.88717306363E+00  0.88000000000E+00 0. -1.
        -11    1    4    4    0    0 -0.35967163186E-02  0.87834724855E-01 -0.18095568212E-01  0.89752916212E-01  0.51100000000E-03 0. -1.
         11    1    4    4    0    0  0.89333781089E-02  0.41945800726E-01 -0.21733900921E-02  0.42944617689E-01  0.51100000000E-03 0.  1.
</event>
<event>
 8    1  0.1146431E+005  0.1043930E+01  0.7957747E-01            NaN
         13   -1    0    0    0    0  0.00000000000E+00  0.00000000000E+00  0.74505805969E-08  0.10566000000E+00  0.10566000000E+00 0. -1.
     999900   -1    0    0    0    0 -0.00000000000E+00 -0.00000000000E+00 -0.74505805969E-08  0.93827000000E+00  0.93827000000E+00 0. -1.
     999902    2    1    2    0    0 -0.66340892335E-02  0.21601716162E-01 -0.45439857862E-02  0.10208802042E+01  0.10206199578E+01 0.  0.
     999903    2    3    3    0    0  0.11051979913E+00  0.17304938508E-01  0.63913508641E-01  0.13047022871E+00  0.20578073146E-01 0.  0.
         14    1    1    2    0    0  0.66340892335E-02 -0.21601716162E-01  0.45439857862E-02  0.23049795833E-01  0.00000000000E+00 0. -1.
     999901    1    3    3    0    0 -0.11715388837E+00  0.42967776542E-02 -0.68457494427E-01  0.89040997546E+00  0.88000000000E+00 0. -1.
        -11    1    4    4    0    0  0.57662593986E-01  0.24375055349E-02  0.41851442524E-01  0.71293201223E-01  0.51100000000E-03 0.  1.
         11    1    4    4    0    0  0.52857205148E-01  0.14867432973E-01  0.22062066117E-01  0.59177027483E-01  0.51100000000E-03 0. -1.
</event>
<event>
 8    1  0.1146431E+005  0.1043930E+01  0.7957747E-01            NaN
         13   -1    0    0    0    0  0.00000000000E+00  0.00000000000E+00  0.74505805969E-08  0.10566000000E+00  0.10566000000E+00 0. -1.
     999900   -1    0    0    0    0 -0.00000000000E+00 -0.00000000000E+00 -0.74505805969E-08  0.93827000000E+00  0.93827000000E+00 0. -1.
     999902    2    1    2    0    0  0.67655928360E-02  0.59276354214E-02  0.22627899437E-01  0.10195798061E+01  0.10192889920E+01 0.  0.
     999903    2    3    3    0    0 -0.83032260923E-01  0.93674772424E-01 -0.25392242514E-01  0.12937244343E+00  0.20570459306E-01 0.  0.
         14    1    1    2    0    0 -0.67655928360E-02 -0.59276354214E-02 -0.22627899437E-01  0.24350193861E-01  0.00000000000E+00 0.  1.
     999901    1    3    3    0    0  0.89797853759E-01 -0.87747137002E-01  0.48020141952E-01  0.89020736271E+00  0.88000000000E+00 0.  1.
        -11    1    4    4    0    0 -0.66344895632E-01  0.68436413800E-01 -0.27003869235E-01  0.99068955707E-01  0.51100000000E-03 0.  1.
         11    1    4    4    0    0 -0.16687365292E-01  0.25238358623E-01  0.16116267210E-02  0.30303487721E-01  0.51100000000E-03 0. -1.
</event>
<event>
 8    1  0.1146431E+005  0.1043930E+01  0.7957747E-01            NaN
         13   -1    0    0    0    0  0.00000000000E+00  0.00000000000E+00  0.74505805969E-08  0.10566000000E+00  0.10566000000E+00 0.  1.
     999900   -1    0    0    0    0 -0.00000000000E+00 -0.00000000000E+00 -0.74505805969E-08  0.93827000000E+00  0.93827000000E+00 0.  1.
     999902    2    1    2    0    0  0.20233095635E-01  0.91387807136E-02  0.69081317693E-02  0.10206788117E+01  0.10204139449E+01 0.  0.
     999903    2    3    3    0    0 -0.99201958420E-02 -0.12756198467E+00 -0.77673125455E-02  0.12949325926E+00  0.18376692625E-01 0.  0.
         14    1    1    2    0    0 -0.20233095635E-01 -0.91387807136E-02 -0.69081317693E-02  0.23251188280E-01  0.00000000000E+00 0.  1.
     999901    1    3    3    0    0  0.30153291477E-01  0.13670076538E+00  0.14675444315E-01  0.89118555246E+00  0.88000000000E+00 0. -1.
        -11    1    4    4    0    0  0.95414045668E-03 -0.56372796785E-01 -0.10819347508E-01  0.57411862911E-01  0.51100000000E-03 0. -1.
         11    1    4    4    0    0 -0.10874336299E-01 -0.71189187884E-01  0.30520349628E-02  0.72081396351E-01  0.51100000000E-03 0.  1.
</event>
<event>
 8    1  0.1146431E+005  0.1043930E+01  0.7957747E-01            NaN
         13   -1    0    0    0    0  0.00000000000E+00  0.00000000000E+00  0.74505805969E-08  0.10566000000E+00  0.10566000000E+00 0.  1.
     999900   -1    0    0    0    0 -0.00000000000E+00 -0.00000000000E+00 -0.74505805969E-08  0.93827000000E+00  0.93827000000E+00 0.  1.
     999902    2    1    2    0    0 -0.25474887799E-01 -0.76307416877E-02  0.17732545910E-02  0.10172777476E+01  0.10169285487E+01 0.  0.
     999903    2    3    3    0    0 -0.25226508527E-01 -0.12526862559E+00  0.20583489684E-02  0.12944960278E+00  0.20599941010E-01 0.  0.
         14    1    1    2    0    0  0.25474887799E-01  0.76307416877E-02 -0.17732545910E-02  0.26652252417E-01  0.00000000000E+00 0. -1.
     999901    1    3    3    0    0 -0.24837927226E-03  0.11763788390E+00 -0.28509437746E-03  0.88782814480E+00  0.88000000000E+00 0.  1.
        -11    1    4    4    0    0 -0.20236163783E-01 -0.50740041763E-01 -0.17313086203E-02  0.54656314487E-01  0.51100000000E-03 0. -1.
         11    1    4    4    0    0 -0.49903447436E-02 -0.74528583830E-01  0.37896575888E-02  0.74793288295E-01  0.51100000000E-03 0.  1.
</event>
<event>
 8    1  0.1146431E+005  0.1043930E+01  0.7957747E-01            NaN
         13   -1    0    0    0    0  0.00000000000E+00  0.00000000000E+00  0.74505805969E-08  0.10566000000E+00  0.10566000000E+00 0.  1.
     999900   -1    0    0    0    0 -0.00000000000E+00 -0.00000000000E+00 -0.74505805969E-08  0.93827000000E+00  0.93827000000E+00 0.  1.
     999902    2    1    2    0    0  0.16364328355E-01  0.33759212012E-03  0.16887357010E-01  0.10204121762E+01  0.10201411281E+01 0.  0.
     999903    2    3    3    0    0  0.35440475091E-01  0.12481562956E+00  0.61717685351E-03  0.13129834772E+00  0.20097426463E-01 0.  0.
         14    1    1    2    0    0 -0.16364328355E-01 -0.33759212012E-03 -0.16887357010E-01  0.23517823831E-01  0.00000000000E+00 0. -1.
     999901    1    3    3    0    0 -0.19076146735E-01 -0.12447803744E+00  0.16270180156E-01  0.88911382845E+00  0.88000000000E+00 0.  1.
        -11    1    4    4    0    0  0.10684829922E-01  0.63220938560E-01  0.75023599747E-02  0.64556945320E-01  0.51100000000E-03 0. -1.
         11    1    4    4    0    0  0.24755645168E-01  0.61594690996E-01 -0.68851831212E-02  0.66741402399E-01  0.51100000000E-03 0.  1.
</event>
<event>
 7    1  0.1146431E+005  0.1043930E+01  0.7957747E-01            NaN
         13   -1    0    0    0    0  0.00000000000E+00  0.00000000000E+00  0.74505805969E-08  0.10566000000E+00  0.10566000000E+00 0.  1.
     999900   -1    0    0    0    0 -0.00000000000E+00 -0.00000000000E+00 -0.74505805969E-08  0.93827000000E+00  0.93827000000E+00 0.  1.
     999903    2    1    2    0    0  0.10697314008E-02 -0.82210260861E-01  0.81579943511E-01  0.11754905863E+00  0.20070443104E-01 0.  0.
         14    1    1    2    0    0  0.33018806518E-01  0.11289844551E-01 -0.21152186100E-01  0.40805847016E-01  0.00000000000E+00 0.  1.
     999901    1    1    2    0    0 -0.34088537919E-01  0.70920416311E-01 -0.60427757411E-01  0.88557509435E+00  0.88000000000E+00 0. -1.
        -11    1    3    3    0    0  0.38321518899E-02 -0.67734110134E-01  0.55774107524E-01  0.87827144180E-01  0.51100000000E-03 0. -1.
         11    1    3    3    0    0 -0.27624204891E-02 -0.14476150728E-01  0.25805835987E-01  0.29721914454E-01  0.51100000000E-03 0.  1.
</event>
<event>
 8    1  0.1146431E+005  0.1043930E+01  0.7957747E-01            NaN
         13   -1    0    0    0    0  0.00000000000E+00  0.00000000000E+00  0.74505805969E-08  0.10566000000E+00  0.10566000000E+00 0.  1.
     999900   -1    0    0    0    0 -0.00000000000E+00 -0.00000000000E+00 -0.74505805969E-08  0.93827000000E+00  0.93827000000E+00 0. -1.
     999902    2    1    2    0    0 -0.10737140034E-01 -0.11720779812E-01 -0.18068614220E-01  0.10198647205E+01  0.10195807523E+01 0.  0.
     999903    2    3    3    0    0  0.12020145912E+00 -0.39224295317E-01  0.87146014802E-02  0.12934874609E+00  0.25849907526E-01 0.  0.
         14    1    1    2    0    0  0.10737140034E-01  0.11720779812E-01  0.18068614220E-01  0.24065279456E-01  0.00000000000E+00 0.  1.
     999901    1    3    3    0    0 -0.13093859915E+00  0.27503515506E-01 -0.26783215700E-01  0.89051597445E+00  0.88000000000E+00 0. -1.
        -11    1    4    4    0    0  0.38755284191E-01 -0.21417931329E-01  0.12107984056E-01  0.45908215322E-01  0.51100000000E-03 0.  1.
         11    1    4    4    0    0  0.81446174926E-01 -0.17806363988E-01 -0.33933825756E-02  0.83440530768E-01  0.51100000000E-03 0. -1.
</event>
<event>
 8    1  0.1146431E+005  0.1043930E+01  0.7957747E-01            NaN
         13   -1    0    0    0    0  0.00000000000E+00  0.00000000000E+00  0.74505805969E-08  0.10566000000E+00  0.10566000000E+00 0. -1.
     999900   -1    0    0    0    0 -0.00000000000E+00 -0.00000000000E+00 -0.74505805969E-08  0.93827000000E+00  0.93827000000E+00 0.  1.
     999902    2    1    2    0    0 -0.10533406149E-01 -0.61011032254E-02 -0.20185833886E-01  0.10203578979E+01  0.10200855826E+01 0.  0.
     999903    2    3    3    0    0 -0.47426653715E-01 -0.65878715195E-01 -0.10408777815E+00  0.13358058043E+00  0.20499105086E-01 0.  0.
         14    1    1    2    0    0  0.10533406149E-01  0.61011032254E-02  0.20185833886E-01  0.23572102056E-01  0.00000000000E+00 0. -1.
     999901    1    3    3    0    0  0.36893247566E-01  0.59777611970E-01  0.83901944264E-01  0.88677731752E+00  0.88000000000E+00 0. -1.
        -11    1    4    4    0    0 -0.20577440195E-01 -0.45086833278E-01 -0.57218050625E-01  0.75699537769E-01  0.51100000000E-03 0. -1.
         11    1    4    4    0    0 -0.26849213520E-01 -0.20791881917E-01 -0.46869727524E-01  0.57881042660E-01  0.51100000000E-03 0.  1.
</event>
<event>
 8    1  0.1146431E+005  0.1043930E+01  0.7957747E-01            NaN
         13   -1    0    0    0    0  0.00000000000E+00  0.00000000000E+00  0.74505805969E-08  0.10566000000E+00  0.10566000000E+00 0. -1.
     999900   -1    0    0    0    0 -0.00000000000E+00 -0.00000000000E+00 -0.74505805969E-08  0.93827000000E+00  0.93827000000E+00 0. -1.
     999902    2    1    2    0    0  0.60124431182E-02  0.12313467699E-01  0.18464221796E-01  0.10209365565E+01  0.10206775955E+01 0.  0.
     999903    2    3    3    0    0  0.12033723785E+00  0.30092080583E-02 -0.47618363981E-01  0.13103564284E+00  0.20315633359E-01 0.  0.
         14    1    1    2    0    0 -0.60124431182E-02 -0.12313467699E-01 -0.18464221796E-01  0.22993443534E-01  0.00000000000E+00 0.  1.
     999901    1    3    3    0    0 -0.11432479473E+00  0.93042596408E-02  0.66082585777E-01  0.88990091363E+00  0.88000000000E+00 0.  1.
        -11    1    4    4    0    0  0.10658485606E+00  0.71197292630E-02 -0.36551658680E-01  0.11290397230E+00  0.51100000000E-03 0. -1.
         11    1    4    4    0    0  0.13752381786E-01 -0.41105212047E-02 -0.11066705301E-01  0.18131670540E-01  0.51100000000E-03 0.  1.
</event>
<event>
 8    1  0.1146431E+005  0.1043930E+01  0.7957747E-01            NaN
         13   -1    0    0    0    0  0.00000000000E+00  0.00000000000E+00  0.74505805969E-08  0.10566000000E+00  0.10566000000E+00 0. -1.
     999900   -1    0    0    0    0 -0.00000000000E+00 -0.00000000000E+00 -0.74505805969E-08  0.93827000000E+00  0.93827000000E+00 0.  1.
     999902    2    1    2    0    0 -0.60732819125E-02 -0.44922427648E-02  0.22874763136E-01  0.10198401725E+01  0.10195556178E+01 0.  0.
     999903    2    3    3    0    0 -0.75374281696E-01  0.51285450780E-01  0.93817778883E-01  0.13251458904E+00  0.21139083938E-01 0.  0.
         14    1    1    2    0    0  0.60732819125E-02  0.44922427648E-02 -0.22874763136E-01  0.24089827455E-01  0.00000000000E+00 0.  1.
     999901    1    3    3    0    0  0.69300999784E-01 -0.55777693545E-01 -0.70943015747E-01  0.88732558351E+00  0.88000000000E+00 0.  1.
        -11    1    4    4    0    0 -0.26427315435E-01  0.64944629556E-02  0.28471163256E-01  0.39388441303E-01  0.51100000000E-03 0.  1.
         11    1    4    4    0    0 -0.48946966261E-01  0.44790987824E-01  0.65346615628E-01  0.93126147732E-01  0.51100000000E-03 0. -1.
</event>
<event>
 8    1  0.1146431E+005  0.1043930E+01  0.7957747E-01            NaN
         13   -1    0    0    0    0  0.00000000000E+00  0.00000000000E+00  0.74505805969E-08  0.10566000000E+00  0.10566000000E+00 0.  1.
     999900   -1    0    0    0    0 -0.00000000000E+00 -0.00000000000E+00 -0.74505805969E-08  0.93827000000E+00  0.93827000000E+00 0. -1.
     999902    2    1    2    0    0 -0.16102380510E-01 -0.12891169463E-01  0.11631826322E-01  0.10202494533E+01  0.10199745971E+01 0.  0.
     999903    2    3    3    0    0 -0.18115031371E-01  0.57379936009E-01  0.11508355396E+00  0.13140506930E+00  0.20061316675E-01 0.  0.
         14    1    1    2    0    0  0.16102380510E-01  0.12891169463E-01 -0.11631826322E-01  0.23680546696E-01  0.00000000000E+00 0.  1.
     999901    1    3    3    0    0  0.20126508609E-02 -0.70271105472E-01 -0.10345172764E+00  0.88884438401E+00  0.88000000000E+00 0. -1.
        -11    1    4    4    0    0  0.14964332568E-02  0.22177057236E-01  0.51919461005E-01  0.56479666537E-01  0.51100000000E-03 0. -1.
         11    1    4    4    0    0 -0.19611464628E-01  0.35202878773E-01  0.63164092958E-01  0.74925402761E-01  0.51100000000E-03 0.  1.
</event>
<event>
 8    1  0.1146431E+005  0.1043930E+01  0.7957747E-01            NaN
         13   -1    0    0    0    0  0.00000000000E+00  0.00000000000E+00  0.74505805969E-08  0.10566000000E+00  0.10566000000E+00 0.  1.
     999900   -1    0    0    0    0 -0.00000000000E+00 -0.00000000000E+00 -0.74505805969E-08  0.93827000000E+00  0.93827000000E+00 0.  1.
     999902    2    1    2    0    0 -0.16292793281E-01  0.49227788520E-02  0.16406499753E-01  0.10202897356E+01  0.10200158247E+01 0.  0.
     999903    2    3    3    0    0 -0.37350351575E-01 -0.56403535065E-01 -0.10811237371E+00  0.12916163745E+00  0.20445921595E-01 0.  0.
         14    1    1    2    0    0  0.16292793281E-01 -0.49227788520E-02 -0.16406499753E-01  0.23640264353E-01  0.00000000000E+00 0.  1.
     999901    1    3    3    0    0  0.21057558294E-01  0.61326313917E-01  0.12451887346E+00  0.89112809819E+00  0.88000000000E+00 0.  1.
        -11    1    4    4    0    0 -0.33757151580E-01 -0.34621305273E-01 -0.78935669425E-01  0.92570411526E-01  0.51100000000E-03 0. -1.
         11    1    4    4    0    0 -0.35931999953E-02 -0.21782229792E-01 -0.29176704286E-01  0.36591225928E-01  0.51100000000E-03 0.  1.
</event>
<event>
 8    1  0.1146431E+005  0.1043930E+01  0.7957747E-01            NaN
         13   -1    0    0    0    0  0.00000000000E+00  0.00000000000E+00  0.74505805969E-08  0.10566000000E+00  0.10566000000E+00 0.  1.
     999900   -1    0    0    0    0 -0.00000000000E+00 -0.00000000000E+00 -0.74505805969E-08  0.93827000000E+00  0.93827000000E+00 0.  1.
     999902    2    1    2    0    0 -0.11949508462E-01  0.19441280085E-01  0.48808795808E-02  0.10205938240E+01  0.10203269949E+01 0.  0.
     999903    2    3    3    0    0 -0.49140459173E-01  0.59283047867E-01  0.10659547927E+00  0.13305994125E+00  0.20324548535E-01 0.  0.
         14    1    1    2    0    0  0.11949508462E-01 -0.19441280085E-01 -0.48808795808E-02  0.23336175979E-01  0.00000000000E+00 0.  1.
     999901    1    3    3    0    0  0.37190950711E-01 -0.39841767782E-01 -0.10171459969E+00  0.88753388277E+00  0.88000000000E+00 0.  1.
        -11    1    4    4    0    0 -0.29500367009E-01  0.35792729371E-01  0.46878648185E-01  0.65948918916E-01  0.51100000000E-03 0. -1.
         11    1    4    4    0    0 -0.19640092164E-01  0.23490318496E-01  0.59716831084E-01  0.67111022336E-01  0.51100000000E-03 0.  1.
</event>
<event>
 8    1  0.1146431E+005  0.1043930E+01  0.7957747E-01            NaN
         13   -1    0    0    0    0  0.00000000000E+00  0.00000000000E+00  0.74505805969E-08  0.10566000000E+00  0.10566000000E+00 0. -1.
     999900   -1    0    0    0    0 -0.00000000000E+00 -0.00000000000E+00 -0.74505805969E-08  0.93827000000E+00  0.93827000000E+00 0.  1.
     999902    2    1    2    0    0 -0.12895876761E-01  0.13733046075E-01 -0.12961156435E-01  0.10210631732E+01  0.10208070885E+01 0.  0.
     999903    2    3    3    0    0  0.10307115620E+00  0.18292652807E-01 -0.76426924778E-01  0.13117719932E+00  0.20201445604E-01 0.  0.
         14    1    1    2    0    0  0.12895876761E-01 -0.13733046075E-01  0.12961156435E-01  0.22866826804E-01  0.00000000000E+00 0. -1.
     999901    1    3    3    0    0 -0.11596703296E+00 -0.45596067319E-02  0.63465768343E-01  0.88988597387E+00  0.88000000000E+00 0.  1.
        -11    1    4    4    0    0  0.42336217913E-01 -0.23948897816E-02 -0.28602255685E-01  0.51151158301E-01  0.51100000000E-03 0. -1.
         11    1    4    4    0    0  0.60734938284E-01  0.20687542588E-01 -0.47824669093E-01  0.80026041021E-01  0.51100000000E-03 0.  1.
</event>
<event>
 8    1  0.1146431E+005  0.1043930E+01  0.7957747E-01            NaN
         13   -1    0    0    0    0  0.00000000000E+00  0.00000000000E+00  0.74505805969E-08  0.10566000000E+00  0.10566000000E+00 0. -1.
     999900   -1    0    0    0    0 -0.00000000000E+00 -0.00000000000E+00 -0.74505805969E-08  0.93827000000E+00  0.93827000000E+00 0. -1.
     999902    2    1    2    0    0 -0.75441173824E-02  0.21798453228E-01 -0.71704475027E-03  0.10208518627E+01  0.10205909685E+01 0.  0.
     999903    2    3    3    0    0  0.37754140785E-01  0.47041199566E-03 -0.12383560839E+00  0.13087152678E+00  0.19144246702E-01 0.  0.
         14    1    1    2    0    0  0.75441173824E-02 -0.21798453228E-01  0.71704475027E-03  0.23078137347E-01  0.00000000000E+00 0.  1.
     999901    1    3    3    0    0 -0.45298258167E-01  0.21328041232E-01  0.12311856364E+00  0.88998033588E+00  0.88000000000E+00 0.  1.
        -11    1    4    4    0    0  0.18339926355E-01 -0.56639174041E-02 -0.83577142552E-01  0.85754491062E-01  0.51100000000E-03 0. -1.
         11    1    4    4    0    0  0.19414214430E-01  0.61343293998E-02 -0.40258465836E-01  0.45117035714E-01  0.51100000000E-03 0.  1.
</event>
<event>
 8    1  0.1146431E+005  0.1043930E+01  0.7957747E-01            NaN
         13   -1    0    0    0    0  0.00000000000E+00  0.00000000000E+00  0.74505805969E-08  0.10566000000E+00  0.10566000000E+00 0.  1.
     999900   -1    0    0    0    0 -0.00000000000E+00 -0.00000000000E+00 -0.74505805969E-08  0.93827000000E+00  0.93827000000E+00 0. -1.
     999902    2    1    2    0    0  0.15893615234E-01 -0.57286736798E-02 -0.16745819348E-01  0.10201424576E+01  0.10198650826E+01 0.  0.
     999903    2    3    3    0    0 -0.33882226568E-01  0.43523516486E-01 -0.11744387349E+00  0.13163612068E+00  0.22196916044E-01 0.  0.
         14    1    1    2    0    0 -0.15893615234E-01  0.57286736798E-02  0.16745819348E-01  0.23787542391E-01  0.00000000000E+00 0.  1.
     999901    1    3    3    0    0  0.49775841802E-01 -0.49252190166E-01  0.10069805414E+00  0.88850633693E+00  0.88000000000E+00 0.  1.
        -11    1    4    4    0    0 -0.31997203881E-01  0.25079348383E-01 -0.86073644478E-01  0.95193109867E-01  0.51100000000E-03 0.  1.
         11    1    4    4    0    0 -0.18850226868E-02  0.18444168103E-01 -0.31370229012E-01  0.36443010808E-01  0.51100000000E-03 0. -1.
</event>
<event>
 8    1  0.1146431E+005  0.1043930E+01  0.7957747E-01            NaN
         13   -1    0    0    0    0  0.00000000000E+00  0.00000000000E+00  0.74505805969E-08  0.10566000000E+00  0.10566000000E+00 0.  1.
     999900   -1    0    0    0    0 -0.00000000000E+00 -0.00000000000E+00 -0.74505805969E-08  0.93827000000E+00  0.93827000000E+00 0.  1.
     999902    2    1    2    0    0 -0.16070836879E-01 -0.16520987723E-01  0.30409863979E-02  0.10206821521E+01  0.10204173623E+01 0.  0.
     999903    2    3    3    0    0  0.50479029187E-01  0.11448274903E+00 -0.18244914262E-01  0.12824506565E+00  0.21435665480E-01 0.  0.
         14    1    1    2    0    0  0.16070836879E-01  0.16520987723E-01 -0.30409863979E-02  0.23247847891E-01  0.00000000000E+00 0. -1.
     999901    1    3    3    0    0 -0.66549866066E-01 -0.13100373675E+00  0.21285900660E-01  0.89243708646E+00  0.88000000000E+00 0. -1.
        -11    1    4    4    0    0  0.25808461769E-01  0.41661248617E-01 -0.15133446759E-01  0.51293456376E-01  0.51100000000E-03 0. -1.
         11    1    4    4    0    0  0.24670567418E-01  0.72821500413E-01 -0.31114675024E-02  0.76951609276E-01  0.51100000000E-03 0.  1.
</event>
<event>
 8    1  0.1146431E+005  0.1043930E+01  0.7957747E-01            NaN
         13   -1    0    0    0    0  0.00000000000E+00  0.00000000000E+00  0.74505805969E-08  0.10566000000E+00  0.10566000000E+00 0.  1.
     999900   -1    0    0    0    0 -0.00000000000E+00 -0.00000000000E+00 -0.74505805969E-08  0.93827000000E+00  0.93827000000E+00 0.  1.
     999902    2    1    2    0    0 -0.12229721914E-01 -0.68079353641E-02 -0.20259936595E-01  0.10193052338E+01  0.10190077431E+01 0.  0.
     999903    2    3    3    0    0  0.97107327904E-01 -0.80225500866E-01 -0.22746877004E-01  0.12950137095E+00  0.19677920166E-01 0.  0.
         14    1    1    2    0    0  0.12229721914E-01  0.68079353641E-02  0.20259936595E-01  0.24624766249E-01  0.00000000000E+00 0.  1.
     999901    1    3    3    0    0 -0.10933704982E+00  0.73417565502E-01  0.24869404089E-02  0.88980386280E+00  0.88000000000E+00 0.  1.
        -11    1    4    4    0    0  0.79228008351E-01 -0.74041411076E-01 -0.21363256515E-01  0.11052537135E+00  0.51100000000E-03 0. -1.
         11    1    4    4    0    0  0.17879319553E-01 -0.61840897900E-02 -0.13836204885E-02  0.18975999601E-01  0.51100000000E-03 0.  1.
</event>
<event>
 8    1  0.1146431E+005  0.1043930E+01  0.7957747E-01            NaN
         13   -1    0    0    0    0  0.00000000000E+00  0.00000000000E+00  0.74505805969E-08  0.10566000000E+00  0.10566000000E+00 0. -1.
     999900   -1    0    0    0    0 -0.00000000000E+00 -0.00000000000E+00 -0.74505805969E-08  0.93827000000E+00  0.93827000000E+00 0.  1.
     999902    2    1    2    0    0 -0.12274809275E-01  0.12738220372E-01 -0.13569788530E-01  0.10216348803E+01  0.10213915783E+01 0.  0.
     999903    2    3    3    0    0 -0.63806038897E-01  0.11601669864E+00 -0.52451433411E-02  0.13405884897E+00  0.20326792536E-01 0.  0.
         14    1    1    2    0    0  0.12274809275E-01 -0.12738220372E-01  0.13569788530E-01  0.22295119684E-01  0.00000000000E+00 0. -1.
     999901    1    3    3    0    0  0.51531229622E-01 -0.10327847827E+00 -0.83246451885E-02  0.88757603134E+00  0.88000000000E+00 0.  1.
        -11    1    4    4    0    0 -0.84482052044E-02  0.33180971267E-01  0.69016389608E-03  0.34250349963E-01  0.51100000000E-03 0. -1.
         11    1    4    4    0    0 -0.55357833693E-01  0.82835727377E-01 -0.59353072371E-02  0.99808499008E-01  0.51100000000E-03 0.  1.
</event>
<event>
 8    1  0.1146431E+005  0.1043930E+01  0.7957747E-01            NaN
         13   -1    0    0    0    0  0.00000000000E+00  0.00000000000E+00  0.74505805969E-08  0.10566000000E+00  0.10566000000E+00 0. -1.
     999900   -1    0    0    0    0 -0.00000000000E+00 -0.00000000000E+00 -0.74505805969E-08  0.93827000000E+00  0.93827000000E+00 0. -1.
     999902    2    1    2    0    0 -0.92316111241E-03  0.14887439570E-01 -0.18919274545E-01  0.10198379467E+01  0.10195533387E+01 0.  0.
     999903    2    3    3    0    0  0.60489560197E-01 -0.53176984298E-02 -0.11566336473E+00  0.13217855879E+00  0.20146777750E-01 0.  0.
         14    1    1    2    0    0  0.92316111241E-03 -0.14887439570E-01  0.18919274545E-01  0.24092053310E-01  0.00000000000E+00 0. -1.
     999901    1    3    3    0    0 -0.61412721309E-01  0.20205138000E-01  0.96744090186E-01  0.88765938790E+00  0.88000000000E+00 0.  1.
        -11    1    4    4    0    0  0.17245633734E-01 -0.70696350369E-02 -0.20959290070E-01  0.28052532571E-01  0.51100000000E-03 0. -1.
         11    1    4    4    0    0  0.43243926463E-01  0.17519366071E-02 -0.94704074661E-01  0.10412602622E+00  0.51100000000E-03 0.  1.
</event>
<event>
 8    1  0.1146431E+005  0.1043930E+01  0.7957747E-01            NaN
         13   -1    0    0    0    0  0.00000000000E+00  0.00000000000E+00  0.74505805969E-08  0.10566000000E+00  0.10566000000E+00 0.  1.
     999900   -1    0    0    0    0 -0.00000000000E+00 -0.00000000000E+00 -0.74505805969E-08  0.93827000000E+00  0.93827000000E+00 0. -1.
     999902    2    1    2    0    0 -0.22300175778E-01 -0.69794623895E-02 -0.67286996963E-02  0.10196136241E+01  0.10193236269E+01 0.  0.
     999903    2    3    3    0    0 -0.41939179140E-01 -0.61986535116E-01  0.10524121123E+00  0.13059802842E+00  0.19465538819E-01 0.  0.
         14    1    1    2    0    0  0.22300175778E-01  0.69794623895E-02  0.67286996963E-02  0.24316375852E-01  0.00000000000E+00 0. -1.
     999901    1    3    3    0    0  0.19639003363E-01  0.55007072727E-01 -0.11196991093E+00  0.88901559573E+00  0.88000000000E+00 0. -1.
        -11    1    4    4    0    0 -0.49923619357E-02 -0.14934174395E-01  0.34659165406E-01  0.38071933366E-01  0.51100000000E-03 0.  1.
         11    1    4    4    0    0 -0.36946817205E-01 -0.47052360722E-01  0.70582045826E-01  0.92526095049E-01  0.51100000000E-03 0. -1.
</event>
<event>
 8    1  0.1146431E+005  0.1043930E+01  0.7957747E-01            NaN
         13   -1    0    0    0    0  0.00000000000E+00  0.00000000000E+00  0.74505805969E-08  0.10566000000E+00  0.10566000000E+00 0. -1.
     999900   -1    0    0    0    0 -0.00000000000E+00 -0.00000000000E+00 -0.74505805969E-08  0.93827000000E+00  0.93827000000E+00 0.  1.
     999902    2    1    2    0    0 -0.20766453104E-01  0.12038395994E-01  0.50163282596E-02  0.10194079262E+01  0.10191129417E+01 0.  0.
     999903    2    3    3    0    0  0.12475207273E+00  0.11935760841E-01 -0.55000949542E-02  0.12739545600E+00  0.22221816480E-01 0.  0.
         14    1    1    2    0    0  0.20766453104E-01 -0.12038395994E-01 -0.50163282596E-02  0.24522073767E-01  0.00000000000E+00 0. -1.
     999901    1    3    3    0    0 -0.14551852583E+00  0.10263515268E-03  0.10516423214E-01  0.89201247023E+00  0.88000000000E+00 0. -1.
        -11    1    4    4    0    0  0.69393019511E-01 -0.21725115091E-02 -0.97341899521E-02  0.70107963443E-01  0.51100000000E-03 0.  1.
         11    1    4    4    0    0  0.55359053218E-01  0.14108272350E-01  0.42340949980E-02  0.57287492556E-01  0.51100000000E-03 0. -1.
</event>
<event>
 8    1  0.1146431E+005  0.1043930E+01  0.7957747E-01            NaN
         13   -1    0    0    0    0  0.00000000000E+00  0.00000000000E+00  0.74505805969E-08  0.10566000000E+00  0.10566000000E+00 0. -1.
     999900   -1    0    0    0    0 -0.00000000000E+00 -0.00000000000E+00 -0.74505805969E-08  0.93827000000E+00  0.93827000000E+00 0. -1.
     999902    2    1    2    0    0 -0.24218664373E-01 -0.91811457786E-03 -0.60648542743E-03  0.10196863521E+01  0.10193981078E+01 0.  0.
     999903    2    3    3    0    0 -0.13136855988E+00 -0.67441108431E-02  0.73249177887E-02  0.13313237773E+00  0.19167525191E-01 0.  0.
         14    1    1    2    0    0  0.24218664373E-01  0.91811457786E-03  0.60648542743E-03  0.24243647889E-01  0.00000000000E+00 0.  1.
     999901    1    3    3    0    0  0.10714989551E+00  0.58259962653E-02 -0.79314032161E-02  0.88655397438E+00  0.88000000000E+00 0. -1.
        -11    1    4    4    0    0 -0.23508251267E-01  0.49245542177E-02  0.54053672064E-02  0.24624545224E-01  0.51100000000E-03 0. -1.
         11    1    4    4    0    0 -0.10786030862E+00 -0.11668665061E-01  0.19195505823E-02  0.10850783250E+00  0.51100000000E-03 0.  1.
</event>
<event>
 8    1  0.1146431E+005  0.1043930E+01  0.7957747E-01            NaN
         13   -1    0    0    0    0  0.00000000000E+00  0.00000000000E+00  0.74505805969E-08  0.10566000000E+00  0.10566000000E+00 0.  1.
     999900   -1    0    0    0    0 -0.00000000000E+00 -0.00000000000E+00 -0.74505805969E-08  0.93827000000E+00  0.93827000000E+00 0. -1.
     999902    2    1    2    0    0  0.14935235995E-01 -0.18715781007E-01 -0.10636261087E-01  0.10177293935E+01  0.10173920810E+01 0.  0.
     999903    2    3    3    0    0 -0.35216481180E-01  0.36375495984E-01 -0.11623743247E+00  0.12829032814E+00  0.19593119511E-01 0.  0.
         14    1    1    2    0    0 -0.14935235995E-01  0.18715781007E-01  0.10636261087E-01  0.26200606535E-01  0.00000000000E+00 0.  1.
     999901    1    3    3    0    0  0.50151717175E-01 -0.55091276991E-01  0.10560117138E+00  0.88943906533E+00  0.88000000000E+00 0.  1.
        -11    1    4    4    0    0 -0.28227956592E-01  0.18381676646E-01 -0.86547731666E-01  0.92873432946E-01  0.51100000000E-03 0.  1.
         11    1    4    4    0    0 -0.69885245885E-02  0.17993819338E-01 -0.29689700800E-01  0.35416895190E-01  0.51100000000E-03 0. -1.
</event>
<event>
 8    1  0.1146431E+005  0.1043930E+01  0.7957747E-01            NaN
         13   -1    0    0    0    0  0.00000000000E+00  0.00000000000E+00  0.74505805969E-08  0.10566000000E+00  0.10566000000E+00 0. -1.
     999900   -1    0    0    0    0 -0.00000000000E+00 -0.00000000000E+00 -0.74505805969E-08  0.93827000000E+00  0.93827000000E+00 0.  1.
     999902    2    1    2    0    0  0.14947176710E-01 -0.14255205293E-01 -0.21576857369E-01  0.10140604546E+01  0.10136204496E+01 0.  0.
     999903    2    3    3    0    0  0.10026090541E-01 -0.96413974072E-01  0.76326939457E-01  0.12481390058E+00  0.18882033864E-01 0.  0.
         14    1    1    2    0    0 -0.14947176710E-01  0.14255205293E-01  0.21576857369E-01  0.29869545417E-01  0.00000000000E+00 0. -1.
     999901    1    3    3    0    0  0.49210861693E-02  0.82158768779E-01 -0.97903796826E-01  0.88924655400E+00  0.88000000000E+00 0.  1.
        -11    1    4    4    0    0  0.48048464969E-02 -0.39320959622E-01  0.43128243411E-01  0.58562196988E-01  0.51100000000E-03 0. -1.
         11    1    4    4    0    0  0.52212440437E-02 -0.57093014450E-01  0.33198696046E-01  0.66251703590E-01  0.51100000000E-03 0.  1.
</event>
<event>
 8    1  0.1146431E+005  0.1043930E+01  0.7957747E-01            NaN
         13   -1    0    0    0    0  0.00000000000E+00  0.00000000000E+00  0.74505805969E-08  0.10566000000E+00  0.10566000000E+00 0. -1.
     999900   -1    0    0    0    0 -0.00000000000E+00 -0.00000000000E+00 -0.74505805969E-08  0.93827000000E+00  0.93827000000E+00 0. -1.
     999902    2    1    2    0    0  0.38099544144E-02  0.30199830119E-02 -0.23338582125E-01  0.10200904223E+01  0.10198118180E+01 0.  0.
     999903    2    3    3    0    0 -0.26895278472E-01 -0.32750925703E-01  0.11855094732E+00  0.12747908032E+00  0.20015235921E-01 0.  0.
         14    1    1    2    0    0 -0.38099544144E-02 -0.30199830119E-02  0.23338582125E-01  0.23839577716E-01  0.00000000000E+00 0. -1.
     999901    1    3    3    0    0  0.30705232887E-01  0.35770908715E-01 -0.14188952945E+00  0.89261134196E+00  0.88000000000E+00 0. -1.
        -11    1    4    4    0    0 -0.55607526006E-02 -0.20799920566E-01  0.67863298837E-01  0.71198645458E-01  0.51100000000E-03 0. -1.
         11    1    4    4    0    0 -0.21334525872E-01 -0.11951005138E-01  0.50687648487E-01  0.56280434861E-01  0.51100000000E-03 0.  1.
</event>
<event>
 8    1  0.1146431E+005  0.1043930E+01  0.7957747E-01            NaN
         13   -1    0    0    0    0  0.00000000000E+00  0.00000000000E+00  0.74505805969E-08  0.10566000000E+00  0.10566000000E+00 0. -1.
     999900   -1    0    0    0    0 -0.00000000000E+00 -0.00000000000E+00 -0.74505805969E-08  0.93827000000E+00  0.93827000000E+00 0. -1.
     999902    2    1    2    0    0 -0.21247957545E-01  0.29184563275E-02  0.99850185349E-02  0.10202721539E+01  0.10199978306E+01 0.  0.
     999903    2    3    3    0    0 -0.95547445963E-01  0.43485489291E-01 -0.77508055396E-01  0.13189096537E+00  0.19168356360E-01 0.  0.
         14    1    1    2    0    0  0.21247957545E-01 -0.29184563275E-02 -0.99850185349E-02  0.23657846105E-01  0.00000000000E+00 0. -1.
     999901    1    3    3    0    0  0.74299488418E-01 -0.40567032963E-01  0.87493073931E-01  0.88838118853E+00  0.88000000000E+00 0.  1.
        -11    1    4    4    0    0 -0.47482524726E-01  0.11206435828E-01 -0.34071001729E-01  0.59508559369E-01  0.51100000000E-03 0.  1.
         11    1    4    4    0    0 -0.48064921237E-01  0.32279053463E-01 -0.43437053667E-01  0.72382405999E-01  0.51100000000E-03 0. -1.
</event>
<event>
 8    1  0.1146431E+005  0.1043930E+01  0.7957747E-01            NaN
         13   -1    0    0    0    0  0.00000000000E+00  0.00000000000E+00  0.74505805969E-08  0.10566000000E+00  0.10566000000E+00 0.  1.
     999900   -1    0    0    0    0 -0.00000000000E+00 -0.00000000000E+00 -0.74505805969E-08  0.93827000000E+00  0.93827000000E+00 0.  1.
     999902    2    1    2    0    0 -0.91988137539E-02 -0.16123262854E-01 -0.14018434814E-01  0.10206685664E+01  0.10204034634E+01 0.  0.
     999903    2    3    3    0    0  0.30655455017E-01 -0.40174518379E-01 -0.12131760873E+00  0.13292990080E+00  0.19966158603E-01 0.  0.
         14    1    1    2    0    0  0.91988137539E-02  0.16123262854E-01  0.14018434814E-01  0.23261433623E-01  0.00000000000E+00 0.  1.
     999901    1    3    3    0    0 -0.39854268770E-01  0.24051255525E-01  0.10729917392E+00  0.88773866557E+00  0.88000000000E+00 0. -1.
        -11    1    4    4    0    0  0.83703196617E-02 -0.25399275983E-01 -0.48988049059E-01  0.55814653482E-01  0.51100000000E-03 0. -1.
         11    1    4    4    0    0  0.22285135355E-01 -0.14775242396E-01 -0.72329559675E-01  0.77115247321E-01  0.51100000000E-03 0.  1.
</event>
<event>
 8    1  0.1146431E+005  0.1043930E+01  0.7957747E-01            NaN
         13   -1    0    0    0    0  0.00000000000E+00  0.00000000000E+00  0.74505805969E-08  0.10566000000E+00  0.10566000000E+00 0.  1.
     999900   -1    0    0    0    0 -0.00000000000E+00 -0.00000000000E+00 -0.74505805969E-08  0.93827000000E+00  0.93827000000E+00 0.  1.
     999902    2    1    2    0    0  0.19230128604E-01 -0.11305599948E-02 -0.13259194773E-01  0.10205444861E+01  0.10202765145E+01 0.  0.
     999903    2    3    3    0    0  0.21896385643E-01 -0.11408145317E+00  0.56189580395E-01  0.13060732794E+00  0.20173633856E-01 0.  0.
         14    1    1    2    0    0 -0.19230128604E-01  0.11305599948E-02  0.13259194773E-01  0.23385513851E-01  0.00000000000E+00 0.  1.
     999901    1    3    3    0    0 -0.26662570390E-02  0.11295089318E+00 -0.69448775168E-01  0.88993715821E+00  0.88000000000E+00 0. -1.
        -11    1    4    4    0    0 -0.41887244908E-03 -0.50182683762E-01  0.22462157467E-01  0.54984423637E-01  0.51100000000E-03 0. -1.
         11    1    4    4    0    0  0.22315258092E-01 -0.63898769413E-01  0.33727422928E-01  0.75622904299E-01  0.51100000000E-03 0.  1.
</event>
<event>
 8    1  0.1146431E+005  0.1043930E+01  0.7957747E-01            NaN
         13   -1    0    0    0    0  0.00000000000E+00  0.00000000000E+00  0.74505805969E-08  0.10566000000E+00  0.10566000000E+00 0. -1.
     999900   -1    0    0    0    0 -0.00000000000E+00 -0.00000000000E+00 -0.74505805969E-08  0.93827000000E+00  0.93827000000E+00 0.  1.
     999902    2    1    2    0    0 -0.53559360287E-02  0.69180387755E-02  0.20564654898E-01  0.10215816143E+01  0.10213371355E+01 0.  0.
     999903    2    3    3    0    0 -0.86750098440E-01  0.76795145259E-01  0.64200219140E-01  0.13399393857E+00  0.20239405154E-01 0.  0.
         14    1    1    2    0    0  0.53559360287E-02 -0.69180387755E-02 -0.20564654898E-01  0.22348385676E-01  0.00000000000E+00 0.  1.
     999901    1    3    3    0    0  0.81394162411E-01 -0.69877106483E-01 -0.43635564242E-01  0.88758767575E+00  0.88000000000E+00 0.  1.
        -11    1    4    4    0    0 -0.61213192890E-01  0.42954702192E-01  0.35389478912E-01  0.82733534693E-01  0.51100000000E-03 0. -1.
         11    1    4    4    0    0 -0.25536905550E-01  0.33840443066E-01  0.28810740229E-01  0.51260403876E-01  0.51100000000E-03 0.  1.
</event>
<event>
 8    1  0.1146431E+005  0.1043930E+01  0.7957747E-01            NaN
         13   -1    0    0    0    0  0.00000000000E+00  0.00000000000E+00  0.74505805969E-08  0.10566000000E+00  0.10566000000E+00 0.  1.
     999900   -1    0    0    0    0 -0.00000000000E+00 -0.00000000000E+00 -0.74505805969E-08  0.93827000000E+00  0.93827000000E+00 0. -1.
     999902    2    1    2    0    0 -0.92520389235E-02  0.21068319983E-01 -0.90962296087E-02  0.10191870066E+01  0.10188866172E+01 0.  0.
     999903    2    3    3    0    0 -0.11816300077E+00  0.39901275286E-01 -0.37762028139E-01  0.13180996955E+00  0.19831560272E-01 0.  0.
         14    1    1    2    0    0  0.92520389235E-02 -0.21068319983E-01  0.90962296087E-02  0.24742993437E-01  0.00000000000E+00 0.  1.
     999901    1    3    3    0    0  0.10891096185E+00 -0.18832955303E-01  0.28665798530E-01  0.88737703701E+00  0.88000000000E+00 0.  1.
        -11    1    4    4    0    0 -0.71255888635E-01  0.30049453804E-01 -0.15122859844E-01  0.78799323283E-01  0.51100000000E-03 0.  1.
         11    1    4    4    0    0 -0.46907112134E-01  0.98518214822E-02 -0.22639168295E-01  0.53010646265E-01  0.51100000000E-03 0. -1.
</event>
<event>
 8    1  0.1146431E+005  0.1043930E+01  0.7957747E-01            NaN
         13   -1    0    0    0    0  0.00000000000E+00  0.00000000000E+00  0.74505805969E-08  0.10566000000E+00  0.10566000000E+00 0.  1.
     999900   -1    0    0    0    0 -0.00000000000E+00 -0.00000000000E+00 -0.74505805969E-08  0.93827000000E+00  0.93827000000E+00 0.  1.
     999902    2    1    2    0    0 -0.34131243861E-02  0.10257354829E-01  0.21314524248E-01  0.10200308015E+01  0.10197507854E+01 0.  0.
     999903    2    3    3    0    0 -0.11466234594E+00  0.60214502437E-01  0.11774238455E-01  0.13156970331E+00  0.19967830571E-01 0.  0.
         14    1    1    2    0    0  0.34131243861E-02 -0.10257354829E-01 -0.21314524248E-01  0.23899198524E-01  0.00000000000E+00 0. -1.
     999901    1    3    3    0    0  0.11124922156E+00 -0.49957147608E-01  0.95402857923E-02  0.88846109816E+00  0.88000000000E+00 0.  1.
        -11    1    4    4    0    0 -0.95739842005E-01  0.48330049847E-01  0.22435969696E-02  0.10727164543E+00  0.51100000000E-03 0.  1.
         11    1    4    4    0    0 -0.18922503940E-01  0.11884452590E-01  0.95306414858E-02  0.24298057882E-01  0.51100000000E-03 0. -1.
</event>
<event>
 8    1  0.1146431E+005  0.1043930E+01  0.7957747E-01            NaN
         13   -1    0    0    0    0  0.00000000000E+00  0.00000000000E+00  0.74505805969E-08  0.10566000000E+00  0.10566000000E+00 0.  1.
     999900   -1    0    0    0    0 -0.00000000000E+00 -0.00000000000E+00 -0.74505805969E-08  0.93827000000E+00  0.93827000000E+00 0.  1.
     999902    2    1    2    0    0  0.15015855481E-01  0.83794495745E-02  0.15178157255E-01  0.10209938375E+01  0.10207361798E+01 0.  0.
     999903    2    3    3    0    0 -0.10059424978E+00  0.55803392956E-01  0.60216045495E-01  0.13102578293E+00  0.17565930184E-01 0.  0.
         14    1    1    2    0    0 -0.15015855481E-01 -0.83794495745E-02 -0.15178157255E-01  0.22936162466E-01  0.00000000000E+00 0. -1.
     999901    1    3    3    0    0  0.11561010526E+00 -0.47423943381E-01 -0.45037888240E-01  0.88996805461E+00  0.88000000000E+00 0. -1.
        -11    1    4    4    0    0 -0.51904417982E-01  0.33075616775E-01  0.41012768331E-01  0.73961972109E-01  0.51100000000E-03 0. -1.
         11    1    4    4    0    0 -0.48689831794E-01  0.22727776181E-01  0.19203277164E-01  0.57063810818E-01  0.51100000000E-03 0.  1.
</event>
<event>
 8    1  0.1146431E+005  0.1043930E+01  0.7957747E-01            NaN
         13   -1    0    0    0    0  0.00000000000E+00  0.00000000000E+00  0.74505805969E-08  0.10566000000E+00  0.10566000000E+00 0.  1.
     999900   -1    0    0    0    0 -0.00000000000E+00 -0.00000000000E+00 -0.74505805969E-08  0.93827000000E+00  0.93827000000E+00 0.  1.
     999902    2    1    2    0    0 -0.18202538362E-01 -0.25725674679E-02 -0.15227815693E-01  0.10200587437E+01  0.10197793897E+01 0.  0.
     999903    2    3    3    0    0  0.10650821855E+00  0.57783352126E-01  0.35031862003E-01  0.12780225305E+00  0.20573481191E-01 0.  0.
         14    1    1    2    0    0  0.18202538362E-01  0.25725674679E-02  0.15227815693E-01  0.23871256292E-01  0.00000000000E+00 0.  1.
     999901    1    3    3    0    0 -0.12471075691E+00 -0.60355919594E-01 -0.50259677696E-01  0.89225649066E+00  0.88000000000E+00 0. -1.
        -11    1    4    4    0    0  0.59475143397E-01  0.31507187096E-01  0.29999364499E-01  0.73690016367E-01  0.51100000000E-03 0. -1.
         11    1    4    4    0    0  0.47033075150E-01  0.26276165030E-01  0.50324975046E-02  0.54112236683E-01  0.51100000000E-03 0.  1.
</event>
<event>
 8    1  0.1146431E+005  0.1043930E+01  0.7957747E-01            NaN
         13   -1    0    0    0    0  0.00000000000E+00  0.00000000000E+00  0.74505805969E-08  0.10566000000E+00  0.10566000000E+00 0.  1.
     999900   -1    0    0    0    0 -0.00000000000E+00 -0.00000000000E+00 -0.74505805969E-08  0.93827000000E+00  0.93827000000E+00 0. -1.
     999902    2    1    2    0    0 -0.95993006941E-02  0.20797551760E-01  0.29736951319E-02  0.10208317837E+01  0.10205704302E+01 0.  0.
     999903    2    3    3    0    0  0.12424179655E+00  0.12821323039E-02  0.32934508518E-01  0.12999400878E+00  0.19393106852E-01 0.  0.
         14    1    1    2    0    0  0.95993006941E-02 -0.20797551760E-01 -0.29736951319E-02  0.23098216290E-01  0.00000000000E+00 0. -1.
     999901    1    3    3    0    0 -0.13384109724E+00  0.19515419457E-01 -0.29960813386E-01  0.89083777493E+00  0.88000000000E+00 0. -1.
        -11    1    4    4    0    0  0.59650485145E-01  0.10186207890E-01  0.17330311385E-01  0.62948709462E-01  0.51100000000E-03 0. -1.
         11    1    4    4    0    0  0.64591311406E-01 -0.89040755866E-02  0.15604197132E-01  0.67045299315E-01  0.51100000000E-03 0.  1.
</event>
<event>
 8    1  0.1146431E+005  0.1043930E+01  0.7957747E-01            NaN
         13   -1    0    0    0    0  0.00000000000E+00  0.00000000000E+00  0.74505805969E-08  0.10566000000E+00  0.10566000000E+00 0.  1.
     999900   -1    0    0    0    0 -0.00000000000E+00 -0.00000000000E+00 -0.74505805969E-08  0.93827000000E+00  0.93827000000E+00 0.  1.
     999902    2    1    2    0    0 -0.49006816288E-02  0.14800414238E-01  0.17996472642E-01  0.10201194568E+01  0.10198415387E+01 0.  0.
     999903    2    3    3    0    0 -0.38653385120E-01  0.26537273879E-03  0.12539177711E+00  0.13282905117E+00  0.20647141809E-01 0.  0.
         14    1    1    2    0    0  0.49006816288E-02 -0.14800414238E-01 -0.17996472642E-01  0.23810543245E-01  0.00000000000E+00 0. -1.
     999901    1    3    3    0    0  0.33752703491E-01  0.14535041499E-01 -0.10739530446E+00  0.88729040559E+00  0.88000000000E+00 0.  1.
        -11    1    4    4    0    0 -0.14230101606E-01 -0.98844283593E-02  0.47026819653E-01  0.50119662842E-01  0.51100000000E-03 0. -1.
         11    1    4    4    0    0 -0.24423283513E-01  0.10149801098E-01  0.78364957453E-01  0.82709388327E-01  0.51100000000E-03 0.  1.
</event>
<event>
 8    1  0.1146431E+005  0.1043930E+01  0.7957747E-01            NaN
         13   -1    0    0    0    0  0.00000000000E+00  0.00000000000E+00  0.74505805969E-08  0.10566000000E+00  0.10566000000E+00 0. -1.
     999900   -1    0    0    0    0 -0.00000000000E+00 -0.00000000000E+00 -0.74505805969E-08  0.93827000000E+00  0.93827000000E+00 0. -1.
     999902    2    1    2    0    0 -0.92276739157E-02 -0.23156705736E-01 -0.43727605237E-02  0.10186218191E+01  0.10183073732E+01 0.  0.
     999903    2    3    3    0    0 -0.80028446005E-01 -0.55486722336E-02  0.99678016293E-01  0.12949339398E+00  0.19937206925E-01 0.  0.
         14    1    1    2    0    0  0.92276739157E-02  0.23156705736E-01  0.43727605237E-02  0.25308180912E-01  0.00000000000E+00 0.  1.
     999901    1    3    3    0    0  0.70800772090E-01 -0.17608033503E-01 -0.10405077682E+00  0.88912842510E+00  0.88000000000E+00 0. -1.
        -11    1    4    4    0    0 -0.42880541223E-01  0.68256015189E-02  0.55244105722E-01  0.70267360771E-01  0.51100000000E-03 0. -1.
         11    1    4    4    0    0 -0.37147904782E-01 -0.12374273752E-01  0.44433910570E-01  0.59226033213E-01  0.51100000000E-03 0.  1.
</event>
<event>
 8    1  0.1146431E+005  0.1043930E+01  0.7957747E-01            NaN
         13   -1    0    0    0    0  0.00000000000E+00  0.00000000000E+00  0.74505805969E-08  0.10566000000E+00  0.10566000000E+00 0. -1.
     999900   -1    0    0    0    0 -0.00000000000E+00 -0.00000000000E+00 -0.74505805969E-08  0.93827000000E+00  0.93827000000E+00 0.  1.
     999902    2    1    2    0    0 -0.71899992049E-02 -0.10364511051E-01  0.20020649766E-01  0.10202668304E+01  0.10199923822E+01 0.  0.
     999903    2    3    3    0    0 -0.45230703999E-01  0.11549024723E-01  0.12325771573E+00  0.13314497291E+00  0.18865915504E-01 0.  0.
         14    1    1    2    0    0  0.71899992049E-02  0.10364511051E-01 -0.20020649766E-01  0.23663169588E-01  0.00000000000E+00 0.  1.
     999901    1    3    3    0    0  0.38040704794E-01 -0.21913535774E-01 -0.10323706596E+00  0.88712185750E+00  0.88000000000E+00 0.  1.
        -11    1    4    4    0    0 -0.20647097980E-01 -0.16436541731E-02  0.36027019674E-01  0.41559734379E-01  0.51100000000E-03 0. -1.
         11    1    4    4    0    0 -0.24583606019E-01  0.13192678896E-01  0.87230696055E-01  0.91585238530E-01  0.51100000000E-03 0.  1.
</event>
<event>
 8    1  0.1146431E+005  0.1043930E+01  0.7957747E-01            NaN
         13   -1    0    0    0    0  0.00000000000E+00  0.00000000000E+00  0.74505805969E-08  0.10566000000E+00  0.10566000000E+00 0.  1.
     999900   -1    0    0    0    0 -0.00000000000E+00 -0.00000000000E+00 -0.74505805969E-08  0.93827000000E+00  0.93827000000E+00 0. -1.
     999902    2    1    2    0    0 -0.43277009078E-02 -0.16643338413E-02 -0.23598518348E-01  0.10198802792E+01  0.10195966824E+01 0.  0.
     999903    2    3    3    0    0  0.16506946716E-01  0.11133857282E+00  0.58952496965E-01  0.12857875357E+00  0.19706392011E-01 0.  0.
         14    1    1    2    0    0  0.43277009078E-02  0.16643338413E-02  0.23598518348E-01  0.24049720799E-01  0.00000000000E+00 0.  1.
     999901    1    3    3    0    0 -0.20834647624E-01 -0.11300290666E+00 -0.82551015313E-01  0.89130152563E+00  0.88000000000E+00 0. -1.
        -11    1    4    4    0    0  0.11567828020E-01  0.77707785044E-01  0.50994427522E-01  0.93664332917E-01  0.51100000000E-03 0.  1.
         11    1    4    4    0    0  0.49391186965E-02  0.33630787771E-01  0.79580694430E-02  0.34914420658E-01  0.51100000000E-03 0. -1.
</event>
<event>
 8    1  0.1146431E+005  0.1043930E+01  0.7957747E-01            NaN
         13   -1    0    0    0    0  0.00000000000E+00  0.00000000000E+00  0.74505805969E-08  0.10566000000E+00  0.10566000000E+00 0.  1.
     999900   -1    0    0    0    0 -0.00000000000E+00 -0.00000000000E+00 -0.74505805969E-08  0.93827000000E+00  0.93827000000E+00 0.  1.
     999902    2    1    2    0    0 -0.20276125167E-01  0.43792666243E-02  0.11779738846E-01  0.10200749906E+01  0.10197960212E+01 0.  0.
     999903    2    3    3    0    0 -0.62396937698E-01  0.10982552798E+00  0.34868707003E-01  0.13247926202E+00  0.19491118682E-01 0.  0.
         14    1    1    2    0    0  0.20276125167E-01 -0.43792666243E-02 -0.11779738846E-01  0.23855009437E-01  0.00000000000E+00 0.  1.
     999901    1    3    3    0    0  0.42120812531E-01 -0.10544626135E+00 -0.23088968157E-01  0.88759572855E+00  0.88000000000E+00 0.  1.
        -11    1    4    4    0    0 -0.27243002385E-01  0.64924575601E-01  0.24263318357E-01  0.74473830536E-01  0.51100000000E-03 0.  1.
         11    1    4    4    0    0 -0.35153935312E-01  0.44900952375E-01  0.10605388646E-01  0.58005431482E-01  0.51100000000E-03 0. -1.
</event>
<event>
 8    1  0.1146431E+005  0.1043930E+01  0.7957747E-01            NaN
         13   -1    0    0    0    0  0.00000000000E+00  0.00000000000E+00  0.74505805969E-08  0.10566000000E+00  0.10566000000E+00 0. -1.
     999900   -1    0    0    0    0 -0.00000000000E+00 -0.00000000000E+00 -0.74505805969E-08  0.93827000000E+00  0.93827000000E+00 0.  1.
     999902    2    1    2    0    0  0.13512597388E-01 -0.15422061995E-01  0.11643640433E-01  0.10203502492E+01  0.10200777551E+01 0.  0.
     999903    2    3    3    0    0 -0.78037103744E-01  0.86956140912E-01 -0.47649913832E-01  0.12772582104E+00  0.19804319445E-01 0.  0.
         14    1    1    2    0    0 -0.13512597388E-01  0.15422061995E-01 -0.11643640433E-01  0.23579750781E-01  0.00000000000E+00 0.  1.
     999901    1    3    3    0    0  0.91549701132E-01 -0.10237820291E+00  0.59293554264E-01  0.89262442818E+00  0.88000000000E+00 0. -1.
        -11    1    4    4    0    0 -0.43422850144E-01  0.53193185157E-01 -0.17944512295E-01  0.70974118552E-01  0.51100000000E-03 0. -1.
         11    1    4    4    0    0 -0.34614253600E-01  0.33762955755E-01 -0.29705401537E-01  0.56751702486E-01  0.51100000000E-03 0.  1.
</event>
<event>
 8    1  0.1146431E+005  0.1043930E+01  0.7957747E-01            NaN
         13   -1    0    0    0    0  0.00000000000E+00  0.00000000000E+00  0.74505805969E-08  0.10566000000E+00  0.10566000000E+00 0.  1.
     999900   -1    0    0    0    0 -0.00000000000E+00 -0.00000000000E+00 -0.74505805969E-08  0.93827000000E+00  0.93827000000E+00 0. -1.
     999902    2    1    2    0    0 -0.22658182434E-01 -0.12005278810E-02 -0.20177919154E-02  0.10211504920E+01  0.10208963813E+01 0.  0.
     999903    2    3    3    0    0 -0.75069590601E-01 -0.10274699776E+00 -0.32687809215E-01  0.13323197596E+00  0.22133177934E-01 0.  0.
         14    1    1    2    0    0  0.22658182434E-01  0.12005278810E-02  0.20177919154E-02  0.22779507954E-01  0.00000000000E+00 0. -1.
     999901    1    3    3    0    0  0.52411408168E-01  0.10154646988E+00  0.30670017300E-01  0.88791851609E+00  0.88000000000E+00 0.  1.
        -11    1    4    4    0    0 -0.38040205696E-01 -0.54619711667E-01 -0.28356869736E-01  0.72351526136E-01  0.51100000000E-03 0.  1.
         11    1    4    4    0    0 -0.37029384905E-01 -0.48127286090E-01 -0.43309394795E-02  0.60880449823E-01  0.51100000000E-03 0. -1.
</event>
<event>
 8    1  0.1146431E+005  0.1043930E+01  0.7957747E-01            NaN
         13   -1    0    0    0    0  0.00000000000E+00  0.00000000000E+00  0.74505805969E-08  0.10566000000E+00  0.10566000000E+00 0. -1.
     999900   -1    0    0    0    0 -0.00000000000E+00 -0.00000000000E+00 -0.74505805969E-08  0.93827000000E+00  0.93827000000E+00 0. -1.
     999902    2    1    2    0    0 -0.37230845731E-04  0.59833407926E-02  0.23753737477E-01  0.10194342494E+01  0.10191399055E+01 0.  0.
     999903    2    3    3    0    0  0.71728448824E-01  0.90773143892E-01  0.59152993856E-01  0.13174470297E+00  0.21745253661E-01 0.  0.
         14    1    1    2    0    0  0.37230845731E-04 -0.59833407926E-02 -0.23753737477E-01  0.24495750597E-01  0.00000000000E+00 0.  1.
     999901    1    3    3    0    0 -0.71765679670E-01 -0.84789803100E-01 -0.35399256379E-01  0.88768954643E+00  0.88000000000E+00 0. -1.
        -11    1    4    4    0    0  0.21616256084E-01  0.38040116635E-01  0.13220452546E-01  0.45709457306E-01  0.51100000000E-03 0. -1.
         11    1    4    4    0    0  0.50112192740E-01  0.52733027258E-01  0.45932541311E-01  0.86035245668E-01  0.51100000000E-03 0.  1.
</event>
<event>
 8    1  0.1146431E+005  0.1043930E+01  0.7957747E-01            NaN
         13   -1    0    0    0    0  0.00000000000E+00  0.00000000000E+00  0.74505805969E-08  0.10566000000E+00  0.10566000000E+00 0. -1.
     999900   -1    0    0    0    0 -0.00000000000E+00 -0.00000000000E+00 -0.74505805969E-08  0.93827000000E+00  0.93827000000E+00 0. -1.
     999902    2    1    2    0    0 -0.22873489164E-01 -0.56126115156E-02 -0.43716296316E-02  0.10199756881E+01  0.10196943636E+01 0.  0.
     999903    2    3    3    0    0  0.42532666925E-01 -0.67155496942E-01 -0.10112812458E+00  0.13012889714E+00  0.19691210366E-01 0.  0.
         14    1    1    2    0    0  0.22873489164E-01  0.56126115156E-02  0.43716296316E-02  0.23954311933E-01  0.00000000000E+00 0. -1.
     999901    1    3    3    0    0 -0.65406156089E-01  0.61542885427E-01  0.96756494948E-01  0.88984679092E+00  0.88000000000E+00 0.  1.
        -11    1    4    4    0    0  0.12264467342E-01 -0.13605325847E-01 -0.12259891036E-01  0.22047405739E-01  0.51100000000E-03 0.  1.
         11    1    4    4    0    0  0.30268199582E-01 -0.53550171096E-01 -0.88868233543E-01  0.10808149141E+00  0.51100000000E-03 0. -1.
</event>
<event>
 8    1  0.1146431E+005  0.1043930E+01  0.7957747E-01            NaN
         13   -1    0    0    0    0  0.00000000000E+00  0.00000000000E+00  0.74505805969E-08  0.10566000000E+00  0.10566000000E+00 0. -1.
     999900   -1    0    0    0    0 -0.00000000000E+00 -0.00000000000E+00 -0.74505805969E-08  0.93827000000E+00  0.93827000000E+00 0.  1.
     999902    2    1    2    0    0  0.17029304683E-01  0.68006684087E-02  0.13113871871E-01  0.10213862660E+01  0.10211374464E+01 0.  0.
     999903    2    3    3    0    0 -0.42231329883E-01  0.73627825327E-01 -0.96504006841E-01  0.13009856211E+00  0.20200758415E-01 0.  0.
         14    1    1    2    0    0 -0.17029304683E-01 -0.68006684087E-02 -0.13113871871E-01  0.22543734035E-01  0.00000000000E+00 0. -1.
     999901    1    3    3    0    0  0.59260634566E-01 -0.66827156918E-01  0.10961787871E+00  0.89128770386E+00  0.88000000000E+00 0. -1.
        -11    1    4    4    0    0 -0.17254445162E-02  0.16515426212E-01 -0.12818599637E-01  0.20983662202E-01  0.51100000000E-03 0.  1.
         11    1    4    4    0    0 -0.40505885367E-01  0.57112399115E-01 -0.83685407203E-01  0.10911489991E+00  0.51100000000E-03 0. -1.
</event>
<event>
 8    1  0.1146431E+005  0.1043930E+01  0.7957747E-01            NaN
         13   -1    0    0    0    0  0.00000000000E+00  0.00000000000E+00  0.74505805969E-08  0.10566000000E+00  0.10566000000E+00 0.  1.
     999900   -1    0    0    0    0 -0.00000000000E+00 -0.00000000000E+00 -0.74505805969E-08  0.93827000000E+00  0.93827000000E+00 0. -1.
     999902    2    1    2    0    0 -0.90139361988E-02 -0.18091106060E-01  0.11254119336E-01  0.10207957318E+01  0.10205335524E+01 0.  0.
     999903    2    3    3    0    0  0.35132161323E-01 -0.56897230854E-01 -0.11022153686E+00  0.13050862736E+00  0.20301502130E-01 0.  0.
         14    1    1    2    0    0  0.90139361988E-02  0.18091106060E-01 -0.11254119336E-01  0.23134268225E-01  0.00000000000E+00 0.  1.
     999901    1    3    3    0    0 -0.44146097522E-01  0.38806124794E-01  0.12147565619E+00  0.89028710442E+00  0.88000000000E+00 0.  1.
        -11    1    4    4    0    0  0.29750712338E-01 -0.30993198346E-01 -0.75279943971E-01  0.86677645986E-01  0.51100000000E-03 0.  1.
         11    1    4    4    0    0  0.53814489846E-02 -0.25904032507E-01 -0.34941592887E-01  0.43830981369E-01  0.51100000000E-03 0. -1.
</event>
<event>
 8    1  0.1146431E+005  0.1043930E+01  0.7957747E-01            NaN
         13   -1    0    0    0    0  0.00000000000E+00  0.00000000000E+00  0.74505805969E-08  0.10566000000E+00  0.10566000000E+00 0. -1.
     999900   -1    0    0    0    0 -0.00000000000E+00 -0.00000000000E+00 -0.74505805969E-08  0.93827000000E+00  0.93827000000E+00 0.  1.
     999902    2    1    2    0    0 -0.21243650979E-01  0.30903138431E-02  0.99310875052E-02  0.10202768978E+01  0.10200026857E+01 0.  0.
     999903    2    3    3    0    0 -0.45937180489E-01 -0.10247717601E+00 -0.63572214510E-01  0.13058200583E+00  0.19960902644E-01 0.  0.
         14    1    1    2    0    0  0.21243650979E-01 -0.30903138431E-02 -0.99310875052E-02  0.23653102241E-01  0.00000000000E+00 0.  1.
     999901    1    3    3    0    0  0.24693529509E-01  0.10556748986E+00  0.73503302015E-01  0.88969489193E+00  0.88000000000E+00 0. -1.
        -11    1    4    4    0    0 -0.25046671545E-01 -0.74104954786E-01 -0.37506074377E-01  0.86751638690E-01  0.51100000000E-03 0. -1.
         11    1    4    4    0    0 -0.20890508944E-01 -0.28372221228E-01 -0.26066140133E-01  0.43830367142E-01  0.51100000000E-03 0.  1.
</event>
<event>
 8    1  0.1146431E+005  0.1043930E+01  0.7957747E-01            NaN
         13   -1    0    0    0    0  0.00000000000E+00  0.00000000000E+00  0.74505805969E-08  0.10566000000E+00  0.10566000000E+00 0.  1.
     999900   -1    0    0    0    0 -0.00000000000E+00 -0.00000000000E+00 -0.74505805969E-08  0.93827000000E+00  0.93827000000E+00 0.  1.
     999902    2    1    2    0    0 -0.16409004734E-02 -0.19334097103E-01 -0.11562550196E-01  0.10213425603E+01  0.10210927642E+01 0.  0.
     999903    2    3    3    0    0 -0.83071847135E-01  0.66996618341E-02 -0.10125183138E+00  0.13266212120E+00  0.20037160198E-01 0.  0.
         14    1    1    2    0    0  0.16409004734E-02  0.19334097103E-01  0.11562550196E-01  0.22587439700E-01  0.00000000000E+00 0.  1.
     999901    1    3    3    0    0  0.81430946661E-01 -0.26033758937E-01  0.89689281184E-01  0.88868043910E+00  0.88000000000E+00 0. -1.
        -11    1    4    4    0    0 -0.18973680669E-01  0.51785516377E-02 -0.13016313617E-01  0.23590326330E-01  0.51100000000E-03 0. -1.
         11    1    4    4    0    0 -0.64098166465E-01  0.15211101964E-02 -0.88235517763E-01  0.10907179487E+00  0.51100000000E-03 0.  1.
</event>
<event>
 8    1  0.1146431E+005  0.1043930E+01  0.7957747E-01            NaN
         13   -1    0    0    0    0  0.00000000000E+00  0.00000000000E+00  0.74505805969E-08  0.10566000000E+00  0.10566000000E+00 0.  1.
     999900   -1    0    0    0    0 -0.00000000000E+00 -0.00000000000E+00 -0.74505805969E-08  0.93827000000E+00  0.93827000000E+00 0.  1.
     999902    2    1    2    0    0  0.19939747214E-01  0.12995475190E-01 -0.33613930004E-02  0.10198930522E+01  0.10196097602E+01 0.  0.
     999903    2    3    3    0    0  0.61044408484E-02 -0.76737285101E-01  0.10157479158E+00  0.12901989247E+00  0.20070357431E-01 0.  0.
         14    1    1    2    0    0 -0.19939747214E-01 -0.12995475190E-01  0.33613930004E-02  0.24036947753E-01  0.00000000000E+00 0.  1.
     999901    1    3    3    0    0  0.13835306366E-01  0.89732760291E-01 -0.10493618458E+00  0.89087315977E+00  0.88000000000E+00 0.  1.
        -11    1    4    4    0    0 -0.68889800382E-02 -0.38412352700E-01  0.52236228135E-01  0.65206223144E-01  0.51100000000E-03 0.  1.
         11    1    4    4    0    0  0.12993420887E-01 -0.38324932400E-01  0.49338563441E-01  0.63813669329E-01  0.51100000000E-03 0. -1.
</event>
<event>
 8    1  0.1146431E+005  0.1043930E+01  0.7957747E-01            NaN
         13   -1    0    0    0    0  0.00000000000E+00  0.00000000000E+00  0.74505805969E-08  0.10566000000E+00  0.10566000000E+00 0. -1.
     999900   -1    0    0    0    0 -0.00000000000E+00 -0.00000000000E+00 -0.74505805969E-08  0.93827000000E+00  0.93827000000E+00 0.  1.
     999902    2    1    2    0    0  0.11298644510E-01  0.19413566506E-01  0.88413059035E-02  0.10197905174E+01  0.10195047742E+01 0.  0.
     999903    2    3    3    0    0  0.91061789248E-01 -0.58525570948E-01  0.70502536004E-01  0.13061180883E+00  0.19270316708E-01 0.  0.
         14    1    1    2    0    0 -0.11298644510E-01 -0.19413566506E-01 -0.88413059035E-02  0.24139482644E-01  0.00000000000E+00 0. -1.
     999901    1    3    3    0    0 -0.79763144738E-01  0.77939137454E-01 -0.61661230101E-01  0.88917870853E+00  0.88000000000E+00 0. -1.
        -11    1    4    4    0    0  0.60140079613E-01 -0.33891605344E-01  0.34663951722E-01  0.77248435315E-01  0.51100000000E-03 0.  1.
         11    1    4    4    0    0  0.30921709635E-01 -0.24633965604E-01  0.35838584282E-01  0.53363373511E-01  0.51100000000E-03 0. -1.
</event>
<event>
 8    1  0.1146431E+005  0.1043930E+01  0.7957747E-01            NaN
         13   -1    0    0    0    0  0.00000000000E+00  0.00000000000E+00  0.74505805969E-08  0.10566000000E+00  0.10566000000E+00 0. -1.
     999900   -1    0    0    0    0 -0.00000000000E+00 -0.00000000000E+00 -0.74505805969E-08  0.93827000000E+00  0.93827000000E+00 0. -1.
     999902    2    1    2    0    0  0.32787969541E-02 -0.24424577413E-01  0.62062113092E-02  0.10185168626E+01  0.10181997702E+01 0.  0.
     999903    2    3    3    0    0 -0.10094661034E+00  0.33106158703E-02 -0.76285621393E-01  0.12810286965E+00  0.19740082682E-01 0.  0.
         14    1    1    2    0    0 -0.32787969541E-02  0.24424577413E-01 -0.62062113092E-02  0.25413137352E-01  0.00000000000E+00 0. -1.
     999901    1    3    3    0    0  0.10422540729E+00 -0.27735193283E-01  0.82491832702E-01  0.89041399300E+00  0.88000000000E+00 0.  1.
        -11    1    4    4    0    0 -0.59503504790E-01  0.10635107648E-01 -0.50296623235E-01  0.78637039789E-01  0.51100000000E-03 0. -1.
         11    1    4    4    0    0 -0.41443105546E-01 -0.73244917775E-02 -0.25988998158E-01  0.49465829857E-01  0.51100000000E-03 0.  1.
</event>
<event>
 8    1  0.1146431E+005  0.1043930E+01  0.7957747E-01            NaN
         13   -1    0    0    0    0  0.00000000000E+00  0.00000000000E+00  0.74505805969E-08  0.10566000000E+00  0.10566000000E+00 0.  1.
     999900   -1    0    0    0    0 -0.00000000000E+00 -0.00000000000E+00 -0.74505805969E-08  0.93827000000E+00  0.93827000000E+00 0.  1.
     999902    2    1    2    0    0  0.17895909131E-02  0.15823393613E-01  0.17376743083E-01  0.10203602393E+01  0.10200879787E+01 0.  0.
     999903    2    3    3    0    0  0.74559420959E-01 -0.10035275220E+00 -0.21242991377E-01  0.12890983183E+00  0.23166741928E-01 0.  0.
         14    1    1    2    0    0 -0.17895909131E-02 -0.15823393613E-01 -0.17376743083E-01  0.23569760738E-01  0.00000000000E+00 0. -1.
     999901    1    3    3    0    0 -0.72769830046E-01  0.11617614581E+00  0.38619734461E-01  0.89145040743E+00  0.88000000000E+00 0. -1.
        -11    1    4    4    0    0  0.55114857336E-01 -0.88161874268E-01 -0.14467043807E-01  0.10497485438E+00  0.51100000000E-03 0. -1.
         11    1    4    4    0    0  0.19444563623E-01 -0.12190877934E-01 -0.67759475698E-02  0.23934977455E-01  0.51100000000E-03 0.  1.
</event>
<event>
 8    1  0.1146431E+005  0.1043930E+01  0.7957747E-01            NaN
         13   -1    0    0    0    0  0.00000000000E+00  0.00000000000E+00  0.74505805969E-08  0.10566000000E+00  0.10566000000E+00 0. -1.
     999900   -1    0    0    0    0 -0.00000000000E+00 -0.00000000000E+00 -0.74505805969E-08  0.93827000000E+00  0.93827000000E+00 0.  1.
     999902    2    1    2    0    0 -0.13841553384E-01  0.14972324950E-01 -0.14672270731E-01  0.10188095971E+01  0.10184998579E+01 0.  0.
     999903    2    3    3    0    0  0.11541954516E+00 -0.99236835141E-02 -0.51280177935E-01  0.12826572859E+00  0.20057157902E-01 0.  0.
         14    1    1    2    0    0  0.13841553384E-01 -0.14972324950E-01  0.14672270731E-01  0.25120402920E-01  0.00000000000E+00 0. -1.
     999901    1    3    3    0    0 -0.12926109854E+00  0.24896008464E-01  0.36607907204E-01  0.89054386849E+00  0.88000000000E+00 0. -1.
        -11    1    4    4    0    0  0.77715574141E-01 -0.13611203898E-01 -0.27606868587E-01  0.83590523684E-01  0.51100000000E-03 0. -1.
         11    1    4    4    0    0  0.37703971016E-01  0.36875203840E-02 -0.23673309347E-01  0.44675204906E-01  0.51100000000E-03 0.  1.
</event>
<event>
 8    1  0.1146431E+005  0.1043930E+01  0.7957747E-01            NaN
         13   -1    0    0    0    0  0.00000000000E+00  0.00000000000E+00  0.74505805969E-08  0.10566000000E+00  0.10566000000E+00 0. -1.
     999900   -1    0    0    0    0 -0.00000000000E+00 -0.00000000000E+00 -0.74505805969E-08  0.93827000000E+00  0.93827000000E+00 0.  1.
     999902    2    1    2    0    0  0.36175710203E-02 -0.20750470257E-01  0.11667495709E-01  0.10198509782E+01  0.10195666817E+01 0.  0.
     999903    2    3    3    0    0 -0.42553641252E-01  0.10208948800E+00 -0.59883598718E-01  0.12724748541E+00  0.19308060588E-01 0.  0.
         14    1    1    2    0    0 -0.36175710203E-02  0.20750470257E-01 -0.11667495709E-01  0.24079021825E-01  0.00000000000E+00 0. -1.
     999901    1    3    3    0    0  0.46171212273E-01 -0.12283995825E+00  0.71551094427E-01  0.89260349277E+00  0.88000000000E+00 0. -1.
        -11    1    4    4    0    0 -0.17365928918E-01  0.20711905853E-01 -0.12749238684E-01  0.29889174282E-01  0.51100000000E-03 0.  1.
         11    1    4    4    0    0 -0.25187712334E-01  0.81377582144E-01 -0.47134360034E-01  0.97358311125E-01  0.51100000000E-03 0. -1.
</event>
<event>
 8    1  0.1146431E+005  0.1043930E+01  0.7957747E-01            NaN
         13   -1    0    0    0    0  0.00000000000E+00  0.00000000000E+00  0.74505805969E-08  0.10566000000E+00  0.10566000000E+00 0.  1.
     999900   -1    0    0    0    0 -0.00000000000E+00 -0.00000000000E+00 -0.74505805969E-08  0.93827000000E+00  0.93827000000E+00 0.  1.
     999902    2    1    2    0    0  0.13345619816E-01 -0.19414955001E-01 -0.18706859026E-02  0.10202964325E+01  0.10200226785E+01 0.  0.
     999903    2    3    3    0    0 -0.17068184111E-01  0.12514252216E+00  0.25733193207E-02  0.12797271724E+00  0.20455332443E-01 0.  0.
         14    1    1    2    0    0 -0.13345619816E-01  0.19414955001E-01  0.18706859026E-02  0.23633567478E-01  0.00000000000E+00 0. -1.
     999901    1    3    3    0    0  0.30413803927E-01 -0.14455747716E+00 -0.44440052233E-02  0.89232371528E+00  0.88000000000E+00 0.  1.
        -11    1    4    4    0    0 -0.12129786038E-01  0.10885490536E+00  0.87041506544E-02  0.10987513590E+00  0.51100000000E-03 0. -1.
         11    1    4    4    0    0 -0.49383980725E-02  0.16287616795E-01 -0.61308313337E-02  0.18097581336E-01  0.51100000000E-03 0.  1.
</event>
<event>
 8    1  0.1146431E+005  0.1043930E+01  0.7957747E-01            NaN
         13   -1    0    0    0    0  0.00000000000E+00  0.00000000000E+00  0.74505805969E-08  0.10566000000E+00  0.10566000000E+00 0. -1.
     999900   -1    0    0    0    0 -0.00000000000E+00 -0.00000000000E+00 -0.74505805969E-08  0.93827000000E+00  0.93827000000E+00 0. -1.
     999902    2    1    2    0    0  0.25478719030E-01 -0.16643147450E-01 -0.17873558904E-01  0.10086366070E+01  0.10080189390E+01 0.  0.
     999903    2    3    3    0    0 -0.56976161677E-01 -0.79228815803E-01  0.64859197562E-01  0.11871499124E+00  0.19053749847E-01 0.  0.
         14    1    1    2    0    0 -0.25478719030E-01  0.16643147450E-01  0.17873558904E-01  0.35293392984E-01  0.00000000000E+00 0.  1.
     999901    1    3    3    0    0  0.82454880707E-01  0.62585668353E-01 -0.82732756466E-01  0.88992161578E+00  0.88000000000E+00 0. -1.
        -11    1    4    4    0    0 -0.27753496756E-01 -0.23545906925E-01  0.20722923425E-01  0.41885164335E-01  0.51100000000E-03 0. -1.
         11    1    4    4    0    0 -0.29222664921E-01 -0.55682908878E-01  0.44136274137E-01  0.76829826903E-01  0.51100000000E-03 0.  1.
</event>
<event>
 8    1  0.1146431E+005  0.1043930E+01  0.7957747E-01            NaN
         13   -1    0    0    0    0  0.00000000000E+00  0.00000000000E+00  0.74505805969E-08  0.10566000000E+00  0.10566000000E+00 0.  1.
     999900   -1    0    0    0    0 -0.00000000000E+00 -0.00000000000E+00 -0.74505805969E-08  0.93827000000E+00  0.93827000000E+00 0.  1.
     999902    2    1    2    0    0  0.73472569929E-02 -0.23416592432E-01  0.85159505438E-02  0.10179523096E+01  0.10176207860E+01 0.  0.
     999903    2    3    3    0    0  0.11764123913E+00 -0.10410047421E-01  0.50682997425E-01  0.12997033196E+00  0.19382743117E-01 0.  0.
         14    1    1    2    0    0 -0.73472569929E-02  0.23416592432E-01 -0.85159505438E-02  0.25977690431E-01  0.00000000000E+00 0. -1.
     999901    1    3    3    0    0 -0.11029398214E+00 -0.13006545011E-01 -0.42167046881E-01  0.88798197761E+00  0.88000000000E+00 0.  1.
        -11    1    4    4    0    0  0.47233099473E-01  0.49840647151E-02  0.22864340728E-01  0.52714758700E-01  0.51100000000E-03 0. -1.
         11    1    4    4    0    0  0.70408139660E-01 -0.15394112136E-01  0.27818656697E-01  0.77255573264E-01  0.51100000000E-03 0.  1.
</event>
<event>
 8    1  0.1146431E+005  0.1043930E+01  0.7957747E-01            NaN
         13   -1    0    0    0    0  0.00000000000E+00  0.00000000000E+00  0.74505805969E-08  0.10566000000E+00  0.10566000000E+00 0. -1.
     999900   -1    0    0    0    0 -0.00000000000E+00 -0.00000000000E+00 -0.74505805969E-08  0.93827000000E+00  0.93827000000E+00 0.  1.
     999902    2    1    2    0    0 -0.20435444399E-02 -0.13275610465E-01 -0.19834245907E-01  0.10199755595E+01  0.10196942320E+01 0.  0.
     999903    2    3    3    0    0  0.10854566536E-01  0.10840566643E+00 -0.68646425386E-01  0.13016921922E+00  0.19028499258E-01 0.  0.
         14    1    1    2    0    0  0.20435444399E-02  0.13275610465E-01  0.19834245907E-01  0.23954440461E-01  0.00000000000E+00 0. -1.
     999901    1    3    3    0    0 -0.12898110975E-01 -0.12168127690E+00  0.48812179480E-01  0.88980634032E+00  0.88000000000E+00 0.  1.
        -11    1    4    4    0    0  0.10840933201E-01  0.67294588047E-01 -0.32901951061E-01  0.75689410869E-01  0.51100000000E-03 0. -1.
         11    1    4    4    0    0  0.13633334807E-04  0.41111078384E-01 -0.35744474325E-01  0.54479808347E-01  0.51100000000E-03 0.  1.
</event>
<event>
 8    1  0.1146431E+005  0.1043930E+01  0.7957747E-01            NaN
         13   -1    0    0    0    0  0.00000000000E+00  0.00000000000E+00  0.74505805969E-08  0.10566000000E+00  0.10566000000E+00 0. -1.
     999900   -1    0    0    0    0 -0.00000000000E+00 -0.00000000000E+00 -0.74505805969E-08  0.93827000000E+00  0.93827000000E+00 0. -1.
     999902    2    1    2    0    0 -0.23198922784E-02 -0.20197963539E-01 -0.12264538798E-01  0.10201864000E+01  0.10199100608E+01 0.  0.
     999903    2    3    3    0    0 -0.11832761277E-01  0.12221954533E+00 -0.32359595587E-01  0.12845939418E+00  0.19417544304E-01 0.  0.
         14    1    1    2    0    0  0.23198922784E-02  0.20197963539E-01  0.12264538798E-01  0.23743600048E-01  0.00000000000E+00 0. -1.
     999901    1    3    3    0    0  0.95128689986E-02 -0.14241750887E+00  0.20095056788E-01  0.89172700577E+00  0.88000000000E+00 0.  1.
        -11    1    4    4    0    0 -0.61169184354E-02  0.79141979818E-01 -0.30256226719E-01  0.84950397509E-01  0.51100000000E-03 0. -1.
         11    1    4    4    0    0 -0.57158428415E-02  0.43077565514E-01 -0.21033688673E-02  0.43508996674E-01  0.51100000000E-03 0.  1.
</event>
<event>
 8    1  0.1146431E+005  0.1043930E+01  0.7957747E-01            NaN
         13   -1    0    0    0    0  0.00000000000E+00  0.00000000000E+00  0.74505805969E-08  0.10566000000E+00  0.10566000000E+00 0. -1.
     999900   -1    0    0    0    0 -0.00000000000E+00 -0.00000000000E+00 -0.74505805969E-08  0.93827000000E+00  0.93827000000E+00 0.  1.
     999902    2    1    2    0    0  0.28707053532E-02  0.22347092870E-01  0.21593142699E-01  0.10127226720E+01  0.10122417266E+01 0.  0.
     999903    2    3    3    0    0  0.15877504025E-01  0.24549067940E-01  0.12190508530E+00  0.12692556694E+00  0.19861969986E-01 0.  0.
         14    1    1    2    0    0 -0.28707053532E-02 -0.22347092870E-01 -0.21593142699E-01  0.31207327995E-01  0.00000000000E+00 0.  1.
     999901    1    3    3    0    0 -0.13006798672E-01 -0.22019750694E-02 -0.10031194260E+00  0.88579710506E+00  0.88000000000E+00 0.  1.
        -11    1    4    4    0    0  0.14045117845E-01  0.89842400426E-02  0.88040513440E-01  0.89606780057E-01  0.51100000000E-03 0. -1.
         11    1    4    4    0    0  0.18323861802E-02  0.15564827897E-01  0.33864571858E-01  0.37318786887E-01  0.51100000000E-03 0.  1.
</event>
<event>
 8    1  0.1146431E+005  0.1043930E+01  0.7957747E-01            NaN
         13   -1    0    0    0    0  0.00000000000E+00  0.00000000000E+00  0.74505805969E-08  0.10566000000E+00  0.10566000000E+00 0. -1.
     999900   -1    0    0    0    0 -0.00000000000E+00 -0.00000000000E+00 -0.74505805969E-08  0.93827000000E+00  0.93827000000E+00 0.  1.
     999902    2    1    2    0    0 -0.18546911503E-01 -0.35057233975E-02  0.13961049193E-01  0.10204525871E+01  0.10201824805E+01 0.  0.
     999903    2    3    3    0    0  0.53094497799E-01  0.74937254777E-01 -0.87503466030E-01  0.12827500375E+00  0.19052615801E-01 0.  0.
         14    1    1    2    0    0  0.18546911503E-01  0.35057233975E-02 -0.13961049193E-01  0.23477412920E-01  0.00000000000E+00 0.  1.
     999901    1    3    3    0    0 -0.71641409302E-01 -0.78442978175E-01  0.10146451522E+00  0.89217758333E+00  0.88000000000E+00 0. -1.
        -11    1    4    4    0    0  0.76777421803E-02  0.24806534113E-01 -0.20823832808E-01  0.33289713028E-01  0.51100000000E-03 0.  1.
         11    1    4    4    0    0  0.45416755619E-01  0.50130720664E-01 -0.66679633222E-01  0.94985290719E-01  0.51100000000E-03 0. -1.
</event>
<event>
 8    1  0.1146431E+005  0.1043930E+01  0.7957747E-01            NaN
         13   -1    0    0    0    0  0.00000000000E+00  0.00000000000E+00  0.74505805969E-08  0.10566000000E+00  0.10566000000E+00 0. -1.
     999900   -1    0    0    0    0 -0.00000000000E+00 -0.00000000000E+00 -0.74505805969E-08  0.93827000000E+00  0.93827000000E+00 0.  1.
     999902    2    1    2    0    0  0.15932720759E-01  0.72680119341E-02  0.18659892972E-02  0.10263187109E+01  0.10261675978E+01 0.  0.
     999903    2    3    3    0    0 -0.73739746862E-01 -0.10168431258E+00 -0.43399221199E-01  0.13392826957E+00  0.16614430430E-01 0.  0.
         14    1    1    2    0    0 -0.15932720759E-01 -0.72680119341E-02 -0.18659892972E-02  0.17611289116E-01  0.00000000000E+00 0.  1.
     999901    1    3    3    0    0  0.89672467621E-01  0.10895232451E+00  0.45265210496E-01  0.89239044131E+00  0.88000000000E+00 0. -1.
        -11    1    4    4    0    0 -0.18371350656E-01 -0.37570892648E-01 -0.17554224026E-01  0.45359567915E-01  0.51100000000E-03 0. -1.
         11    1    4    4    0    0 -0.55368396206E-01 -0.64113419927E-01 -0.25844997173E-01  0.88568701656E-01  0.51100000000E-03 0.  1.
</event>
<event>
 8    1  0.1146431E+005  0.1043930E+01  0.7957747E-01            NaN
         13   -1    0    0    0    0  0.00000000000E+00  0.00000000000E+00  0.74505805969E-08  0.10566000000E+00  0.10566000000E+00 0.  1.
     999900   -1    0    0    0    0 -0.00000000000E+00 -0.00000000000E+00 -0.74505805969E-08  0.93827000000E+00  0.93827000000E+00 0.  1.
     999902    2    1    2    0    0  0.34392989571E-02 -0.23017861577E-01  0.15779688748E-02  0.10206031761E+01  0.10203365632E+01 0.  0.
     999903    2    3    3    0    0 -0.75436544327E-01 -0.95979970561E-01 -0.48152582584E-01  0.13267412724E+00  0.19517322090E-01 0.  0.
         14    1    1    2    0    0 -0.34392989571E-02  0.23017861577E-01 -0.15779688748E-02  0.23326823930E-01  0.00000000000E+00 0.  1.
     999901    1    3    3    0    0  0.78875843284E-01  0.72962108984E-01  0.49730551459E-01  0.88792904883E+00  0.88000000000E+00 0. -1.
        -11    1    4    4    0    0 -0.16017903710E-01 -0.11885707120E-01 -0.27568310756E-02  0.20142107923E-01  0.51100000000E-03 0.  1.
         11    1    4    4    0    0 -0.59418640617E-01 -0.84094263440E-01 -0.45395751508E-01  0.11253201932E+00  0.51100000000E-03 0. -1.
</event>
<event>
 8    1  0.1146431E+005  0.1043930E+01  0.7957747E-01            NaN
         13   -1    0    0    0    0  0.00000000000E+00  0.00000000000E+00  0.74505805969E-08  0.10566000000E+00  0.10566000000E+00 0.  1.
     999900   -1    0    0    0    0 -0.00000000000E+00 -0.00000000000E+00 -0.74505805969E-08  0.93827000000E+00  0.93827000000E+00 0. -1.
     999902    2    1    2    0    0 -0.15728305047E-01  0.11327594159E-01  0.20124409070E-01  0.10159892447E+01  0.10156049721E+01 0.  0.
     999903    2    3    3    0    0 -0.44452508535E-01  0.55094679439E-01 -0.10229673226E+00  0.12597375407E+00  0.19832197719E-01 0.  0.
         14    1    1    2    0    0  0.15728305047E-01 -0.11327594159E-01 -0.20124409070E-01  0.27940755349E-01  0.00000000000E+00 0. -1.
     999901    1    3    3    0    0  0.28724203488E-01 -0.43767085280E-01  0.12242114133E+00  0.89001549058E+00  0.88000000000E+00 0.  1.
        -11    1    4    4    0    0 -0.39233301468E-01  0.54304653268E-01 -0.87150963476E-01  0.10992633382E+00  0.51100000000E-03 0.  1.
         11    1    4    4    0    0 -0.52192070662E-02  0.79002617045E-03 -0.15145768788E-01  0.16047420258E-01  0.51100000000E-03 0. -1.
</event>
<event>
 8    1  0.1146431E+005  0.1043930E+01  0.7957747E-01            NaN
         13   -1    0    0    0    0  0.00000000000E+00  0.00000000000E+00  0.74505805969E-08  0.10566000000E+00  0.10566000000E+00 0.  1.
     999900   -1    0    0    0    0 -0.00000000000E+00 -0.00000000000E+00 -0.74505805969E-08  0.93827000000E+00  0.93827000000E+00 0.  1.
     999902    2    1    2    0    0  0.22099737157E-01  0.62698981610E-02  0.21965041017E-02  0.10208532880E+01  0.10205924265E+01 0.  0.
     999903    2    3    3    0    0  0.41080394051E-01 -0.27262950458E-02 -0.12315233427E+00  0.13172251693E+00  0.22119958632E-01 0.  0.
         14    1    1    2    0    0 -0.22099737157E-01 -0.62698981610E-02 -0.21965041017E-02  0.23076711976E-01  0.00000000000E+00 0.  1.
     999901    1    3    3    0    0 -0.18980656894E-01  0.89961932068E-02  0.12534883837E+00  0.88913077110E+00  0.88000000000E+00 0. -1.
        -11    1    4    4    0    0  0.11235701819E-01  0.22113607636E-02 -0.12289296469E-01  0.16805327742E-01  0.51100000000E-03 0. -1.
         11    1    4    4    0    0  0.29844692232E-01 -0.49376558094E-02 -0.11086303780E+00  0.11491718919E+00  0.51100000000E-03 0.  1.
</event>
<event>
 8    1  0.1146431E+005  0.1043930E+01  0.7957747E-01            NaN
         13   -1    0    0    0    0  0.00000000000E+00  0.00000000000E+00  0.74505805969E-08  0.10566000000E+00  0.10566000000E+00 0.  1.
     999900   -1    0    0    0    0 -0.00000000000E+00 -0.00000000000E+00 -0.74505805969E-08  0.93827000000E+00  0.93827000000E+00 0.  1.
     999902    2    1    2    0    0  0.20986880239E-01  0.72125964471E-02 -0.82905846829E-02  0.10202402452E+01  0.10199651726E+01 0.  0.
     999903    2    3    3    0    0 -0.12420499109E+00 -0.14139947265E-01 -0.20021663418E-01  0.12801032590E+00  0.18946203099E-01 0.  0.
         14    1    1    2    0    0 -0.20986880239E-01 -0.72125964471E-02  0.82905846829E-02  0.23689754834E-01  0.00000000000E+00 0. -1.
     999901    1    3    3    0    0  0.14519187133E+00  0.21352543712E-01  0.11731078735E-01  0.89222991926E+00  0.88000000000E+00 0.  1.
        -11    1    4    4    0    0 -0.72520983033E-01 -0.52710147746E-02 -0.26367314359E-02  0.72761872230E-01  0.51100000000E-03 0.  1.
         11    1    4    4    0    0 -0.51684008055E-01 -0.88689324900E-02 -0.17384931982E-01  0.55248453672E-01  0.51100000000E-03 0. -1.
</event>
<event>
 8    1  0.1146431E+005  0.1043930E+01  0.7957747E-01            NaN
         13   -1    0    0    0    0  0.00000000000E+00  0.00000000000E+00  0.74505805969E-08  0.10566000000E+00  0.10566000000E+00 0. -1.
     999900   -1    0    0    0    0 -0.00000000000E+00 -0.00000000000E+00 -0.74505805969E-08  0.93827000000E+00  0.93827000000E+00 0.  1.
     999902    2    1    2    0    0  0.11058115516E-01 -0.22124014472E-01 -0.97990240750E-02  0.10173259626E+01  0.10169780427E+01 0.  0.
     999903    2    3    3    0    0 -0.58615509810E-01 -0.10751522033E+00 -0.38595019463E-01  0.12998426882E+00  0.20273973957E-01 0.  0.
         14    1    1    2    0    0 -0.11058115516E-01  0.22124014472E-01  0.97990240750E-02  0.26604037437E-01  0.00000000000E+00 0.  1.
     999901    1    3    3    0    0  0.69673625325E-01  0.85391205860E-01  0.28795995388E-01  0.88734169374E+00  0.88000000000E+00 0.  1.
        -11    1    4    4    0    0 -0.37889883566E-01 -0.79917351074E-01 -0.35583866610E-01  0.95335717143E-01  0.51100000000E-03 0.  1.
         11    1    4    4    0    0 -0.20725626244E-01 -0.27597869258E-01 -0.30111528536E-02  0.34648551677E-01  0.51100000000E-03 0. -1.
</event>
<event>
 8    1  0.1146431E+005  0.1043930E+01  0.7957747E-01            NaN
         13   -1    0    0    0    0  0.00000000000E+00  0.00000000000E+00  0.74505805969E-08  0.10566000000E+00  0.10566000000E+00 0.  1.
     999900   -1    0    0    0    0 -0.00000000000E+00 -0.00000000000E+00 -0.74505805969E-08  0.93827000000E+00  0.93827000000E+00 0.  1.
     999902    2    1    2    0    0  0.16612968422E-01 -0.12466697017E-01  0.12542723549E-01  0.10196662582E+01  0.10193775301E+01 0.  0.
     999903    2    3    3    0    0 -0.17831986553E-01  0.10741553688E+00 -0.63504805425E-01  0.12762285585E+00  0.19966364606E-01 0.  0.
         14    1    1    2    0    0 -0.16612968422E-01  0.12466697017E-01 -0.12542723549E-01  0.24263741845E-01  0.00000000000E+00 0. -1.
     999901    1    3    3    0    0  0.34444954975E-01 -0.11988223390E+00  0.76047528973E-01  0.89204340230E+00  0.88000000000E+00 0. -1.
        -11    1    4    4    0    0 -0.92641650374E-02  0.93932454820E-01 -0.50708090475E-01  0.10714803957E+00  0.51100000000E-03 0. -1.
         11    1    4    4    0    0 -0.85678215154E-02  0.13483082064E-01 -0.12796714950E-01  0.20474816287E-01  0.51100000000E-03 0.  1.
</event>
<event>
 8    1  0.1146431E+005  0.1043930E+01  0.7957747E-01            NaN
         13   -1    0    0    0    0  0.00000000000E+00  0.00000000000E+00  0.74505805969E-08  0.10566000000E+00  0.10566000000E+00 0.  1.
     999900   -1    0    0    0    0 -0.00000000000E+00 -0.00000000000E+00 -0.74505805969E-08  0.93827000000E+00  0.93827000000E+00 0. -1.
     999902    2    1    2    0    0 -0.91068499269E-02  0.20134563350E-01  0.84658533050E-02  0.10202655535E+01  0.10199910753E+01 0.  0.
     999903    2    3    3    0    0 -0.28950282454E-02  0.11957568421E+00 -0.53279275714E-01  0.13249329428E+00  0.20225389132E-01 0.  0.
         14    1    1    2    0    0  0.91068499269E-02 -0.20134563350E-01 -0.84658533050E-02  0.23664446519E-01  0.00000000000E+00 0.  1.
     999901    1    3    3    0    0 -0.62118216816E-02 -0.99441120862E-01  0.61745129019E-01  0.88777225920E+00  0.88000000000E+00 0.  1.
        -11    1    4    4    0    0 -0.80639221496E-02  0.83110928028E-01 -0.29076829771E-01  0.88420452095E-01  0.51100000000E-03 0.  1.
         11    1    4    4    0    0  0.51688939042E-02  0.36464756184E-01 -0.24202445944E-01  0.44072842186E-01  0.51100000000E-03 0. -1.
</event>
<event>
 8    1  0.1146431E+005  0.1043930E+01  0.7957747E-01            NaN
         13   -1    0    0    0    0  0.00000000000E+00  0.00000000000E+00  0.74505805969E-08  0.10566000000E+00  0.10566000000E+00 0. -1.
     999900   -1    0    0    0    0 -0.00000000000E+00 -0.00000000000E+00 -0.74505805969E-08  0.93827000000E+00  0.93827000000E+00 0.  1.
     999902    2    1    2    0    0 -0.12904404857E-01  0.13235602563E-01 -0.12001545446E-01  0.10218904462E+01  0.10216527502E+01 0.  0.
     999903    2    3    3    0    0  0.11181304915E+00  0.60193759574E-01  0.25959842348E-01  0.13104782325E+00  0.19343523799E-01 0.  0.
         14    1    1    2    0    0  0.12904404857E-01 -0.13235602563E-01  0.12001545446E-01  0.22039553830E-01  0.00000000000E+00 0. -1.
     999901    1    3    3    0    0 -0.12471745401E+00 -0.46958157011E-01 -0.37961387794E-01  0.89084262292E+00  0.88000000000E+00 0.  1.
        -11    1    4    4    0    0  0.92041351018E-02  0.11587250686E-01  0.46935133221E-02  0.15532889935E-01  0.51100000000E-03 0. -1.
         11    1    4    4    0    0  0.10260891405E+00  0.48606508889E-01  0.21266329026E-01  0.11551493332E+00  0.51100000000E-03 0.  1.
</event>
<event>
 8    1  0.1146431E+005  0.1043930E+01  0.7957747E-01            NaN
         13   -1    0    0    0    0  0.00000000000E+00  0.00000000000E+00  0.74505805969E-08  0.10566000000E+00  0.10566000000E+00 0. -1.
     999900   -1    0    0    0    0 -0.00000000000E+00 -0.00000000000E+00 -0.74505805969E-08  0.93827000000E+00  0.93827000000E+00 0.  1.
     999902    2    1    2    0    0 -0.23723179320E-01 -0.62178964532E-03  0.40262191588E-02  0.10198595555E+01  0.10195754639E+01 0.  0.
     999903    2    3    3    0    0 -0.55275719607E-01  0.62108836699E-01 -0.99304850712E-01  0.13103561099E+00  0.19898874270E-01 0.  0.
         14    1    1    2    0    0  0.23723179320E-01  0.62178964532E-03 -0.40262191588E-02  0.24070444535E-01  0.00000000000E+00 0.  1.
     999901    1    3    3    0    0  0.31552540287E-01 -0.62730626344E-01  0.10333106987E+00  0.88882394448E+00  0.88000000000E+00 0. -1.
        -11    1    4    4    0    0 -0.28856632689E-01  0.34049953992E-01 -0.37995473658E-01  0.58617589140E-01  0.51100000000E-03 0.  1.
         11    1    4    4    0    0 -0.26419086917E-01  0.28058882706E-01 -0.61309377054E-01  0.72418021846E-01  0.51100000000E-03 0. -1.
</event>
<event>
 8    1  0.1146431E+005  0.1043930E+01  0.7957747E-01            NaN
         13   -1    0    0    0    0  0.00000000000E+00  0.00000000000E+00  0.74505805969E-08  0.10566000000E+00  0.10566000000E+00 0. -1.
     999900   -1    0    0    0    0 -0.00000000000E+00 -0.00000000000E+00 -0.74505805969E-08  0.93827000000E+00  0.93827000000E+00 0. -1.
     999902    2    1    2    0    0 -0.22260799033E-01  0.72123669205E-02 -0.53323087747E-02  0.10199301057E+01  0.10196476968E+01 0.  0.
     999903    2    3    3    0    0 -0.11210847269E+00  0.89832335201E-02  0.66542669851E-01  0.13243827306E+00  0.21516531456E-01 0.  0.
         14    1    1    2    0    0  0.22260799033E-01 -0.72123669205E-02  0.53323087747E-02  0.23999894313E-01  0.00000000000E+00 0. -1.
     999901    1    3    3    0    0  0.89847673659E-01 -0.17708665996E-02 -0.71874978625E-01  0.88749183263E+00  0.88000000000E+00 0. -1.
        -11    1    4    4    0    0 -0.80098426062E-01 -0.33877524469E-02  0.47561955749E-01  0.93218214314E-01  0.51100000000E-03 0.  1.
         11    1    4    4    0    0 -0.32010046630E-01  0.12370985967E-01  0.18980714102E-01  0.39220058744E-01  0.51100000000E-03 0. -1.
</event>
<event>
 8    1  0.1146431E+005  0.1043930E+01  0.7957747E-01            NaN
         13   -1    0    0    0    0  0.00000000000E+00  0.00000000000E+00  0.74505805969E-08  0.10566000000E+00  0.10566000000E+00 0. -1.
     999900   -1    0    0    0    0 -0.00000000000E+00 -0.00000000000E+00 -0.74505805969E-08  0.93827000000E+00  0.93827000000E+00 0. -1.
     999902    2    1    2    0    0 -0.23097239953E-01  0.72615957601E-02 -0.37476630881E-02  0.10194298317E+01  0.10191353804E+01 0.  0.
     999903    2    3    3    0    0 -0.79954112062E-01 -0.76643545877E-01 -0.67520731635E-01  0.13131960154E+00  0.20466934029E-01 0.  0.
         14    1    1    2    0    0  0.23097239953E-01 -0.72615957601E-02  0.37476630881E-02  0.24500168266E-01  0.00000000000E+00 0. -1.
     999901    1    3    3    0    0  0.56856872109E-01  0.83905141637E-01  0.63773068547E-01  0.88811023019E+00  0.88000000000E+00 0.  1.
        -11    1    4    4    0    0 -0.65747531751E-01 -0.59095298454E-01 -0.62270388163E-01  0.10813350357E+00  0.51100000000E-03 0.  1.
         11    1    4    4    0    0 -0.14206580310E-01 -0.17548247423E-01 -0.52503434718E-02  0.23186097975E-01  0.51100000000E-03 0. -1.
</event>
<event>
 8    1  0.1146431E+005  0.1043930E+01  0.7957747E-01            NaN
         13   -1    0    0    0    0  0.00000000000E+00  0.00000000000E+00  0.74505805969E-08  0.10566000000E+00  0.10566000000E+00 0.  1.
     999900   -1    0    0    0    0 -0.00000000000E+00 -0.00000000000E+00 -0.74505805969E-08  0.93827000000E+00  0.93827000000E+00 0.  1.
     999902    2    1    2    0    0 -0.17686554424E-01  0.12116013750E-01 -0.10242522220E-01  0.10201703439E+01  0.10198936265E+01 0.  0.
     999903    2    3    3    0    0 -0.87963194667E-01  0.96538724129E-01  0.14849045674E-01  0.13298626662E+00  0.20189207036E-01 0.  0.
         14    1    1    2    0    0  0.17686554424E-01 -0.12116013750E-01  0.10242522220E-01  0.23759656100E-01  0.00000000000E+00 0.  1.
     999901    1    3    3    0    0  0.70276640243E-01 -0.84422710379E-01 -0.25091567894E-01  0.88718407728E+00  0.88000000000E+00 0.  1.
        -11    1    4    4    0    0 -0.61614685871E-01  0.56361031499E-01  0.15501895074E-01  0.84932356959E-01  0.51100000000E-03 0. -1.
         11    1    4    4    0    0 -0.26348508796E-01  0.40177692630E-01 -0.65284940047E-03  0.48053909666E-01  0.51100000000E-03 0.  1.
</event>
<event>
 8    1  0.1146431E+005  0.1043930E+01  0.7957747E-01            NaN
         13   -1    0    0    0    0  0.00000000000E+00  0.00000000000E+00  0.74505805969E-08  0.10566000000E+00  0.10566000000E+00 0. -1.
     999900   -1    0    0    0    0 -0.00000000000E+00 -0.00000000000E+00 -0.74505805969E-08  0.93827000000E+00  0.93827000000E+00 0. -1.
     999902    2    1    2    0    0 -0.19147895937E-03  0.17061663629E-01  0.28005273554E-01  0.10111362144E+01  0.10106042804E+01 0.  0.
     999903    2    3    3    0    0  0.40059279845E-01 -0.66218319163E-01 -0.87769733495E-01  0.11874642767E+00  0.20188518352E-01 0.  0.
         14    1    1    2    0    0  0.19147895937E-03 -0.17061663629E-01 -0.28005273554E-01  0.32793785643E-01  0.00000000000E+00 0.  1.
     999901    1    3    3    0    0 -0.40250758805E-01  0.83279982792E-01  0.11577500705E+00  0.89238978668E+00  0.88000000000E+00 0.  1.
        -11    1    4    4    0    0  0.90042445525E-02 -0.32467897453E-01 -0.31248305378E-01  0.45956049602E-01  0.51100000000E-03 0.  1.
         11    1    4    4    0    0  0.31055035293E-01 -0.33750421709E-01 -0.56521428117E-01  0.72790378073E-01  0.51100000000E-03 0. -1.
</event>
<event>
 8    1  0.1146431E+005  0.1043930E+01  0.7957747E-01            NaN
         13   -1    0    0    0    0  0.00000000000E+00  0.00000000000E+00  0.74505805969E-08  0.10566000000E+00  0.10566000000E+00 0.  1.
     999900   -1    0    0    0    0 -0.00000000000E+00 -0.00000000000E+00 -0.74505805969E-08  0.93827000000E+00  0.93827000000E+00 0.  1.
     999902    2    1    2    0    0 -0.65768881774E-02 -0.63885685771E-02 -0.20559835827E-01  0.10214183116E+01  0.10211702067E+01 0.  0.
     999903    2    3    3    0    0 -0.10902570028E+00 -0.23547080306E-02  0.69226815994E-01  0.13092761877E+00  0.21390215812E-01 0.  0.
         14    1    1    2    0    0  0.65768881774E-02  0.63885685771E-02  0.20559835827E-01  0.22511688426E-01  0.00000000000E+00 0.  1.
     999901    1    3    3    0    0  0.10244881210E+00 -0.40338605465E-02 -0.89786651821E-01  0.89049069281E+00  0.88000000000E+00 0.  1.
        -11    1    4    4    0    0 -0.86408142043E-01  0.40518893988E-03  0.64038844139E-01  0.10755354884E+00  0.51100000000E-03 0. -1.
         11    1    4    4    0    0 -0.22617558234E-01 -0.27598969705E-02  0.51879718544E-02  0.23374069922E-01  0.51100000000E-03 0.  1.
</event>
<event>
 8    1  0.1146431E+005  0.1043930E+01  0.7957747E-01            NaN
         13   -1    0    0    0    0  0.00000000000E+00  0.00000000000E+00  0.74505805969E-08  0.10566000000E+00  0.10566000000E+00 0.  1.
     999900   -1    0    0    0    0 -0.00000000000E+00 -0.00000000000E+00 -0.74505805969E-08  0.93827000000E+00  0.93827000000E+00 0.  1.
     999902    2    1    2    0    0  0.15625630872E-01 -0.14744020910E-01 -0.12751785276E-01  0.10189469153E+01  0.10186405950E+01 0.  0.
     999903    2    3    3    0    0  0.19623372726E-01  0.98261606849E-01 -0.78914118517E-01  0.12924825386E+00  0.20910592717E-01 0.  0.
         14    1    1    2    0    0 -0.15625630872E-01  0.14744020910E-01  0.12751785276E-01  0.24983084687E-01  0.00000000000E+00 0.  1.
     999901    1    3    3    0    0 -0.39977418538E-02 -0.11300562776E+00  0.66162333241E-01  0.88969866145E+00  0.88000000000E+00 0.  1.
        -11    1    4    4    0    0  0.20429673144E-01  0.69844414625E-01 -0.65079432010E-01  0.97627902727E-01  0.51100000000E-03 0.  1.
         11    1    4    4    0    0 -0.80630041809E-03  0.28417192224E-01 -0.13834686506E-01  0.31620351136E-01  0.51100000000E-03 0. -1.
</event>
<event>
 8    1  0.1146431E+005  0.1043930E+01  0.7957747E-01            NaN
         13   -1    0    0    0    0  0.00000000000E+00  0.00000000000E+00  0.74505805969E-08  0.10566000000E+00  0.10566000000E+00 0. -1.
     999900   -1    0    0    0    0 -0.00000000000E+00 -0.00000000000E+00 -0.74505805969E-08  0.93827000000E+00  0.93827000000E+00 0.  1.
     999902    2    1    2    0    0 -0.13583131446E-01 -0.19652169916E-01 -0.19034789633E-02  0.10199647653E+01  0.10196831812E+01 0.  0.
     999903    2    3    3    0    0 -0.10138501586E+00  0.74261772062E-01 -0.27466502141E-01  0.13025556137E+00  0.20454102187E-01 0.  0.
         14    1    1    2    0    0  0.13583131446E-01  0.19652169916E-01  0.19034789633E-02  0.23965234705E-01  0.00000000000E+00 0.  1.
     999901    1    3    3    0    0  0.87801884413E-01 -0.93913941978E-01  0.25563023178E-01  0.88970920393E+00  0.88000000000E+00 0. -1.
        -11    1    4    4    0    0 -0.73157542640E-01  0.51190127642E-01 -0.10065148016E-01  0.89855570438E-01  0.51100000000E-03 0. -1.
         11    1    4    4    0    0 -0.28227473218E-01  0.23071644420E-01 -0.17401354125E-01  0.40399990927E-01  0.51100000000E-03 0.  1.
</event>
<event>
 8    1  0.1146431E+005  0.1043930E+01  0.7957747E-01            NaN
         13   -1    0    0    0    0  0.00000000000E+00  0.00000000000E+00  0.74505805969E-08  0.10566000000E+00  0.10566000000E+00 0. -1.
     999900   -1    0    0    0    0 -0.00000000000E+00 -0.00000000000E+00 -0.74505805969E-08  0.93827000000E+00  0.93827000000E+00 0.  1.
     999902    2    1    2    0    0  0.17029985090E-01 -0.30355623701E-02  0.16090744454E-01  0.10203048632E+01  0.10200313068E+01 0.  0.
     999903    2    3    3    0    0 -0.83941586004E-01  0.73799498497E-01  0.63116869090E-01  0.12996204096E+00  0.20342986175E-01 0.  0.
         14    1    1    2    0    0 -0.17029985090E-01  0.30355623701E-02 -0.16090744454E-01  0.23625136786E-01  0.00000000000E+00 0.  1.
     999901    1    3    3    0    0  0.10097157109E+00 -0.76835060867E-01 -0.47026124636E-01  0.89034282226E+00  0.88000000000E+00 0.  1.
        -11    1    4    4    0    0 -0.13254458009E-01  0.14508772951E-01  0.20267363034E-01  0.28234947760E-01  0.51100000000E-03 0. -1.
         11    1    4    4    0    0 -0.70687127995E-01  0.59290725546E-01  0.42849506056E-01  0.10172709320E+00  0.51100000000E-03 0.  1.
</event>
<event>
 8    1  0.1146431E+005  0.1043930E+01  0.7957747E-01            NaN
         13   -1    0    0    0    0  0.00000000000E+00  0.00000000000E+00  0.74505805969E-08  0.10566000000E+00  0.10566000000E+00 0. -1.
     999900   -1    0    0    0    0 -0.00000000000E+00 -0.00000000000E+00 -0.74505805969E-08  0.93827000000E+00  0.93827000000E+00 0.  1.
     999902    2    1    2    0    0 -0.10329891127E-01  0.22947312885E-02  0.21431379446E-01  0.10200286095E+01  0.10197485414E+01 0.  0.
     999903    2    3    3    0    0  0.14006988791E-01  0.11390607051E+00  0.59342870052E-01  0.13183569359E+00  0.26235190957E-01 0.  0.
         14    1    1    2    0    0  0.10329891127E-01 -0.22947312885E-02 -0.21431379446E-01  0.23901390489E-01  0.00000000000E+00 0.  1.
     999901    1    3    3    0    0 -0.24336879918E-01 -0.11161133922E+00 -0.37911490606E-01  0.88819291592E+00  0.88000000000E+00 0. -1.
        -11    1    4    4    0    0 -0.13209325275E-03  0.37878277248E-01  0.71848267404E-02  0.38557284554E-01  0.51100000000E-03 0. -1.
         11    1    4    4    0    0  0.14139082044E-01  0.76027793264E-01  0.52158043312E-01  0.93278409039E-01  0.51100000000E-03 0.  1.
</event>
<event>
 8    1  0.1146431E+005  0.1043930E+01  0.7957747E-01            NaN
         13   -1    0    0    0    0  0.00000000000E+00  0.00000000000E+00  0.74505805969E-08  0.10566000000E+00  0.10566000000E+00 0. -1.
     999900   -1    0    0    0    0 -0.00000000000E+00 -0.00000000000E+00 -0.74505805969E-08  0.93827000000E+00  0.93827000000E+00 0. -1.
     999902    2    1    2    0    0  0.16243234069E-01 -0.30287417216E-02 -0.17138399303E-01  0.10201236844E+01  0.10198458663E+01 0.  0.
     999903    2    3    3    0    0  0.74585050792E-01 -0.10354853826E+00 -0.26573359420E-01  0.13243172462E+00  0.23383512934E-01 0.  0.
         14    1    1    2    0    0 -0.16243234069E-01  0.30287417216E-02  0.17138399303E-01  0.23806315551E-01  0.00000000000E+00 0. -1.
     999901    1    3    3    0    0 -0.58341816723E-01  0.10051979654E+00  0.94349601170E-02  0.88769195983E+00  0.88000000000E+00 0.  1.
        -11    1    4    4    0    0  0.28896756937E-01 -0.53370631043E-01 -0.21458948950E-01  0.64375417905E-01  0.51100000000E-03 0.  1.
         11    1    4    4    0    0  0.45688293855E-01 -0.50177907218E-01 -0.51144104705E-02  0.68056306714E-01  0.51100000000E-03 0. -1.
</event>
<event>
 8    1  0.1146431E+005  0.1043930E+01  0.7957747E-01            NaN
         13   -1    0    0    0    0  0.00000000000E+00  0.00000000000E+00  0.74505805969E-08  0.10566000000E+00  0.10566000000E+00 0. -1.
     999900   -1    0    0    0    0 -0.00000000000E+00 -0.00000000000E+00 -0.74505805969E-08  0.93827000000E+00  0.93827000000E+00 0.  1.
     999902    2    1    2    0    0 -0.38070802908E-02  0.25534814051E-01  0.12969409213E-02  0.10180803841E+01  0.10177521632E+01 0.  0.
     999903    2    3    3    0    0  0.67818877600E-01 -0.96379205350E-01  0.39951103890E-01  0.12595514044E+00  0.19500136383E-01 0.  0.
         14    1    1    2    0    0  0.38070802908E-02 -0.25534814051E-01 -0.12969409213E-02  0.25849615949E-01  0.00000000000E+00 0.  1.
     999901    1    3    3    0    0 -0.71625957891E-01  0.12191401940E+00 -0.38654162969E-01  0.89212524361E+00  0.88000000000E+00 0.  1.
        -11    1    4    4    0    0  0.40745119098E-01 -0.58965177745E-01  0.14172479996E-01  0.73062830681E-01  0.51100000000E-03 0. -1.
         11    1    4    4    0    0  0.27073758502E-01 -0.37414027605E-01  0.25778623894E-01  0.52892309761E-01  0.51100000000E-03 0.  1.
</event>
<event>
 8    1  0.1146431E+005  0.1043930E+01  0.7957747E-01            NaN
         13   -1    0    0    0    0  0.00000000000E+00  0.00000000000E+00  0.74505805969E-08  0.10566000000E+00  0.10566000000E+00 0.  1.
     999900   -1    0    0    0    0 -0.00000000000E+00 -0.00000000000E+00 -0.74505805969E-08  0.93827000000E+00  0.93827000000E+00 0. -1.
     999902    2    1    2    0    0  0.54970461474E-02  0.33130871577E-02 -0.22113865183E-01  0.10209035566E+01  0.10206438432E+01 0.  0.
     999903    2    3    3    0    0 -0.98386256431E-01 -0.67363047003E-03  0.80720082948E-01  0.12883716032E+00  0.20074183779E-01 0.  0.
         14    1    1    2    0    0 -0.54970461474E-02 -0.33130871577E-02  0.22113865183E-01  0.23026443411E-01  0.00000000000E+00 0.  1.
     999901    1    3    3    0    0  0.10388330258E+00  0.39867176277E-02 -0.10283394813E+00  0.89206639627E+00  0.88000000000E+00 0. -1.
        -11    1    4    4    0    0 -0.66827090897E-01 -0.64209793000E-02  0.63572457850E-01  0.92459761902E-01  0.51100000000E-03 0.  1.
         11    1    4    4    0    0 -0.31559165534E-01  0.57473488299E-02  0.17147625098E-01  0.36377398413E-01  0.51100000000E-03 0. -1.
</event>
<event>
 8    1  0.1146431E+005  0.1043930E+01  0.7957747E-01            NaN
         13   -1    0    0    0    0  0.00000000000E+00  0.00000000000E+00  0.74505805969E-08  0.10566000000E+00  0.10566000000E+00 0.  1.
     999900   -1    0    0    0    0 -0.00000000000E+00 -0.00000000000E+00 -0.74505805969E-08  0.93827000000E+00  0.93827000000E+00 0. -1.
     999902    2    1    2    0    0 -0.23947573989E-02  0.23908833512E-01 -0.53682062280E-02  0.10193091791E+01  0.10190117849E+01 0.  0.
     999903    2    3    3    0    0  0.62676472966E-01  0.90296409281E-01 -0.70353659843E-01  0.13202980687E+00  0.20011263214E-01 0.  0.
         14    1    1    2    0    0  0.23947573989E-02 -0.23908833512E-01  0.53682062280E-02  0.24620820884E-01  0.00000000000E+00 0.  1.
     999901    1    3    3    0    0 -0.65071230364E-01 -0.66387575769E-01  0.64985453615E-01  0.88727937225E+00  0.88000000000E+00 0.  1.
        -11    1    4    4    0    0  0.36378868627E-01  0.68429807615E-01 -0.47696722506E-01  0.91001643456E-01  0.51100000000E-03 0.  1.
         11    1    4    4    0    0  0.26297604339E-01  0.21866601666E-01 -0.22656937336E-01  0.41028163410E-01  0.51100000000E-03 0. -1.
</event>
<event>
 8    1  0.1146431E+005  0.1043930E+01  0.7957747E-01            NaN
         13   -1    0    0    0    0  0.00000000000E+00  0.00000000000E+00  0.74505805969E-08  0.10566000000E+00  0.10566000000E+00 0. -1.
     999900   -1    0    0    0    0 -0.00000000000E+00 -0.00000000000E+00 -0.74505805969E-08  0.93827000000E+00  0.93827000000E+00 0. -1.
     999902    2    1    2    0    0  0.38663680298E-03  0.22256672834E-01 -0.76616136113E-02  0.10203883497E+01  0.10201167458E+01 0.  0.
     999903    2    3    3    0    0 -0.38862170265E-01 -0.11965062296E+00  0.11624438886E-01  0.12794781880E+00  0.20223177360E-01 0.  0.
         14    1    1    2    0    0 -0.38663680298E-03 -0.22256672834E-01  0.76616136113E-02  0.23541650256E-01  0.00000000000E+00 0. -1.
     999901    1    3    3    0    0  0.39248807068E-01  0.14190729580E+00 -0.19286052497E-01  0.89244053095E+00  0.88000000000E+00 0. -1.
        -11    1    4    4    0    0 -0.36388885380E-01 -0.83541022927E-01  0.10570456084E-01  0.91734667131E-01  0.51100000000E-03 0. -1.
         11    1    4    4    0    0 -0.24732848859E-02 -0.36109600035E-01  0.10539828019E-02  0.36213151666E-01  0.51100000000E-03 0.  1.
</event>
<event>
 8    1  0.1146431E+005  0.1043930E+01  0.7957747E-01            NaN
         13   -1    0    0    0    0  0.00000000000E+00  0.00000000000E+00  0.74505805969E-08  0.10566000000E+00  0.10566000000E+00 0. -1.
     999900   -1    0    0    0    0 -0.00000000000E+00 -0.00000000000E+00 -0.74505805969E-08  0.93827000000E+00  0.93827000000E+00 0.  1.
     999902    2    1    2    0    0 -0.94252282489E-02  0.68485314329E-02  0.20891722144E-01  0.10200092691E+01  0.10197287423E+01 0.  0.
     999903    2    3    3    0    0  0.11221884668E+00 -0.30361065448E-01  0.55190579889E-01  0.13020128609E+00  0.19786635582E-01 0.  0.
         14    1    1    2    0    0  0.94252282489E-02 -0.68485314329E-02 -0.20891722144E-01  0.23920730852E-01  0.00000000000E+00 0.  1.
     999901    1    3    3    0    0 -0.12164407492E+00  0.37209596880E-01 -0.34298857745E-01  0.88980798305E+00  0.88000000000E+00 0.  1.
        -11    1    4    4    0    0  0.10699224132E+00 -0.33101984135E-01  0.52663325058E-01  0.12376093077E+00  0.51100000000E-03 0. -1.
         11    1    4    4    0    0  0.52266053537E-02  0.27409186874E-02  0.25272548309E-02  0.64403553282E-02  0.51100000000E-03 0.  1.
</event>
<event>
 8    1  0.1146431E+005  0.1043930E+01  0.7957747E-01            NaN
         13   -1    0    0    0    0  0.00000000000E+00  0.00000000000E+00  0.74505805969E-08  0.10566000000E+00  0.10566000000E+00 0.  1.
     999900   -1    0    0    0    0 -0.00000000000E+00 -0.00000000000E+00 -0.74505805969E-08  0.93827000000E+00  0.93827000000E+00 0.  1.
     999902    2    1    2    0    0 -0.40093145440E-02  0.11683056657E-01  0.20880861048E-01  0.10196693575E+01  0.10193807041E+01 0.  0.
     999903    2    3    3    0    0  0.11872446699E+00 -0.31371898284E-01  0.37415793976E-01  0.12995551909E+00  0.20218809051E-01 0.  0.
         14    1    1    2    0    0  0.40093145440E-02 -0.11683056657E-01 -0.20880861048E-01  0.24260642490E-01  0.00000000000E+00 0. -1.
     999901    1    3    3    0    0 -0.12273378153E+00  0.43054954941E-01 -0.16534932929E-01  0.88971383842E+00  0.88000000000E+00 0.  1.
        -11    1    4    4    0    0  0.93476078717E-01 -0.20212944016E-01  0.36390754310E-01  0.10232735958E+00  0.51100000000E-03 0.  1.
         11    1    4    4    0    0  0.25248388268E-01 -0.11158954268E-01  0.10250396665E-02  0.27628159508E-01  0.51100000000E-03 0. -1.
</event>
<event>
 8    1  0.1146431E+005  0.1043930E+01  0.7957747E-01            NaN
         13   -1    0    0    0    0  0.00000000000E+00  0.00000000000E+00  0.74505805969E-08  0.10566000000E+00  0.10566000000E+00 0. -1.
     999900   -1    0    0    0    0 -0.00000000000E+00 -0.00000000000E+00 -0.74505805969E-08  0.93827000000E+00  0.93827000000E+00 0. -1.
     999902    2    1    2    0    0 -0.13157760990E-01  0.75529181461E-03  0.22196079084E-01  0.10181159909E+01  0.10177886853E+01 0.  0.
     999903    2    3    3    0    0  0.11518884014E+00 -0.49631450562E-01 -0.35584965311E-02  0.12700714681E+00  0.19657127571E-01 0.  0.
         14    1    1    2    0    0  0.13157760990E-01 -0.75529181461E-03 -0.22196079084E-01  0.25814009117E-01  0.00000000000E+00 0. -1.
     999901    1    3    3    0    0 -0.12834660113E+00  0.50386742377E-01  0.25754575615E-01  0.89110884408E+00  0.88000000000E+00 0. -1.
        -11    1    4    4    0    0  0.34860293551E-01 -0.19014204469E-01 -0.95080764221E-02  0.40834356567E-01  0.51100000000E-03 0.  1.
         11    1    4    4    0    0  0.80328546589E-01 -0.30617246093E-01  0.59495798910E-02  0.86172790238E-01  0.51100000000E-03 0. -1.
</event>
<event>
 8    1  0.1146431E+005  0.1043930E+01  0.7957747E-01            NaN
         13   -1    0    0    0    0  0.00000000000E+00  0.00000000000E+00  0.74505805969E-08  0.10566000000E+00  0.10566000000E+00 0. -1.
     999900   -1    0    0    0    0 -0.00000000000E+00 -0.00000000000E+00 -0.74505805969E-08  0.93827000000E+00  0.93827000000E+00 0.  1.
     999902    2    1    2    0    0  0.11958438365E-01 -0.12961079005E-01 -0.15148185027E-01  0.10206821759E+01  0.10204173866E+01 0.  0.
     999903    2    3    3    0    0 -0.12646905935E+00 -0.18336561461E-01 -0.11522998331E-01  0.12983751494E+00  0.19858205773E-01 0.  0.
         14    1    1    2    0    0 -0.11958438365E-01  0.12961079005E-01  0.15148185027E-01  0.23247824129E-01  0.00000000000E+00 0.  1.
     999901    1    3    3    0    0  0.13842749771E+00  0.53754824559E-02 -0.36251866957E-02  0.89084466093E+00  0.88000000000E+00 0.  1.
        -11    1    4    4    0    0 -0.88300822162E-01 -0.20000129806E-01 -0.24743224121E-02  0.90572754067E-01  0.51100000000E-03 0. -1.
         11    1    4    4    0    0 -0.38168237184E-01  0.16635683457E-02 -0.90486759192E-02  0.39264760871E-01  0.51100000000E-03 0.  1.
</event>
<event>
 8    1  0.1146431E+005  0.1043930E+01  0.7957747E-01            NaN
         13   -1    0    0    0    0  0.00000000000E+00  0.00000000000E+00  0.74505805969E-08  0.10566000000E+00  0.10566000000E+00 0. -1.
     999900   -1    0    0    0    0 -0.00000000000E+00 -0.00000000000E+00 -0.74505805969E-08  0.93827000000E+00  0.93827000000E+00 0. -1.
     999902    2    1    2    0    0 -0.16394134609E-01 -0.99363325372E-02 -0.13738339678E-01  0.10203452522E+01  0.10200726412E+01 0.  0.
     999903    2    3    3    0    0 -0.12246271422E+00  0.28079635558E-01 -0.37146144195E-01  0.13285233234E+00  0.22007359520E-01 0.  0.
         14    1    1    2    0    0  0.16394134609E-01  0.99363325372E-02  0.13738339678E-01  0.23584747847E-01  0.00000000000E+00 0.  1.
     999901    1    3    3    0    0  0.10606857961E+00 -0.38015968095E-01  0.23407804517E-01  0.88749291982E+00  0.88000000000E+00 0.  1.
        -11    1    4    4    0    0 -0.21326661856E-01  0.28743701424E-02  0.17590269915E-02  0.21597310171E-01  0.51100000000E-03 0.  1.
         11    1    4    4    0    0 -0.10113605236E+00  0.25205265415E-01 -0.38905171186E-01  0.11125502217E+00  0.51100000000E-03 0. -1.
</event>
<event>
 8    1  0.1146431E+005  0.1043930E+01  0.7957747E-01            NaN
         13   -1    0    0    0    0  0.00000000000E+00  0.00000000000E+00  0.74505805969E-08  0.10566000000E+00  0.10566000000E+00 0. -1.
     999900   -1    0    0    0    0 -0.00000000000E+00 -0.00000000000E+00 -0.74505805969E-08  0.93827000000E+00  0.93827000000E+00 0.  1.
     999902    2    1    2    0    0  0.20498068845E-01  0.62974641738E-02  0.10319946572E-01  0.10201323073E+01  0.10198546927E+01 0.  0.
     999903    2    3    3    0    0 -0.73662393368E-01 -0.92825495230E-01 -0.43883022115E-01  0.12792744542E+00  0.19924630466E-01 0.  0.
         14    1    1    2    0    0 -0.20498068845E-01 -0.62974641738E-02 -0.10319946572E-01  0.23797692717E-01  0.00000000000E+00 0.  1.
     999901    1    3    3    0    0  0.94160462213E-01  0.99122959404E-01  0.54202968688E-01  0.89220486187E+00  0.88000000000E+00 0. -1.
        -11    1    4    4    0    0 -0.26126520142E-01 -0.48501402078E-01 -0.17870275925E-01  0.57918813360E-01  0.51100000000E-03 0. -1.
         11    1    4    4    0    0 -0.47535873225E-01 -0.44324093152E-01 -0.26012746190E-01  0.70008632056E-01  0.51100000000E-03 0.  1.
</event>
<event>
 8    1  0.1146431E+005  0.1043930E+01  0.7957747E-01            NaN
         13   -1    0    0    0    0  0.00000000000E+00  0.00000000000E+00  0.74505805969E-08  0.10566000000E+00  0.10566000000E+00 0.  1.
     999900   -1    0    0    0    0 -0.00000000000E+00 -0.00000000000E+00 -0.74505805969E-08  0.93827000000E+00  0.93827000000E+00 0.  1.
     999902    2    1    2    0    0  0.14167353911E-01 -0.12887917623E-01  0.13059325212E-01  0.10207490097E+01  0.10204857581E+01 0.  0.
     999903    2    3    3    0    0 -0.12570822956E-01 -0.11297544659E+00 -0.62429512467E-01  0.13146221220E+00  0.21526543763E-01 0.  0.
         14    1    1    2    0    0 -0.14167353911E-01  0.12887917623E-01 -0.13059325212E-01  0.23180990325E-01  0.00000000000E+00 0. -1.
     999901    1    3    3    0    0  0.26738176867E-01  0.10008752897E+00  0.75488837679E-01  0.88928679748E+00  0.88000000000E+00 0. -1.
        -11    1    4    4    0    0  0.42603742205E-02 -0.86561767405E-02 -0.82916043955E-02  0.12731535992E-01  0.51100000000E-03 0. -1.
         11    1    4    4    0    0 -0.16831197177E-01 -0.10431926985E+00 -0.54137908072E-01  0.11873067620E+00  0.51100000000E-03 0.  1.
</event>
<event>
 8    1  0.1146431E+005  0.1043930E+01  0.7957747E-01            NaN
         13   -1    0    0    0    0  0.00000000000E+00  0.00000000000E+00  0.74505805969E-08  0.10566000000E+00  0.10566000000E+00 0.  1.
     999900   -1    0    0    0    0 -0.00000000000E+00 -0.00000000000E+00 -0.74505805969E-08  0.93827000000E+00  0.93827000000E+00 0.  1.
     999902    2    1    2    0    0  0.22087673083E-02 -0.35602426111E-02 -0.22088511454E-01  0.10214476443E+01  0.10212001928E+01 0.  0.
     999903    2    3    3    0    0  0.29939278221E-01  0.12365770536E+00 -0.28015787890E-01  0.13184744187E+00  0.20279918162E-01 0.  0.
         14    1    1    2    0    0 -0.22087673083E-02  0.35602426111E-02  0.22088511454E-01  0.22482355720E-01  0.00000000000E+00 0.  1.
     999901    1    3    3    0    0 -0.27730510913E-01 -0.12721794797E+00  0.59272764366E-02  0.88960020241E+00  0.88000000000E+00 0.  1.
        -11    1    4    4    0    0  0.13573890680E-01  0.39561823296E-01 -0.18183211186E-01  0.45610071922E-01  0.51100000000E-03 0. -1.
         11    1    4    4    0    0  0.16365387542E-01  0.84095882066E-01 -0.98325767041E-02  0.86237369948E-01  0.51100000000E-03 0.  1.
</event>
<event>
 8    1  0.1146431E+005  0.1043930E+01  0.7957747E-01            NaN
         13   -1    0    0    0    0  0.00000000000E+00  0.00000000000E+00  0.74505805969E-08  0.10566000000E+00  0.10566000000E+00 0. -1.
     999900   -1    0    0    0    0 -0.00000000000E+00 -0.00000000000E+00 -0.74505805969E-08  0.93827000000E+00  0.93827000000E+00 0.  1.
     999902    2    1    2    0    0  0.14085702077E-01  0.15627535748E-01 -0.10475398641E-01  0.10204276415E+01  0.10201569540E+01 0.  0.
     999903    2    3    3    0    0 -0.58447084351E-01  0.93885276622E-01  0.66554498899E-01  0.13064177728E+00  0.20180827839E-01 0.  0.
         14    1    1    2    0    0 -0.14085702077E-01 -0.15627535748E-01  0.10475398641E-01  0.23502358462E-01  0.00000000000E+00 0. -1.
     999901    1    3    3    0    0  0.72532786429E-01 -0.78257740874E-01 -0.77029897541E-01  0.88978586426E+00  0.88000000000E+00 0.  1.
        -11    1    4    4    0    0 -0.35125206518E-01  0.68072314979E-01  0.37376270701E-01  0.85234188751E-01  0.51100000000E-03 0. -1.
         11    1    4    4    0    0 -0.23321877833E-01  0.25812961643E-01  0.29178228198E-01  0.45407588532E-01  0.51100000000E-03 0.  1.
</event>
<event>
 8    1  0.1146431E+005  0.1043930E+01  0.7957747E-01            NaN
         13   -1    0    0    0    0  0.00000000000E+00  0.00000000000E+00  0.74505805969E-08  0.10566000000E+00  0.10566000000E+00 0. -1.
     999900   -1    0    0    0    0 -0.00000000000E+00 -0.00000000000E+00 -0.74505805969E-08  0.93827000000E+00  0.93827000000E+00 0.  1.
     999902    2    1    2    0    0  0.70263889286E-02  0.18068311220E-01  0.12091663910E-01  0.10210817539E+01  0.10208260899E+01 0.  0.
     999903    2    3    3    0    0  0.10733683432E+00 -0.24331562116E-01  0.70868026688E-01  0.13242287927E+00  0.20008019177E-01 0.  0.
         14    1    1    2    0    0 -0.70263889286E-02 -0.18068311220E-01 -0.12091663910E-01  0.22848246056E-01  0.00000000000E+00 0.  1.
     999901    1    3    3    0    0 -0.10031044539E+00  0.42399873336E-01 -0.58776362778E-01  0.88865887467E+00  0.88000000000E+00 0.  1.
        -11    1    4    4    0    0  0.55419296502E-01 -0.64796447775E-02  0.26198925590E-01  0.61643564500E-01  0.51100000000E-03 0. -1.
         11    1    4    4    0    0  0.51917537816E-01 -0.17851917338E-01  0.44669101098E-01  0.70779314771E-01  0.51100000000E-03 0.  1.
</event>
<event>
 8    1  0.1146431E+005  0.1043930E+01  0.7957747E-01            NaN
         13   -1    0    0    0    0  0.00000000000E+00  0.00000000000E+00  0.74505805969E-08  0.10566000000E+00  0.10566000000E+00 0.  1.
     999900   -1    0    0    0    0 -0.00000000000E+00 -0.00000000000E+00 -0.74505805969E-08  0.93827000000E+00  0.93827000000E+00 0. -1.
     999902    2    1    2    0    0  0.23133213509E-01 -0.68752977320E-03 -0.43926649101E-02  0.10203733922E+01  0.10201014390E+01 0.  0.
     999903    2    3    3    0    0  0.12406642173E+00  0.13333461965E-02  0.44951438224E-01  0.13322828743E+00  0.18299998928E-01 0.  0.
         14    1    1    2    0    0 -0.23133213509E-01  0.68752977320E-03  0.43926649101E-02  0.23556607766E-01  0.00000000000E+00 0.  1.
     999901    1    3    3    0    0 -0.10093320822E+00 -0.20208759697E-02 -0.49344103134E-01  0.88714510480E+00  0.88000000000E+00 0. -1.
        -11    1    4    4    0    0  0.69740658884E-01  0.19680492239E-02  0.15670102656E-01  0.71508362850E-01  0.51100000000E-03 0.  1.
         11    1    4    4    0    0  0.54325762845E-01 -0.63470302736E-03  0.29281335567E-01  0.61719924581E-01  0.51100000000E-03 0. -1.
</event>
<event>
 8    1  0.1146431E+005  0.1043930E+01  0.7957747E-01            NaN
         13   -1    0    0    0    0  0.00000000000E+00  0.00000000000E+00  0.74505805969E-08  0.10566000000E+00  0.10566000000E+00 0. -1.
     999900   -1    0    0    0    0 -0.00000000000E+00 -0.00000000000E+00 -0.74505805969E-08  0.93827000000E+00  0.93827000000E+00 0.  1.
     999902    2    1    2    0    0  0.22660264865E-01 -0.10472153256E-02 -0.78186451850E-02  0.10199359283E+01  0.10196536581E+01 0.  0.
     999903    2    3    3    0    0  0.11833722013E-01 -0.11362408835E+00 -0.61116094440E-01  0.13109883161E+00  0.20031380911E-01 0.  0.
         14    1    1    2    0    0 -0.22660264865E-01  0.10472153256E-02  0.78186451850E-02  0.23994071689E-01  0.00000000000E+00 0. -1.
     999901    1    3    3    0    0  0.10826542851E-01  0.11257687302E+00  0.53297449255E-01  0.88883709670E+00  0.88000000000E+00 0.  1.
        -11    1    4    4    0    0 -0.21312401949E-02 -0.49760780683E-01 -0.34092988150E-01  0.60359509946E-01  0.51100000000E-03 0. -1.
         11    1    4    4    0    0  0.13964962208E-01 -0.63863307665E-01 -0.27023106290E-01  0.70739321667E-01  0.51100000000E-03 0.  1.
</event>
<event>
 8    1  0.1146431E+005  0.1043930E+01  0.7957747E-01            NaN
         13   -1    0    0    0    0  0.00000000000E+00  0.00000000000E+00  0.74505805969E-08  0.10566000000E+00  0.10566000000E+00 0.  1.
     999900   -1    0    0    0    0 -0.00000000000E+00 -0.00000000000E+00 -0.74505805969E-08  0.93827000000E+00  0.93827000000E+00 0.  1.
     999902    2    1    2    0    0 -0.83020038312E-02 -0.12292184092E-01 -0.19146841929E-01  0.10197097066E+01  0.10194220240E+01 0.  0.
     999903    2    3    3    0    0 -0.21901749485E-01  0.69480364325E-02  0.12412493562E+00  0.12781176320E+00  0.20022121023E-01 0.  0.
         14    1    1    2    0    0  0.83020038312E-02  0.12292184092E-01  0.19146841929E-01  0.24220293417E-01  0.00000000000E+00 0.  1.
     999901    1    3    3    0    0  0.13599745654E-01 -0.19240220525E-01 -0.14327177754E+00  0.89189794338E+00  0.88000000000E+00 0.  1.
        -11    1    4    4    0    0 -0.15258700715E-01  0.13631442495E-01  0.72606947443E-01  0.75436556854E-01  0.51100000000E-03 0. -1.
         11    1    4    4    0    0 -0.66430487699E-02 -0.66834060626E-02  0.51517988173E-01  0.52375206347E-01  0.51100000000E-03 0.  1.
</event>
<event>
 8    1  0.1146431E+005  0.1043930E+01  0.7957747E-01            NaN
         13   -1    0    0    0    0  0.00000000000E+00  0.00000000000E+00  0.74505805969E-08  0.10566000000E+00  0.10566000000E+00 0. -1.
     999900   -1    0    0    0    0 -0.00000000000E+00 -0.00000000000E+00 -0.74505805969E-08  0.93827000000E+00  0.93827000000E+00 0. -1.
     999902    2    1    2    0    0  0.27477642411E-02  0.18513281242E-01  0.12876015824E-01  0.10212125271E+01  0.10209598141E+01 0.  0.
     999903    2    3    3    0    0  0.10231229661E+00 -0.12731560930E-01 -0.77436788356E-01  0.13045681489E+00  0.19814784339E-01 0.  0.
         14    1    1    2    0    0 -0.27477642411E-02 -0.18513281242E-01 -0.12876015824E-01  0.22717472883E-01  0.00000000000E+00 0.  1.
     999901    1    3    3    0    0 -0.99564532371E-01  0.31244842172E-01  0.90312804180E-01  0.89075571223E+00  0.88000000000E+00 0. -1.
        -11    1    4    4    0    0  0.46571690903E-01 -0.12811872347E-01 -0.27309476210E-01  0.55489954753E-01  0.51100000000E-03 0. -1.
         11    1    4    4    0    0  0.55740605709E-01  0.80311417219E-04 -0.50127312146E-01  0.74966860136E-01  0.51100000000E-03 0.  1.
</event>
<event>
 8    1  0.1146431E+005  0.1043930E+01  0.7957747E-01            NaN
         13   -1    0    0    0    0  0.00000000000E+00  0.00000000000E+00  0.74505805969E-08  0.10566000000E+00  0.10566000000E+00 0. -1.
     999900   -1    0    0    0    0 -0.00000000000E+00 -0.00000000000E+00 -0.74505805969E-08  0.93827000000E+00  0.93827000000E+00 0. -1.
     999902    2    1    2    0    0  0.19401853803E-02 -0.19392308718E-01 -0.12927288001E-01  0.10205432360E+01  0.10202752353E+01 0.  0.
     999903    2    3    3    0    0  0.10262599861E+00 -0.17438923177E-01  0.74956806108E-01  0.13045050895E+00  0.23719208899E-01 0.  0.
         14    1    1    2    0    0 -0.19401853803E-02  0.19392308718E-01  0.12927288001E-01  0.23386764030E-01  0.00000000000E+00 0. -1.
     999901    1    3    3    0    0 -0.10068581323E+00 -0.19533855414E-02 -0.87884094110E-01  0.89009272702E+00  0.88000000000E+00 0. -1.
        -11    1    4    4    0    0  0.26616779570E-01 -0.13808248852E-01  0.14776619138E-01  0.33432473513E-01  0.51100000000E-03 0.  1.
         11    1    4    4    0    0  0.76009219039E-01 -0.36306743248E-02  0.60180186970E-01  0.97018035435E-01  0.51100000000E-03 0. -1.
</event>
<event>
 8    1  0.1146431E+005  0.1043930E+01  0.7957747E-01            NaN
         13   -1    0    0    0    0  0.00000000000E+00  0.00000000000E+00  0.74505805969E-08  0.10566000000E+00  0.10566000000E+00 0.  1.
     999900   -1    0    0    0    0 -0.00000000000E+00 -0.00000000000E+00 -0.74505805969E-08  0.93827000000E+00  0.93827000000E+00 0.  1.
     999902    2    1    2    0    0  0.10760181288E-01  0.13187661140E-01  0.15833414604E-01  0.10206836470E+01  0.10204188916E+01 0.  0.
     999903    2    3    3    0    0  0.87976784663E-01  0.80446119972E-01  0.57305741336E-01  0.13377550185E+00  0.20011098121E-01 0.  0.
         14    1    1    2    0    0 -0.10760181288E-01 -0.13187661140E-01 -0.15833414604E-01  0.23246352955E-01  0.00000000000E+00 0. -1.
     999901    1    3    3    0    0 -0.77216603376E-01 -0.67258458832E-01 -0.41472326732E-01  0.88690814519E+00  0.88000000000E+00 0.  1.
        -11    1    4    4    0    0  0.55603239679E-01  0.62859369840E-01  0.37175139886E-01  0.91789284701E-01  0.51100000000E-03 0. -1.
         11    1    4    4    0    0  0.32373544985E-01  0.17586750133E-01  0.20130601449E-01  0.41986217153E-01  0.51100000000E-03 0.  1.
</event>
<event>
 8    1  0.1146431E+005  0.1043930E+01  0.7957747E-01            NaN
         13   -1    0    0    0    0  0.00000000000E+00  0.00000000000E+00  0.74505805969E-08  0.10566000000E+00  0.10566000000E+00 0. -1.
     999900   -1    0    0    0    0 -0.00000000000E+00 -0.00000000000E+00 -0.74505805969E-08  0.93827000000E+00  0.93827000000E+00 0. -1.
     999902    2    1    2    0    0 -0.12796420759E-01 -0.16579183065E-01 -0.67748934317E-02  0.10219182559E+01  0.10216811660E+01 0.  0.
     999903    2    3    3    0    0  0.12569259907E+00 -0.27428737827E-01 -0.12736053854E-01  0.13100161737E+00  0.21171952385E-01 0.  0.
         14    1    1    2    0    0  0.12796420759E-01  0.16579183065E-01  0.67748934317E-02  0.22011744055E-01  0.00000000000E+00 0.  1.
     999901    1    3    3    0    0 -0.13848901983E+00  0.10849554763E-01  0.59611604221E-02  0.89091663857E+00  0.88000000000E+00 0.  1.
        -11    1    4    4    0    0  0.95496143367E-01 -0.28956712643E-01 -0.13815734054E-01  0.10074294136E+00  0.51100000000E-03 0. -1.
         11    1    4    4    0    0  0.30196455698E-01  0.15279748162E-02  0.10796802005E-02  0.30258676014E-01  0.51100000000E-03 0.  1.
</event>
<event>
 8    1  0.1146431E+005  0.1043930E+01  0.7957747E-01            NaN
         13   -1    0    0    0    0  0.00000000000E+00  0.00000000000E+00  0.74505805969E-08  0.10566000000E+00  0.10566000000E+00 0. -1.
     999900   -1    0    0    0    0 -0.00000000000E+00 -0.00000000000E+00 -0.74505805969E-08  0.93827000000E+00  0.93827000000E+00 0.  1.
     999902    2    1    2    0    0 -0.19233947551E-01 -0.10376216213E-01  0.62672871675E-02  0.10211947962E+01  0.10209416841E+01 0.  0.
     999903    2    3    3    0    0 -0.69347649654E-01 -0.51631016814E-01 -0.98457729737E-01  0.13261127689E+00  0.20419789492E-01 0.  0.
         14    1    1    2    0    0  0.19233947551E-01  0.10376216213E-01 -0.62672871675E-02  0.22735203754E-01  0.00000000000E+00 0. -1.
     999901    1    3    3    0    0  0.50113702104E-01  0.41254800601E-01  0.10472501690E+00  0.88858351936E+00  0.88000000000E+00 0. -1.
        -11    1    4    4    0    0 -0.34588409997E-01 -0.34419097241E-01 -0.65696185789E-01  0.81836925096E-01  0.51100000000E-03 0. -1.
         11    1    4    4    0    0 -0.34759239657E-01 -0.17211919573E-01 -0.32761543948E-01  0.50774351791E-01  0.51100000000E-03 0.  1.
</event>
<event>
 8    1  0.1146431E+005  0.1043930E+01  0.7957747E-01            NaN
         13   -1    0    0    0    0  0.00000000000E+00  0.00000000000E+00  0.74505805969E-08  0.10566000000E+00  0.10566000000E+00 0.  1.
     999900   -1    0    0    0    0 -0.00000000000E+00 -0.00000000000E+00 -0.74505805969E-08  0.93827000000E+00  0.93827000000E+00 0. -1.
     999902    2    1    2    0    0  0.63868793492E-02 -0.15666287965E-01 -0.16017829510E-01  0.10206320244E+01  0.10203660782E+01 0.  0.
     999903    2    3    3    0    0 -0.56315464807E-01 -0.10819698839E+00 -0.48677092561E-01  0.13296083415E+00  0.20763048976E-01 0.  0.
         14    1    1    2    0    0 -0.63868793492E-02  0.15666287965E-01  0.16017829510E-01  0.23297975634E-01  0.00000000000E+00 0.  1.
     999901    1    3    3    0    0  0.62702344156E-01  0.92530700428E-01  0.32659263051E-01  0.88767119022E+00  0.88000000000E+00 0.  1.
        -11    1    4    4    0    0 -0.24956732669E-01 -0.58231536154E-01 -0.35085285103E-01  0.72422293944E-01  0.51100000000E-03 0. -1.
         11    1    4    4    0    0 -0.31358732138E-01 -0.49965452240E-01 -0.13591807458E-01  0.60538540202E-01  0.51100000000E-03 0.  1.
</event>
<event>
 8    1  0.1146431E+005  0.1043930E+01  0.7957747E-01            NaN
         13   -1    0    0    0    0  0.00000000000E+00  0.00000000000E+00  0.74505805969E-08  0.10566000000E+00  0.10566000000E+00 0. -1.
     999900   -1    0    0    0    0 -0.00000000000E+00 -0.00000000000E+00 -0.74505805969E-08  0.93827000000E+00  0.93827000000E+00 0. -1.
     999902    2    1    2    0    0  0.14684877102E-01 -0.11783284386E-01 -0.15439039535E-01  0.10195813789E+01  0.10192906028E+01 0.  0.
     999903    2    3    3    0    0  0.12215783686E+00  0.38408515662E-01  0.18723153869E-01  0.13096632766E+00  0.20096549696E-01 0.  0.
         14    1    1    2    0    0 -0.14684877102E-01  0.11783284386E-01  0.15439039535E-01  0.24348621073E-01  0.00000000000E+00 0. -1.
     999901    1    3    3    0    0 -0.10747295976E+00 -0.50191800048E-01 -0.34162193404E-01  0.88861505126E+00  0.88000000000E+00 0.  1.
        -11    1    4    4    0    0  0.63172611715E-01  0.12252814340E-01  0.23483614158E-02  0.64394768829E-01  0.51100000000E-03 0. -1.
         11    1    4    4    0    0  0.58985225144E-01  0.26155701323E-01  0.16374792454E-01  0.66571558836E-01  0.51100000000E-03 0.  1.
</event>
<event>
 8    1  0.1146431E+005  0.1043930E+01  0.7957747E-01            NaN
         13   -1    0    0    0    0  0.00000000000E+00  0.00000000000E+00  0.74505805969E-08  0.10566000000E+00  0.10566000000E+00 0.  1.
     999900   -1    0    0    0    0 -0.00000000000E+00 -0.00000000000E+00 -0.74505805969E-08  0.93827000000E+00  0.93827000000E+00 0.  1.
     999902    2    1    2    0    0  0.30727538022E-02 -0.21680147516E-01 -0.70757041028E-02  0.10209183464E+01  0.10206589704E+01 0.  0.
     999903    2    3    3    0    0  0.30318203000E-01 -0.96156208988E-01  0.83826491966E-01  0.13268852960E+00  0.20350802706E-01 0.  0.
         14    1    1    2    0    0 -0.30727538022E-02  0.21680147516E-01  0.70757041028E-02  0.23011653586E-01  0.00000000000E+00 0.  1.
     999901    1    3    3    0    0 -0.27245449198E-01  0.74476061473E-01 -0.90902196069E-01  0.88822981682E+00  0.88000000000E+00 0.  1.
        -11    1    4    4    0    0  0.27529193133E-01 -0.55148711316E-01  0.53285453507E-01  0.81479061794E-01  0.51100000000E-03 0.  1.
         11    1    4    4    0    0  0.27890098669E-02 -0.41007497672E-01  0.30541038459E-01  0.51209467802E-01  0.51100000000E-03 0. -1.
</event>
<event>
 8    1  0.1146431E+005  0.1043930E+01  0.7957747E-01            NaN
         13   -1    0    0    0    0  0.00000000000E+00  0.00000000000E+00  0.74505805969E-08  0.10566000000E+00  0.10566000000E+00 0.  1.
     999900   -1    0    0    0    0 -0.00000000000E+00 -0.00000000000E+00 -0.74505805969E-08  0.93827000000E+00  0.93827000000E+00 0.  1.
     999902    2    1    2    0    0  0.14223531734E-01  0.15310631422E-01  0.11934989717E-01  0.10198640849E+01  0.10195801015E+01 0.  0.
     999903    2    3    3    0    0  0.87240327848E-01  0.16052741739E-01 -0.93817563225E-01  0.13052972389E+00  0.19175722371E-01 0.  0.
         14    1    1    2    0    0 -0.14223531734E-01 -0.15310631422E-01 -0.11934989717E-01  0.24065915089E-01  0.00000000000E+00 0. -1.
     999901    1    3    3    0    0 -0.73016796113E-01 -0.74211031661E-03  0.10575255294E+00  0.88933436102E+00  0.88000000000E+00 0. -1.
        -11    1    4    4    0    0  0.21102272205E-01 -0.18325273416E-02 -0.14280878398E-01  0.25551294634E-01  0.51100000000E-03 0.  1.
         11    1    4    4    0    0  0.66138055643E-01  0.17885269080E-01 -0.79536684827E-01  0.10497842925E+00  0.51100000000E-03 0. -1.
</event>
<event>
 8    1  0.1146431E+005  0.1043930E+01  0.7957747E-01            NaN
         13   -1    0    0    0    0  0.00000000000E+00  0.00000000000E+00  0.74505805969E-08  0.10566000000E+00  0.10566000000E+00 0.  1.
     999900   -1    0    0    0    0 -0.00000000000E+00 -0.00000000000E+00 -0.74505805969E-08  0.93827000000E+00  0.93827000000E+00 0. -1.
     999902    2    1    2    0    0 -0.15262900163E-01  0.16823951434E-01  0.71474738567E-02  0.10201163937E+01  0.10198384033E+01 0.  0.
     999903    2    3    3    0    0 -0.11487885775E+00  0.59911655129E-01 -0.21604920951E-01  0.13298247515E+00  0.20760725153E-01 0.  0.
         14    1    1    2    0    0  0.15262900163E-01 -0.16823951434E-01 -0.71474738567E-02  0.23813606316E-01  0.00000000000E+00 0.  1.
     999901    1    3    3    0    0  0.99615957584E-01 -0.43087703695E-01  0.28752394808E-01  0.88713391854E+00  0.88000000000E+00 0. -1.
        -11    1    4    4    0    0 -0.54972634144E-01  0.38791246001E-01 -0.16363035665E-01  0.69244215124E-01  0.51100000000E-03 0. -1.
         11    1    4    4    0    0 -0.59906223603E-01  0.21120409128E-01 -0.52418852861E-02  0.63738260021E-01  0.51100000000E-03 0.  1.
</event>
<event>
 8    1  0.1146431E+005  0.1043930E+01  0.7957747E-01            NaN
         13   -1    0    0    0    0  0.00000000000E+00  0.00000000000E+00  0.74505805969E-08  0.10566000000E+00  0.10566000000E+00 0.  1.
     999900   -1    0    0    0    0 -0.00000000000E+00 -0.00000000000E+00 -0.74505805969E-08  0.93827000000E+00  0.93827000000E+00 0.  1.
     999902    2    1    2    0    0  0.53327924327E-02 -0.21739014057E-01 -0.75386992666E-02  0.10203110374E+01  0.10200376256E+01 0.  0.
     999903    2    3    3    0    0 -0.80900977566E-01  0.97284611934E-01 -0.17376965435E-02  0.12810223995E+00  0.19947440941E-01 0.  0.
         14    1    1    2    0    0 -0.53327924327E-02  0.21739014057E-01  0.75386992666E-02  0.23618962592E-01  0.00000000000E+00 0. -1.
     999901    1    3    3    0    0  0.86233769999E-01 -0.11902362599E+00 -0.58010027231E-02  0.89220879746E+00  0.88000000000E+00 0. -1.
        -11    1    4    4    0    0 -0.39288976248E-01  0.62612598659E-01 -0.50533630069E-03  0.73922105295E-01  0.51100000000E-03 0.  1.
         11    1    4    4    0    0 -0.41612001319E-01  0.34672013275E-01 -0.12323602428E-02  0.54180134653E-01  0.51100000000E-03 0. -1.
</event>
<event>
 8    1  0.1146431E+005  0.1043930E+01  0.7957747E-01            NaN
         13   -1    0    0    0    0  0.00000000000E+00  0.00000000000E+00  0.74505805969E-08  0.10566000000E+00  0.10566000000E+00 0. -1.
     999900   -1    0    0    0    0 -0.00000000000E+00 -0.00000000000E+00 -0.74505805969E-08  0.93827000000E+00  0.93827000000E+00 0. -1.
     999902    2    1    2    0    0  0.15328389082E-01  0.87938128717E-02 -0.15847902792E-01  0.10201929682E+01  0.10199167837E+01 0.  0.
     999903    2    3    3    0    0  0.31792504118E-01  0.12462495675E+00  0.21747310639E-01  0.13165409956E+00  0.17824512546E-01 0.  0.
         14    1    1    2    0    0 -0.15328389082E-01 -0.87938128717E-02  0.15847902792E-01  0.23737031819E-01  0.00000000000E+00 0. -1.
     999901    1    3    3    0    0 -0.16464115036E-01 -0.11583114388E+00 -0.37595213431E-01  0.88853886862E+00  0.88000000000E+00 0. -1.
        -11    1    4    4    0    0  0.11793027420E-01  0.79435218439E-01  0.10734192603E-01  0.81021684974E-01  0.51100000000E-03 0.  1.
         11    1    4    4    0    0  0.19999476697E-01  0.45189738313E-01  0.11013118036E-01  0.50632414587E-01  0.51100000000E-03 0. -1.
</event>
<event>
 8    1  0.1146431E+005  0.1043930E+01  0.7957747E-01            NaN
         13   -1    0    0    0    0  0.00000000000E+00  0.00000000000E+00  0.74505805969E-08  0.10566000000E+00  0.10566000000E+00 0.  1.
     999900   -1    0    0    0    0 -0.00000000000E+00 -0.00000000000E+00 -0.74505805969E-08  0.93827000000E+00  0.93827000000E+00 0.  1.
     999902    2    1    2    0    0  0.68891286078E-02  0.18821261340E-01  0.10331892648E-01  0.10213812090E+01  0.10211322765E+01 0.  0.
     999903    2    3    3    0    0 -0.21700313630E-01  0.12846792583E+00  0.24154781300E-01  0.13400822116E+00  0.19995957043E-01 0.  0.
         14    1    1    2    0    0 -0.68891286078E-02 -0.18821261340E-01 -0.10331892648E-01  0.22548791034E-01  0.00000000000E+00 0.  1.
     999901    1    3    3    0    0  0.28589442238E-01 -0.10964666449E+00 -0.13822888652E-01  0.88737298781E+00  0.88000000000E+00 0.  1.
        -11    1    4    4    0    0 -0.61493718572E-02  0.86936004694E-01  0.11661833662E-01  0.87931468609E-01  0.51100000000E-03 0.  1.
         11    1    4    4    0    0 -0.15550941773E-01  0.41531921141E-01  0.12492947638E-01  0.46076752548E-01  0.51100000000E-03 0. -1.
</event>
<event>
 8    1  0.1146431E+005  0.1043930E+01  0.7957747E-01            NaN
         13   -1    0    0    0    0  0.00000000000E+00  0.00000000000E+00  0.74505805969E-08  0.10566000000E+00  0.10566000000E+00 0.  1.
     999900   -1    0    0    0    0 -0.00000000000E+00 -0.00000000000E+00 -0.74505805969E-08  0.93827000000E+00  0.93827000000E+00 0.  1.
     999902    2    1    2    0    0 -0.18753130638E-01 -0.48456514227E-02  0.12906077555E-01  0.10206549687E+01  0.10203895521E+01 0.  0.
     999903    2    3    3    0    0  0.81551091005E-01 -0.28526064144E-01 -0.93061265318E-01  0.12832611863E+00  0.18516933878E-01 0.  0.
         14    1    1    2    0    0  0.18753130638E-01  0.48456514227E-02 -0.12906077555E-01  0.23275031349E-01  0.00000000000E+00 0. -1.
     999901    1    3    3    0    0 -0.10030422164E+00  0.23680412722E-01  0.10596734287E+00  0.89232885002E+00  0.88000000000E+00 0. -1.
        -11    1    4    4    0    0  0.43776777151E-01 -0.18487973680E-01 -0.63520075502E-01  0.79330148753E-01  0.51100000000E-03 0.  1.
         11    1    4    4    0    0  0.37774313854E-01 -0.10038090465E-01 -0.29541189816E-01  0.48995969876E-01  0.51100000000E-03 0. -1.
</event>
<event>
 7    1  0.1146431E+005  0.1043930E+01  0.7957747E-01            NaN
         13   -1    0    0    0    0  0.00000000000E+00  0.00000000000E+00  0.74505805969E-08  0.10566000000E+00  0.10566000000E+00 0.  1.
     999900   -1    0    0    0    0 -0.00000000000E+00 -0.00000000000E+00 -0.74505805969E-08  0.93827000000E+00  0.93827000000E+00 0. -1.
     999903    2    1    2    0    0 -0.87191856607E-01  0.41735490753E-01  0.39003329839E-01  0.10611268373E+00  0.19858772956E-01 0.  0.
         14    1    1    2    0    0  0.34846669549E-01  0.37013818882E-01 -0.12521019358E-01  0.52355411303E-01  0.00000000000E+00 0. -1.
     999901    1    1    2    0    0  0.52345187058E-01 -0.78749309635E-01 -0.26482310481E-01  0.88546190497E+00  0.88000000000E+00 0. -1.
        -11    1    3    3    0    0 -0.21561377271E-01  0.75050549510E-02  0.88770638171E-03  0.22853183220E-01  0.51100000000E-03 0. -1.
         11    1    3    3    0    0 -0.65630479336E-01  0.34230435802E-01  0.38115623458E-01  0.83259500512E-01  0.51100000000E-03 0.  1.
</event>
<event>
 8    1  0.1146431E+005  0.1043930E+01  0.7957747E-01            NaN
         13   -1    0    0    0    0  0.00000000000E+00  0.00000000000E+00  0.74505805969E-08  0.10566000000E+00  0.10566000000E+00 0. -1.
     999900   -1    0    0    0    0 -0.00000000000E+00 -0.00000000000E+00 -0.74505805969E-08  0.93827000000E+00  0.93827000000E+00 0. -1.
     999902    2    1    2    0    0 -0.39262496335E-02 -0.20589528680E-01 -0.99786046410E-02  0.10207154210E+01  0.10204513972E+01 0.  0.
     999903    2    3    3    0    0  0.56585184515E-01 -0.93137720581E-01  0.71864790120E-01  0.13188291987E+00  0.18762686154E-01 0.  0.
         14    1    1    2    0    0  0.39262496335E-02  0.20589528680E-01  0.99786046410E-02  0.23214578998E-01  0.00000000000E+00 0.  1.
     999901    1    3    3    0    0 -0.60511434148E-01  0.72548191901E-01 -0.81843394761E-01  0.88883250114E+00  0.88000000000E+00 0. -1.
        -11    1    4    4    0    0  0.58045149314E-01 -0.91132494783E-01  0.70130534757E-01  0.12881352410E+00  0.51100000000E-03 0. -1.
         11    1    4    4    0    0 -0.14599647990E-02 -0.20052257982E-02  0.17342553632E-02  0.30693957680E-02  0.51100000000E-03 0.  1.
</event>
<event>
 8    1  0.1536565E+005  0.1043930E+01  0.7957747E-01            NaN
         13   -1    0    0    0    0  0.00000000000E+00  0.00000000000E+00  0.74505805969E-08  0.10566000000E+00  0.10566000000E+00 0.  1.
     999900   -1    0    0    0    0 -0.00000000000E+00 -0.00000000000E+00 -0.74505805969E-08  0.93827000000E+00  0.93827000000E+00 0. -1.
     999902    2    1    2    0    0  0.20902026570E-02  0.17012871579E-02  0.22837090590E-01  0.10209344345E+01  0.10206754252E+01 0.  0.
     999903    2    3    3    0    0  0.89279306650E-01  0.93953203697E-01  0.82758235959E-03  0.13155444013E+00  0.22536342781E-01 0.  0.
         14    1    1    2    0    0 -0.20902026570E-02 -0.17012871579E-02 -0.22837090590E-01  0.22995565480E-01  0.00000000000E+00 0. -1.
     999901    1    3    3    0    0 -0.87189103993E-01 -0.92251916539E-01  0.22009508230E-01  0.88937999439E+00  0.88000000000E+00 0.  1.
        -11    1    4    4    0    0  0.58574107971E-01  0.51936175555E-01  0.92658592975E-02  0.78831527483E-01  0.51100000000E-03 0.  1.
         11    1    4    4    0    0  0.30705198679E-01  0.42017028142E-01 -0.84382769379E-02  0.52722912652E-01  0.51100000000E-03 0. -1.
</event>
<event>
 8    1  0.1146431E+005  0.1043930E+01  0.7957747E-01            NaN
         13   -1    0    0    0    0  0.00000000000E+00  0.00000000000E+00  0.74505805969E-08  0.10566000000E+00  0.10566000000E+00 0.  1.
     999900   -1    0    0    0    0 -0.00000000000E+00 -0.00000000000E+00 -0.74505805969E-08  0.93827000000E+00  0.93827000000E+00 0. -1.
     999902    2    1    2    0    0  0.53373422817E-02 -0.17947221713E-01 -0.13662533687E-01  0.10207512421E+01  0.10204880418E+01 0.  0.
     999903    2    3    3    0    0  0.43026034340E-02  0.68201029549E-01  0.10683895640E+00  0.12837060529E+00  0.19863455677E-01 0.  0.
         14    1    1    2    0    0 -0.53373422817E-02  0.17947221713E-01  0.13662533687E-01  0.23178757875E-01  0.00000000000E+00 0. -1.
     999901    1    3    3    0    0  0.10347388477E-02 -0.86148251262E-01 -0.12050149008E+00  0.89238063683E+00  0.88000000000E+00 0. -1.
        -11    1    4    4    0    0  0.11830042925E-01  0.41235178409E-01  0.69942311210E-01  0.82051678060E-01  0.51100000000E-03 0.  1.
         11    1    4    4    0    0 -0.75274394908E-02  0.26965851139E-01  0.36896645187E-01  0.46318927233E-01  0.51100000000E-03 0. -1.
</event>
<event>
 8    1  0.1146431E+005  0.1043930E+01  0.7957747E-01            NaN
         13   -1    0    0    0    0  0.00000000000E+00  0.00000000000E+00  0.74505805969E-08  0.10566000000E+00  0.10566000000E+00 0. -1.
     999900   -1    0    0    0    0 -0.00000000000E+00 -0.00000000000E+00 -0.74505805969E-08  0.93827000000E+00  0.93827000000E+00 0. -1.
     999902    2    1    2    0    0 -0.66576264662E-02 -0.15399394332E-01 -0.15700028279E-01  0.10209527020E+01  0.10206941087E+01 0.  0.
     999903    2    3    3    0    0 -0.10612463303E+00  0.48264453693E-01 -0.58454664381E-01  0.13203497247E+00  0.20600750994E-01 0.  0.
         14    1    1    2    0    0  0.66576264662E-02  0.15399394332E-01  0.15700028279E-01  0.22977298012E-01  0.00000000000E+00 0. -1.
     999901    1    3    3    0    0  0.99467006565E-01 -0.63663848025E-01  0.42754636102E-01  0.88891772952E+00  0.88000000000E+00 0.  1.
        -11    1    4    4    0    0 -0.22024893144E-01  0.91731364859E-02 -0.21764917801E-01  0.32298840829E-01  0.51100000000E-03 0.  1.
         11    1    4    4    0    0 -0.84099739887E-01  0.39091317207E-01 -0.36689746579E-01  0.99736131643E-01  0.51100000000E-03 0. -1.
</event>
<event>
 8    1  0.1146431E+005  0.1043930E+01  0.7957747E-01            NaN
         13   -1    0    0    0    0  0.00000000000E+00  0.00000000000E+00  0.74505805969E-08  0.10566000000E+00  0.10566000000E+00 0. -1.
     999900   -1    0    0    0    0 -0.00000000000E+00 -0.00000000000E+00 -0.74505805969E-08  0.93827000000E+00  0.93827000000E+00 0. -1.
     999902    2    1    2    0    0 -0.13709223856E-01 -0.91413158086E-02 -0.17274222343E-01  0.10200573120E+01  0.10197779242E+01 0.  0.
     999903    2    3    3    0    0 -0.11971499955E+00 -0.42511187694E-01 -0.33673645995E-01  0.13291599638E+00  0.19846044013E-01 0.  0.
         14    1    1    2    0    0  0.13709223856E-01  0.91413158086E-02  0.17274222343E-01  0.23872687972E-01  0.00000000000E+00 0. -1.
     999901    1    3    3    0    0  0.10600577569E+00  0.33369871886E-01  0.16399423651E-01  0.88714131565E+00  0.88000000000E+00 0.  1.
        -11    1    4    4    0    0 -0.29464096563E-01 -0.78832224400E-02  0.14078627579E-03  0.30505067187E-01  0.51100000000E-03 0. -1.
         11    1    4    4    0    0 -0.90250902987E-01 -0.34627965254E-01 -0.33814432270E-01  0.10241092919E+00  0.51100000000E-03 0.  1.
</event>
<event>
 8    1  0.1146431E+005  0.1043930E+01  0.7957747E-01            NaN
         13   -1    0    0    0    0  0.00000000000E+00  0.00000000000E+00  0.74505805969E-08  0.10566000000E+00  0.10566000000E+00 0.  1.
     999900   -1    0    0    0    0 -0.00000000000E+00 -0.00000000000E+00 -0.74505805969E-08  0.93827000000E+00  0.93827000000E+00 0.  1.
     999902    2    1    2    0    0  0.14672580682E-01  0.76793388707E-02 -0.17014198208E-01  0.10201867944E+01  0.10199104646E+01 0.  0.
     999903    2    3    3    0    0 -0.79475096979E-01 -0.90745662083E-01  0.41104504964E-01  0.12781408662E+00  0.97874502465E-02 0.  0.
         14    1    1    2    0    0 -0.14672580682E-01 -0.76793388707E-02  0.17014198208E-01  0.23743205555E-01  0.00000000000E+00 0.  1.
     999901    1    3    3    0    0  0.94147677661E-01  0.98425000953E-01 -0.58118703172E-01  0.89237270783E+00  0.88000000000E+00 0.  1.
        -11    1    4    4    0    0 -0.52561605385E-01 -0.66758708741E-01  0.28973581249E-01  0.89772919552E-01  0.51100000000E-03 0. -1.
         11    1    4    4    0    0 -0.26913491593E-01 -0.23986953341E-01  0.12130923715E-01  0.38041167063E-01  0.51100000000E-03 0.  1.
</event>
<event>
 8    1  0.1146431E+005  0.1043930E+01  0.7957747E-01            NaN
         13   -1    0    0    0    0  0.00000000000E+00  0.00000000000E+00  0.74505805969E-08  0.10566000000E+00  0.10566000000E+00 0.  1.
     999900   -1    0    0    0    0 -0.00000000000E+00 -0.00000000000E+00 -0.74505805969E-08  0.93827000000E+00  0.93827000000E+00 0. -1.
     999902    2    1    2    0    0  0.17996376631E-01  0.42438016311E-02  0.14984195522E-01  0.10201307240E+01  0.10198530720E+01 0.  0.
     999903    2    3    3    0    0  0.56300452919E-01  0.96592588143E-01 -0.65064503400E-01  0.13085950841E+00  0.19772512601E-01 0.  0.
         14    1    1    2    0    0 -0.17996376631E-01 -0.42438016311E-02 -0.14984195522E-01  0.23799276031E-01  0.00000000000E+00 0.  1.
     999901    1    3    3    0    0 -0.38304076287E-01 -0.92348786512E-01  0.80048698922E-01  0.88927121556E+00  0.88000000000E+00 0.  1.
        -11    1    4    4    0    0  0.52194421664E-01  0.74396263250E-01 -0.50149503188E-01  0.10379930361E+00  0.51100000000E-03 0.  1.
         11    1    4    4    0    0  0.41060312550E-02  0.22196324893E-01 -0.14915000211E-01  0.27060204799E-01  0.51100000000E-03 0. -1.
</event>
<event>
 8    1  0.1146431E+005  0.1043930E+01  0.7957747E-01            NaN
         13   -1    0    0    0    0  0.00000000000E+00  0.00000000000E+00  0.74505805969E-08  0.10566000000E+00  0.10566000000E+00 0. -1.
     999900   -1    0    0    0    0 -0.00000000000E+00 -0.00000000000E+00 -0.74505805969E-08  0.93827000000E+00  0.93827000000E+00 0. -1.
     999902    2    1    2    0    0 -0.61488097268E-02  0.19629697975E-01 -0.11642925247E-01  0.10202933629E+01  0.10200195370E+01 0.  0.
     999903    2    3    3    0    0 -0.12364056992E+00 -0.36768510416E-01  0.33101607026E-02  0.13056943586E+00  0.19962628268E-01 0.  0.
         14    1    1    2    0    0  0.61488097268E-02 -0.19629697975E-01  0.11642925247E-01  0.23636637069E-01  0.00000000000E+00 0. -1.
     999901    1    3    3    0    0  0.11749176020E+00  0.56398208391E-01 -0.14953085949E-01  0.88972392707E+00  0.88000000000E+00 0. -1.
        -11    1    4    4    0    0 -0.76492620428E-01 -0.12540135558E-01  0.21772449983E-02  0.77545970215E-01  0.51100000000E-03 0.  1.
         11    1    4    4    0    0 -0.47147949496E-01 -0.24228374858E-01  0.11329157043E-02  0.53023465644E-01  0.51100000000E-03 0. -1.
</event>
<event>
 8    1  0.1146431E+005  0.1043930E+01  0.7957747E-01            NaN
         13   -1    0    0    0    0  0.00000000000E+00  0.00000000000E+00  0.74505805969E-08  0.10566000000E+00  0.10566000000E+00 0. -1.
     999900   -1    0    0    0    0 -0.00000000000E+00 -0.00000000000E+00 -0.74505805969E-08  0.93827000000E+00  0.93827000000E+00 0.  1.
     999902    2    1    2    0    0 -0.35228381771E-02  0.17527857697E-01 -0.14390049937E-01  0.10209798427E+01  0.10207218668E+01 0.  0.
     999903    2    3    3    0    0  0.32800902965E-01 -0.81693492861E-02  0.12271506630E+00  0.12925254494E+00  0.22463200422E-01 0.  0.
         14    1    1    2    0    0  0.35228381771E-02 -0.17527857697E-01  0.14390049937E-01  0.22950157330E-01  0.00000000000E+00 0. -1.
     999901    1    3    3    0    0 -0.36323741142E-01  0.25697206983E-01 -0.13710511624E+00  0.89172729773E+00  0.88000000000E+00 0.  1.
        -11    1    4    4    0    0  0.19480982621E-01 -0.38980418006E-02  0.33541773709E-01  0.38987371267E-01  0.51100000000E-03 0. -1.
         11    1    4    4    0    0  0.13319920345E-01 -0.42713074855E-02  0.89173292592E-01  0.90265173674E-01  0.51100000000E-03 0.  1.
</event>
<event>
 8    1  0.1146431E+005  0.1043930E+01  0.7957747E-01            NaN
         13   -1    0    0    0    0  0.00000000000E+00  0.00000000000E+00  0.74505805969E-08  0.10566000000E+00  0.10566000000E+00 0. -1.
     999900   -1    0    0    0    0 -0.00000000000E+00 -0.00000000000E+00 -0.74505805969E-08  0.93827000000E+00  0.93827000000E+00 0. -1.
     999902    2    1    2    0    0  0.10368374394E-01  0.20930269007E-01  0.27578825226E-02  0.10204101092E+01  0.10201390129E+01 0.  0.
     999903    2    3    3    0    0  0.11788812770E+00 -0.11544233600E-01 -0.53364734185E-01  0.13149794323E+00  0.20323243776E-01 0.  0.
         14    1    1    2    0    0 -0.10368374394E-01 -0.20930269007E-01 -0.27578825226E-02  0.23519890822E-01  0.00000000000E+00 0.  1.
     999901    1    3    3    0    0 -0.10751975330E+00  0.32474502607E-01  0.56122616707E-01  0.88891216595E+00  0.88000000000E+00 0. -1.
        -11    1    4    4    0    0  0.15532498088E-01  0.12780706019E-02 -0.54098227295E-03  0.15602747968E-01  0.51100000000E-03 0.  1.
         11    1    4    4    0    0  0.10235562961E+00 -0.12822304202E-01 -0.52823751912E-01  0.11589519526E+00  0.51100000000E-03 0. -1.
</event>
<event>
 8    1  0.1146431E+005  0.1043930E+01  0.7957747E-01            NaN
         13   -1    0    0    0    0  0.00000000000E+00  0.00000000000E+00  0.74505805969E-08  0.10566000000E+00  0.10566000000E+00 0.  1.
     999900   -1    0    0    0    0 -0.00000000000E+00 -0.00000000000E+00 -0.74505805969E-08  0.93827000000E+00  0.93827000000E+00 0. -1.
     999902    2    1    2    0    0 -0.23194610616E-01 -0.67058037312E-02  0.34894382232E-02  0.10195346327E+01  0.10192427255E+01 0.  0.
     999903    2    3    3    0    0 -0.10371354135E-01 -0.15009922364E-01 -0.12700379497E+00  0.12978080261E+00  0.19499488076E-01 0.  0.
         14    1    1    2    0    0  0.23194610616E-01  0.67058037312E-02 -0.34894382232E-02  0.24395367273E-01  0.00000000000E+00 0. -1.
     999901    1    3    3    0    0 -0.12823256480E-01  0.83041186326E-02  0.13049323319E+00  0.88975383011E+00  0.88000000000E+00 0.  1.
        -11    1    4    4    0    0 -0.44061927807E-02 -0.95476777995E-02 -0.21229905849E-01  0.23696892402E-01  0.51100000000E-03 0. -1.
         11    1    4    4    0    0 -0.59651613547E-02 -0.54622445643E-02 -0.10577388912E+00  0.10608391021E+00  0.51100000000E-03 0.  1.
</event>
<event>
 8    1  0.1146431E+005  0.1043930E+01  0.7957747E-01            NaN
         13   -1    0    0    0    0  0.00000000000E+00  0.00000000000E+00  0.74505805969E-08  0.10566000000E+00  0.10566000000E+00 0. -1.
     999900   -1    0    0    0    0 -0.00000000000E+00 -0.00000000000E+00 -0.74505805969E-08  0.93827000000E+00  0.93827000000E+00 0.  1.
     999902    2    1    2    0    0  0.22906188898E-02  0.17612158780E-02  0.22799669968E-01  0.10209479686E+01  0.10206892675E+01 0.  0.
     999903    2    3    3    0    0  0.11142916037E+00 -0.29807384788E-01  0.62720082406E-01  0.13274673177E+00  0.19569059535E-01 0.  0.
         14    1    1    2    0    0 -0.22906188898E-02 -0.17612158780E-02 -0.22799669968E-01  0.22982031392E-01  0.00000000000E+00 0.  1.
     999901    1    3    3    0    0 -0.10913854148E+00  0.31568600666E-01 -0.39920412438E-01  0.88820123683E+00  0.88000000000E+00 0.  1.
        -11    1    4    4    0    0  0.69929960348E-01 -0.26895273835E-01  0.45925728837E-01  0.87880537090E-01  0.51100000000E-03 0. -1.
         11    1    4    4    0    0  0.41499200022E-01 -0.29121109524E-02  0.16794353568E-01  0.44866194684E-01  0.51100000000E-03 0.  1.
</event>
<event>
 8    1  0.1146431E+005  0.1043930E+01  0.7957747E-01            NaN
         13   -1    0    0    0    0  0.00000000000E+00  0.00000000000E+00  0.74505805969E-08  0.10566000000E+00  0.10566000000E+00 0. -1.
     999900   -1    0    0    0    0 -0.00000000000E+00 -0.00000000000E+00 -0.74505805969E-08  0.93827000000E+00  0.93827000000E+00 0. -1.
     999902    2    1    2    0    0  0.11959095248E-01 -0.13984401653E-01 -0.15279899407E-01  0.10200122498E+01  0.10197317936E+01 0.  0.
     999903    2    3    3    0    0  0.10048329703E+00 -0.51452299096E-01 -0.67639599336E-01  0.13323047517E+00  0.20760829713E-01 0.  0.
         14    1    1    2    0    0 -0.11959095248E-01  0.13984401653E-01  0.15279899407E-01  0.23917750200E-01  0.00000000000E+00 0. -1.
     999901    1    3    3    0    0 -0.88524201786E-01  0.37467897443E-01  0.52359699930E-01  0.88678177463E+00  0.88000000000E+00 0.  1.
        -11    1    4    4    0    0  0.48674517459E-01 -0.17171657448E-01 -0.39664606555E-01  0.65096978451E-01  0.51100000000E-03 0.  1.
         11    1    4    4    0    0  0.51808779575E-01 -0.34280641648E-01 -0.27974992782E-01  0.68133496718E-01  0.51100000000E-03 0. -1.
</event>
<event>
 8    1  0.1146431E+005  0.1043930E+01  0.7957747E-01            NaN
         13   -1    0    0    0    0  0.00000000000E+00  0.00000000000E+00  0.74505805969E-08  0.10566000000E+00  0.10566000000E+00 0.  1.
     999900   -1    0    0    0    0 -0.00000000000E+00 -0.00000000000E+00 -0.74505805969E-08  0.93827000000E+00  0.93827000000E+00 0. -1.
     999902    2    1    2    0    0 -0.22935055681E-01  0.62707005311E-02  0.17517175777E-02  0.10200887127E+01  0.10198100680E+01 0.  0.
     999903    2    3    3    0    0 -0.15619063907E-01 -0.11440761759E-01 -0.12685224144E+00  0.13053478075E+00  0.23937243768E-01 0.  0.
         14    1    1    2    0    0  0.22935055681E-01 -0.62707005311E-02 -0.17517175777E-02  0.23841287271E-01  0.00000000000E+00 0. -1.
     999901    1    3    3    0    0 -0.73159917750E-02  0.17711462290E-01  0.12860395902E+00  0.88955393198E+00  0.88000000000E+00 0.  1.
        -11    1    4    4    0    0  0.51403744754E-02 -0.45028070287E-02 -0.54877621482E-01  0.55303826101E-01  0.51100000000E-03 0. -1.
         11    1    4    4    0    0 -0.20759438382E-01 -0.69379547304E-02 -0.71974619958E-01  0.75230954645E-01  0.51100000000E-03 0.  1.
</event>
<event>
 8    1  0.1146431E+005  0.1043930E+01  0.7957747E-01            NaN
         13   -1    0    0    0    0  0.00000000000E+00  0.00000000000E+00  0.74505805969E-08  0.10566000000E+00  0.10566000000E+00 0. -1.
     999900   -1    0    0    0    0 -0.00000000000E+00 -0.00000000000E+00 -0.74505805969E-08  0.93827000000E+00  0.93827000000E+00 0. -1.
     999902    2    1    2    0    0  0.11391457225E-01 -0.12387301990E-01 -0.13290808168E-01  0.10224857437E+01  0.10222608473E+01 0.  0.
     999903    2    3    3    0    0  0.37141447840E-01 -0.12432214521E+00  0.27438356063E-01  0.13408755818E+00  0.19776929429E-01 0.  0.
         14    1    1    2    0    0 -0.11391457225E-01  0.12387301990E-01  0.13290808168E-01  0.21444256343E-01  0.00000000000E+00 0. -1.
     999901    1    3    3    0    0 -0.25749990615E-01  0.11193484322E+00 -0.40729164231E-01  0.88839818548E+00  0.88000000000E+00 0. -1.
        -11    1    4    4    0    0  0.17214837554E-01 -0.76369923945E-01  0.24673292523E-01  0.82083788900E-01  0.51100000000E-03 0.  1.
         11    1    4    4    0    0  0.19926610286E-01 -0.47952221265E-01  0.27650635395E-02  0.52003769278E-01  0.51100000000E-03 0. -1.
</event>
<event>
 8    1  0.1146431E+005  0.1043930E+01  0.7957747E-01            NaN
         13   -1    0    0    0    0  0.00000000000E+00  0.00000000000E+00  0.74505805969E-08  0.10566000000E+00  0.10566000000E+00 0. -1.
     999900   -1    0    0    0    0 -0.00000000000E+00 -0.00000000000E+00 -0.74505805969E-08  0.93827000000E+00  0.93827000000E+00 0.  1.
     999902    2    1    2    0    0 -0.11496515376E-01 -0.58135264598E-02 -0.18597119692E-01  0.10213065649E+01  0.10210559630E+01 0.  0.
     999903    2    3    3    0    0 -0.12891689993E+00  0.17084060893E-01 -0.21503970005E-01  0.13320730467E+00  0.19244039750E-01 0.  0.
         14    1    1    2    0    0  0.11496515376E-01  0.58135264598E-02  0.18597119692E-01  0.22623435118E-01  0.00000000000E+00 0. -1.
     999901    1    3    3    0    0  0.11742038456E+00 -0.22897587353E-01  0.29068503129E-02  0.88809926022E+00  0.88000000000E+00 0.  1.
        -11    1    4    4    0    0 -0.10269888716E+00  0.78080469619E-02 -0.11451187409E-01  0.10363116248E+00  0.51100000000E-03 0.  1.
         11    1    4    4    0    0 -0.26218012768E-01  0.92760139314E-02 -0.10052782595E-01  0.29576142190E-01  0.51100000000E-03 0. -1.
</event>
<event>
 8    1  0.1146431E+005  0.1043930E+01  0.7957747E-01            NaN
         13   -1    0    0    0    0  0.00000000000E+00  0.00000000000E+00  0.74505805969E-08  0.10566000000E+00  0.10566000000E+00 0.  1.
     999900   -1    0    0    0    0 -0.00000000000E+00 -0.00000000000E+00 -0.74505805969E-08  0.93827000000E+00  0.93827000000E+00 0.  1.
     999902    2    1    2    0    0  0.19015054074E-01  0.10919029439E-01  0.10177502701E-01  0.10197560668E+01  0.10194694977E+01 0.  0.
     999903    2    3    3    0    0  0.66223941791E-01  0.84206033786E-01  0.76715404811E-01  0.13294889694E+00  0.17716920464E-01 0.  0.
         14    1    1    2    0    0 -0.19015054074E-01 -0.10919029439E-01 -0.10177502701E-01  0.24173933204E-01  0.00000000000E+00 0. -1.
     999901    1    3    3    0    0 -0.47208887717E-01 -0.73287004347E-01 -0.66537902110E-01  0.88680716985E+00  0.88000000000E+00 0.  1.
        -11    1    4    4    0    0  0.26111223520E-01  0.30055532124E-01  0.38937434898E-01  0.55691255709E-01  0.51100000000E-03 0.  1.
         11    1    4    4    0    0  0.40112718272E-01  0.54150501662E-01  0.37777969912E-01  0.77257641234E-01  0.51100000000E-03 0. -1.
</event>
<event>
 8    1  0.1146431E+005  0.1043930E+01  0.7957747E-01            NaN
         13   -1    0    0    0    0  0.00000000000E+00  0.00000000000E+00  0.74505805969E-08  0.10566000000E+00  0.10566000000E+00 0. -1.
     999900   -1    0    0    0    0 -0.00000000000E+00 -0.00000000000E+00 -0.74505805969E-08  0.93827000000E+00  0.93827000000E+00 0.  1.
     999902    2    1    2    0    0 -0.21381888121E-01  0.26831935610E-02  0.97964964280E-02  0.10202581600E+01  0.10199835082E+01 0.  0.
     999903    2    3    3    0    0  0.60228361629E-02  0.10829726051E-01  0.12954683590E+00  0.13168766267E+00  0.20142003043E-01 0.  0.
         14    1    1    2    0    0  0.21381888121E-01 -0.26831935610E-02 -0.97964964280E-02  0.23671840013E-01  0.00000000000E+00 0.  1.
     999901    1    3    3    0    0 -0.27404724284E-01 -0.81465324900E-02 -0.11975033947E+00  0.88857049732E+00  0.88000000000E+00 0.  1.
        -11    1    4    4    0    0 -0.55460939563E-02  0.94742624419E-02  0.81948376022E-01  0.82682031063E-01  0.51100000000E-03 0. -1.
         11    1    4    4    0    0  0.11568930119E-01  0.13554636091E-02  0.47598459873E-01  0.49005631605E-01  0.51100000000E-03 0.  1.
</event>
<event>
 8    1  0.1146431E+005  0.1043930E+01  0.7957747E-01            NaN
         13   -1    0    0    0    0  0.00000000000E+00  0.00000000000E+00  0.74505805969E-08  0.10566000000E+00  0.10566000000E+00 0.  1.
     999900   -1    0    0    0    0 -0.00000000000E+00 -0.00000000000E+00 -0.74505805969E-08  0.93827000000E+00  0.93827000000E+00 0.  1.
     999902    2    1    2    0    0 -0.16041710476E-01  0.23375765954E-02  0.18764580683E-01  0.10191326165E+01  0.10188308887E+01 0.  0.
     999903    2    3    3    0    0  0.67994773315E-01  0.10158825562E+00 -0.29697183926E-01  0.12825587391E+00  0.24983666286E-01 0.  0.
         14    1    1    2    0    0  0.16041710476E-01 -0.23375765954E-02 -0.18764580683E-01  0.24797383482E-01  0.00000000000E+00 0.  1.
     999901    1    3    3    0    0 -0.84036483792E-01 -0.99250679022E-01  0.48461764609E-01  0.89087674261E+00  0.88000000000E+00 0.  1.
        -11    1    4    4    0    0  0.27466982628E-01  0.21153426326E-01 -0.70274462712E-02  0.35377234235E-01  0.51100000000E-03 0.  1.
         11    1    4    4    0    0  0.40527790687E-01  0.80434829292E-01 -0.22669737655E-01  0.92878639673E-01  0.51100000000E-03 0. -1.
</event>
<event>
 8    1  0.1146431E+005  0.1043930E+01  0.7957747E-01            NaN
         13   -1    0    0    0    0  0.00000000000E+00  0.00000000000E+00  0.74505805969E-08  0.10566000000E+00  0.10566000000E+00 0.  1.
     999900   -1    0    0    0    0 -0.00000000000E+00 -0.00000000000E+00 -0.74505805969E-08  0.93827000000E+00  0.93827000000E+00 0.  1.
     999902    2    1    2    0    0 -0.37017007469E-02 -0.20095846797E-01  0.12356647731E-01  0.10200504608E+01  0.10197709107E+01 0.  0.
     999903    2    3    3    0    0 -0.11962313174E+00  0.46588521150E-01  0.10380418411E-01  0.12994457469E+00  0.17252694124E-01 0.  0.
         14    1    1    2    0    0  0.37017007469E-02  0.20095846797E-01 -0.12356647731E-01  0.23879539151E-01  0.00000000000E+00 0. -1.
     999901    1    3    3    0    0  0.11592143099E+00 -0.66684367947E-01  0.19762293208E-02  0.89010588616E+00  0.88000000000E+00 0. -1.
        -11    1    4    4    0    0 -0.57628082711E-01  0.27321513841E-01 -0.21923735137E-02  0.63816366695E-01  0.51100000000E-03 0. -1.
         11    1    4    4    0    0 -0.61995049030E-01  0.19267007309E-01  0.12572791924E-01  0.66128207995E-01  0.51100000000E-03 0.  1.
</event>
<event>
 7    1  0.1146431E+005  0.1043930E+01  0.7957747E-01            NaN
         13   -1    0    0    0    0  0.00000000000E+00  0.00000000000E+00  0.74505805969E-08  0.10566000000E+00  0.10566000000E+00 0.  1.
     999900   -1    0    0    0    0 -0.00000000000E+00 -0.00000000000E+00 -0.74505805969E-08  0.93827000000E+00  0.93827000000E+00 0. -1.
     999903    2    1    2    0    0 -0.32612090668E-01 -0.24203144533E-01 -0.10867821211E+00  0.11763962457E+00  0.19462446312E-01 0.  0.
         14    1    1    2    0    0 -0.10886217899E-01  0.30029876626E-01  0.26259155887E-01  0.41350290183E-01  0.00000000000E+00 0. -1.
     999901    1    1    2    0    0  0.43498308567E-01 -0.58267320934E-02  0.82419056228E-01  0.88494008525E+00  0.88000000000E+00 0.  1.
        -11    1    3    3    0    0 -0.29989849251E-01 -0.27410965252E-01 -0.94641244918E-01  0.10299504083E+00  0.51100000000E-03 0.  1.
         11    1    3    3    0    0 -0.26222414171E-02  0.32078207195E-02 -0.14036967197E-01  0.14644583739E-01  0.51100000000E-03 0. -1.
</event>
<event>
 8    1  0.1146431E+005  0.1043930E+01  0.7957747E-01            NaN
         13   -1    0    0    0    0  0.00000000000E+00  0.00000000000E+00  0.74505805969E-08  0.10566000000E+00  0.10566000000E+00 0. -1.
     999900   -1    0    0    0    0 -0.00000000000E+00 -0.00000000000E+00 -0.74505805969E-08  0.93827000000E+00  0.93827000000E+00 0.  1.
     999902    2    1    2    0    0  0.36720599340E-02 -0.24662414718E-01 -0.29751573558E-02  0.10188188414E+01  0.10185093330E+01 0.  0.
     999903    2    3    3    0    0 -0.74543035129E-01 -0.98488329935E-01 -0.40728928622E-01  0.13146704304E+00  0.19186520222E-01 0.  0.
         14    1    1    2    0    0 -0.36720599340E-02  0.24662414718E-01  0.29751573558E-02  0.25111158579E-01  0.00000000000E+00 0.  1.
     999901    1    3    3    0    0  0.78215095063E-01  0.73825915217E-01  0.37753771266E-01  0.88735179839E+00  0.88000000000E+00 0.  1.
        -11    1    4    4    0    0 -0.28106620772E-01 -0.38493666928E-01 -0.25600442999E-01  0.54105344722E-01  0.51100000000E-03 0.  1.
         11    1    4    4    0    0 -0.46436414357E-01 -0.59994663007E-01 -0.15128485623E-01  0.77361698313E-01  0.51100000000E-03 0. -1.
</event>
<event>
 8    1  0.1146431E+005  0.1043930E+01  0.7957747E-01            NaN
         13   -1    0    0    0    0  0.00000000000E+00  0.00000000000E+00  0.74505805969E-08  0.10566000000E+00  0.10566000000E+00 0. -1.
     999900   -1    0    0    0    0 -0.00000000000E+00 -0.00000000000E+00 -0.74505805969E-08  0.93827000000E+00  0.93827000000E+00 0. -1.
     999902    2    1    2    0    0 -0.17705136707E-01  0.15584088712E-01  0.11462718263E-01  0.10177054009E+01  0.10173674624E+01 0.  0.
     999903    2    3    3    0    0 -0.73513814670E-01 -0.24079921547E-01  0.10250277172E+00  0.13036322702E+00  0.22441684019E-01 0.  0.
         14    1    1    2    0    0  0.17705136707E-01 -0.15584088712E-01 -0.11462718263E-01  0.26224599078E-01  0.00000000000E+00 0.  1.
     999901    1    3    3    0    0  0.55808677963E-01  0.39664010259E-01 -0.91040053453E-01  0.88734217390E+00  0.88000000000E+00 0.  1.
        -11    1    4    4    0    0 -0.95262760416E-02 -0.29668990018E-02  0.28882289358E-01  0.30561416598E-01  0.51100000000E-03 0. -1.
         11    1    4    4    0    0 -0.63987538629E-01 -0.21113022545E-01  0.73620482358E-01  0.99801810426E-01  0.51100000000E-03 0.  1.
</event>
<event>
 8    1  0.1146431E+005  0.1043930E+01  0.7957747E-01            NaN
         13   -1    0    0    0    0  0.00000000000E+00  0.00000000000E+00  0.74505805969E-08  0.10566000000E+00  0.10566000000E+00 0. -1.
     999900   -1    0    0    0    0 -0.00000000000E+00 -0.00000000000E+00 -0.74505805969E-08  0.93827000000E+00  0.93827000000E+00 0. -1.
     999902    2    1    2    0    0 -0.20768209249E-01 -0.10517331884E-01  0.43660744087E-03  0.10206464562E+01  0.10203808432E+01 0.  0.
     999903    2    3    3    0    0 -0.32055363844E-01 -0.32932401626E-01  0.12183462695E+00  0.13195792002E+00  0.21380526318E-01 0.  0.
         14    1    1    2    0    0  0.20768209249E-01  0.10517331884E-01 -0.43660744087E-03  0.23283543791E-01  0.00000000000E+00 0. -1.
     999901    1    3    3    0    0  0.11287154595E-01  0.22415069742E-01 -0.12139801950E+00  0.88868853619E+00  0.88000000000E+00 0. -1.
        -11    1    4    4    0    0 -0.17533826086E-01 -0.38765535507E-02  0.49642873132E-01  0.52793358469E-01  0.51100000000E-03 0. -1.
         11    1    4    4    0    0 -0.14521537758E-01 -0.29055848075E-01  0.72191753813E-01  0.79164561553E-01  0.51100000000E-03 0.  1.
</event>
<event>
 8    1  0.1146431E+005  0.1043930E+01  0.7957747E-01            NaN
         13   -1    0    0    0    0  0.00000000000E+00  0.00000000000E+00  0.74505805969E-08  0.10566000000E+00  0.10566000000E+00 0.  1.
     999900   -1    0    0    0    0 -0.00000000000E+00 -0.00000000000E+00 -0.74505805969E-08  0.93827000000E+00  0.93827000000E+00 0. -1.
     999902    2    1    2    0    0  0.94476415084E-02 -0.17304783745E-01  0.13102904083E-01  0.10202572400E+01  0.10199825666E+01 0.  0.
     999903    2    3    3    0    0  0.26531694055E-01  0.77583173518E-01 -0.96534376095E-01  0.12822813594E+00  0.20012233172E-01 0.  0.
         14    1    1    2    0    0 -0.94476415084E-02  0.17304783745E-01 -0.13102904083E-01  0.23672759998E-01  0.00000000000E+00 0. -1.
     999901    1    3    3    0    0 -0.17084052546E-01 -0.94887957263E-01  0.10963728018E+00  0.89202910406E+00  0.88000000000E+00 0.  1.
        -11    1    4    4    0    0  0.82395088602E-02  0.33664864744E-01 -0.26825188119E-01  0.43829949385E-01  0.51100000000E-03 0.  1.
         11    1    4    4    0    0  0.18292185195E-01  0.43918308774E-01 -0.69709187977E-01  0.84398186557E-01  0.51100000000E-03 0. -1.
</event>
<event>
 7    1  0.1146431E+005  0.1043930E+01  0.7957747E-01            NaN
         13   -1    0    0    0    0  0.00000000000E+00  0.00000000000E+00  0.74505805969E-08  0.10566000000E+00  0.10566000000E+00 0. -1.
     999900   -1    0    0    0    0 -0.00000000000E+00 -0.00000000000E+00 -0.74505805969E-08  0.93827000000E+00  0.93827000000E+00 0.  1.
     999903    2    1    2    0    0 -0.18822350515E-01 -0.12077693868E-01  0.10612613639E+00  0.11033583798E+00  0.20275323666E-01 0.  0.
         14    1    1    2    0    0  0.60911744584E-03  0.46404290060E-01 -0.36108456484E-03  0.46409692329E-01  0.00000000000E+00 0.  1.
     999901    1    1    2    0    0  0.18213233069E-01 -0.34326596193E-01 -0.10576505183E+00  0.88718446969E+00  0.88000000000E+00 0.  1.
        -11    1    3    3    0    0 -0.24986172629E-02  0.51973723935E-02  0.31070725627E-01  0.31605488132E-01  0.51100000000E-03 0.  1.
         11    1    3    3    0    0 -0.16323733252E-01 -0.17275066261E-01  0.75055410766E-01  0.78730349852E-01  0.51100000000E-03 0. -1.
</event>
<event>
 8    1  0.1146431E+005  0.1043930E+01  0.7957747E-01            NaN
         13   -1    0    0    0    0  0.00000000000E+00  0.00000000000E+00  0.74505805969E-08  0.10566000000E+00  0.10566000000E+00 0. -1.
     999900   -1    0    0    0    0 -0.00000000000E+00 -0.00000000000E+00 -0.74505805969E-08  0.93827000000E+00  0.93827000000E+00 0.  1.
     999902    2    1    2    0    0 -0.54769932992E-02  0.22349196554E-01 -0.75704333899E-02  0.10197061377E+01  0.10194183694E+01 0.  0.
     999903    2    3    3    0    0  0.10567942193E+00  0.74779141757E-01  0.41798366997E-02  0.13108770630E+00  0.20160740268E-01 0.  0.
         14    1    1    2    0    0  0.54769932992E-02 -0.22349196554E-01  0.75704333899E-02  0.24223862283E-01  0.00000000000E+00 0. -1.
     999901    1    3    3    0    0 -0.11115641523E+00 -0.52429945203E-01 -0.11750270090E-01  0.88861843141E+00  0.88000000000E+00 0. -1.
        -11    1    4    4    0    0  0.32085644791E-01  0.33890135031E-01 -0.15845630181E-02  0.46699055827E-01  0.51100000000E-03 0.  1.
         11    1    4    4    0    0  0.73593777137E-01  0.40889006726E-01  0.57643997178E-02  0.84388650477E-01  0.51100000000E-03 0. -1.
</event>
<event>
 8    1  0.1255745E+005  0.1043930E+01  0.7957747E-01            NaN
         13   -1    0    0    0    0  0.00000000000E+00  0.00000000000E+00  0.74505805969E-08  0.10566000000E+00  0.10566000000E+00 0. -1.
     999900   -1    0    0    0    0 -0.00000000000E+00 -0.00000000000E+00 -0.74505805969E-08  0.93827000000E+00  0.93827000000E+00 0.  1.
     999902    2    1    2    0    0  0.17886640633E-01  0.13601493792E-01  0.49006366979E-02  0.10209311134E+01  0.10206720283E+01 0.  0.
     999903    2    3    3    0    0 -0.11693395384E+00  0.51952045229E-01  0.21344765419E-02  0.12983347049E+00  0.21899988698E-01 0.  0.
         14    1    1    2    0    0 -0.17886640633E-01 -0.13601493792E-01 -0.49006366979E-02  0.22998886637E-01  0.00000000000E+00 0. -1.
     999901    1    3    3    0    0  0.13482059447E+00 -0.38350551437E-01  0.27661601560E-02  0.89109764287E+00  0.88000000000E+00 0. -1.
        -11    1    4    4    0    0 -0.32187557829E-01  0.22707144055E-01  0.71643366228E-02  0.40040505871E-01  0.51100000000E-03 0. -1.
         11    1    4    4    0    0 -0.84746396012E-01  0.29244901174E-01 -0.50298600809E-02  0.89792964620E-01  0.51100000000E-03 0.  1.
</event>
<event>
 8    1  0.1146431E+005  0.1043930E+01  0.7957747E-01            NaN
         13   -1    0    0    0    0  0.00000000000E+00  0.00000000000E+00  0.74505805969E-08  0.10566000000E+00  0.10566000000E+00 0. -1.
     999900   -1    0    0    0    0 -0.00000000000E+00 -0.00000000000E+00 -0.74505805969E-08  0.93827000000E+00  0.93827000000E+00 0.  1.
     999902    2    1    2    0    0 -0.40674625278E-02  0.18516683017E-01 -0.13211725199E-01  0.10208223934E+01  0.10205608249E+01 0.  0.
     999903    2    3    3    0    0 -0.94788696881E-01  0.82857465347E-01 -0.40960051024E-01  0.13338786158E+00  0.16258512117E-01 0.  0.
         14    1    1    2    0    0  0.40674625278E-02 -0.18516683017E-01  0.13211725199E-01  0.23107606629E-01  0.00000000000E+00 0. -1.
     999901    1    3    3    0    0  0.90721234353E-01 -0.64340782330E-01  0.27748325825E-01  0.88743453179E+00  0.88000000000E+00 0.  1.
        -11    1    4    4    0    0 -0.38198842858E-01  0.23657676285E-01 -0.11855785857E-01  0.46472120913E-01  0.51100000000E-03 0. -1.
         11    1    4    4    0    0 -0.56589854023E-01  0.59199789062E-01 -0.29104265167E-01  0.86915740665E-01  0.51100000000E-03 0.  1.
</event>
<event>
 8    1  0.1146431E+005  0.1043930E+01  0.7957747E-01            NaN
         13   -1    0    0    0    0  0.00000000000E+00  0.00000000000E+00  0.74505805969E-08  0.10566000000E+00  0.10566000000E+00 0. -1.
     999900   -1    0    0    0    0 -0.00000000000E+00 -0.00000000000E+00 -0.74505805969E-08  0.93827000000E+00  0.93827000000E+00 0. -1.
     999902    2    1    2    0    0 -0.21814142534E-01  0.10704362040E-01  0.23194296619E-03  0.10196299181E+01  0.10193403141E+01 0.  0.
     999903    2    3    3    0    0  0.76599263381E-01  0.90658244543E-01  0.47284819404E-01  0.12929751112E+00  0.19890394232E-01 0.  0.
         14    1    1    2    0    0  0.21814142534E-01 -0.10704362040E-01 -0.23194296619E-03  0.24300081866E-01  0.00000000000E+00 0.  1.
     999901    1    3    3    0    0 -0.98413405915E-01 -0.79953882502E-01 -0.47052876438E-01  0.89033240701E+00  0.88000000000E+00 0. -1.
        -11    1    4    4    0    0  0.61992461040E-01  0.77609533869E-01  0.31713333470E-01  0.10427032950E+00  0.51100000000E-03 0. -1.
         11    1    4    4    0    0  0.14606802341E-01  0.13048710674E-01  0.15571485934E-01  0.25027181624E-01  0.51100000000E-03 0.  1.
</event>
<event>
 8    1  0.1146431E+005  0.1043930E+01  0.7957747E-01            NaN
         13   -1    0    0    0    0  0.00000000000E+00  0.00000000000E+00  0.74505805969E-08  0.10566000000E+00  0.10566000000E+00 0. -1.
     999900   -1    0    0    0    0 -0.00000000000E+00 -0.00000000000E+00 -0.74505805969E-08  0.93827000000E+00  0.93827000000E+00 0. -1.
     999902    2    1    2    0    0 -0.20726374731E-02  0.96536190650E-02  0.22294845249E-01  0.10195466386E+01  0.10192550221E+01 0.  0.
     999903    2    3    3    0    0  0.76491637363E-02 -0.12215505860E+00  0.37703167191E-01  0.12954357273E+00  0.19484362194E-01 0.  0.
         14    1    1    2    0    0  0.20726374731E-02 -0.96536190650E-02 -0.22294845249E-01  0.24383361372E-01  0.00000000000E+00 0.  1.
     999901    1    3    3    0    0 -0.97218012094E-02  0.13180867767E+00 -0.15408321942E-01  0.89000306590E+00  0.88000000000E+00 0. -1.
        -11    1    4    4    0    0 -0.21881542047E-02 -0.88055468002E-01  0.22376406610E-01  0.90881891253E-01  0.51100000000E-03 0.  1.
         11    1    4    4    0    0  0.98373179410E-02 -0.34099590602E-01  0.15326760580E-01  0.38661681474E-01  0.51100000000E-03 0. -1.
</event>
<event>
 8    1  0.1146431E+005  0.1043930E+01  0.7957747E-01            NaN
         13   -1    0    0    0    0  0.00000000000E+00  0.00000000000E+00  0.74505805969E-08  0.10566000000E+00  0.10566000000E+00 0.  1.
     999900   -1    0    0    0    0 -0.00000000000E+00 -0.00000000000E+00 -0.74505805969E-08  0.93827000000E+00  0.93827000000E+00 0. -1.
     999902    2    1    2    0    0  0.16541528735E-01  0.13418147221E-01 -0.10395467743E-01  0.10202290591E+01  0.10199537237E+01 0.  0.
     999903    2    3    3    0    0  0.10824321755E-01 -0.11220917872E+00  0.58724638334E-01  0.12860553964E+00  0.19563638411E-01 0.  0.
         14    1    1    2    0    0 -0.16541528735E-01 -0.13418147221E-01  0.10395467743E-01  0.23700940853E-01  0.00000000000E+00 0.  1.
     999901    1    3    3    0    0  0.57172069799E-02  0.12562732594E+00 -0.69120106076E-01  0.89162351951E+00  0.88000000000E+00 0.  1.
        -11    1    4    4    0    0 -0.12331535766E-02 -0.59223551154E-01  0.22867662930E-01  0.63499140214E-01  0.51100000000E-03 0. -1.
         11    1    4    4    0    0  0.12057475332E-01 -0.52985627564E-01  0.35856975404E-01  0.65106399423E-01  0.51100000000E-03 0.  1.
</event>
<event>
 8    1  0.1146431E+005  0.1043930E+01  0.7957747E-01            NaN
         13   -1    0    0    0    0  0.00000000000E+00  0.00000000000E+00  0.74505805969E-08  0.10566000000E+00  0.10566000000E+00 0.  1.
     999900   -1    0    0    0    0 -0.00000000000E+00 -0.00000000000E+00 -0.74505805969E-08  0.93827000000E+00  0.93827000000E+00 0.  1.
     999902    2    1    2    0    0 -0.12827673961E-01 -0.18404200039E-01 -0.85855919303E-02  0.10199096714E+01  0.10196267756E+01 0.  0.
     999903    2    3    3    0    0  0.70717820871E-01  0.18107920541E-01  0.10329376555E+00  0.12815299196E+00  0.20607774521E-01 0.  0.
         14    1    1    2    0    0  0.12827673961E-01  0.18404200039E-01  0.85855919303E-02  0.24020328622E-01  0.00000000000E+00 0.  1.
     999901    1    3    3    0    0 -0.83545494832E-01 -0.36512120580E-01 -0.11187935749E+00  0.89175667942E+00  0.88000000000E+00 0.  1.
        -11    1    4    4    0    0  0.49052750147E-01  0.70182002396E-02  0.81998564001E-01  0.95809462220E-01  0.51100000000E-03 0. -1.
         11    1    4    4    0    0  0.21665070724E-01  0.11089720302E-01  0.21295201554E-01  0.32343529740E-01  0.51100000000E-03 0.  1.
</event>
<event>
 8    1  0.1146431E+005  0.1043930E+01  0.7957747E-01            NaN
         13   -1    0    0    0    0  0.00000000000E+00  0.00000000000E+00  0.74505805969E-08  0.10566000000E+00  0.10566000000E+00 0. -1.
     999900   -1    0    0    0    0 -0.00000000000E+00 -0.00000000000E+00 -0.74505805969E-08  0.93827000000E+00  0.93827000000E+00 0. -1.
     999902    2    1    2    0    0 -0.32882906008E-02 -0.21879431058E-01 -0.11529951155E-01  0.10189808090E+01  0.10186753295E+01 0.  0.
     999903    2    3    3    0    0  0.64148333961E-01 -0.10963383938E+00  0.25123899648E-01  0.13129165208E+00  0.21718657566E-01 0.  0.
         14    1    1    2    0    0  0.32882906008E-02  0.21879431058E-01  0.11529951155E-01  0.24949191012E-01  0.00000000000E+00 0. -1.
     999901    1    3    3    0    0 -0.67436624562E-01  0.87754408317E-01 -0.36653850804E-01  0.88768915691E+00  0.88000000000E+00 0. -1.
        -11    1    4    4    0    0  0.24050356469E-01 -0.22636902195E-01  0.78557786103E-02  0.33953252655E-01  0.51100000000E-03 0.  1.
         11    1    4    4    0    0  0.40097977493E-01 -0.86996937180E-01  0.17268121038E-01  0.97338399426E-01  0.51100000000E-03 0. -1.
</event>
<event>
 8    1  0.1146431E+005  0.1043930E+01  0.7957747E-01            NaN
         13   -1    0    0    0    0  0.00000000000E+00  0.00000000000E+00  0.74505805969E-08  0.10566000000E+00  0.10566000000E+00 0.  1.
     999900   -1    0    0    0    0 -0.00000000000E+00 -0.00000000000E+00 -0.74505805969E-08  0.93827000000E+00  0.93827000000E+00 0.  1.
     999902    2    1    2    0    0  0.21815065806E-03 -0.40609916491E-02  0.23580279722E-01  0.10200015894E+01  0.10197208802E+01 0.  0.
     999903    2    3    3    0    0  0.21805460786E-01 -0.45733650494E-01 -0.11596225685E+00  0.12777138256E+00  0.17641889926E-01 0.  0.
         14    1    1    2    0    0 -0.21815065806E-03  0.40609916491E-02 -0.23580279722E-01  0.23928410616E-01  0.00000000000E+00 0. -1.
     999901    1    3    3    0    0 -0.21587310128E-01  0.41672658845E-01  0.13954253657E+00  0.89223020682E+00  0.88000000000E+00 0. -1.
        -11    1    4    4    0    0  0.11393212575E-01 -0.35003474228E-01 -0.65485534185E-01  0.75124329011E-01  0.51100000000E-03 0.  1.
         11    1    4    4    0    0  0.10412248211E-01 -0.10730176266E-01 -0.50476722665E-01  0.52647053550E-01  0.51100000000E-03 0. -1.
</event>
<event>
 8    1  0.1146431E+005  0.1043930E+01  0.7957747E-01            NaN
         13   -1    0    0    0    0  0.00000000000E+00  0.00000000000E+00  0.74505805969E-08  0.10566000000E+00  0.10566000000E+00 0. -1.
     999900   -1    0    0    0    0 -0.00000000000E+00 -0.00000000000E+00 -0.74505805969E-08  0.93827000000E+00  0.93827000000E+00 0.  1.
     999902    2    1    2    0    0  0.55175381290E-02 -0.22909331957E-01  0.29842719237E-02  0.10201773876E+01  0.10199008361E+01 0.  0.
     999903    2    3    3    0    0 -0.24714460735E-01  0.36067671351E-01  0.11911160593E+00  0.13007749522E+00  0.28651328268E-01 0.  0.
         14    1    1    2    0    0 -0.55175381290E-02  0.22909331957E-01 -0.29842719237E-02  0.23752612417E-01  0.00000000000E+00 0.  1.
     999901    1    3    3    0    0  0.30231998864E-01 -0.58977003308E-01 -0.11612733400E+00  0.89009989236E+00  0.88000000000E+00 0.  1.
        -11    1    4    4    0    0 -0.84372809735E-02  0.76605166496E-02  0.72370347587E-02  0.13509515856E-01  0.51100000000E-03 0. -1.
         11    1    4    4    0    0 -0.16277179762E-01  0.28407154701E-01  0.11187457117E+00  0.11656797937E+00  0.51100000000E-03 0.  1.
</event>
<event>
 8    1  0.1146431E+005  0.1043930E+01  0.7957747E-01            NaN
         13   -1    0    0    0    0  0.00000000000E+00  0.00000000000E+00  0.74505805969E-08  0.10566000000E+00  0.10566000000E+00 0.  1.
     999900   -1    0    0    0    0 -0.00000000000E+00 -0.00000000000E+00 -0.74505805969E-08  0.93827000000E+00  0.93827000000E+00 0. -1.
     999902    2    1    2    0    0 -0.21662755394E-01 -0.95068505815E-02 -0.62278188870E-02  0.10194669481E+01  0.10191733991E+01 0.  0.
     999903    2    3    3    0    0  0.37972797745E-01 -0.12147961211E+00 -0.19382207379E-01  0.13027217955E+00  0.19898273142E-01 0.  0.
         14    1    1    2    0    0  0.21662755394E-01  0.95068505815E-02  0.62278188870E-02  0.24463051881E-01  0.00000000000E+00 0.  1.
     999901    1    3    3    0    0 -0.59635553139E-01  0.11197276153E+00  0.13154388492E-01  0.88919476857E+00  0.88000000000E+00 0. -1.
        -11    1    4    4    0    0  0.27336562171E-01 -0.96038786626E-01 -0.71762645628E-02  0.10011241712E+00  0.51100000000E-03 0. -1.
         11    1    4    4    0    0  0.10636235574E-01 -0.25440825483E-01 -0.12205942816E-01  0.30159762424E-01  0.51100000000E-03 0.  1.
</event>
<event>
 8    1  0.1146431E+005  0.1043930E+01  0.7957747E-01            NaN
         13   -1    0    0    0    0  0.00000000000E+00  0.00000000000E+00  0.74505805969E-08  0.10566000000E+00  0.10566000000E+00 0.  1.
     999900   -1    0    0    0    0 -0.00000000000E+00 -0.00000000000E+00 -0.74505805969E-08  0.93827000000E+00  0.93827000000E+00 0. -1.
     999902    2    1    2    0    0 -0.23236513705E-01  0.29102046541E-03 -0.32064561889E-02  0.10204714915E+01  0.10202018248E+01 0.  0.
     999903    2    3    3    0    0 -0.19697001843E-01  0.11925953845E+00  0.46624936939E-01  0.13106202211E+00  0.19813114365E-01 0.  0.
         14    1    1    2    0    0  0.23236513705E-01 -0.29102046541E-03  0.32064561889E-02  0.23458508549E-01  0.00000000000E+00 0. -1.
     999901    1    3    3    0    0 -0.35395118610E-02 -0.11896851799E+00 -0.49831393128E-01  0.88940946934E+00  0.88000000000E+00 0. -1.
        -11    1    4    4    0    0 -0.15070417490E-01  0.47259561262E-01  0.12020715864E-01  0.51042554255E-01  0.51100000000E-03 0. -1.
         11    1    4    4    0    0 -0.46265843539E-02  0.71999977191E-01  0.34604221075E-01  0.80019467853E-01  0.51100000000E-03 0.  1.
</event>
<event>
 8    1  0.1146431E+005  0.1043930E+01  0.7957747E-01            NaN
         13   -1    0    0    0    0  0.00000000000E+00  0.00000000000E+00  0.74505805969E-08  0.10566000000E+00  0.10566000000E+00 0. -1.
     999900   -1    0    0    0    0 -0.00000000000E+00 -0.00000000000E+00 -0.74505805969E-08  0.93827000000E+00  0.93827000000E+00 0.  1.
     999902    2    1    2    0    0  0.12479403066E-01 -0.18793623711E-01  0.50117921637E-02  0.10208203948E+01  0.10205587805E+01 0.  0.
     999903    2    3    3    0    0 -0.20735190563E-02 -0.11287633391E+00 -0.66793443953E-01  0.13277797696E+00  0.20573302398E-01 0.  0.
         14    1    1    2    0    0 -0.12479403066E-01  0.18793623711E-01 -0.50117921637E-02  0.23109605227E-01  0.00000000000E+00 0. -1.
     999901    1    3    3    0    0  0.14552922122E-01  0.94082710203E-01  0.71805236116E-01  0.88804241781E+00  0.88000000000E+00 0. -1.
        -11    1    4    4    0    0 -0.48738360017E-02 -0.44003091553E-01 -0.36929797105E-01  0.57654985724E-01  0.51100000000E-03 0. -1.
         11    1    4    4    0    0  0.28003169454E-02 -0.68873242361E-01 -0.29863646847E-01  0.75122991236E-01  0.51100000000E-03 0.  1.
</event>
<event>
 8    1  0.1146431E+005  0.1043930E+01  0.7957747E-01            NaN
         13   -1    0    0    0    0  0.00000000000E+00  0.00000000000E+00  0.74505805969E-08  0.10566000000E+00  0.10566000000E+00 0. -1.
     999900   -1    0    0    0    0 -0.00000000000E+00 -0.00000000000E+00 -0.74505805969E-08  0.93827000000E+00  0.93827000000E+00 0. -1.
     999902    2    1    2    0    0  0.10151786167E-01  0.87538656063E-02 -0.16392190199E-01  0.10227547119E+01  0.10225354800E+01 0.  0.
     999903    2    3    3    0    0  0.74513237605E-01  0.78210842485E-01  0.75304213561E-01  0.13293737195E+00  0.18233535567E-01 0.  0.
         14    1    1    2    0    0 -0.10151786167E-01 -0.87538656063E-02  0.16392190199E-01  0.21175288073E-01  0.00000000000E+00 0. -1.
     999901    1    3    3    0    0 -0.64361451438E-01 -0.69456976879E-01 -0.91696403760E-01  0.88981733998E+00  0.88000000000E+00 0. -1.
        -11    1    4    4    0    0  0.31019928551E-01  0.21551641463E-01  0.21091419397E-01  0.43264515601E-01  0.51100000000E-03 0.  1.
         11    1    4    4    0    0  0.43493309055E-01  0.56659201023E-01  0.54212794164E-01  0.89672856345E-01  0.51100000000E-03 0. -1.
</event>
<event>
 8    1  0.1146431E+005  0.1043930E+01  0.7957747E-01            NaN
         13   -1    0    0    0    0  0.00000000000E+00  0.00000000000E+00  0.74505805969E-08  0.10566000000E+00  0.10566000000E+00 0. -1.
     999900   -1    0    0    0    0 -0.00000000000E+00 -0.00000000000E+00 -0.74505805969E-08  0.93827000000E+00  0.93827000000E+00 0. -1.
     999902    2    1    2    0    0  0.19888107610E-01  0.15601398054E-01 -0.40923265106E-02  0.10183236027E+01  0.10180016072E+01 0.  0.
     999903    2    3    3    0    0 -0.86787174364E-01 -0.22130429347E-01  0.87194382467E-01  0.12639503505E+00  0.18736995878E-01 0.  0.
         14    1    1    2    0    0 -0.19888107610E-01 -0.15601398054E-01  0.40923265106E-02  0.25606397283E-01  0.00000000000E+00 0. -1.
     999901    1    3    3    0    0  0.10667528197E+00  0.37731827401E-01 -0.91286708977E-01  0.89192856767E+00  0.88000000000E+00 0. -1.
        -11    1    4    4    0    0 -0.71647879682E-01 -0.24990922787E-01  0.69172268582E-01  0.10267925178E+00  0.51100000000E-03 0. -1.
         11    1    4    4    0    0 -0.15139294682E-01  0.28604934396E-02  0.18022113885E-01  0.23715783269E-01  0.51100000000E-03 0.  1.
</event>
<event>
 8    1  0.1146431E+005  0.1043930E+01  0.7957747E-01            NaN
         13   -1    0    0    0    0  0.00000000000E+00  0.00000000000E+00  0.74505805969E-08  0.10566000000E+00  0.10566000000E+00 0.  1.
     999900   -1    0    0    0    0 -0.00000000000E+00 -0.00000000000E+00 -0.74505805969E-08  0.93827000000E+00  0.93827000000E+00 0. -1.
     999902    2    1    2    0    0  0.24187929217E-01  0.19002479820E-01  0.84677770842E-03  0.10131587928E+01  0.10126914003E+01 0.  0.
     999903    2    3    3    0    0 -0.29388182737E-01  0.94504751689E-01  0.74176257854E-01  0.12526904432E+00  0.19884739341E-01 0.  0.
         14    1    1    2    0    0 -0.24187929217E-01 -0.19002479820E-01 -0.84677770842E-03  0.30771207185E-01  0.00000000000E+00 0. -1.
     999901    1    3    3    0    0  0.53576111954E-01 -0.75502271869E-01 -0.73329480145E-01  0.88788974850E+00  0.88000000000E+00 0. -1.
        -11    1    4    4    0    0 -0.20042571102E-01  0.85544444012E-01  0.62469119870E-01  0.10780634775E+00  0.51100000000E-03 0.  1.
         11    1    4    4    0    0 -0.93456116355E-02  0.89603076772E-02  0.11707137983E-01  0.17462696564E-01  0.51100000000E-03 0. -1.
</event>
<event>
 7    1  0.1146431E+005  0.1043930E+01  0.7957747E-01            NaN
         13   -1    0    0    0    0  0.00000000000E+00  0.00000000000E+00  0.74505805969E-08  0.10566000000E+00  0.10566000000E+00 0.  1.
     999900   -1    0    0    0    0 -0.00000000000E+00 -0.00000000000E+00 -0.74505805969E-08  0.93827000000E+00  0.93827000000E+00 0.  1.
     999903    2    1    2    0    0  0.11867765643E-02 -0.15229012285E-01 -0.83786979354E-01  0.87252588491E-01  0.18958508257E-01 0.  0.
         14    1    1    2    0    0  0.16845593997E-01 -0.52784504198E-01 -0.35561823611E-01  0.65837840328E-01  0.00000000000E+00 0. -1.
     999901    1    1    2    0    0 -0.18032370562E-01  0.68013516483E-01  0.11934880296E+00  0.89083957118E+00  0.88000000000E+00 0. -1.
        -11    1    3    3    0    0 -0.47045441925E-02 -0.56156511853E-02 -0.64417093970E-01  0.64834338054E-01  0.51100000000E-03 0.  1.
         11    1    3    3    0    0  0.58913207569E-02 -0.96133610992E-02 -0.19369885384E-01  0.22418250437E-01  0.51100000000E-03 0. -1.
</event>
<event>
 8    1  0.1146431E+005  0.1043930E+01  0.7957747E-01            NaN
         13   -1    0    0    0    0  0.00000000000E+00  0.00000000000E+00  0.74505805969E-08  0.10566000000E+00  0.10566000000E+00 0. -1.
     999900   -1    0    0    0    0 -0.00000000000E+00 -0.00000000000E+00 -0.74505805969E-08  0.93827000000E+00  0.93827000000E+00 0. -1.
     999902    2    1    2    0    0  0.15980402769E-02 -0.22279057794E-01 -0.66995605499E-02  0.10206106033E+01  0.10203441622E+01 0.  0.
     999903    2    3    3    0    0 -0.11013693979E+00  0.12702070044E-01  0.64990518630E-01  0.12996597582E+00  0.19388121895E-01 0.  0.
         14    1    1    2    0    0 -0.15980402769E-02  0.22279057794E-01  0.66995605499E-02  0.23319396658E-01  0.00000000000E+00 0. -1.
     999901    1    3    3    0    0  0.11173498007E+00 -0.34981127838E-01 -0.71690079180E-01  0.89064462752E+00  0.88000000000E+00 0.  1.
        -11    1    4    4    0    0 -0.48111592784E-01 -0.38684842249E-02  0.25515909638E-01  0.54598656541E-01  0.51100000000E-03 0.  1.
         11    1    4    4    0    0 -0.62025347004E-01  0.16570554269E-01  0.39474608992E-01  0.75367319283E-01  0.51100000000E-03 0. -1.
</event>
<event>
 8    1  0.1146431E+005  0.1043930E+01  0.7957747E-01            NaN
         13   -1    0    0    0    0  0.00000000000E+00  0.00000000000E+00  0.74505805969E-08  0.10566000000E+00  0.10566000000E+00 0.  1.
     999900   -1    0    0    0    0 -0.00000000000E+00 -0.00000000000E+00 -0.74505805969E-08  0.93827000000E+00  0.93827000000E+00 0.  1.
     999902    2    1    2    0    0 -0.18310080007E-01 -0.14994956831E-01  0.10176201189E-03  0.10202631853E+01  0.10199886515E+01 0.  0.
     999903    2    3    3    0    0 -0.71378566893E-01  0.10105332818E+00  0.35949478142E-01  0.13033704937E+00  0.19715641299E-01 0.  0.
         14    1    1    2    0    0  0.18310080007E-01  0.14994956831E-01 -0.10176201189E-03  0.23666814651E-01  0.00000000000E+00 0. -1.
     999901    1    3    3    0    0  0.53068486886E-01 -0.11604828501E+00 -0.35847716130E-01  0.88992613598E+00  0.88000000000E+00 0. -1.
        -11    1    4    4    0    0 -0.30116977162E-02  0.15321358811E-01  0.47869716576E-02  0.16339846315E-01  0.51100000000E-03 0. -1.
         11    1    4    4    0    0 -0.68366869177E-01  0.85731969365E-01  0.31162506485E-01  0.11399720305E+00  0.51100000000E-03 0.  1.
</event>
<event>
 8    1  0.1146431E+005  0.1043930E+01  0.7957747E-01            NaN
         13   -1    0    0    0    0  0.00000000000E+00  0.00000000000E+00  0.74505805969E-08  0.10566000000E+00  0.10566000000E+00 0. -1.
     999900   -1    0    0    0    0 -0.00000000000E+00 -0.00000000000E+00 -0.74505805969E-08  0.93827000000E+00  0.93827000000E+00 0.  1.
     999902    2    1    2    0    0  0.35934344128E-02 -0.89534144889E-02  0.21921703222E-01  0.10199792699E+01  0.10196980305E+01 0.  0.
     999903    2    3    3    0    0  0.71482002356E-01  0.10465077685E+00 -0.15286685299E-01  0.12930579764E+00  0.20611763616E-01 0.  0.
         14    1    1    2    0    0 -0.35934344128E-02  0.89534144889E-02 -0.21921703222E-01  0.23950730136E-01  0.00000000000E+00 0.  1.
     999901    1    3    3    0    0 -0.67888567943E-01 -0.11360419134E+00  0.37208388521E-01  0.89067347222E+00  0.88000000000E+00 0.  1.
        -11    1    4    4    0    0  0.34574510881E-01  0.67257289336E-01 -0.51993710346E-02  0.75803920424E-01  0.51100000000E-03 0.  1.
         11    1    4    4    0    0  0.36907491475E-01  0.37393487516E-01 -0.10087314264E-01  0.53501877216E-01  0.51100000000E-03 0. -1.
</event>
<event>
 8    1  0.1146431E+005  0.1043930E+01  0.7957747E-01            NaN
         13   -1    0    0    0    0  0.00000000000E+00  0.00000000000E+00  0.74505805969E-08  0.10566000000E+00  0.10566000000E+00 0. -1.
     999900   -1    0    0    0    0 -0.00000000000E+00 -0.00000000000E+00 -0.74505805969E-08  0.93827000000E+00  0.93827000000E+00 0.  1.
     999902    2    1    2    0    0  0.73136297104E-02 -0.11691966211E-01 -0.18540923411E-01  0.10208224884E+01  0.10205609221E+01 0.  0.
     999903    2    3    3    0    0 -0.70705143567E-01  0.75027813845E-01 -0.78432908977E-01  0.13110663530E+00  0.20219753536E-01 0.  0.
         14    1    1    2    0    0 -0.73136297104E-02  0.11691966211E-01  0.18540923411E-01  0.23107511643E-01  0.00000000000E+00 0.  1.
     999901    1    3    3    0    0  0.78018773278E-01 -0.86719780056E-01  0.59891985567E-01  0.88971585305E+00  0.88000000000E+00 0. -1.
        -11    1    4    4    0    0 -0.98194009292E-02  0.14952624570E-01 -0.23150848997E-01  0.29261314844E-01  0.51100000000E-03 0. -1.
         11    1    4    4    0    0 -0.60885742638E-01  0.60075189275E-01 -0.55282059980E-01  0.10184532046E+00  0.51100000000E-03 0.  1.
</event>
<event>
 8    1  0.1146431E+005  0.1043930E+01  0.7957747E-01            NaN
         13   -1    0    0    0    0  0.00000000000E+00  0.00000000000E+00  0.74505805969E-08  0.10566000000E+00  0.10566000000E+00 0.  1.
     999900   -1    0    0    0    0 -0.00000000000E+00 -0.00000000000E+00 -0.74505805969E-08  0.93827000000E+00  0.93827000000E+00 0. -1.
     999902    2    1    2    0    0 -0.10231862075E-01 -0.89454788846E-02  0.21681826828E-01  0.10183406622E+01  0.10180191010E+01 0.  0.
     999903    2    3    3    0    0  0.49280563045E-01 -0.40827131662E-01  0.11270434734E+00  0.13107335876E+00  0.19558294742E-01 0.  0.
         14    1    1    2    0    0  0.10231862075E-01  0.89454788846E-02 -0.21681826828E-01  0.25589337791E-01  0.00000000000E+00 0. -1.
     999901    1    3    3    0    0 -0.59512425121E-01  0.31881652777E-01 -0.91022520514E-01  0.88726730345E+00  0.88000000000E+00 0. -1.
        -11    1    4    4    0    0  0.23190085245E-01 -0.24121435740E-01  0.40740906577E-01  0.52722920116E-01  0.51100000000E-03 0.  1.
         11    1    4    4    0    0  0.26090477800E-01 -0.16705695921E-01  0.71963440765E-01  0.78350438644E-01  0.51100000000E-03 0. -1.
</event>
<event>
 8    1  0.1146431E+005  0.1043930E+01  0.7957747E-01            NaN
         13   -1    0    0    0    0  0.00000000000E+00  0.00000000000E+00  0.74505805969E-08  0.10566000000E+00  0.10566000000E+00 0.  1.
     999900   -1    0    0    0    0 -0.00000000000E+00 -0.00000000000E+00 -0.74505805969E-08  0.93827000000E+00  0.93827000000E+00 0. -1.
     999902    2    1    2    0    0  0.33979822367E-02 -0.23594903197E-02  0.22981935783E-01  0.10205787077E+01  0.10203115288E+01 0.  0.
     999903    2    3    3    0    0 -0.10972550699E+00 -0.26513880098E-02 -0.64796585527E-01  0.12900589645E+00  0.19930054706E-01 0.  0.
         14    1    1    2    0    0 -0.33979822367E-02  0.23594903197E-02 -0.22981935783E-01  0.23351292260E-01  0.00000000000E+00 0. -1.
     999901    1    3    3    0    0  0.11312348923E+00  0.29189769013E-03  0.87778521310E-01  0.89157281129E+00  0.88000000000E+00 0.  1.
        -11    1    4    4    0    0 -0.10016618107E+00  0.99533701322E-03 -0.52817673395E-01  0.11324408271E+00  0.51100000000E-03 0.  1.
         11    1    4    4    0    0 -0.95593259247E-02 -0.36467250230E-02 -0.11978912133E-01  0.15761813741E-01  0.51100000000E-03 0. -1.
</event>
<event>
 8    1  0.1146431E+005  0.1043930E+01  0.7957747E-01            NaN
         13   -1    0    0    0    0  0.00000000000E+00  0.00000000000E+00  0.74505805969E-08  0.10566000000E+00  0.10566000000E+00 0.  1.
     999900   -1    0    0    0    0 -0.00000000000E+00 -0.00000000000E+00 -0.74505805969E-08  0.93827000000E+00  0.93827000000E+00 0.  1.
     999902    2    1    2    0    0  0.60164011675E-02  0.22661925604E-01 -0.22218015191E-01  0.10116282949E+01  0.10111124600E+01 0.  0.
     999903    2    3    3    0    0  0.30226145349E-01  0.11864930282E+00 -0.22265219019E-01  0.12607779347E+00  0.20213686109E-01 0.  0.
         14    1    1    2    0    0 -0.60164011675E-02 -0.22661925604E-01  0.22218015191E-01  0.32301705127E-01  0.00000000000E+00 0.  1.
     999901    1    3    3    0    0 -0.24209744182E-01 -0.95987377220E-01  0.47203827773E-04  0.88555050140E+00  0.88000000000E+00 0.  1.
        -11    1    4    4    0    0  0.21929257895E-01  0.45889561742E-01 -0.89408587300E-02  0.51642466096E-01  0.51100000000E-03 0.  1.
         11    1    4    4    0    0  0.82968874545E-02  0.72759741082E-01 -0.13324360289E-01  0.74435327378E-01  0.51100000000E-03 0. -1.
</event>
<event>
 8    1  0.1146431E+005  0.1043930E+01  0.7957747E-01            NaN
         13   -1    0    0    0    0  0.00000000000E+00  0.00000000000E+00  0.74505805969E-08  0.10566000000E+00  0.10566000000E+00 0. -1.
     999900   -1    0    0    0    0 -0.00000000000E+00 -0.00000000000E+00 -0.74505805969E-08  0.93827000000E+00  0.93827000000E+00 0. -1.
     999902    2    1    2    0    0  0.20227131305E-01  0.41833286022E-02  0.12034699502E-01  0.10200245389E+01  0.10197443743E+01 0.  0.
     999903    2    3    3    0    0  0.12995779976E+00 -0.54587834804E-02 -0.19572075222E-01  0.13259410323E+00  0.16712332194E-01 0.  0.
         14    1    1    2    0    0 -0.20227131305E-01 -0.41833286022E-02 -0.12034699502E-01  0.23905461116E-01  0.00000000000E+00 0.  1.
     999901    1    3    3    0    0 -0.10973066845E+00  0.96421120826E-02  0.31606774724E-01  0.88743043566E+00  0.88000000000E+00 0.  1.
        -11    1    4    4    0    0  0.47032661970E-01  0.38903030951E-02 -0.15683486682E-02  0.47222098520E-01  0.51100000000E-03 0. -1.
         11    1    4    4    0    0  0.82925137786E-01 -0.93490865755E-02 -0.18003726553E-01  0.85372004706E-01  0.51100000000E-03 0.  1.
</event>
<event>
 8    1  0.1146431E+005  0.1043930E+01  0.7957747E-01            NaN
         13   -1    0    0    0    0  0.00000000000E+00  0.00000000000E+00  0.74505805969E-08  0.10566000000E+00  0.10566000000E+00 0. -1.
     999900   -1    0    0    0    0 -0.00000000000E+00 -0.00000000000E+00 -0.74505805969E-08  0.93827000000E+00  0.93827000000E+00 0. -1.
     999902    2    1    2    0    0 -0.65083854254E-02  0.18617804376E-01  0.12852872835E-01  0.10203890132E+01  0.10201174247E+01 0.  0.
     999903    2    3    3    0    0 -0.85392930195E-01 -0.86256255383E-01 -0.39657366731E-01  0.12910978360E+00  0.19092809243E-01 0.  0.
         14    1    1    2    0    0  0.65083854254E-02 -0.18617804376E-01 -0.12852872835E-01  0.23540986826E-01  0.00000000000E+00 0.  1.
     999901    1    3    3    0    0  0.78884544770E-01  0.10487405976E+00  0.52510239565E-01  0.89127922958E+00  0.88000000000E+00 0.  1.
        -11    1    4    4    0    0 -0.77257940750E-01 -0.73057192899E-01 -0.39964075329E-01  0.11359371145E+00  0.51100000000E-03 0. -1.
         11    1    4    4    0    0 -0.81349894457E-02 -0.13199062484E-01  0.30670859853E-03  0.15516072148E-01  0.51100000000E-03 0.  1.
</event>
<event>
 8    1  0.1146431E+005  0.1043930E+01  0.7957747E-01            NaN
         13   -1    0    0    0    0  0.00000000000E+00  0.00000000000E+00  0.74505805969E-08  0.10566000000E+00  0.10566000000E+00 0. -1.
     999900   -1    0    0    0    0 -0.00000000000E+00 -0.00000000000E+00 -0.74505805969E-08  0.93827000000E+00  0.93827000000E+00 0. -1.
     999902    2    1    2    0    0  0.99282976524E-03  0.13698110739E-01  0.19228117684E-01  0.10203006865E+01  0.10200270322E+01 0.  0.
     999903    2    3    3    0    0 -0.75690424118E-01 -0.39877126343E-01  0.97940198150E-01  0.13184910136E+00  0.21741150083E-01 0.  0.
         14    1    1    2    0    0 -0.99282976524E-03 -0.13698110739E-01 -0.19228117684E-01  0.23629313541E-01  0.00000000000E+00 0.  1.
     999901    1    3    3    0    0  0.76683253884E-01  0.53575237082E-01 -0.78712080466E-01  0.88845158510E+00  0.88000000000E+00 0.  1.
        -11    1    4    4    0    0 -0.56800192293E-01 -0.31915747495E-01  0.86737170028E-01  0.10848260030E+00  0.51100000000E-03 0.  1.
         11    1    4    4    0    0 -0.18890231826E-01 -0.79613788477E-02  0.11203028123E-01  0.23366501058E-01  0.51100000000E-03 0. -1.
</event>
<event>
 8    1  0.1146431E+005  0.1043930E+01  0.7957747E-01            NaN
         13   -1    0    0    0    0  0.00000000000E+00  0.00000000000E+00  0.74505805969E-08  0.10566000000E+00  0.10566000000E+00 0. -1.
     999900   -1    0    0    0    0 -0.00000000000E+00 -0.00000000000E+00 -0.74505805969E-08  0.93827000000E+00  0.93827000000E+00 0. -1.
     999902    2    1    2    0    0  0.29432319281E-02  0.19721143746E-01  0.20880420129E-02  0.10238814079E+01  0.10236851037E+01 0.  0.
     999903    2    3    3    0    0  0.12600036609E+00 -0.10872579880E-01  0.40388361188E-01  0.13396795784E+00  0.17941258571E-01 0.  0.
         14    1    1    2    0    0 -0.29432319281E-02 -0.19721143746E-01 -0.20880420129E-02  0.20048592077E-01  0.00000000000E+00 0.  1.
     999901    1    3    3    0    0 -0.12305713416E+00  0.30593723626E-01 -0.38300319175E-01  0.88991345009E+00  0.88000000000E+00 0. -1.
        -11    1    4    4    0    0  0.90487066061E-01 -0.39368965745E-02  0.36193183920E-01  0.97537766851E-01  0.51100000000E-03 0.  1.
         11    1    4    4    0    0  0.35513300031E-01 -0.69356833057E-02  0.41951772677E-02  0.36430190987E-01  0.51100000000E-03 0. -1.
</event>
<event>
 8    1  0.1146431E+005  0.1043930E+01  0.7957747E-01            NaN
         13   -1    0    0    0    0  0.00000000000E+00  0.00000000000E+00  0.74505805969E-08  0.10566000000E+00  0.10566000000E+00 0.  1.
     999900   -1    0    0    0    0 -0.00000000000E+00 -0.00000000000E+00 -0.74505805969E-08  0.93827000000E+00  0.93827000000E+00 0. -1.
     999902    2    1    2    0    0 -0.87994608591E-02  0.52494733982E-02  0.23624013984E-01  0.10181796307E+01  0.10178539575E+01 0.  0.
     999903    2    3    3    0    0  0.11670090257E+00  0.15269004511E-02 -0.44842496262E-01  0.12663498134E+00  0.20103157549E-01 0.  0.
         14    1    1    2    0    0  0.87994608591E-02 -0.52494733982E-02 -0.23624013984E-01  0.25750369300E-01  0.00000000000E+00 0. -1.
     999901    1    3    3    0    0 -0.12550036343E+00  0.37225729471E-02  0.68466510246E-01  0.89154464936E+00  0.88000000000E+00 0.  1.
        -11    1    4    4    0    0  0.47275521425E-01 -0.72171253416E-02 -0.11853506301E-01  0.49273000283E-01  0.51100000000E-03 0. -1.
         11    1    4    4    0    0  0.69425381144E-01  0.87440257927E-02 -0.32988989960E-01  0.77361981061E-01  0.51100000000E-03 0.  1.
</event>
<event>
 8    1  0.1146431E+005  0.1043930E+01  0.7957747E-01            NaN
         13   -1    0    0    0    0  0.00000000000E+00  0.00000000000E+00  0.74505805969E-08  0.10566000000E+00  0.10566000000E+00 0.  1.
     999900   -1    0    0    0    0 -0.00000000000E+00 -0.00000000000E+00 -0.74505805969E-08  0.93827000000E+00  0.93827000000E+00 0.  1.
     999902    2    1    2    0    0 -0.16632036218E-01  0.13442588528E-01 -0.78600516368E-02  0.10211460533E+01  0.10208918424E+01 0.  0.
     999903    2    3    3    0    0 -0.32775707422E-01 -0.99118694048E-01  0.74832176051E-01  0.12998463977E+00  0.19934630607E-01 0.  0.
         14    1    1    2    0    0  0.16632036218E-01 -0.13442588528E-01  0.78600516368E-02  0.22783946692E-01  0.00000000000E+00 0.  1.
     999901    1    3    3    0    0  0.16143671204E-01  0.11256128258E+00 -0.82692227688E-01  0.89116141354E+00  0.88000000000E+00 0.  1.
        -11    1    4    4    0    0 -0.20571574506E-01 -0.71185033371E-01  0.41978062107E-01  0.85164062097E-01  0.51100000000E-03 0. -1.
         11    1    4    4    0    0 -0.12204132916E-01 -0.27933660677E-01  0.32854113945E-01  0.44820577675E-01  0.51100000000E-03 0.  1.
</event>
<event>
 8    1  0.1146431E+005  0.1043930E+01  0.7957747E-01            NaN
         13   -1    0    0    0    0  0.00000000000E+00  0.00000000000E+00  0.74505805969E-08  0.10566000000E+00  0.10566000000E+00 0. -1.
     999900   -1    0    0    0    0 -0.00000000000E+00 -0.00000000000E+00 -0.74505805969E-08  0.93827000000E+00  0.93827000000E+00 0.  1.
     999902    2    1    2    0    0 -0.17826274851E-01  0.15819475336E-01 -0.79197714949E-03  0.10200834258E+01  0.10198046560E+01 0.  0.
     999903    2    3    3    0    0  0.87015060029E-01  0.29656718992E-01  0.89115827895E-01  0.12920375475E+00  0.17344676643E-01 0.  0.
         14    1    1    2    0    0  0.17826274851E-01 -0.15819475336E-01  0.79197714949E-03  0.23846574236E-01  0.00000000000E+00 0.  1.
     999901    1    3    3    0    0 -0.10484133488E+00 -0.13837243656E-01 -0.89907805045E-01  0.89087967101E+00  0.88000000000E+00 0.  1.
        -11    1    4    4    0    0  0.76276963095E-01  0.28409539405E-01  0.70562299685E-01  0.10772453892E+00  0.51100000000E-03 0. -1.
         11    1    4    4    0    0  0.10738096933E-01  0.12471795868E-02  0.18553528210E-01  0.21479215830E-01  0.51100000000E-03 0.  1.
</event>
<event>
 8    1  0.1146431E+005  0.1043930E+01  0.7957747E-01            NaN
         13   -1    0    0    0    0  0.00000000000E+00  0.00000000000E+00  0.74505805969E-08  0.10566000000E+00  0.10566000000E+00 0.  1.
     999900   -1    0    0    0    0 -0.00000000000E+00 -0.00000000000E+00 -0.74505805969E-08  0.93827000000E+00  0.93827000000E+00 0. -1.
     999902    2    1    2    0    0  0.20461147444E-01  0.83030292992E-02  0.87277942085E-02  0.10201860904E+01  0.10199097440E+01 0.  0.
     999903    2    3    3    0    0 -0.12019819578E+00 -0.25615358553E-01 -0.28027407989E-01  0.12761315068E+00  0.19895420701E-01 0.  0.
         14    1    1    2    0    0 -0.20461147444E-01 -0.83030292992E-02 -0.87277942085E-02  0.23743909577E-01  0.00000000000E+00 0. -1.
     999901    1    3    3    0    0  0.14065934323E+00  0.33918387852E-01  0.36755202197E-01  0.89257293974E+00  0.88000000000E+00 0.  1.
        -11    1    4    4    0    0 -0.94977540849E-01 -0.27185499055E-01 -0.17985855677E-01  0.10041681508E+00  0.51100000000E-03 0.  1.
         11    1    4    4    0    0 -0.25220654933E-01  0.15701405022E-02 -0.10041552312E-01  0.27196335604E-01  0.51100000000E-03 0. -1.
</event>
<event>
 8    1  0.1146431E+005  0.1043930E+01  0.7957747E-01            NaN
         13   -1    0    0    0    0  0.00000000000E+00  0.00000000000E+00  0.74505805969E-08  0.10566000000E+00  0.10566000000E+00 0.  1.
     999900   -1    0    0    0    0 -0.00000000000E+00 -0.00000000000E+00 -0.74505805969E-08  0.93827000000E+00  0.93827000000E+00 0.  1.
     999902    2    1    2    0    0 -0.12192742916E-01  0.21312737425E-01 -0.25114785919E-02  0.10192479563E+01  0.10189490631E+01 0.  0.
     999903    2    3    3    0    0  0.11045543804E+00 -0.54133471650E-01 -0.31289430072E-01  0.12708043994E+00  0.62907262474E-02 0.  0.
         14    1    1    2    0    0  0.12192742916E-01 -0.21312737425E-01  0.25114785919E-02  0.24682043697E-01  0.00000000000E+00 0.  1.
     999901    1    3    3    0    0 -0.12264818096E+00  0.75446209075E-01  0.28777951480E-01  0.89216751636E+00  0.88000000000E+00 0.  1.
        -11    1    4    4    0    0  0.82606508220E-01 -0.42628687441E-01 -0.21731457454E-01  0.95464954603E-01  0.51100000000E-03 0. -1.
         11    1    4    4    0    0  0.27848929818E-01 -0.11504784209E-01 -0.95579726176E-02  0.31615485340E-01  0.51100000000E-03 0.  1.
</event>
<event>
 8    1  0.1146431E+005  0.1043930E+01  0.7957747E-01            NaN
         13   -1    0    0    0    0  0.00000000000E+00  0.00000000000E+00  0.74505805969E-08  0.10566000000E+00  0.10566000000E+00 0. -1.
     999900   -1    0    0    0    0 -0.00000000000E+00 -0.00000000000E+00 -0.74505805969E-08  0.93827000000E+00  0.93827000000E+00 0.  1.
     999902    2    1    2    0    0  0.22440379450E-01 -0.80330085676E-02 -0.39028265472E-04  0.10200951226E+01  0.10198166295E+01 0.  0.
     999903    2    3    3    0    0 -0.94272825050E-02  0.96398579186E-02  0.12547020232E+00  0.13044325529E+00  0.33028331226E-01 0.  0.
         14    1    1    2    0    0 -0.22440379450E-01  0.80330085676E-02  0.39028265472E-04  0.23834877380E-01  0.00000000000E+00 0.  1.
     999901    1    3    3    0    0  0.31867661955E-01 -0.17672866486E-01 -0.12550923058E+00  0.88965186733E+00  0.88000000000E+00 0.  1.
        -11    1    4    4    0    0  0.69322452211E-02  0.16509735844E-01  0.61448656843E-01  0.64006452411E-01  0.51100000000E-03 0. -1.
         11    1    4    4    0    0 -0.16359527726E-01 -0.68698779251E-02  0.64021545476E-01  0.66436802875E-01  0.51100000000E-03 0.  1.
</event>
<event>
 8    1  0.1146431E+005  0.1043930E+01  0.7957747E-01            NaN
         13   -1    0    0    0    0  0.00000000000E+00  0.00000000000E+00  0.74505805969E-08  0.10566000000E+00  0.10566000000E+00 0.  1.
     999900   -1    0    0    0    0 -0.00000000000E+00 -0.00000000000E+00 -0.74505805969E-08  0.93827000000E+00  0.93827000000E+00 0. -1.
     999902    2    1    2    0    0 -0.58112746520E-02  0.75056454609E-02  0.21151628761E-01  0.10207460179E+01  0.10204826976E+01 0.  0.
     999903    2    3    3    0    0 -0.20894353205E-01  0.43260239489E-01 -0.11804441735E+00  0.12896048903E+00  0.19705353254E-01 0.  0.
         14    1    1    2    0    0  0.58112746520E-02 -0.75056454609E-02 -0.21151628761E-01  0.23183982102E-01  0.00000000000E+00 0. -1.
     999901    1    3    3    0    0  0.15083078553E-01 -0.35754594028E-01  0.13919604611E+00  0.89178552887E+00  0.88000000000E+00 0.  1.
        -11    1    4    4    0    0 -0.21606523096E-01  0.32534892695E-01 -0.10512323336E+00  0.11214506853E+00  0.51100000000E-03 0.  1.
         11    1    4    4    0    0  0.71216989092E-03  0.10725346794E-01 -0.12921183987E-01  0.16815420495E-01  0.51100000000E-03 0. -1.
</event>
<event>
 8    1  0.1146431E+005  0.1043930E+01  0.7957747E-01            NaN
         13   -1    0    0    0    0  0.00000000000E+00  0.00000000000E+00  0.74505805969E-08  0.10566000000E+00  0.10566000000E+00 0.  1.
     999900   -1    0    0    0    0 -0.00000000000E+00 -0.00000000000E+00 -0.74505805969E-08  0.93827000000E+00  0.93827000000E+00 0.  1.
     999902    2    1    2    0    0 -0.25951694236E-02 -0.13748903286E-01  0.17829426244E-01  0.10212660267E+01  0.10210145159E+01 0.  0.
     999903    2    3    3    0    0 -0.10801565075E+00  0.79457389819E-02 -0.69802510337E-01  0.13038809359E+00  0.19953669482E-01 0.  0.
         14    1    1    2    0    0  0.25951694236E-02  0.13748903286E-01 -0.17829426244E-01  0.22663973308E-01  0.00000000000E+00 0. -1.
     999901    1    3    3    0    0  0.10542048132E+00 -0.21694642268E-01  0.87631936581E-01  0.89087793311E+00  0.88000000000E+00 0. -1.
        -11    1    4    4    0    0 -0.69053122982E-01 -0.30561631101E-02 -0.50033175654E-01  0.85330262589E-01  0.51100000000E-03 0. -1.
         11    1    4    4    0    0 -0.38962527764E-01  0.11001902092E-01 -0.19769334683E-01  0.45057830998E-01  0.51100000000E-03 0.  1.
</event>
<event>
 8    1  0.1146431E+005  0.1043930E+01  0.7957747E-01            NaN
         13   -1    0    0    0    0  0.00000000000E+00  0.00000000000E+00  0.74505805969E-08  0.10566000000E+00  0.10566000000E+00 0.  1.
     999900   -1    0    0    0    0 -0.00000000000E+00 -0.00000000000E+00 -0.74505805969E-08  0.93827000000E+00  0.93827000000E+00 0. -1.
     999902    2    1    2    0    0 -0.13875645726E-01 -0.14035463038E-01 -0.11954094778E-01  0.10208555954E+01  0.10205947866E+01 0.  0.
     999903    2    3    3    0    0 -0.81638788913E-01 -0.86715835768E-01 -0.58021311104E-01  0.13406561540E+00  0.20556961417E-01 0.  0.
         14    1    1    2    0    0  0.13875645726E-01  0.14035463038E-01  0.11954094778E-01  0.23074404628E-01  0.00000000000E+00 0.  1.
     999901    1    3    3    0    0  0.67763143187E-01  0.72680372730E-01  0.46067216327E-01  0.88678997997E+00  0.88000000000E+00 0. -1.
        -11    1    4    4    0    0 -0.31035385388E-01 -0.43071587142E-01 -0.34041204917E-01  0.63066802030E-01  0.51100000000E-03 0. -1.
         11    1    4    4    0    0 -0.50603403525E-01 -0.43644248626E-01 -0.23980106187E-01  0.70998813371E-01  0.51100000000E-03 0.  1.
</event>
<event>
 8    1  0.1146431E+005  0.1043930E+01  0.7957747E-01            NaN
         13   -1    0    0    0    0  0.00000000000E+00  0.00000000000E+00  0.74505805969E-08  0.10566000000E+00  0.10566000000E+00 0.  1.
     999900   -1    0    0    0    0 -0.00000000000E+00 -0.00000000000E+00 -0.74505805969E-08  0.93827000000E+00  0.93827000000E+00 0. -1.
     999902    2    1    2    0    0 -0.42405131532E-02  0.17228018555E-01 -0.15658840828E-01  0.10202659794E+01  0.10199915112E+01 0.  0.
     999903    2    3    3    0    0 -0.28357380140E-01 -0.32724798999E-01 -0.12314199569E+00  0.13199263417E+00  0.19571686079E-01 0.  0.
         14    1    1    2    0    0  0.42405131532E-02 -0.17228018555E-01  0.15658840828E-01  0.23664020605E-01  0.00000000000E+00 0.  1.
     999901    1    3    3    0    0  0.24116866987E-01  0.49952817554E-01  0.10748315486E+00  0.88827334522E+00  0.88000000000E+00 0.  1.
        -11    1    4    4    0    0 -0.82590973475E-02 -0.20461776299E-01 -0.78190522683E-01  0.81246021052E-01  0.51100000000E-03 0.  1.
         11    1    4    4    0    0 -0.20098282793E-01 -0.12263022700E-01 -0.44951473004E-01  0.50746613121E-01  0.51100000000E-03 0. -1.
</event>
<event>
 8    1  0.1146431E+005  0.1043930E+01  0.7957747E-01            NaN
         13   -1    0    0    0    0  0.00000000000E+00  0.00000000000E+00  0.74505805969E-08  0.10566000000E+00  0.10566000000E+00 0.  1.
     999900   -1    0    0    0    0 -0.00000000000E+00 -0.00000000000E+00 -0.74505805969E-08  0.93827000000E+00  0.93827000000E+00 0. -1.
     999902    2    1    2    0    0  0.10422137179E-01  0.12296051818E-01  0.17810773166E-01  0.10199083957E+01  0.10196254695E+01 0.  0.
     999903    2    3    3    0    0 -0.46553586762E-01 -0.96847211538E-01 -0.65384141248E-01  0.12745118166E+00  0.20545047021E-01 0.  0.
         14    1    1    2    0    0 -0.10422137179E-01 -0.12296051818E-01 -0.17810773166E-01  0.24021604328E-01  0.00000000000E+00 0. -1.
     999901    1    3    3    0    0  0.56975723941E-01  0.10914326336E+00  0.83194914414E-01  0.89245721401E+00  0.88000000000E+00 0.  1.
        -11    1    4    4    0    0 -0.27070628350E-01 -0.43712213542E-01 -0.21061215033E-01  0.55564488945E-01  0.51100000000E-03 0. -1.
         11    1    4    4    0    0 -0.19482958412E-01 -0.53134997997E-01 -0.44322926215E-01  0.71886692717E-01  0.51100000000E-03 0.  1.
</event>
<event>
 8    1  0.1146431E+005  0.1043930E+01  0.7957747E-01            NaN
         13   -1    0    0    0    0  0.00000000000E+00  0.00000000000E+00  0.74505805969E-08  0.10566000000E+00  0.10566000000E+00 0.  1.
     999900   -1    0    0    0    0 -0.00000000000E+00 -0.00000000000E+00 -0.74505805969E-08  0.93827000000E+00  0.93827000000E+00 0.  1.
     999902    2    1    2    0    0  0.89872947646E-02  0.69603669845E-02  0.21092953499E-01  0.10199689720E+01  0.10196874879E+01 0.  0.
     999903    2    3    3    0    0 -0.11493944164E+00 -0.34398198974E-01 -0.41022894702E-01  0.12815803599E+00  0.18635797872E-01 0.  0.
         14    1    1    2    0    0 -0.89872947646E-02 -0.69603669845E-02 -0.21092953499E-01  0.23961028005E-01  0.00000000000E+00 0. -1.
     999901    1    3    3    0    0  0.12392673641E+00  0.41358565958E-01  0.62115848200E-01  0.89181093600E+00  0.88000000000E+00 0. -1.
        -11    1    4    4    0    0 -0.34915068603E-01 -0.34321949677E-02 -0.65985677250E-02  0.35702159527E-01  0.51100000000E-03 0.  1.
         11    1    4    4    0    0 -0.80024373039E-01 -0.30966004006E-01 -0.34424326977E-01  0.92455876467E-01  0.51100000000E-03 0. -1.
</event>
<event>
 8    1  0.1146431E+005  0.1043930E+01  0.7957747E-01            NaN
         13   -1    0    0    0    0  0.00000000000E+00  0.00000000000E+00  0.74505805969E-08  0.10566000000E+00  0.10566000000E+00 0. -1.
     999900   -1    0    0    0    0 -0.00000000000E+00 -0.00000000000E+00 -0.74505805969E-08  0.93827000000E+00  0.93827000000E+00 0. -1.
     999902    2    1    2    0    0  0.22665102579E-01 -0.10530742000E-01  0.67522150277E-02  0.10180418597E+01  0.10177126472E+01 0.  0.
     999903    2    3    3    0    0  0.50121787425E-01  0.56761910721E-02 -0.11555731533E+00  0.12901083915E+00  0.27311000961E-01 0.  0.
         14    1    1    2    0    0 -0.22665102579E-01  0.10530742000E-01 -0.67522150277E-02  0.25888140330E-01  0.00000000000E+00 0. -1.
     999901    1    3    3    0    0 -0.27456684846E-01 -0.16206933072E-01  0.12230953036E+00  0.88903102052E+00  0.88000000000E+00 0.  1.
        -11    1    4    4    0    0  0.27680991026E-01 -0.77129647374E-02 -0.79047235161E-01  0.84109771114E-01  0.51100000000E-03 0. -1.
         11    1    4    4    0    0  0.22440796399E-01  0.13389155809E-01 -0.36510080168E-01  0.44901068040E-01  0.51100000000E-03 0.  1.
</event>
<event>
 8    1  0.1146431E+005  0.1043930E+01  0.7957747E-01            NaN
         13   -1    0    0    0    0  0.00000000000E+00  0.00000000000E+00  0.74505805969E-08  0.10566000000E+00  0.10566000000E+00 0. -1.
     999900   -1    0    0    0    0 -0.00000000000E+00 -0.00000000000E+00 -0.74505805969E-08  0.93827000000E+00  0.93827000000E+00 0. -1.
     999902    2    1    2    0    0  0.16688395481E-01 -0.33668729717E-02  0.18519300329E-01  0.10187744268E+01  0.10184638088E+01 0.  0.
     999903    2    3    3    0    0 -0.10047136013E+00  0.70006555786E-01 -0.26317406682E-01  0.12685492447E+00  0.20103579493E-01 0.  0.
         14    1    1    2    0    0 -0.16688395481E-01  0.33668729717E-02 -0.18519300329E-01  0.25155573180E-01  0.00000000000E+00 0.  1.
     999901    1    3    3    0    0  0.11715975561E+00 -0.73373428758E-01  0.44836707011E-01  0.89191950235E+00  0.88000000000E+00 0.  1.
        -11    1    4    4    0    0 -0.69980693353E-01  0.58254572359E-01 -0.15081274133E-01  0.92296254493E-01  0.51100000000E-03 0.  1.
         11    1    4    4    0    0 -0.30490666773E-01  0.11751983427E-01 -0.11236132549E-01  0.34558669975E-01  0.51100000000E-03 0. -1.
</event>
<event>
 8    1  0.1146431E+005  0.1043930E+01  0.7957747E-01            NaN
         13   -1    0    0    0    0  0.00000000000E+00  0.00000000000E+00  0.74505805969E-08  0.10566000000E+00  0.10566000000E+00 0.  1.
     999900   -1    0    0    0    0 -0.00000000000E+00 -0.00000000000E+00 -0.74505805969E-08  0.93827000000E+00  0.93827000000E+00 0. -1.
     999902    2    1    2    0    0 -0.22445429387E-01 -0.12306430284E-01  0.91451875276E-02  0.10167476531E+01  0.10163842335E+01 0.  0.
     999903    2    3    3    0    0  0.62721959317E-01  0.28648362612E-02  0.10840192369E+00  0.12695242325E+00  0.20583713045E-01 0.  0.
         14    1    1    2    0    0  0.22445429387E-01  0.12306430284E-01 -0.91451875276E-02  0.27182346875E-01  0.00000000000E+00 0. -1.
     999901    1    3    3    0    0 -0.85167388704E-01 -0.15171266546E-01 -0.99256736164E-01  0.88979522987E+00  0.88000000000E+00 0. -1.
        -11    1    4    4    0    0  0.56273541576E-02  0.67551319513E-02  0.15991033471E-01  0.18255771552E-01  0.51100000000E-03 0. -1.
         11    1    4    4    0    0  0.57094605159E-01 -0.38902956901E-02  0.92410890220E-01  0.10869665170E+00  0.51100000000E-03 0.  1.
</event>
<event>
 8    1  0.1146431E+005  0.1043930E+01  0.7957747E-01            NaN
         13   -1    0    0    0    0  0.00000000000E+00  0.00000000000E+00  0.74505805969E-08  0.10566000000E+00  0.10566000000E+00 0. -1.
     999900   -1    0    0    0    0 -0.00000000000E+00 -0.00000000000E+00 -0.74505805969E-08  0.93827000000E+00  0.93827000000E+00 0. -1.
     999902    2    1    2    0    0 -0.94117527580E-03  0.19972577224E-01 -0.12677564250E-01  0.10202549015E+01  0.10199801733E+01 0.  0.
     999903    2    3    3    0    0  0.26532607497E-01  0.55470356943E-01  0.11269689287E+00  0.13023599410E+00  0.21906271611E-01 0.  0.
         14    1    1    2    0    0  0.94117527580E-03 -0.19972577224E-01  0.12677564250E-01  0.23675098461E-01  0.00000000000E+00 0. -1.
     999901    1    3    3    0    0 -0.27473782773E-01 -0.35497779719E-01 -0.12537445712E+00  0.89001890744E+00  0.88000000000E+00 0.  1.
        -11    1    4    4    0    0  0.12151980965E-01  0.25745794520E-01  0.74422267520E-01  0.79683446215E-01  0.51100000000E-03 0.  1.
         11    1    4    4    0    0  0.14380626533E-01  0.29724562423E-01  0.38274625350E-01  0.50552547882E-01  0.51100000000E-03 0. -1.
</event>
<event>
 8    1  0.1146431E+005  0.1043930E+01  0.7957747E-01            NaN
         13   -1    0    0    0    0  0.00000000000E+00  0.00000000000E+00  0.74505805969E-08  0.10566000000E+00  0.10566000000E+00 0. -1.
     999900   -1    0    0    0    0 -0.00000000000E+00 -0.00000000000E+00 -0.74505805969E-08  0.93827000000E+00  0.93827000000E+00 0.  1.
     999902    2    1    2    0    0  0.89986721909E-02  0.21451253201E-01 -0.41662355658E-02  0.10202976094E+01  0.10200238830E+01 0.  0.
     999903    2    3    3    0    0 -0.44905079339E-01 -0.94661617293E-01 -0.71740105039E-01  0.12847137022E+00  0.19518256966E-01 0.  0.
         14    1    1    2    0    0 -0.89986721909E-02 -0.21451253201E-01  0.41662355658E-02  0.23632390566E-01  0.00000000000E+00 0. -1.
     999901    1    3    3    0    0  0.53903751530E-01  0.11611287049E+00  0.67573869474E-01  0.89182623922E+00  0.88000000000E+00 0. -1.
        -11    1    4    4    0    0 -0.11547564515E-01 -0.24459065885E-01 -0.87716356534E-02  0.28439318966E-01  0.51100000000E-03 0. -1.
         11    1    4    4    0    0 -0.33357514824E-01 -0.70202551408E-01 -0.62968469386E-01  0.10003205125E+00  0.51100000000E-03 0.  1.
</event>
<event>
 8    1  0.1146431E+005  0.1043930E+01  0.7957747E-01            NaN
         13   -1    0    0    0    0  0.00000000000E+00  0.00000000000E+00  0.74505805969E-08  0.10566000000E+00  0.10566000000E+00 0.  1.
     999900   -1    0    0    0    0 -0.00000000000E+00 -0.00000000000E+00 -0.74505805969E-08  0.93827000000E+00  0.93827000000E+00 0. -1.
     999902    2    1    2    0    0 -0.20719984618E-02  0.14922130446E-01 -0.19005880728E-01  0.10196774402E+01  0.10193889814E+01 0.  0.
     999903    2    3    3    0    0 -0.10658800252E+00  0.71927276451E-01  0.15579107237E-01  0.13098778505E+00  0.19507841298E-01 0.  0.
         14    1    1    2    0    0  0.20719984618E-02 -0.14922130446E-01  0.19005880728E-01  0.24252559801E-01  0.00000000000E+00 0.  1.
     999901    1    3    3    0    0  0.10451600405E+00 -0.57005146006E-01 -0.34584987965E-01  0.88868965515E+00  0.88000000000E+00 0. -1.
        -11    1    4    4    0    0 -0.25868084175E-01  0.26724461030E-01  0.17200983392E-03  0.37197383034E-01  0.51100000000E-03 0. -1.
         11    1    4    4    0    0 -0.80719918341E-01  0.45202815422E-01  0.15407097404E-01  0.93790402017E-01  0.51100000000E-03 0.  1.
</event>
<event>
 8    1  0.1146431E+005  0.1043930E+01  0.7957747E-01            NaN
         13   -1    0    0    0    0  0.00000000000E+00  0.00000000000E+00  0.74505805969E-08  0.10566000000E+00  0.10566000000E+00 0. -1.
     999900   -1    0    0    0    0 -0.00000000000E+00 -0.00000000000E+00 -0.74505805969E-08  0.93827000000E+00  0.93827000000E+00 0.  1.
     999902    2    1    2    0    0  0.88598653379E-02 -0.62546060632E-02 -0.20484401390E-01  0.10207518204E+01  0.10204886333E+01 0.  0.
     999903    2    3    3    0    0 -0.10545281368E+00  0.41801266878E-01 -0.63153576059E-01  0.13103421687E+00  0.17718634104E-01 0.  0.
         14    1    1    2    0    0 -0.88598653379E-02  0.62546060632E-02  0.20484401390E-01  0.23178179633E-01  0.00000000000E+00 0.  1.
     999901    1    3    3    0    0  0.11431267902E+00 -0.48055872942E-01  0.42669174669E-01  0.88971760350E+00  0.88000000000E+00 0. -1.
        -11    1    4    4    0    0 -0.28802395181E-01  0.19279674757E-01 -0.23180804319E-01  0.41700055597E-01  0.51100000000E-03 0.  1.
         11    1    4    4    0    0 -0.76650418503E-01  0.22521592121E-01 -0.39972771740E-01  0.89334161271E-01  0.51100000000E-03 0. -1.
</event>
<event>
 8    1  0.1146431E+005  0.1043930E+01  0.7957747E-01            NaN
         13   -1    0    0    0    0  0.00000000000E+00  0.00000000000E+00  0.74505805969E-08  0.10566000000E+00  0.10566000000E+00 0.  1.
     999900   -1    0    0    0    0 -0.00000000000E+00 -0.00000000000E+00 -0.74505805969E-08  0.93827000000E+00  0.93827000000E+00 0.  1.
     999902    2    1    2    0    0  0.74595040592E-02 -0.17261154492E-01 -0.14176957324E-01  0.10203805250E+01  0.10201087383E+01 0.  0.
     999903    2    3    3    0    0  0.10837064606E+00 -0.28169503248E-01 -0.68661887377E-01  0.13287240768E+00  0.20072471282E-01 0.  0.
         14    1    1    2    0    0 -0.74595040592E-02  0.17261154492E-01  0.14176957324E-01  0.23549475030E-01  0.00000000000E+00 0.  1.
     999901    1    3    3    0    0 -0.10091114200E+00  0.10908348756E-01  0.54484930052E-01  0.88750811729E+00  0.88000000000E+00 0. -1.
        -11    1    4    4    0    0  0.87037386359E-01 -0.14408234430E-01 -0.50505871121E-01  0.10165730659E+00  0.51100000000E-03 0. -1.
         11    1    4    4    0    0  0.21333259704E-01 -0.13761268818E-01 -0.18156016255E-01  0.31215101095E-01  0.51100000000E-03 0.  1.
</event>
<event>
 8    1  0.1146431E+005  0.1043930E+01  0.7957747E-01            NaN
         13   -1    0    0    0    0  0.00000000000E+00  0.00000000000E+00  0.74505805969E-08  0.10566000000E+00  0.10566000000E+00 0.  1.
     999900   -1    0    0    0    0 -0.00000000000E+00 -0.00000000000E+00 -0.74505805969E-08  0.93827000000E+00  0.93827000000E+00 0. -1.
     999902    2    1    2    0    0  0.97922345669E-02  0.17022713304E-01  0.14791384852E-01  0.10193445227E+01  0.10190479922E+01 0.  0.
     999903    2    3    3    0    0 -0.83974351983E-01  0.94520751889E-01 -0.23239840923E-01  0.13016259936E+00  0.20404600893E-01 0.  0.
         14    1    1    2    0    0 -0.97922345669E-02 -0.17022713304E-01 -0.14791384852E-01  0.24585477256E-01  0.00000000000E+00 0. -1.
     999901    1    3    3    0    0  0.93766586550E-01 -0.77498038585E-01  0.38031225775E-01  0.88918192338E+00  0.88000000000E+00 0. -1.
        -11    1    4    4    0    0 -0.53359083185E-01  0.47142826906E-01 -0.18411730632E-01  0.73545161859E-01  0.51100000000E-03 0. -1.
         11    1    4    4    0    0 -0.30615268798E-01  0.47377924983E-01 -0.48281102913E-02  0.56617437502E-01  0.51100000000E-03 0.  1.
</event>
<event>
 8    1  0.1146431E+005  0.1043930E+01  0.7957747E-01            NaN
         13   -1    0    0    0    0  0.00000000000E+00  0.00000000000E+00  0.74505805969E-08  0.10566000000E+00  0.10566000000E+00 0.  1.
     999900   -1    0    0    0    0 -0.00000000000E+00 -0.00000000000E+00 -0.74505805969E-08  0.93827000000E+00  0.93827000000E+00 0.  1.
     999902    2    1    2    0    0  0.15415544513E-03 -0.20148150459E-01  0.75414062714E-02  0.10224161779E+01  0.10221898045E+01 0.  0.
     999903    2    3    3    0    0 -0.12272012592E+00  0.12148969742E-01  0.44155121197E-01  0.13253879476E+00  0.20224505330E-01 0.  0.
         14    1    1    2    0    0 -0.15415544513E-03  0.20148150459E-01 -0.75414062714E-02  0.21513822054E-01  0.00000000000E+00 0. -1.
     999901    1    3    3    0    0  0.12287428136E+00 -0.32297120200E-01 -0.36613714925E-01  0.88987738319E+00  0.88000000000E+00 0.  1.
        -11    1    4    4    0    0 -0.94885470474E-01  0.23840198491E-02  0.28299460872E-01  0.99045730168E-01  0.51100000000E-03 0.  1.
         11    1    4    4    0    0 -0.27834655445E-01  0.97649498926E-02  0.15855660324E-01  0.33493064588E-01  0.51100000000E-03 0. -1.
</event>
<event>
 8    1  0.1146431E+005  0.1043930E+01  0.7957747E-01            NaN
         13   -1    0    0    0    0  0.00000000000E+00  0.00000000000E+00  0.74505805969E-08  0.10566000000E+00  0.10566000000E+00 0. -1.
     999900   -1    0    0    0    0 -0.00000000000E+00 -0.00000000000E+00 -0.74505805969E-08  0.93827000000E+00  0.93827000000E+00 0.  1.
     999902    2    1    2    0    0  0.76240075061E-03 -0.16993353394E-01  0.14922161664E-01  0.10213020036E+01  0.10210512995E+01 0.  0.
     999903    2    3    3    0    0 -0.76792956941E-01  0.88526804853E-01 -0.50360054937E-01  0.12921954934E+00  0.20673736625E-01 0.  0.
         14    1    1    2    0    0 -0.76240075061E-03  0.16993353394E-01 -0.14922161664E-01  0.22627996447E-01  0.00000000000E+00 0. -1.
     999901    1    3    3    0    0  0.77555357692E-01 -0.10552015825E+00  0.65282216601E-01  0.89208245421E+00  0.88000000000E+00 0.  1.
        -11    1    4    4    0    0 -0.52739909492E-01  0.60598726307E-01 -0.44672269247E-01  0.91921577684E-01  0.51100000000E-03 0.  1.
         11    1    4    4    0    0 -0.24053047449E-01  0.27928078546E-01 -0.56877856904E-02  0.37297971659E-01  0.51100000000E-03 0. -1.
</event>
<event>
 8    1  0.1146431E+005  0.1043930E+01  0.7957747E-01            NaN
         13   -1    0    0    0    0  0.00000000000E+00  0.00000000000E+00  0.74505805969E-08  0.10566000000E+00  0.10566000000E+00 0. -1.
     999900   -1    0    0    0    0 -0.00000000000E+00 -0.00000000000E+00 -0.74505805969E-08  0.93827000000E+00  0.93827000000E+00 0. -1.
     999902    2    1    2    0    0  0.16790802544E-01 -0.58245549796E-02 -0.16550108468E-01  0.10196449721E+01  0.10193557311E+01 0.  0.
     999903    2    3    3    0    0  0.43795855838E-01 -0.65087667399E-01  0.10090185595E+00  0.12945602958E+00  0.20571767663E-01 0.  0.
         14    1    1    2    0    0 -0.16790802544E-01  0.58245549796E-02  0.16550108468E-01  0.24285027920E-01  0.00000000000E+00 0. -1.
     999901    1    3    3    0    0 -0.27005053294E-01  0.59263112419E-01 -0.11745196442E+00  0.89018894250E+00  0.88000000000E+00 0. -1.
        -11    1    4    4    0    0  0.28866859719E-01 -0.25668569336E-01  0.53974720417E-01  0.66375466905E-01  0.51100000000E-03 0. -1.
         11    1    4    4    0    0  0.14928996119E-01 -0.39419098063E-01  0.46927135536E-01  0.63080562678E-01  0.51100000000E-03 0.  1.
</event>
<event>
 8    1  0.1146431E+005  0.1043930E+01  0.7957747E-01            NaN
         13   -1    0    0    0    0  0.00000000000E+00  0.00000000000E+00  0.74505805969E-08  0.10566000000E+00  0.10566000000E+00 0. -1.
     999900   -1    0    0    0    0 -0.00000000000E+00 -0.00000000000E+00 -0.74505805969E-08  0.93827000000E+00  0.93827000000E+00 0.  1.
     999902    2    1    2    0    0 -0.16943780247E-01  0.86002855352E-02 -0.11858962796E-01  0.10215315269E+01  0.10212859388E+01 0.  0.
     999903    2    3    3    0    0  0.66411765469E-01 -0.51445547610E-01  0.96027240396E-01  0.12901089297E+00  0.19115769554E-01 0.  0.
         14    1    1    2    0    0  0.16943780247E-01 -0.86002855352E-02  0.11858962796E-01  0.22398473139E-01  0.00000000000E+00 0. -1.
     999901    1    3    3    0    0 -0.83355545716E-01  0.60045833145E-01 -0.10788620319E+00  0.89252063389E+00  0.88000000000E+00 0.  1.
        -11    1    4    4    0    0  0.26799108758E-01 -0.18030037648E-01  0.23851506605E-01  0.40155074102E-01  0.51100000000E-03 0. -1.
         11    1    4    4    0    0  0.39612656711E-01 -0.33415509962E-01  0.72175733791E-01  0.88855818869E-01  0.51100000000E-03 0.  1.
</event>
<event>
 8    1  0.1146431E+005  0.1043930E+01  0.7957747E-01            NaN
         13   -1    0    0    0    0  0.00000000000E+00  0.00000000000E+00  0.74505805969E-08  0.10566000000E+00  0.10566000000E+00 0. -1.
     999900   -1    0    0    0    0 -0.00000000000E+00 -0.00000000000E+00 -0.74505805969E-08  0.93827000000E+00  0.93827000000E+00 0. -1.
     999902    2    1    2    0    0 -0.24276358275E-01  0.68593785590E-02 -0.19192404668E-02  0.10186302741E+01  0.10183160409E+01 0.  0.
     999903    2    3    3    0    0 -0.12584493415E+00  0.34312646955E-01  0.98539568083E-02  0.13228470623E+00  0.19693599138E-01 0.  0.
         14    1    1    2    0    0  0.24276358275E-01 -0.68593785590E-02  0.19192404668E-02  0.25299725874E-01  0.00000000000E+00 0.  1.
     999901    1    3    3    0    0  0.10156857587E+00 -0.27453268396E-01 -0.11773197275E-01  0.88634556789E+00  0.88000000000E+00 0. -1.
        -11    1    4    4    0    0 -0.24213782892E-01  0.61496028846E-02  0.97493349063E-02  0.26822295757E-01  0.51100000000E-03 0.  1.
         11    1    4    4    0    0 -0.10163115125E+00  0.28163044070E-01  0.10462190200E-03  0.10546241048E+00  0.51100000000E-03 0. -1.
</event>
<event>
 8    1  0.1146431E+005  0.1043930E+01  0.7957747E-01            NaN
         13   -1    0    0    0    0  0.00000000000E+00  0.00000000000E+00  0.74505805969E-08  0.10566000000E+00  0.10566000000E+00 0. -1.
     999900   -1    0    0    0    0 -0.00000000000E+00 -0.00000000000E+00 -0.74505805969E-08  0.93827000000E+00  0.93827000000E+00 0.  1.
     999902    2    1    2    0    0 -0.10881563417E-01 -0.18441808299E-01  0.10616951507E-01  0.10200296156E+01  0.10197495714E+01 0.  0.
     999903    2    3    3    0    0 -0.18313857600E-01  0.43538062632E-01  0.12064555270E+00  0.13098347703E+00  0.19244780917E-01 0.  0.
         14    1    1    2    0    0  0.10881563417E-01  0.18441808299E-01 -0.10616951507E-01  0.23900384412E-01  0.00000000000E+00 0.  1.
     999901    1    3    3    0    0  0.74322941831E-02 -0.61979870931E-01 -0.11002860119E+00  0.88904613855E+00  0.88000000000E+00 0.  1.
        -11    1    4    4    0    0  0.13898635815E-02  0.16619057931E-01  0.29047124152E-01  0.33498079793E-01  0.51100000000E-03 0. -1.
         11    1    4    4    0    0 -0.19703721182E-01  0.26919004701E-01  0.91598428545E-01  0.97485397242E-01  0.51100000000E-03 0.  1.
</event>
<event>
 8    1  0.1146431E+005  0.1043930E+01  0.7957747E-01            NaN
         13   -1    0    0    0    0  0.00000000000E+00  0.00000000000E+00  0.74505805969E-08  0.10566000000E+00  0.10566000000E+00 0. -1.
     999900   -1    0    0    0    0 -0.00000000000E+00 -0.00000000000E+00 -0.74505805969E-08  0.93827000000E+00  0.93827000000E+00 0.  1.
     999902    2    1    2    0    0 -0.94897707594E-02  0.92294472259E-02 -0.25691321793E-01  0.10150287464E+01  0.10146172054E+01 0.  0.
     999903    2    3    3    0    0 -0.19476739369E-01 -0.50454010527E-01 -0.11331496880E+00  0.12860911766E+00  0.27840122767E-01 0.  0.
         14    1    1    2    0    0  0.94897707594E-02 -0.92294472259E-02  0.25691321793E-01  0.28901253617E-01  0.00000000000E+00 0. -1.
     999901    1    3    3    0    0  0.99869686099E-02  0.59683457753E-01  0.87623647010E-01  0.88641962872E+00  0.88000000000E+00 0. -1.
        -11    1    4    4    0    0  0.66399329398E-02 -0.47822344941E-02 -0.14325828460E-01  0.16506027937E-01  0.51100000000E-03 0. -1.
         11    1    4    4    0    0 -0.26116672309E-01 -0.45671776033E-01 -0.98989140343E-01  0.11210308972E+00  0.51100000000E-03 0.  1.
</event>
<event>
 8    1  0.1146431E+005  0.1043930E+01  0.7957747E-01            NaN
         13   -1    0    0    0    0  0.00000000000E+00  0.00000000000E+00  0.74505805969E-08  0.10566000000E+00  0.10566000000E+00 0.  1.
     999900   -1    0    0    0    0 -0.00000000000E+00 -0.00000000000E+00 -0.74505805969E-08  0.93827000000E+00  0.93827000000E+00 0.  1.
     999902    2    1    2    0    0 -0.18705835143E-02  0.12473733866E-01  0.18728546004E-01  0.10213501073E+01  0.10211004799E+01 0.  0.
     999903    2    3    3    0    0  0.72696108258E-01  0.23321762283E-01  0.10788236491E+00  0.13364166717E+00  0.19820741510E-01 0.  0.
         14    1    1    2    0    0  0.18705835143E-02 -0.12473733866E-01 -0.18728546004E-01  0.22579892707E-01  0.00000000000E+00 0. -1.
     999901    1    3    3    0    0 -0.74566691772E-01 -0.10848028417E-01 -0.89153818902E-01  0.88770844012E+00  0.88000000000E+00 0.  1.
        -11    1    4    4    0    0  0.19897343019E-01  0.15782594199E-01  0.38562739698E-01  0.46177273121E-01  0.51100000000E-03 0.  1.
         11    1    4    4    0    0  0.52798765239E-01  0.75391680849E-02  0.69319625209E-01  0.87464394048E-01  0.51100000000E-03 0. -1.
</event>
<event>
 8    1  0.1146431E+005  0.1043930E+01  0.7957747E-01            NaN
         13   -1    0    0    0    0  0.00000000000E+00  0.00000000000E+00  0.74505805969E-08  0.10566000000E+00  0.10566000000E+00 0.  1.
     999900   -1    0    0    0    0 -0.00000000000E+00 -0.00000000000E+00 -0.74505805969E-08  0.93827000000E+00  0.93827000000E+00 0. -1.
     999902    2    1    2    0    0  0.20969033030E-01 -0.12429161253E-03 -0.94843405440E-02  0.10209154718E+01  0.10206560302E+01 0.  0.
     999903    2    3    3    0    0  0.83671632173E-02  0.76019115671E-01  0.10369717074E+00  0.13031641489E+00  0.19502548635E-01 0.  0.
         14    1    1    2    0    0 -0.20969033030E-01  0.12429161253E-03  0.94843405440E-02  0.23014528242E-01  0.00000000000E+00 0.  1.
     999901    1    3    3    0    0  0.12601869813E-01 -0.76143407284E-01 -0.11318151128E+00  0.89059905687E+00  0.88000000000E+00 0. -1.
        -11    1    4    4    0    0  0.10306887613E-01  0.61427375646E-01  0.93702418824E-01  0.11251648246E+00  0.51100000000E-03 0. -1.
         11    1    4    4    0    0 -0.19397243956E-02  0.14591740025E-01  0.99947519151E-02  0.17799932430E-01  0.51100000000E-03 0.  1.
</event>
<event>
 8    1  0.1146431E+005  0.1043930E+01  0.7957747E-01            NaN
         13   -1    0    0    0    0  0.00000000000E+00  0.00000000000E+00  0.74505805969E-08  0.10566000000E+00  0.10566000000E+00 0.  1.
     999900   -1    0    0    0    0 -0.00000000000E+00 -0.00000000000E+00 -0.74505805969E-08  0.93827000000E+00  0.93827000000E+00 0.  1.
     999902    2    1    2    0    0  0.24728954897E-01 -0.29358662782E-02 -0.56917090937E-02  0.10183852144E+01  0.10180647861E+01 0.  0.
     999903    2    3    3    0    0 -0.61967596225E-01 -0.77967151312E-01  0.76362351230E-01  0.12716197940E+00  0.20496357102E-01 0.  0.
         14    1    1    2    0    0 -0.24728954897E-01  0.29358662782E-02  0.56917090937E-02  0.25544785642E-01  0.00000000000E+00 0.  1.
     999901    1    3    3    0    0  0.86696551122E-01  0.75031285034E-01 -0.82054060323E-01  0.89122323496E+00  0.88000000000E+00 0.  1.
        -11    1    4    4    0    0 -0.46567905030E-01 -0.66313043645E-01  0.52908098579E-01  0.96775604119E-01  0.51100000000E-03 0.  1.
         11    1    4    4    0    0 -0.15399691195E-01 -0.11654107666E-01  0.23454252651E-01  0.30386375283E-01  0.51100000000E-03 0. -1.
</event>
<event>
 8    1  0.1146431E+005  0.1043930E+01  0.7957747E-01            NaN
         13   -1    0    0    0    0  0.00000000000E+00  0.00000000000E+00  0.74505805969E-08  0.10566000000E+00  0.10566000000E+00 0.  1.
     999900   -1    0    0    0    0 -0.00000000000E+00 -0.00000000000E+00 -0.74505805969E-08  0.93827000000E+00  0.93827000000E+00 0.  1.
     999902    2    1    2    0    0  0.16216137977E-01  0.13226449864E-01 -0.90528777484E-03  0.10229843166E+01  0.10227698619E+01 0.  0.
     999903    2    3    3    0    0 -0.10318715408E+00 -0.51922222470E-01  0.57569505989E-01  0.13061623270E+00  0.20071030671E-01 0.  0.
         14    1    1    2    0    0 -0.16216137977E-01 -0.13226449864E-01  0.90528777484E-03  0.20945683394E-01  0.00000000000E+00 0.  1.
     999901    1    3    3    0    0  0.11940329206E+00  0.65148672335E-01 -0.58474793764E-01  0.89236808390E+00  0.88000000000E+00 0.  1.
        -11    1    4    4    0    0 -0.26255489061E-01 -0.18983770509E-01  0.24534548679E-01  0.40644057972E-01  0.51100000000E-03 0.  1.
         11    1    4    4    0    0 -0.76931665021E-01 -0.32938451962E-01  0.33034957310E-01  0.89972174732E-01  0.51100000000E-03 0. -1.
</event>
<event>
 8    1  0.1146431E+005  0.1043930E+01  0.7957747E-01            NaN
         13   -1    0    0    0    0  0.00000000000E+00  0.00000000000E+00  0.74505805969E-08  0.10566000000E+00  0.10566000000E+00 0. -1.
     999900   -1    0    0    0    0 -0.00000000000E+00 -0.00000000000E+00 -0.74505805969E-08  0.93827000000E+00  0.93827000000E+00 0.  1.
     999902    2    1    2    0    0  0.20204597179E-01 -0.13287543856E-02 -0.12809312502E-01  0.10199702458E+01  0.10196887920E+01 0.  0.
     999903    2    3    3    0    0 -0.44440253278E-01  0.11709094831E+00 -0.25881941841E-01  0.12959219332E+00  0.20953170803E-01 0.  0.
         14    1    1    2    0    0 -0.20204597179E-01  0.13287543856E-02  0.12809312502E-01  0.23959754217E-01  0.00000000000E+00 0. -1.
     999901    1    3    3    0    0  0.64644850457E-01 -0.11841970270E+00  0.13072629339E-01  0.89037805247E+00  0.88000000000E+00 0. -1.
        -11    1    4    4    0    0 -0.12406382768E-01  0.12671541212E-01 -0.28966884967E-02  0.17976045598E-01  0.51100000000E-03 0.  1.
         11    1    4    4    0    0 -0.32033870510E-01  0.10441940710E+00 -0.22985253345E-01  0.11161614772E+00  0.51100000000E-03 0. -1.
</event>
<event>
 8    1  0.1146431E+005  0.1043930E+01  0.7957747E-01            NaN
         13   -1    0    0    0    0  0.00000000000E+00  0.00000000000E+00  0.74505805969E-08  0.10566000000E+00  0.10566000000E+00 0. -1.
     999900   -1    0    0    0    0 -0.00000000000E+00 -0.00000000000E+00 -0.74505805969E-08  0.93827000000E+00  0.93827000000E+00 0.  1.
     999902    2    1    2    0    0  0.86448004815E-02  0.20895659581E-01  0.34704575710E-02  0.10210519485E+01  0.10207956095E+01 0.  0.
     999903    2    3    3    0    0  0.20966120137E-02 -0.12397625832E+00  0.28811367715E-01  0.12882276657E+00  0.19766179860E-01 0.  0.
         14    1    1    2    0    0 -0.86448004815E-02 -0.20895659581E-01 -0.34704575710E-02  0.22878051500E-01  0.00000000000E+00 0.  1.
     999901    1    3    3    0    0  0.65481884678E-02  0.14487191790E+00 -0.25340910144E-01  0.89222918193E+00  0.88000000000E+00 0. -1.
        -11    1    4    4    0    0 -0.22979445247E-02 -0.48635089566E-01  0.20727326381E-01  0.52920087547E-01  0.51100000000E-03 0.  1.
         11    1    4    4    0    0  0.43945565384E-02 -0.75341168757E-01  0.80840413347E-02  0.75902679018E-01  0.51100000000E-03 0. -1.
</event>
<event>
 8    1  0.1146431E+005  0.1043930E+01  0.7957747E-01            NaN
         13   -1    0    0    0    0  0.00000000000E+00  0.00000000000E+00  0.74505805969E-08  0.10566000000E+00  0.10566000000E+00 0.  1.
     999900   -1    0    0    0    0 -0.00000000000E+00 -0.00000000000E+00 -0.74505805969E-08  0.93827000000E+00  0.93827000000E+00 0. -1.
     999902    2    1    2    0    0  0.50555216100E-02  0.89740120635E-02 -0.20909998160E-01  0.10206207912E+01  0.10203545855E+01 0.  0.
     999903    2    3    3    0    0 -0.72470014216E-01 -0.73483214942E-01  0.73685620746E-01  0.12834407735E+00  0.19772345500E-01 0.  0.
         14    1    1    2    0    0 -0.50555216100E-02 -0.89740120635E-02  0.20909998160E-01  0.23309208788E-01  0.00000000000E+00 0.  1.
     999901    1    3    3    0    0  0.77525535826E-01  0.82457227005E-01 -0.94595618906E-01  0.89227671387E+00  0.88000000000E+00 0. -1.
        -11    1    4    4    0    0 -0.40529766574E-01 -0.31691239762E-01  0.27480802923E-01  0.58330543513E-01  0.51100000000E-03 0. -1.
         11    1    4    4    0    0 -0.31940247642E-01 -0.41791975180E-01  0.46204817822E-01  0.70013533833E-01  0.51100000000E-03 0.  1.
</event>
<event>
 8    1  0.1146431E+005  0.1043930E+01  0.7957747E-01            NaN
         13   -1    0    0    0    0  0.00000000000E+00  0.00000000000E+00  0.74505805969E-08  0.10566000000E+00  0.10566000000E+00 0. -1.
     999900   -1    0    0    0    0 -0.00000000000E+00 -0.00000000000E+00 -0.74505805969E-08  0.93827000000E+00  0.93827000000E+00 0. -1.
     999902    2    1    2    0    0 -0.18341682037E-03 -0.40441428483E-03 -0.23736914736E-01  0.10201889319E+01  0.10199126524E+01 0.  0.
     999903    2    3    3    0    0 -0.34377939493E-01 -0.72778786923E-01  0.98894502118E-01  0.12808704334E+00  0.12147986388E-01 0.  0.
         14    1    1    2    0    0  0.18341682037E-03  0.40441428483E-03  0.23736914736E-01  0.23741068085E-01  0.00000000000E+00 0. -1.
     999901    1    3    3    0    0  0.34194522673E-01  0.72374372638E-01 -0.12263141685E+00  0.89210188857E+00  0.88000000000E+00 0. -1.
        -11    1    4    4    0    0 -0.11136065757E-01 -0.30190523868E-01  0.31408561955E-01  0.44969307056E-01  0.51100000000E-03 0. -1.
         11    1    4    4    0    0 -0.23241873736E-01 -0.42588263055E-01  0.67485940162E-01  0.83117736286E-01  0.51100000000E-03 0.  1.
</event>
<event>
 8    1  0.1146431E+005  0.1043930E+01  0.7957747E-01            NaN
         13   -1    0    0    0    0  0.00000000000E+00  0.00000000000E+00  0.74505805969E-08  0.10566000000E+00  0.10566000000E+00 0.  1.
     999900   -1    0    0    0    0 -0.00000000000E+00 -0.00000000000E+00 -0.74505805969E-08  0.93827000000E+00  0.93827000000E+00 0.  1.
     999902    2    1    2    0    0 -0.16857937452E-01 -0.72836402479E-02 -0.15565695641E-01  0.10198565218E+01  0.10195723578E+01 0.  0.
     999903    2    3    3    0    0 -0.53219422563E-01  0.96758819751E-01 -0.68020945270E-01  0.13143176739E+00  0.21281079561E-01 0.  0.
         14    1    1    2    0    0  0.16857937452E-01  0.72836402479E-02  0.15565695641E-01  0.24073478170E-01  0.00000000000E+00 0. -1.
     999901    1    3    3    0    0  0.36361485111E-01 -0.10404246000E+00  0.52455249629E-01  0.88842475444E+00  0.88000000000E+00 0. -1.
        -11    1    4    4    0    0 -0.95298427966E-02  0.28515018936E-01 -0.97055730504E-02  0.31597206805E-01  0.51100000000E-03 0.  1.
         11    1    4    4    0    0 -0.43689579766E-01  0.68243800815E-01 -0.58315372220E-01  0.99834560589E-01  0.51100000000E-03 0. -1.
</event>
<event>
 8    1  0.1146431E+005  0.1043930E+01  0.7957747E-01            NaN
         13   -1    0    0    0    0  0.00000000000E+00  0.00000000000E+00  0.74505805969E-08  0.10566000000E+00  0.10566000000E+00 0.  1.
     999900   -1    0    0    0    0 -0.00000000000E+00 -0.00000000000E+00 -0.74505805969E-08  0.93827000000E+00  0.93827000000E+00 0. -1.
     999902    2    1    2    0    0  0.23946705471E-02 -0.12640204641E-01  0.18472502560E-01  0.10214190566E+01  0.10211709684E+01 0.  0.
     999903    2    3    3    0    0  0.50635851295E-02  0.55749459252E-01  0.11869598342E+00  0.13308971717E+00  0.22147104428E-01 0.  0.
         14    1    1    2    0    0 -0.23946705471E-02  0.12640204641E-01 -0.18472502560E-01  0.22510943366E-01  0.00000000000E+00 0. -1.
     999901    1    3    3    0    0 -0.26689145824E-02 -0.68389663893E-01 -0.10022348086E+00  0.88832933946E+00  0.88000000000E+00 0. -1.
        -11    1    4    4    0    0  0.12273086284E-01  0.46009171722E-01  0.87506857187E-01  0.99625216212E-01  0.51100000000E-03 0.  1.
         11    1    4    4    0    0 -0.72095011549E-02  0.97402875309E-02  0.31189126237E-01  0.33464500960E-01  0.51100000000E-03 0. -1.
</event>
<event>
 8    1  0.1146431E+005  0.1043930E+01  0.7957747E-01            NaN
         13   -1    0    0    0    0  0.00000000000E+00  0.00000000000E+00  0.74505805969E-08  0.10566000000E+00  0.10566000000E+00 0.  1.
     999900   -1    0    0    0    0 -0.00000000000E+00 -0.00000000000E+00 -0.74505805969E-08  0.93827000000E+00  0.93827000000E+00 0. -1.
     999902    2    1    2    0    0 -0.11994281352E-01 -0.72127091197E-02 -0.19091868758E-01  0.10202575390E+01  0.10199828726E+01 0.  0.
     999903    2    3    3    0    0 -0.11255853098E+00  0.56583675501E-02 -0.67927330385E-01  0.13309141292E+00  0.19943970495E-01 0.  0.
         14    1    1    2    0    0  0.11994281352E-01  0.72127091197E-02  0.19091868758E-01  0.23672461019E-01  0.00000000000E+00 0.  1.
     999901    1    3    3    0    0  0.10056424963E+00 -0.12871076670E-01  0.48835461627E-01  0.88716612606E+00  0.88000000000E+00 0. -1.
        -11    1    4    4    0    0 -0.54031753626E-01 -0.71880511485E-02 -0.33579293243E-01  0.64022875091E-01  0.51100000000E-03 0. -1.
         11    1    4    4    0    0 -0.58526777358E-01  0.12846418699E-01 -0.34348037142E-01  0.69068537829E-01  0.51100000000E-03 0.  1.
</event>
<event>
 8    1  0.1146431E+005  0.1043930E+01  0.7957747E-01            NaN
         13   -1    0    0    0    0  0.00000000000E+00  0.00000000000E+00  0.74505805969E-08  0.10566000000E+00  0.10566000000E+00 0.  1.
     999900   -1    0    0    0    0 -0.00000000000E+00 -0.00000000000E+00 -0.74505805969E-08  0.93827000000E+00  0.93827000000E+00 0.  1.
     999902    2    1    2    0    0 -0.29655402869E-02  0.14517029995E-01 -0.18289305604E-01  0.10203920033E+01  0.10201204846E+01 0.  0.
     999903    2    3    3    0    0  0.62644536974E-01 -0.94577945689E-01 -0.60836956050E-01  0.13021410057E+00  0.19627810425E-01 0.  0.
         14    1    1    2    0    0  0.29655402869E-02 -0.14517029995E-01  0.18289305604E-01  0.23537996697E-01  0.00000000000E+00 0. -1.
     999901    1    3    3    0    0 -0.65610077260E-01  0.10909497568E+00  0.42547650446E-01  0.89017790273E+00  0.88000000000E+00 0. -1.
        -11    1    4    4    0    0  0.13085311787E-01 -0.36319161344E-01 -0.21869560963E-01  0.44371676585E-01  0.51100000000E-03 0. -1.
         11    1    4    4    0    0  0.49559225186E-01 -0.58258784345E-01 -0.38967395087E-01  0.85842423983E-01  0.51100000000E-03 0.  1.
</event>
<event>
 8    1  0.1146431E+005  0.1043930E+01  0.7957747E-01            NaN
         13   -1    0    0    0    0  0.00000000000E+00  0.00000000000E+00  0.74505805969E-08  0.10566000000E+00  0.10566000000E+00 0.  1.
     999900   -1    0    0    0    0 -0.00000000000E+00 -0.00000000000E+00 -0.74505805969E-08  0.93827000000E+00  0.93827000000E+00 0.  1.
     999902    2    1    2    0    0  0.27544087105E-02  0.23408051155E-01  0.60902971289E-03  0.10203525840E+01  0.10200801445E+01 0.  0.
     999903    2    3    3    0    0 -0.43451469666E-01  0.11339923615E+00 -0.50172802195E-01  0.13310279338E+00  0.21251506972E-01 0.  0.
         14    1    1    2    0    0 -0.27544087105E-02 -0.23408051155E-01 -0.60902971289E-03  0.23577415961E-01  0.00000000000E+00 0. -1.
     999901    1    3    3    0    0  0.46205878377E-01 -0.89991184999E-01  0.50781831908E-01  0.88724979066E+00  0.88000000000E+00 0.  1.
        -11    1    4    4    0    0 -0.10923927523E-01  0.37818140686E-01 -0.63514216742E-02  0.39876630196E-01  0.51100000000E-03 0.  1.
         11    1    4    4    0    0 -0.32527542144E-01  0.75581095468E-01 -0.43821380521E-01  0.93226163183E-01  0.51100000000E-03 0. -1.
</event>
<event>
 8    1  0.1146431E+005  0.1043930E+01  0.7957747E-01            NaN
         13   -1    0    0    0    0  0.00000000000E+00  0.00000000000E+00  0.74505805969E-08  0.10566000000E+00  0.10566000000E+00 0.  1.
     999900   -1    0    0    0    0 -0.00000000000E+00 -0.00000000000E+00 -0.74505805969E-08  0.93827000000E+00  0.93827000000E+00 0. -1.
     999902    2    1    2    0    0 -0.96119279343E-02  0.11469308704E-01 -0.60631028520E-02  0.10277839349E+01  0.10276571031E+01 0.  0.
     999903    2    3    3    0    0 -0.28878759610E-01  0.21834684713E-01  0.13060815383E+00  0.13696538763E+00  0.19755792822E-01 0.  0.
         14    1    1    2    0    0  0.96119279343E-02 -0.11469308704E-01  0.60631028520E-02  0.16146065061E-01  0.00000000000E+00 0. -1.
     999901    1    3    3    0    0  0.19266831676E-01 -0.10365376009E-01 -0.13667125668E+00  0.89081854731E+00  0.88000000000E+00 0. -1.
        -11    1    4    4    0    0 -0.81390993161E-02 -0.16032226558E-02  0.46177440115E-01  0.46919424093E-01  0.51100000000E-03 0.  1.
         11    1    4    4    0    0 -0.20739660294E-01  0.23437907369E-01  0.84430713712E-01  0.90045963540E-01  0.51100000000E-03 0. -1.
</event>
<event>
 8    1  0.1146431E+005  0.1043930E+01  0.7957747E-01            NaN
         13   -1    0    0    0    0  0.00000000000E+00  0.00000000000E+00  0.74505805969E-08  0.10566000000E+00  0.10566000000E+00 0.  1.
     999900   -1    0    0    0    0 -0.00000000000E+00 -0.00000000000E+00 -0.74505805969E-08  0.93827000000E+00  0.93827000000E+00 0.  1.
     999902    2    1    2    0    0 -0.67600226917E-02 -0.22892175659E-01  0.11265488552E-02  0.10200340019E+01  0.10197540617E+01 0.  0.
     999903    2    3    3    0    0  0.55153667688E-02  0.12023918410E+00 -0.36652502153E-01  0.12758538823E+00  0.21136336310E-01 0.  0.
         14    1    1    2    0    0  0.67600226917E-02  0.22892175659E-01 -0.11265488552E-02  0.23895998107E-01  0.00000000000E+00 0.  1.
     999901    1    3    3    0    0 -0.12275389461E-01 -0.14313135976E+00  0.37779051008E-01  0.89244861366E+00  0.88000000000E+00 0. -1.
        -11    1    4    4    0    0  0.11773315720E-01  0.82615040395E-01 -0.19166657314E-01  0.85624048819E-01  0.51100000000E-03 0.  1.
         11    1    4    4    0    0 -0.62579489516E-02  0.37624143704E-01 -0.17485844839E-01  0.41961339413E-01  0.51100000000E-03 0. -1.
</event>
<event>
 8    1  0.1146431E+005  0.1043930E+01  0.7957747E-01            NaN
         13   -1    0    0    0    0  0.00000000000E+00  0.00000000000E+00  0.74505805969E-08  0.10566000000E+00  0.10566000000E+00 0.  1.
     999900   -1    0    0    0    0 -0.00000000000E+00 -0.00000000000E+00 -0.74505805969E-08  0.93827000000E+00  0.93827000000E+00 0. -1.
     999902    2    1    2    0    0  0.12125418049E-01 -0.28454921138E-02  0.19289814833E-01  0.10209687382E+01  0.10207105098E+01 0.  0.
     999903    2    3    3    0    0  0.44028569687E-01 -0.10257712127E+00 -0.62129498629E-01  0.13102867641E+00  0.29118013041E-01 0.  0.
         14    1    1    2    0    0 -0.12125418049E-01  0.28454921138E-02 -0.19289814833E-01  0.22961261823E-01  0.00000000000E+00 0. -1.
     999901    1    3    3    0    0 -0.31903151638E-01  0.99731629160E-01  0.81419313462E-01  0.88994006177E+00  0.88000000000E+00 0. -1.
        -11    1    4    4    0    0  0.35000033700E-01 -0.62428568763E-01 -0.25637343228E-01  0.76025410525E-01  0.51100000000E-03 0.  1.
         11    1    4    4    0    0  0.90285359872E-02 -0.40148552511E-01 -0.36492155400E-01  0.55003265881E-01  0.51100000000E-03 0. -1.
</event>
<event>
 8    1  0.1146431E+005  0.1043930E+01  0.7957747E-01            NaN
         13   -1    0    0    0    0  0.00000000000E+00  0.00000000000E+00  0.74505805969E-08  0.10566000000E+00  0.10566000000E+00 0.  1.
     999900   -1    0    0    0    0 -0.00000000000E+00 -0.00000000000E+00 -0.74505805969E-08  0.93827000000E+00  0.93827000000E+00 0. -1.
     999902    2    1    2    0    0 -0.23129470302E-02  0.22122184972E-01  0.57251811128E-02  0.10209622293E+01  0.10207038528E+01 0.  0.
     999903    2    3    3    0    0  0.48880427076E-01 -0.82715911936E-01  0.84823981910E-01  0.12974485492E+00  0.20184182743E-01 0.  0.
         14    1    1    2    0    0  0.23129470302E-02 -0.22122184972E-01 -0.57251811128E-02  0.22967770695E-01  0.00000000000E+00 0. -1.
     999901    1    3    3    0    0 -0.51193374107E-01  0.10483809691E+00 -0.79098800797E-01  0.89121737438E+00  0.88000000000E+00 0. -1.
        -11    1    4    4    0    0  0.14287727362E-01 -0.43269506990E-01  0.42863284064E-01  0.62561263016E-01  0.51100000000E-03 0.  1.
         11    1    4    4    0    0  0.34592699714E-01 -0.39446404946E-01  0.41960697845E-01  0.67183591906E-01  0.51100000000E-03 0. -1.
</event>
<event>
 8    1  0.1146431E+005  0.1043930E+01  0.7957747E-01            NaN
         13   -1    0    0    0    0  0.00000000000E+00  0.00000000000E+00  0.74505805969E-08  0.10566000000E+00  0.10566000000E+00 0. -1.
     999900   -1    0    0    0    0 -0.00000000000E+00 -0.00000000000E+00 -0.74505805969E-08  0.93827000000E+00  0.93827000000E+00 0.  1.
     999902    2    1    2    0    0  0.18200276746E-01 -0.80595003098E-02  0.90055436477E-02  0.10220826790E+01  0.10218491558E+01 0.  0.
     999903    2    3    3    0    0 -0.12587864047E+00  0.23470554807E-01  0.52392061621E-02  0.12980073697E+00  0.20602984437E-01 0.  0.
         14    1    1    2    0    0 -0.18200276746E-01  0.80595003098E-02 -0.90055436477E-02  0.21847321009E-01  0.00000000000E+00 0.  1.
     999901    1    3    3    0    0  0.14407891721E+00 -0.31530055117E-01  0.37663374856E-02  0.89228194202E+00  0.88000000000E+00 0. -1.
        -11    1    4    4    0    0 -0.71982274870E-01  0.14775772070E-01  0.13095929814E-01  0.74642721242E-01  0.51100000000E-03 0.  1.
         11    1    4    4    0    0 -0.53896365596E-01  0.86947827372E-02 -0.78567236516E-02  0.55158015726E-01  0.51100000000E-03 0. -1.
</event>
<event>
 8    1  0.1146431E+005  0.1043930E+01  0.7957747E-01            NaN
         13   -1    0    0    0    0  0.00000000000E+00  0.00000000000E+00  0.74505805969E-08  0.10566000000E+00  0.10566000000E+00 0.  1.
     999900   -1    0    0    0    0 -0.00000000000E+00 -0.00000000000E+00 -0.74505805969E-08  0.93827000000E+00  0.93827000000E+00 0.  1.
     999902    2    1    2    0    0 -0.12533592398E-01  0.48503268248E-02  0.19428932231E-01  0.10203058595E+01  0.10200323264E+01 0.  0.
     999903    2    3    3    0    0 -0.50387743172E-01  0.83852410884E-01 -0.82422164090E-01  0.13011042483E+00  0.23773052857E-01 0.  0.
         14    1    1    2    0    0  0.12533592398E-01 -0.48503268248E-02 -0.19428932231E-01  0.23624140542E-01  0.00000000000E+00 0. -1.
     999901    1    3    3    0    0  0.37854150774E-01 -0.79002084059E-01  0.10185109632E+00  0.89019543463E+00  0.88000000000E+00 0. -1.
        -11    1    4    4    0    0 -0.40882602070E-01  0.46062795225E-01 -0.47452335675E-01  0.77750585450E-01  0.51100000000E-03 0. -1.
         11    1    4    4    0    0 -0.95051411023E-02  0.37789615659E-01 -0.34969828416E-01  0.52359839376E-01  0.51100000000E-03 0.  1.
</event>
<event>
 8    1  0.1146431E+005  0.1043930E+01  0.7957747E-01            NaN
         13   -1    0    0    0    0  0.00000000000E+00  0.00000000000E+00  0.74505805969E-08  0.10566000000E+00  0.10566000000E+00 0.  1.
     999900   -1    0    0    0    0 -0.00000000000E+00 -0.00000000000E+00 -0.74505805969E-08  0.93827000000E+00  0.93827000000E+00 0. -1.
     999902    2    1    2    0    0 -0.22975195710E-02 -0.10426568248E-01  0.21972776247E-01  0.10195006157E+01  0.10192078839E+01 0.  0.
     999903    2    3    3    0    0 -0.12808393136E+00 -0.24177322556E-03  0.13095215139E-01  0.13045350641E+00  0.21001922434E-01 0.  0.
         14    1    1    2    0    0  0.22975195710E-02  0.10426568248E-01 -0.21972776247E-01  0.24429384307E-01  0.00000000000E+00 0. -1.
     999901    1    3    3    0    0  0.12578641179E+00 -0.10184795022E-01  0.88775611079E-02  0.88904710929E+00  0.88000000000E+00 0. -1.
        -11    1    4    4    0    0 -0.35949793943E-01  0.88515223175E-02  0.60792299824E-03  0.37031983787E-01  0.51100000000E-03 0. -1.
         11    1    4    4    0    0 -0.92134137422E-01 -0.90932955431E-02  0.12487292141E-01  0.93421522618E-01  0.51100000000E-03 0.  1.
</event>
<event>
 8    1  0.1146431E+005  0.1043930E+01  0.7957747E-01            NaN
         13   -1    0    0    0    0  0.00000000000E+00  0.00000000000E+00  0.74505805969E-08  0.10566000000E+00  0.10566000000E+00 0. -1.
     999900   -1    0    0    0    0 -0.00000000000E+00 -0.00000000000E+00 -0.74505805969E-08  0.93827000000E+00  0.93827000000E+00 0.  1.
     999902    2    1    2    0    0 -0.46861685451E-02  0.23245884441E-01  0.25578871241E-02  0.10200789181E+01  0.10198000417E+01 0.  0.
     999903    2    3    3    0    0  0.39811517616E-01 -0.68809920703E-01  0.99600903649E-01  0.12885971818E+00  0.19097770533E-01 0.  0.
         14    1    1    2    0    0  0.46861685451E-02 -0.23245884441E-01 -0.25578871241E-02  0.23851081854E-01  0.00000000000E+00 0.  1.
     999901    1    3    3    0    0 -0.44497686161E-01  0.92055805144E-01 -0.97043016525E-01  0.89121919997E+00  0.88000000000E+00 0.  1.
        -11    1    4    4    0    0  0.97801801259E-02 -0.24160910280E-01  0.46202614049E-01  0.53050392787E-01  0.51100000000E-03 0.  1.
         11    1    4    4    0    0  0.30031337490E-01 -0.44649010423E-01  0.53398289600E-01  0.75809325392E-01  0.51100000000E-03 0. -1.
</event>
<event>
 8    1  0.1146431E+005  0.1043930E+01  0.7957747E-01            NaN
         13   -1    0    0    0    0  0.00000000000E+00  0.00000000000E+00  0.74505805969E-08  0.10566000000E+00  0.10566000000E+00 0.  1.
     999900   -1    0    0    0    0 -0.00000000000E+00 -0.00000000000E+00 -0.74505805969E-08  0.93827000000E+00  0.93827000000E+00 0. -1.
     999902    2    1    2    0    0  0.23216993806E-01  0.31983124429E-02 -0.62890441378E-02  0.10196645909E+01  0.10193758226E+01 0.  0.
     999903    2    3    3    0    0  0.57519601887E-01 -0.11600461064E+00 -0.49465881571E-04  0.13094363460E+00  0.19510476761E-01 0.  0.
         14    1    1    2    0    0 -0.23216993806E-01 -0.31983124429E-02  0.62890441378E-02  0.24265409126E-01  0.00000000000E+00 0.  1.
     999901    1    3    3    0    0 -0.34302608081E-01  0.11920292308E+00 -0.62395782563E-02  0.88872095628E+00  0.88000000000E+00 0. -1.
        -11    1    4    4    0    0  0.27900016638E-01 -0.75970718553E-01  0.35493240853E-02  0.81011232729E-01  0.51100000000E-03 0.  1.
         11    1    4    4    0    0  0.29619585250E-01 -0.40033892086E-01 -0.35987899669E-02  0.49932401866E-01  0.51100000000E-03 0. -1.
</event>
<event>
 8    1  0.1146431E+005  0.1043930E+01  0.7957747E-01            NaN
         13   -1    0    0    0    0  0.00000000000E+00  0.00000000000E+00  0.74505805969E-08  0.10566000000E+00  0.10566000000E+00 0.  1.
     999900   -1    0    0    0    0 -0.00000000000E+00 -0.00000000000E+00 -0.74505805969E-08  0.93827000000E+00  0.93827000000E+00 0. -1.
     999902    2    1    2    0    0 -0.14058759771E-01  0.16997562486E-01 -0.13348017181E-01  0.10181475366E+01  0.10178210407E+01 0.  0.
     999903    2    3    3    0    0 -0.96424275352E-02  0.11916408156E+00  0.47140475032E-01  0.13016310018E+00  0.20667692661E-01 0.  0.
         14    1    1    2    0    0  0.14058759771E-01 -0.16997562486E-01  0.13348017181E-01  0.25782463409E-01  0.00000000000E+00 0. -1.
     999901    1    3    3    0    0 -0.44163322358E-02 -0.10216651908E+00 -0.60488492213E-01  0.88798443641E+00  0.88000000000E+00 0. -1.
        -11    1    4    4    0    0  0.51006954622E-02  0.23667059711E-01  0.14204724407E-01  0.28074581494E-01  0.51100000000E-03 0. -1.
         11    1    4    4    0    0 -0.14743122997E-01  0.95497021852E-01  0.32935750625E-01  0.10208851869E+00  0.51100000000E-03 0.  1.
</event>
<event>
 8    1  0.1146431E+005  0.1043930E+01  0.7957747E-01            NaN
         13   -1    0    0    0    0  0.00000000000E+00  0.00000000000E+00  0.74505805969E-08  0.10566000000E+00  0.10566000000E+00 0. -1.
     999900   -1    0    0    0    0 -0.00000000000E+00 -0.00000000000E+00 -0.74505805969E-08  0.93827000000E+00  0.93827000000E+00 0. -1.
     999902    2    1    2    0    0  0.14204445809E-01  0.18637658795E-01 -0.26928505549E-02  0.10203422903E+01  0.10200696100E+01 0.  0.
     999903    2    3    3    0    0  0.12444502834E+00  0.20310428827E-01  0.37668703012E-01  0.13254454348E+00  0.15812849940E-01 0.  0.
         14    1    1    2    0    0 -0.14204445809E-01 -0.18637658795E-01  0.26928505549E-02  0.23587709728E-01  0.00000000000E+00 0.  1.
     999901    1    3    3    0    0 -0.11024058253E+00 -0.16727700322E-02 -0.40361553567E-01  0.88779774679E+00  0.88000000000E+00 0.  1.
        -11    1    4    4    0    0  0.63220570144E-01  0.29854340208E-02  0.22062319760E-01  0.67028056661E-01  0.51100000000E-03 0. -1.
         11    1    4    4    0    0  0.61224458196E-01  0.17324994806E-01  0.15606383252E-01  0.65516486823E-01  0.51100000000E-03 0.  1.
</event>
<event>
 8    1  0.1146431E+005  0.1043930E+01  0.7957747E-01            NaN
         13   -1    0    0    0    0  0.00000000000E+00  0.00000000000E+00  0.74505805969E-08  0.10566000000E+00  0.10566000000E+00 0. -1.
     999900   -1    0    0    0    0 -0.00000000000E+00 -0.00000000000E+00 -0.74505805969E-08  0.93827000000E+00  0.93827000000E+00 0. -1.
     999902    2    1    2    0    0 -0.74068187598E-02  0.23944715665E-01 -0.29446566389E-02  0.10186934912E+01  0.10183808461E+01 0.  0.
     999903    2    3    3    0    0 -0.70963068220E-01  0.95996512775E-01 -0.52350356782E-01  0.13208659890E+00  0.21335937699E-01 0.  0.
         14    1    1    2    0    0  0.74068187598E-02 -0.23944715665E-01  0.29446566389E-02  0.25236508775E-01  0.00000000000E+00 0. -1.
     999901    1    3    3    0    0  0.63556249460E-01 -0.72051797110E-01  0.49405700143E-01  0.88660689233E+00  0.88000000000E+00 0.  1.
        -11    1    4    4    0    0 -0.49207959559E-01  0.74413693759E-01 -0.29885903760E-01  0.94086393635E-01  0.51100000000E-03 0. -1.
         11    1    4    4    0    0 -0.21755108661E-01  0.21582819017E-01 -0.22464453022E-01  0.38000205264E-01  0.51100000000E-03 0.  1.
</event>
<event>
 8    1  0.1146431E+005  0.1043930E+01  0.7957747E-01            NaN
         13   -1    0    0    0    0  0.00000000000E+00  0.00000000000E+00  0.74505805969E-08  0.10566000000E+00  0.10566000000E+00 0.  1.
     999900   -1    0    0    0    0 -0.00000000000E+00 -0.00000000000E+00 -0.74505805969E-08  0.93827000000E+00  0.93827000000E+00 0. -1.
     999902    2    1    2    0    0 -0.23495091597E-01 -0.28316298987E-02 -0.39108971631E-03  0.10202616581E+01  0.10199870884E+01 0.  0.
     999903    2    3    3    0    0  0.18408040476E-01 -0.46235409980E-01  0.11868101905E+00  0.13019540906E+00  0.19725393946E-01 0.  0.
         14    1    1    2    0    0  0.23495091597E-01  0.28316298987E-02  0.39108971631E-03  0.23668341898E-01  0.00000000000E+00 0.  1.
     999901    1    3    3    0    0 -0.41903132072E-01  0.43403780081E-01 -0.11907210877E+00  0.89006624905E+00  0.88000000000E+00 0. -1.
        -11    1    4    4    0    0  0.25318946757E-02 -0.23179825415E-01  0.35928652446E-01  0.42835078902E-01  0.51100000000E-03 0. -1.
         11    1    4    4    0    0  0.15876145800E-01 -0.23055584564E-01  0.82752366605E-01  0.87360330155E-01  0.51100000000E-03 0.  1.
</event>
<event>
 8    1  0.1146431E+005  0.1043930E+01  0.7957747E-01            NaN
         13   -1    0    0    0    0  0.00000000000E+00  0.00000000000E+00  0.74505805969E-08  0.10566000000E+00  0.10566000000E+00 0. -1.
     999900   -1    0    0    0    0 -0.00000000000E+00 -0.00000000000E+00 -0.74505805969E-08  0.93827000000E+00  0.93827000000E+00 0. -1.
     999902    2    1    2    0    0  0.47355061347E-02  0.23176045078E-01 -0.21298799532E-02  0.10201794111E+01  0.10199029073E+01 0.  0.
     999903    2    3    3    0    0  0.90460939599E-01  0.24958409401E-01  0.90423000032E-01  0.13118106333E+00  0.15034914343E-01 0.  0.
         14    1    1    2    0    0 -0.47355061347E-02 -0.23176045078E-01  0.21298799532E-02  0.23750588886E-01  0.00000000000E+00 0. -1.
     999901    1    3    3    0    0 -0.85725433464E-01 -0.17823643227E-02 -0.92552879985E-01  0.88899834778E+00  0.88000000000E+00 0. -1.
        -11    1    4    4    0    0  0.64947738130E-01  0.11744921698E-01  0.58109214589E-01  0.87938011207E-01  0.51100000000E-03 0.  1.
         11    1    4    4    0    0  0.25513201469E-01  0.13213487702E-01  0.32313785443E-01  0.43243052126E-01  0.51100000000E-03 0. -1.
</event>
<event>
 8    1  0.1146431E+005  0.1043930E+01  0.7957747E-01            NaN
         13   -1    0    0    0    0  0.00000000000E+00  0.00000000000E+00  0.74505805969E-08  0.10566000000E+00  0.10566000000E+00 0. -1.
     999900   -1    0    0    0    0 -0.00000000000E+00 -0.00000000000E+00 -0.74505805969E-08  0.93827000000E+00  0.93827000000E+00 0.  1.
     999902    2    1    2    0    0  0.51418009911E-02  0.31211219717E-02  0.22369563257E-01  0.10207658708E+01  0.10205030065E+01 0.  0.
     999903    2    3    3    0    0 -0.61503130310E-01 -0.40191389526E-01  0.10885840385E+00  0.13296080210E+00  0.20747047427E-01 0.  0.
         14    1    1    2    0    0 -0.51418009911E-02 -0.31211219717E-02 -0.22369563257E-01  0.23164129167E-01  0.00000000000E+00 0.  1.
     999901    1    3    3    0    0  0.66644931301E-01  0.43312511497E-01 -0.86488840591E-01  0.88780506873E+00  0.88000000000E+00 0.  1.
        -11    1    4    4    0    0 -0.42561247095E-01 -0.34681156695E-01  0.66539847524E-01  0.86267345001E-01  0.51100000000E-03 0. -1.
         11    1    4    4    0    0 -0.18941883214E-01 -0.55102328312E-02  0.42318556324E-01  0.46693457099E-01  0.51100000000E-03 0.  1.
</event>
<event>
 8    1  0.1146431E+005  0.1043930E+01  0.7957747E-01            NaN
         13   -1    0    0    0    0  0.00000000000E+00  0.00000000000E+00  0.74505805969E-08  0.10566000000E+00  0.10566000000E+00 0.  1.
     999900   -1    0    0    0    0 -0.00000000000E+00 -0.00000000000E+00 -0.74505805969E-08  0.93827000000E+00  0.93827000000E+00 0.  1.
     999902    2    1    2    0    0 -0.14453063874E-01  0.16949134869E-01  0.89619602178E-02  0.10199199821E+01  0.10196373321E+01 0.  0.
     999903    2    3    3    0    0  0.11757016908E+00  0.46275574545E-01 -0.18463545414E-01  0.12916618197E+00  0.19463468336E-01 0.  0.
         14    1    1    2    0    0  0.14453063874E-01 -0.16949134869E-01 -0.89619602178E-02  0.24010017890E-01  0.00000000000E+00 0. -1.
     999901    1    3    3    0    0 -0.13202323295E+00 -0.29326439676E-01  0.27425505632E-01  0.89075380014E+00  0.88000000000E+00 0. -1.
        -11    1    4    4    0    0  0.42218934757E-01  0.26804322146E-01 -0.71866016281E-02  0.50525424310E-01  0.51100000000E-03 0.  1.
         11    1    4    4    0    0  0.75351234318E-01  0.19471252399E-01 -0.11276943786E-01  0.78640757661E-01  0.51100000000E-03 0. -1.
</event>
<event>
 8    1  0.1146431E+005  0.1043930E+01  0.7957747E-01            NaN
         13   -1    0    0    0    0  0.00000000000E+00  0.00000000000E+00  0.74505805969E-08  0.10566000000E+00  0.10566000000E+00 0.  1.
     999900   -1    0    0    0    0 -0.00000000000E+00 -0.00000000000E+00 -0.74505805969E-08  0.93827000000E+00  0.93827000000E+00 0.  1.
     999902    2    1    2    0    0 -0.17038194259E-02 -0.73505056516E-02 -0.22317315065E-01  0.10203716578E+01  0.10200996641E+01 0.  0.
     999903    2    3    3    0    0  0.44248417827E-01  0.69398206733E-01 -0.10167031494E+00  0.13228445966E+00  0.19705119932E-01 0.  0.
         14    1    1    2    0    0  0.17038194259E-02  0.73505056516E-02  0.22317315065E-01  0.23558342167E-01  0.00000000000E+00 0.  1.
     999901    1    3    3    0    0 -0.45952237253E-01 -0.76748712385E-01  0.79352999872E-01  0.88808719817E+00  0.88000000000E+00 0. -1.
        -11    1    4    4    0    0  0.31686964481E-01  0.33684623187E-01 -0.63124947314E-01  0.78254313950E-01  0.51100000000E-03 0.  1.
         11    1    4    4    0    0  0.12561453346E-01  0.35713583546E-01 -0.38545367622E-01  0.54030145715E-01  0.51100000000E-03 0. -1.
</event>
<event>
 8    1  0.1223111E+005  0.1043930E+01  0.7957747E-01            NaN
         13   -1    0    0    0    0  0.00000000000E+00  0.00000000000E+00  0.74505805969E-08  0.10566000000E+00  0.10566000000E+00 0.  1.
     999900   -1    0    0    0    0 -0.00000000000E+00 -0.00000000000E+00 -0.74505805969E-08  0.93827000000E+00  0.93827000000E+00 0. -1.
     999902    2    1    2    0    0 -0.21003885673E-01 -0.59079998871E-02  0.85027512840E-02  0.10205128171E+01  0.10202441107E+01 0.  0.
     999903    2    3    3    0    0  0.12023768611E+00  0.20249616449E-01 -0.32966286745E-01  0.12790255297E+00  0.20128061669E-01 0.  0.
         14    1    1    2    0    0  0.21003885673E-01  0.59079998871E-02 -0.85027512840E-02  0.23417182910E-01  0.00000000000E+00 0.  1.
     999901    1    3    3    0    0 -0.14124157179E+00 -0.26157616336E-01  0.41469038029E-01  0.89261026412E+00  0.88000000000E+00 0. -1.
        -11    1    4    4    0    0  0.72721786332E-01  0.14476901702E-01 -0.10038790596E-01  0.74826982618E-01  0.51100000000E-03 0.  1.
         11    1    4    4    0    0  0.47515899783E-01  0.57727147469E-02 -0.22927496149E-01  0.53075570354E-01  0.51100000000E-03 0. -1.
</event>
<event>
 8    1  0.1146431E+005  0.1043930E+01  0.7957747E-01            NaN
         13   -1    0    0    0    0  0.00000000000E+00  0.00000000000E+00  0.74505805969E-08  0.10566000000E+00  0.10566000000E+00 0.  1.
     999900   -1    0    0    0    0 -0.00000000000E+00 -0.00000000000E+00 -0.74505805969E-08  0.93827000000E+00  0.93827000000E+00 0. -1.
     999902    2    1    2    0    0 -0.61780593364E-02  0.96978271574E-02  0.33779659478E-01  0.10082469275E+01  0.10076152962E+01 0.  0.
     999903    2    3    3    0    0 -0.66991117495E-01  0.72247374200E-01  0.71187164980E-01  0.12314241652E+00  0.19721799808E-01 0.  0.
         14    1    1    2    0    0  0.61780593364E-02 -0.96978271574E-02 -0.33779659478E-01  0.35683072502E-01  0.00000000000E+00 0. -1.
     999901    1    3    3    0    0  0.60813058159E-01 -0.62549547042E-01 -0.37407505502E-01  0.88510451097E+00  0.88000000000E+00 0.  1.
        -11    1    4    4    0    0 -0.25627646730E-01  0.14525586715E-01  0.20338712642E-01  0.35800744395E-01  0.51100000000E-03 0. -1.
         11    1    4    4    0    0 -0.41363470765E-01  0.57721787485E-01  0.50848452338E-01  0.87341672130E-01  0.51100000000E-03 0.  1.
</event>
<event>
 8    1  0.1146431E+005  0.1043930E+01  0.7957747E-01            NaN
         13   -1    0    0    0    0  0.00000000000E+00  0.00000000000E+00  0.74505805969E-08  0.10566000000E+00  0.10566000000E+00 0. -1.
     999900   -1    0    0    0    0 -0.00000000000E+00 -0.00000000000E+00 -0.74505805969E-08  0.93827000000E+00  0.93827000000E+00 0. -1.
     999902    2    1    2    0    0 -0.10028580374E-01 -0.58750135120E-02 -0.20756371038E-01  0.10201410289E+01  0.10198636201E+01 0.  0.
     999903    2    3    3    0    0 -0.42104717916E-01  0.10599451289E+00  0.57110138111E-01  0.12907040161E+00  0.19747320425E-01 0.  0.
         14    1    1    2    0    0  0.10028580374E-01  0.58750135120E-02  0.20756371038E-01  0.23788971116E-01  0.00000000000E+00 0. -1.
     999901    1    3    3    0    0  0.32076137542E-01 -0.11186952640E+00 -0.77866509149E-01  0.89107062727E+00  0.88000000000E+00 0.  1.
        -11    1    4    4    0    0 -0.20043590115E-01  0.50619986296E-01  0.38284074644E-01  0.66558695973E-01  0.51100000000E-03 0.  1.
         11    1    4    4    0    0 -0.22061127802E-01  0.55374526594E-01  0.18826063467E-01  0.62511705640E-01  0.51100000000E-03 0. -1.
</event>
<event>
 8    1  0.1146431E+005  0.1043930E+01  0.7957747E-01            NaN
         13   -1    0    0    0    0  0.00000000000E+00  0.00000000000E+00  0.74505805969E-08  0.10566000000E+00  0.10566000000E+00 0.  1.
     999900   -1    0    0    0    0 -0.00000000000E+00 -0.00000000000E+00 -0.74505805969E-08  0.93827000000E+00  0.93827000000E+00 0.  1.
     999902    2    1    2    0    0 -0.13235597693E-01  0.18699742692E-01 -0.51259093259E-02  0.10204537062E+01  0.10201836257E+01 0.  0.
     999903    2    3    3    0    0 -0.89503654785E-01 -0.50576635998E-01  0.77478184942E-01  0.13060008367E+00  0.22013913439E-01 0.  0.
         14    1    1    2    0    0  0.13235597693E-01 -0.18699742692E-01  0.51259093259E-02  0.23476293776E-01  0.00000000000E+00 0.  1.
     999901    1    3    3    0    0  0.76268057092E-01  0.69276378690E-01 -0.82604094268E-01  0.88985362255E+00  0.88000000000E+00 0.  1.
        -11    1    4    4    0    0 -0.72810261468E-01 -0.31329410243E-01  0.53677192843E-01  0.95730707058E-01  0.51100000000E-03 0.  1.
         11    1    4    4    0    0 -0.16693393316E-01 -0.19247225754E-01  0.23800992098E-01  0.34869376615E-01  0.51100000000E-03 0. -1.
</event>
<event>
 8    1  0.1146431E+005  0.1043930E+01  0.7957747E-01            NaN
         13   -1    0    0    0    0  0.00000000000E+00  0.00000000000E+00  0.74505805969E-08  0.10566000000E+00  0.10566000000E+00 0. -1.
     999900   -1    0    0    0    0 -0.00000000000E+00 -0.00000000000E+00 -0.74505805969E-08  0.93827000000E+00  0.93827000000E+00 0. -1.
     999902    2    1    2    0    0 -0.46827909214E-02  0.16509485357E-01  0.14135986696E-01  0.10216967421E+01  0.10214548032E+01 0.  0.
     999903    2    3    3    0    0  0.59645999021E-01  0.17580975321E-01  0.11640583433E+00  0.13344088759E+00  0.19733634342E-01 0.  0.
         14    1    1    2    0    0  0.46827909214E-02 -0.16509485357E-01 -0.14135986696E-01  0.22233257913E-01  0.00000000000E+00 0.  1.
     999901    1    3    3    0    0 -0.64328789943E-01 -0.10714899636E-02 -0.10226984763E+00  0.88825585449E+00  0.88000000000E+00 0. -1.
        -11    1    4    4    0    0  0.43689541696E-01  0.11774443329E-01  0.64232381473E-01  0.78571454868E-01  0.51100000000E-03 0. -1.
         11    1    4    4    0    0  0.15956457325E-01  0.58065319923E-02  0.52173452853E-01  0.54869432726E-01  0.51100000000E-03 0.  1.
</event>
<event>
 8    1  0.1146431E+005  0.1043930E+01  0.7957747E-01            NaN
         13   -1    0    0    0    0  0.00000000000E+00  0.00000000000E+00  0.74505805969E-08  0.10566000000E+00  0.10566000000E+00 0. -1.
     999900   -1    0    0    0    0 -0.00000000000E+00 -0.00000000000E+00 -0.74505805969E-08  0.93827000000E+00  0.93827000000E+00 0. -1.
     999902    2    1    2    0    0 -0.89791966177E-02  0.50304934711E-02  0.87586231889E-02  0.10304153666E+01  0.10303267357E+01 0.  0.
     999903    2    3    3    0    0  0.12614089635E+00 -0.14592794297E-02 -0.53471979851E-01  0.13790642845E+00  0.15661262699E-01 0.  0.
         14    1    1    2    0    0  0.89791966177E-02 -0.50304934711E-02 -0.87586231889E-02  0.13514633426E-01  0.00000000000E+00 0.  1.
     999901    1    3    3    0    0 -0.13512009297E+00  0.64897729008E-02  0.62230603040E-01  0.89250893812E+00  0.88000000000E+00 0.  1.
        -11    1    4    4    0    0  0.68251019155E-01 -0.77435248658E-02 -0.25129614039E-01  0.73143163835E-01  0.51100000000E-03 0. -1.
         11    1    4    4    0    0  0.57889877198E-01  0.62842454362E-02 -0.28342365813E-01  0.64763264615E-01  0.51100000000E-03 0.  1.
</event>
<event>
 8    1  0.1146431E+005  0.1043930E+01  0.7957747E-01            NaN
         13   -1    0    0    0    0  0.00000000000E+00  0.00000000000E+00  0.74505805969E-08  0.10566000000E+00  0.10566000000E+00 0. -1.
     999900   -1    0    0    0    0 -0.00000000000E+00 -0.00000000000E+00 -0.74505805969E-08  0.93827000000E+00  0.93827000000E+00 0.  1.
     999902    2    1    2    0    0 -0.25262906309E-02 -0.27893474735E-01  0.10622314563E-01  0.10139756740E+01  0.10135331301E+01 0.  0.
     999903    2    3    3    0    0 -0.34171705725E-01 -0.61816672315E-01 -0.10187984773E+00  0.12560134294E+00  0.20178888151E-01 0.  0.
         14    1    1    2    0    0  0.25262906309E-02  0.27893474735E-01 -0.10622314563E-01  0.29954325961E-01  0.00000000000E+00 0.  1.
     999901    1    3    3    0    0  0.31645415094E-01  0.33923197580E-01  0.11250216229E+00  0.88837433110E+00  0.88000000000E+00 0. -1.
        -11    1    4    4    0    0 -0.13118225809E-01 -0.76327544247E-02 -0.18067427907E-01  0.23601691903E-01  0.51100000000E-03 0.  1.
         11    1    4    4    0    0 -0.21053479916E-01 -0.54183917890E-01 -0.83812419824E-01  0.10199965104E+00  0.51100000000E-03 0. -1.
</event>
<event>
 8    1  0.1146431E+005  0.1043930E+01  0.7957747E-01            NaN
         13   -1    0    0    0    0  0.00000000000E+00  0.00000000000E+00  0.74505805969E-08  0.10566000000E+00  0.10566000000E+00 0.  1.
     999900   -1    0    0    0    0 -0.00000000000E+00 -0.00000000000E+00 -0.74505805969E-08  0.93827000000E+00  0.93827000000E+00 0.  1.
     999902    2    1    2    0    0  0.24511082309E-01  0.97318403417E-02  0.31922312247E-02  0.10173651320E+01  0.10170182494E+01 0.  0.
     999903    2    3    3    0    0  0.12766114714E+00 -0.87764984652E-02 -0.18821095688E-01  0.13087368756E+00  0.19982318124E-01 0.  0.
         14    1    1    2    0    0 -0.24511082309E-01 -0.97318403417E-02 -0.31922312247E-02  0.26564868014E-01  0.00000000000E+00 0. -1.
     999901    1    3    3    0    0 -0.10315006483E+00  0.18508338807E-01  0.22013326913E-01  0.88649144443E+00  0.88000000000E+00 0. -1.
        -11    1    4    4    0    0  0.11445659187E+00 -0.10861148671E-01 -0.11298223208E-01  0.11552569819E+00  0.51100000000E-03 0.  1.
         11    1    4    4    0    0  0.13204555269E-01  0.20846502059E-02 -0.75228724802E-02  0.15347989369E-01  0.51100000000E-03 0. -1.
</event>
<event>
 8    1  0.1146431E+005  0.1043930E+01  0.7957747E-01            NaN
         13   -1    0    0    0    0  0.00000000000E+00  0.00000000000E+00  0.74505805969E-08  0.10566000000E+00  0.10566000000E+00 0. -1.
     999900   -1    0    0    0    0 -0.00000000000E+00 -0.00000000000E+00 -0.74505805969E-08  0.93827000000E+00  0.93827000000E+00 0. -1.
     999902    2    1    2    0    0 -0.15060575895E-01 -0.20757963348E-02  0.18749039397E-01  0.10197917243E+01  0.10195060101E+01 0.  0.
     999903    2    3    3    0    0  0.10463931908E+00  0.49889125820E-01 -0.49284775594E-01  0.12757144992E+00  0.20178546925E-01 0.  0.
         14    1    1    2    0    0  0.15060575895E-01  0.20757963348E-02 -0.18749039397E-01  0.24138275726E-01  0.00000000000E+00 0. -1.
     999901    1    3    3    0    0 -0.11969989497E+00 -0.51964922155E-01  0.68033814991E-01  0.89222027436E+00  0.88000000000E+00 0. -1.
        -11    1    4    4    0    0  0.67784358704E-01  0.31868055009E-01 -0.42083595598E-01  0.85916135589E-01  0.51100000000E-03 0.  1.
         11    1    4    4    0    0  0.36854960376E-01  0.18021070811E-01 -0.72011799956E-02  0.41655314328E-01  0.51100000000E-03 0. -1.
</event>
<event>
 8    1  0.1146431E+005  0.1043930E+01  0.7957747E-01            NaN
         13   -1    0    0    0    0  0.00000000000E+00  0.00000000000E+00  0.74505805969E-08  0.10566000000E+00  0.10566000000E+00 0. -1.
     999900   -1    0    0    0    0 -0.00000000000E+00 -0.00000000000E+00 -0.74505805969E-08  0.93827000000E+00  0.93827000000E+00 0. -1.
     999902    2    1    2    0    0 -0.19559891267E-01 -0.39136581817E-02 -0.12575522693E-01  0.10203492910E+01  0.10200767745E+01 0.  0.
     999903    2    3    3    0    0 -0.11153116289E+00 -0.35483805502E-01 -0.61347809369E-01  0.13365085016E+00  0.20017374589E-01 0.  0.
         14    1    1    2    0    0  0.19559891267E-01  0.39136581817E-02  0.12575522693E-01  0.23580709017E-01  0.00000000000E+00 0.  1.
     999901    1    3    3    0    0  0.91971271627E-01  0.31570147320E-01  0.48772286676E-01  0.88669844082E+00  0.88000000000E+00 0. -1.
        -11    1    4    4    0    0 -0.66962078271E-01 -0.13344619853E-01 -0.28318194817E-01  0.73920092560E-01  0.51100000000E-03 0.  1.
         11    1    4    4    0    0 -0.44569084623E-01 -0.22139185649E-01 -0.33029614552E-01  0.59730757603E-01  0.51100000000E-03 0. -1.
</event>
<event>
 8    1  0.1146431E+005  0.1043930E+01  0.7957747E-01            NaN
         13   -1    0    0    0    0  0.00000000000E+00  0.00000000000E+00  0.74505805969E-08  0.10566000000E+00  0.10566000000E+00 0.  1.
     999900   -1    0    0    0    0 -0.00000000000E+00 -0.00000000000E+00 -0.74505805969E-08  0.93827000000E+00  0.93827000000E+00 0. -1.
     999902    2    1    2    0    0 -0.12183499176E-01 -0.11069662782E-01  0.17268182965E-01  0.10200728160E+01  0.10197937952E+01 0.  0.
     999903    2    3    3    0    0  0.33225779783E-01 -0.27925705400E-01  0.12366277083E+00  0.13234203635E+00  0.18388480933E-01 0.  0.
         14    1    1    2    0    0  0.12183499176E-01  0.11069662782E-01 -0.17268182965E-01  0.23857184016E-01  0.00000000000E+00 0. -1.
     999901    1    3    3    0    0 -0.45409278959E-01  0.16856042617E-01 -0.10639458786E+00  0.88773077964E+00  0.88000000000E+00 0. -1.
        -11    1    4    4    0    0  0.21069846194E-02 -0.43986705384E-02  0.36728279104E-01  0.37054220996E-01  0.51100000000E-03 0. -1.
         11    1    4    4    0    0  0.31118795163E-01 -0.23527034861E-01  0.86934491725E-01  0.95287815351E-01  0.51100000000E-03 0.  1.
</event>
<event>
 8    1  0.1146431E+005  0.1043930E+01  0.7957747E-01            NaN
         13   -1    0    0    0    0  0.00000000000E+00  0.00000000000E+00  0.74505805969E-08  0.10566000000E+00  0.10566000000E+00 0. -1.
     999900   -1    0    0    0    0 -0.00000000000E+00 -0.00000000000E+00 -0.74505805969E-08  0.93827000000E+00  0.93827000000E+00 0. -1.
     999902    2    1    2    0    0 -0.75425829298E-02 -0.26650589159E-02  0.22787201924E-01  0.10197794375E+01  0.10194934289E+01 0.  0.
     999903    2    3    3    0    0 -0.10605055573E+00  0.75367620520E-01 -0.38745959443E-02  0.13045173008E+00  0.86972865744E-02 0.  0.
         14    1    1    2    0    0  0.75425829298E-02  0.26650589159E-02 -0.22787201924E-01  0.24150562474E-01  0.00000000000E+00 0.  1.
     999901    1    3    3    0    0  0.98507972800E-01 -0.78032679436E-01  0.26661797868E-01  0.88932770745E+00  0.88000000000E+00 0.  1.
        -11    1    4    4    0    0 -0.75100333250E-01  0.49231571024E-01 -0.48027831651E-02  0.89928502082E-01  0.51100000000E-03 0. -1.
         11    1    4    4    0    0 -0.30950222481E-01  0.26136049496E-01  0.92818722086E-03  0.40523227998E-01  0.51100000000E-03 0.  1.
</event>
<event>
 8    1  0.1146431E+005  0.1043930E+01  0.7957747E-01            NaN
         13   -1    0    0    0    0  0.00000000000E+00  0.00000000000E+00  0.74505805969E-08  0.10566000000E+00  0.10566000000E+00 0. -1.
     999900   -1    0    0    0    0 -0.00000000000E+00 -0.00000000000E+00 -0.74505805969E-08  0.93827000000E+00  0.93827000000E+00 0. -1.
     999902    2    1    2    0    0  0.14063772415E-01  0.12738095326E-01 -0.14047275566E-01  0.10203212152E+01  0.10200480418E+01 0.  0.
     999903    2    3    3    0    0  0.60510083941E-01 -0.89386117305E-01 -0.72090716718E-01  0.13130172405E+00  0.19791995226E-01 0.  0.
         14    1    1    2    0    0 -0.14063772415E-01 -0.12738095326E-01  0.14047275566E-01  0.23608784761E-01  0.00000000000E+00 0. -1.
     999901    1    3    3    0    0 -0.46446311526E-01  0.10212421263E+00  0.58043441153E-01  0.88901949119E+00  0.88000000000E+00 0. -1.
        -11    1    4    4    0    0  0.24511443271E-01 -0.22608099300E-01 -0.28069430877E-01  0.43590034135E-01  0.51100000000E-03 0.  1.
         11    1    4    4    0    0  0.35998640670E-01 -0.66778018006E-01 -0.44021285842E-01  0.87711689911E-01  0.51100000000E-03 0. -1.
</event>
<event>
 8    1  0.1146431E+005  0.1043930E+01  0.7957747E-01            NaN
         13   -1    0    0    0    0  0.00000000000E+00  0.00000000000E+00  0.74505805969E-08  0.10566000000E+00  0.10566000000E+00 0. -1.
     999900   -1    0    0    0    0 -0.00000000000E+00 -0.00000000000E+00 -0.74505805969E-08  0.93827000000E+00  0.93827000000E+00 0.  1.
     999902    2    1    2    0    0 -0.23655062520E-01  0.31972485112E-02 -0.24594655998E-02  0.10199334721E+01  0.10196511433E+01 0.  0.
     999903    2    3    3    0    0 -0.14501825069E-01  0.92498768100E-01 -0.90083161507E-01  0.13103727160E+00  0.17013686570E-01 0.  0.
         14    1    1    2    0    0  0.23655062520E-01 -0.31972485112E-02  0.24594655998E-02  0.23996527913E-01  0.00000000000E+00 0.  1.
     999901    1    3    3    0    0 -0.91532374511E-02 -0.89301519589E-01  0.87623695907E-01  0.88889620049E+00  0.88000000000E+00 0. -1.
        -11    1    4    4    0    0 -0.16181034545E-01  0.77519364681E-01 -0.68502451437E-01  0.10470876159E+00  0.51100000000E-03 0. -1.
         11    1    4    4    0    0  0.16792094763E-02  0.14979403419E-01 -0.21580710070E-01  0.26328510010E-01  0.51100000000E-03 0.  1.
</event>
<event>
 8    1  0.1146431E+005  0.1043930E+01  0.7957747E-01            NaN
         13   -1    0    0    0    0  0.00000000000E+00  0.00000000000E+00  0.74505805969E-08  0.10566000000E+00  0.10566000000E+00 0. -1.
     999900   -1    0    0    0    0 -0.00000000000E+00 -0.00000000000E+00 -0.74505805969E-08  0.93827000000E+00  0.93827000000E+00 0.  1.
     999902    2    1    2    0    0  0.10629513748E-01  0.20427616276E-01  0.12176142834E-02  0.10208701506E+01  0.10206096745E+01 0.  0.
     999903    2    3    3    0    0  0.10475205563E+00  0.66485932867E-01 -0.44743450636E-01  0.13346221685E+00  0.20416035936E-01 0.  0.
         14    1    1    2    0    0 -0.10629513748E-01 -0.20427616276E-01 -0.12176142834E-02  0.23059849387E-01  0.00000000000E+00 0. -1.
     999901    1    3    3    0    0 -0.94122541883E-01 -0.46058316592E-01  0.45961064920E-01  0.88740793376E+00  0.88000000000E+00 0. -1.
        -11    1    4    4    0    0  0.77030538053E-01  0.58150270783E-01 -0.38053271160E-01  0.10374714623E+00  0.51100000000E-03 0.  1.
         11    1    4    4    0    0  0.27721517578E-01  0.83356620841E-02 -0.66901794766E-02  0.29715070614E-01  0.51100000000E-03 0. -1.
</event>
<event>
 8    1  0.1146431E+005  0.1043930E+01  0.7957747E-01            NaN
         13   -1    0    0    0    0  0.00000000000E+00  0.00000000000E+00  0.74505805969E-08  0.10566000000E+00  0.10566000000E+00 0. -1.
     999900   -1    0    0    0    0 -0.00000000000E+00 -0.00000000000E+00 -0.74505805969E-08  0.93827000000E+00  0.93827000000E+00 0. -1.
     999902    2    1    2    0    0 -0.11226239477E-01 -0.55372020268E-02  0.22733596530E-01  0.10179780161E+01  0.10176471568E+01 0.  0.
     999903    2    3    3    0    0 -0.41375752005E-01 -0.12058517643E+00  0.15131389172E-01  0.12994489558E+00  0.20099236804E-01 0.  0.
         14    1    1    2    0    0  0.11226239477E-01  0.55372020268E-02 -0.22733596530E-01  0.25951983937E-01  0.00000000000E+00 0.  1.
     999901    1    3    3    0    0  0.30149512528E-01  0.11504797440E+00  0.76022073573E-02  0.88803312048E+00  0.88000000000E+00 0. -1.
        -11    1    4    4    0    0 -0.40958545026E-01 -0.10986038931E+00  0.90471526154E-02  0.11759685217E+00  0.51100000000E-03 0.  1.
         11    1    4    4    0    0 -0.41720697870E-03 -0.10724787122E-01  0.60842365568E-02  0.12348043406E-01  0.51100000000E-03 0. -1.
</event>
<event>
 8    1  0.1146431E+005  0.1043930E+01  0.7957747E-01            NaN
         13   -1    0    0    0    0  0.00000000000E+00  0.00000000000E+00  0.74505805969E-08  0.10566000000E+00  0.10566000000E+00 0.  1.
     999900   -1    0    0    0    0 -0.00000000000E+00 -0.00000000000E+00 -0.74505805969E-08  0.93827000000E+00  0.93827000000E+00 0. -1.
     999902    2    1    2    0    0  0.60983375065E-03  0.99288406486E-02  0.23946755009E-01  0.10179993068E+01  0.10176689972E+01 0.  0.
     999903    2    3    3    0    0  0.28132454126E-01  0.11214675212E+00 -0.52571546570E-01  0.12835834185E+00  0.18540966176E-01 0.  0.
         14    1    1    2    0    0 -0.60983375065E-03 -0.99288406486E-02 -0.23946755009E-01  0.25930693189E-01  0.00000000000E+00 0. -1.
     999901    1    3    3    0    0 -0.27522620376E-01 -0.10221791148E+00  0.76518301578E-01  0.88964096496E+00  0.88000000000E+00 0. -1.
        -11    1    4    4    0    0  0.25343720807E-01  0.69794812463E-01 -0.28323843123E-01  0.79474028723E-01  0.51100000000E-03 0. -1.
         11    1    4    4    0    0  0.27887333190E-02  0.42351939661E-01 -0.24247703447E-01  0.48884313128E-01  0.51100000000E-03 0.  1.
</event>
<event>
 8    1  0.1146431E+005  0.1043930E+01  0.7957747E-01            NaN
         13   -1    0    0    0    0  0.00000000000E+00  0.00000000000E+00  0.74505805969E-08  0.10566000000E+00  0.10566000000E+00 0.  1.
     999900   -1    0    0    0    0 -0.00000000000E+00 -0.00000000000E+00 -0.74505805969E-08  0.93827000000E+00  0.93827000000E+00 0.  1.
     999902    2    1    2    0    0  0.21722933508E-01 -0.48732446411E-02  0.68538101952E-02  0.10206360294E+01  0.10203701757E+01 0.  0.
     999903    2    3    3    0    0  0.53591087864E-01  0.55500700440E-01 -0.10356296573E+00  0.13111230461E+00  0.22645443302E-01 0.  0.
         14    1    1    2    0    0 -0.21722933508E-01  0.48732446411E-02 -0.68538101952E-02  0.23293970630E-01  0.00000000000E+00 0. -1.
     999901    1    3    3    0    0 -0.31868154356E-01 -0.60373945081E-01  0.11041677592E+00  0.88952372476E+00  0.88000000000E+00 0. -1.
        -11    1    4    4    0    0  0.27939233987E-01  0.15030311656E-01 -0.32655187347E-01  0.45531675194E-01  0.51100000000E-03 0.  1.
         11    1    4    4    0    0  0.25651853877E-01  0.40470388784E-01 -0.70907778379E-01  0.85580629416E-01  0.51100000000E-03 0. -1.
</event>
<event>
 8    1  0.1146431E+005  0.1043930E+01  0.7957747E-01            NaN
         13   -1    0    0    0    0  0.00000000000E+00  0.00000000000E+00  0.74505805969E-08  0.10566000000E+00  0.10566000000E+00 0.  1.
     999900   -1    0    0    0    0 -0.00000000000E+00 -0.00000000000E+00 -0.74505805969E-08  0.93827000000E+00  0.93827000000E+00 0. -1.
     999902    2    1    2    0    0 -0.29892871340E-02  0.10093826132E-01 -0.19771704863E-01  0.10215304135E+01  0.10212848007E+01 0.  0.
     999903    2    3    3    0    0 -0.12217775976E+00  0.15761856050E-01  0.38896043071E-01  0.13154169263E+00  0.24788579002E-01 0.  0.
         14    1    1    2    0    0  0.29892871340E-02 -0.10093826132E-01  0.19771704863E-01  0.22399586531E-01  0.00000000000E+00 0.  1.
     999901    1    3    3    0    0  0.11918847262E+00 -0.56680299174E-02 -0.58667747935E-01  0.88998872084E+00  0.88000000000E+00 0. -1.
        -11    1    4    4    0    0 -0.58910525467E-01  0.13922305534E-01  0.78518779906E-02  0.61042556558E-01  0.51100000000E-03 0. -1.
         11    1    4    4    0    0 -0.63267234288E-01  0.18395505160E-02  0.31044165081E-01  0.70499136074E-01  0.51100000000E-03 0.  1.
</event>
<event>
 8    1  0.1146431E+005  0.1043930E+01  0.7957747E-01            NaN
         13   -1    0    0    0    0  0.00000000000E+00  0.00000000000E+00  0.74505805969E-08  0.10566000000E+00  0.10566000000E+00 0. -1.
     999900   -1    0    0    0    0 -0.00000000000E+00 -0.00000000000E+00 -0.74505805969E-08  0.93827000000E+00  0.93827000000E+00 0. -1.
     999902    2    1    2    0    0 -0.20721320156E-01  0.19571901334E-01 -0.68565201933E-02  0.10146137195E+01  0.10141900983E+01 0.  0.
     999903    2    3    3    0    0  0.11565006304E+00 -0.23422315227E-01 -0.27892996721E-01  0.12282440016E+00  0.19602858901E-01 0.  0.
         14    1    1    2    0    0  0.20721320156E-01 -0.19571901334E-01  0.68565201933E-02  0.29316280460E-01  0.00000000000E+00 0. -1.
     999901    1    3    3    0    0 -0.13637138320E+00  0.42994216561E-01  0.21036476528E-01  0.89178931938E+00  0.88000000000E+00 0.  1.
        -11    1    4    4    0    0  0.50769127236E-01 -0.22056985981E-02 -0.61983204366E-02  0.51196188177E-01  0.51100000000E-03 0. -1.
         11    1    4    4    0    0  0.64880935805E-01 -0.21216616628E-01 -0.21694676284E-01  0.71628211985E-01  0.51100000000E-03 0.  1.
</event>
<event>
 8    1  0.1146431E+005  0.1043930E+01  0.7957747E-01            NaN
         13   -1    0    0    0    0  0.00000000000E+00  0.00000000000E+00  0.74505805969E-08  0.10566000000E+00  0.10566000000E+00 0. -1.
     999900   -1    0    0    0    0 -0.00000000000E+00 -0.00000000000E+00 -0.74505805969E-08  0.93827000000E+00  0.93827000000E+00 0. -1.
     999902    2    1    2    0    0  0.16934805531E-01  0.95665021237E-02 -0.18540758372E-01  0.10170587268E+01  0.10167036876E+01 0.  0.
     999903    2    3    3    0    0  0.12383775981E+00 -0.31309455096E-01 -0.50023245125E-02  0.12954400880E+00  0.20989383825E-01 0.  0.
         14    1    1    2    0    0 -0.16934805531E-01 -0.95665021237E-02  0.18540758372E-01  0.26871273179E-01  0.00000000000E+00 0. -1.
     999901    1    3    3    0    0 -0.10690295428E+00  0.40875957220E-01 -0.13538433860E-01  0.88751471802E+00  0.88000000000E+00 0.  1.
        -11    1    4    4    0    0  0.80658848167E-01 -0.11044339353E-01 -0.76379635351E-02  0.81770574337E-01  0.51100000000E-03 0.  1.
         11    1    4    4    0    0  0.43178911639E-01 -0.20265115743E-01  0.26356390226E-02  0.47773434464E-01  0.51100000000E-03 0. -1.
</event>
<event>
 8    1  0.1146431E+005  0.1043930E+01  0.7957747E-01            NaN
         13   -1    0    0    0    0  0.00000000000E+00  0.00000000000E+00  0.74505805969E-08  0.10566000000E+00  0.10566000000E+00 0.  1.
     999900   -1    0    0    0    0 -0.00000000000E+00 -0.00000000000E+00 -0.74505805969E-08  0.93827000000E+00  0.93827000000E+00 0.  1.
     999902    2    1    2    0    0  0.16907449595E-01  0.79202985681E-02 -0.12597434777E-01  0.10214069375E+01  0.10211585791E+01 0.  0.
     999903    2    3    3    0    0 -0.88021579811E-01  0.31628451838E-01 -0.90341954004E-01  0.13145391177E+00  0.19243305027E-01 0.  0.
         14    1    1    2    0    0 -0.16907449595E-01 -0.79202985681E-02  0.12597434777E-01  0.22523062495E-01  0.00000000000E+00 0.  1.
     999901    1    3    3    0    0  0.10492902941E+00 -0.23708153270E-01  0.77744519227E-01  0.88995302573E+00  0.88000000000E+00 0. -1.
        -11    1    4    4    0    0 -0.21311914219E-01  0.15169499134E-01 -0.31837387845E-01  0.41209122503E-01  0.51100000000E-03 0. -1.
         11    1    4    4    0    0 -0.66709665592E-01  0.16458952704E-01 -0.58504566159E-01  0.90244789268E-01  0.51100000000E-03 0.  1.
</event>
<event>
 8    1  0.1146431E+005  0.1043930E+01  0.7957747E-01            NaN
         13   -1    0    0    0    0  0.00000000000E+00  0.00000000000E+00  0.74505805969E-08  0.10566000000E+00  0.10566000000E+00 0.  1.
     999900   -1    0    0    0    0 -0.00000000000E+00 -0.00000000000E+00 -0.74505805969E-08  0.93827000000E+00  0.93827000000E+00 0. -1.
     999902    2    1    2    0    0  0.92804948971E-02 -0.16104817981E-01  0.17044058151E-01  0.10187111050E+01  0.10183989016E+01 0.  0.
     999903    2    3    3    0    0  0.11212594228E+00  0.60886857674E-01 -0.82722230103E-02  0.12902249751E+00  0.17289847338E-01 0.  0.
         14    1    1    2    0    0 -0.92804948971E-02  0.16104817981E-01 -0.17044058151E-01  0.25218895019E-01  0.00000000000E+00 0. -1.
     999901    1    3    3    0    0 -0.10284544738E+00 -0.76991675656E-01  0.25316281162E-01  0.88968860747E+00  0.88000000000E+00 0. -1.
        -11    1    4    4    0    0  0.42739906769E-01  0.32758619425E-01 -0.48831390502E-02  0.54073403308E-01  0.51100000000E-03 0.  1.
         11    1    4    4    0    0  0.69386035511E-01  0.28128238249E-01 -0.33890839601E-02  0.74949094204E-01  0.51100000000E-03 0. -1.
</event>
<event>
 8    1  0.1146431E+005  0.1043930E+01  0.7957747E-01            NaN
         13   -1    0    0    0    0  0.00000000000E+00  0.00000000000E+00  0.74505805969E-08  0.10566000000E+00  0.10566000000E+00 0. -1.
     999900   -1    0    0    0    0 -0.00000000000E+00 -0.00000000000E+00 -0.74505805969E-08  0.93827000000E+00  0.93827000000E+00 0. -1.
     999902    2    1    2    0    0  0.23570981563E-02  0.23562993733E-01  0.43844199558E-02  0.10198469411E+01  0.10195625482E+01 0.  0.
     999903    2    3    3    0    0  0.72363878302E-01  0.56737667128E-01  0.92816103630E-01  0.13202845131E+00  0.18999713364E-01 0.  0.
         14    1    1    2    0    0 -0.23570981563E-02 -0.23562993733E-01 -0.43844199558E-02  0.24083058854E-01  0.00000000000E+00 0.  1.
     999901    1    3    3    0    0 -0.70006780145E-01 -0.33174673394E-01 -0.88431683674E-01  0.88781848984E+00  0.88000000000E+00 0. -1.
        -11    1    4    4    0    0  0.18310711382E-01  0.66526004062E-02  0.26469985784E-01  0.32870359169E-01  0.51100000000E-03 0. -1.
         11    1    4    4    0    0  0.54053166920E-01  0.50085066721E-01  0.66346117845E-01  0.99158092139E-01  0.51100000000E-03 0.  1.
</event>
<event>
 8    1  0.1146431E+005  0.1043930E+01  0.7957747E-01            NaN
         13   -1    0    0    0    0  0.00000000000E+00  0.00000000000E+00  0.74505805969E-08  0.10566000000E+00  0.10566000000E+00 0. -1.
     999900   -1    0    0    0    0 -0.00000000000E+00 -0.00000000000E+00 -0.74505805969E-08  0.93827000000E+00  0.93827000000E+00 0. -1.
     999902    2    1    2    0    0  0.22656253676E-01  0.59028712337E-02  0.63107576088E-02  0.10196817963E+01  0.10193934424E+01 0.  0.
     999903    2    3    3    0    0  0.11561898817E+00 -0.46810925585E-02  0.62753848288E-01  0.13292370487E+00  0.18466260818E-01 0.  0.
         14    1    1    2    0    0 -0.22656253676E-01 -0.59028712337E-02 -0.63107576088E-02  0.24248203666E-01  0.00000000000E+00 0. -1.
     999901    1    3    3    0    0 -0.92962734491E-01  0.10583963792E-01 -0.56443090679E-01  0.88675809147E+00  0.88000000000E+00 0. -1.
        -11    1    4    4    0    0  0.65256406814E-01 -0.77631235941E-02  0.26837437427E-01  0.70987138883E-01  0.51100000000E-03 0. -1.
         11    1    4    4    0    0  0.50362581354E-01  0.30820310356E-02  0.35916410861E-01  0.61936565986E-01  0.51100000000E-03 0.  1.
</event>
<event>
 8    1  0.1146431E+005  0.1043930E+01  0.7957747E-01            NaN
         13   -1    0    0    0    0  0.00000000000E+00  0.00000000000E+00  0.74505805969E-08  0.10566000000E+00  0.10566000000E+00 0. -1.
     999900   -1    0    0    0    0 -0.00000000000E+00 -0.00000000000E+00 -0.74505805969E-08  0.93827000000E+00  0.93827000000E+00 0.  1.
     999902    2    1    2    0    0 -0.36313604216E-02  0.17208315096E-01 -0.16540786878E-01  0.10197864601E+01  0.10195006198E+01 0.  0.
     999903    2    3    3    0    0  0.94948822362E-02 -0.78094681253E-01  0.97926449058E-01  0.12717360594E+00  0.19864656909E-01 0.  0.
         14    1    1    2    0    0  0.36313604216E-02 -0.17208315096E-01  0.16540786878E-01  0.24143539871E-01  0.00000000000E+00 0. -1.
     999901    1    3    3    0    0 -0.13126242658E-01  0.95302996349E-01 -0.11446723594E+00  0.89261285419E+00  0.88000000000E+00 0.  1.
        -11    1    4    4    0    0  0.40990961230E-02 -0.74263834751E-01  0.87851112013E-01  0.11510863888E+00  0.51100000000E-03 0. -1.
         11    1    4    4    0    0  0.53957861132E-02 -0.38308465021E-02  0.10075337045E-01  0.12064967065E-01  0.51100000000E-03 0.  1.
</event>
<event>
 8    1  0.1386441E+005  0.1043930E+01  0.7957747E-01            NaN
         13   -1    0    0    0    0  0.00000000000E+00  0.00000000000E+00  0.74505805969E-08  0.10566000000E+00  0.10566000000E+00 0. -1.
     999900   -1    0    0    0    0 -0.00000000000E+00 -0.00000000000E+00 -0.74505805969E-08  0.93827000000E+00  0.93827000000E+00 0. -1.
     999902    2    1    2    0    0 -0.21739361133E-01 -0.81515333808E-02  0.28909688153E-02  0.10205333118E+01  0.10202650810E+01 0.  0.
     999903    2    3    3    0    0 -0.49945498007E-01 -0.12135965551E+00  0.36877761388E-03  0.13282951742E+00  0.20514042642E-01 0.  0.
         14    1    1    2    0    0  0.21739361133E-01  0.81515333808E-02 -0.28909688153E-02  0.23396688219E-01  0.00000000000E+00 0. -1.
     999901    1    3    3    0    0  0.28206136874E-01  0.11320812213E+00  0.25221912014E-02  0.88770379436E+00  0.88000000000E+00 0.  1.
        -11    1    4    4    0    0 -0.14789926557E-01 -0.62370151553E-01  0.20799678867E-02  0.64135521513E-01  0.51100000000E-03 0.  1.
         11    1    4    4    0    0 -0.35155571451E-01 -0.58989503953E-01 -0.17111902728E-02  0.68693995908E-01  0.51100000000E-03 0. -1.
</event>
<event>
 8    1  0.1146431E+005  0.1043930E+01  0.7957747E-01            NaN
         13   -1    0    0    0    0  0.00000000000E+00  0.00000000000E+00  0.74505805969E-08  0.10566000000E+00  0.10566000000E+00 0. -1.
     999900   -1    0    0    0    0 -0.00000000000E+00 -0.00000000000E+00 -0.74505805969E-08  0.93827000000E+00  0.93827000000E+00 0. -1.
     999902    2    1    2    0    0 -0.21717951110E-01  0.81743777559E-02 -0.14300367530E-02  0.10206805945E+01  0.10204157687E+01 0.  0.
     999903    2    3    3    0    0 -0.82000176630E-01 -0.74538444141E-01  0.67850554749E-01  0.13204390945E+00  0.23492288525E-01 0.  0.
         14    1    1    2    0    0  0.21717951110E-01 -0.81743777559E-02  0.14300367530E-02  0.23249405524E-01  0.00000000000E+00 0.  1.
     999901    1    3    3    0    0  0.60282225520E-01  0.82712821897E-01 -0.69280591502E-01  0.88863668503E+00  0.88000000000E+00 0. -1.
        -11    1    4    4    0    0 -0.26804655744E-01 -0.29493170751E-01  0.37078333977E-01  0.54437125769E-01  0.51100000000E-03 0. -1.
         11    1    4    4    0    0 -0.55195520886E-01 -0.45045273390E-01  0.30772220772E-01  0.77606783678E-01  0.51100000000E-03 0.  1.
</event>
<event>
 8    1  0.1146431E+005  0.1043930E+01  0.7957747E-01            NaN
         13   -1    0    0    0    0  0.00000000000E+00  0.00000000000E+00  0.74505805969E-08  0.10566000000E+00  0.10566000000E+00 0. -1.
     999900   -1    0    0    0    0 -0.00000000000E+00 -0.00000000000E+00 -0.74505805969E-08  0.93827000000E+00  0.93827000000E+00 0. -1.
     999902    2    1    2    0    0  0.23637740897E-01  0.34057793299E-03  0.16511258233E-02  0.10202322152E+01  0.10199569540E+01 0.  0.
     999903    2    3    3    0    0 -0.49342894519E-01  0.42150027809E-01 -0.10995076744E+00  0.12920517530E+00  0.19835825663E-01 0.  0.
         14    1    1    2    0    0 -0.23637740897E-01 -0.34057793299E-03 -0.16511258233E-02  0.23697784802E-01  0.00000000000E+00 0.  1.
     999901    1    3    3    0    0  0.72980635416E-01 -0.41809449876E-01  0.11160189327E+00  0.89102703990E+00  0.88000000000E+00 0.  1.
        -11    1    4    4    0    0 -0.13038721346E-01  0.23285400117E-01 -0.38074079348E-01  0.46498545699E-01  0.51100000000E-03 0.  1.
         11    1    4    4    0    0 -0.36304173173E-01  0.18864627692E-01 -0.71876688095E-01  0.82706629603E-01  0.51100000000E-03 0. -1.
</event>
<event>
 8    1  0.1146431E+005  0.1043930E+01  0.7957747E-01            NaN
         13   -1    0    0    0    0  0.00000000000E+00  0.00000000000E+00  0.74505805969E-08  0.10566000000E+00  0.10566000000E+00 0. -1.
     999900   -1    0    0    0    0 -0.00000000000E+00 -0.00000000000E+00 -0.74505805969E-08  0.93827000000E+00  0.93827000000E+00 0. -1.
     999902    2    1    2    0    0  0.21894218996E-01 -0.39065080032E-03  0.85811162941E-02  0.10204109654E+01  0.10201398891E+01 0.  0.
     999903    2    3    3    0    0 -0.45103922895E-01  0.47018343925E-01  0.11124475512E+00  0.13064909467E+00  0.21182584115E-01 0.  0.
         14    1    1    2    0    0 -0.21894218996E-01  0.39065080032E-03 -0.85811162941E-02  0.23519034639E-01  0.00000000000E+00 0.  1.
     999901    1    3    3    0    0  0.66998141891E-01 -0.47408994726E-01 -0.10266363883E+00  0.88976187069E+00  0.88000000000E+00 0. -1.
        -11    1    4    4    0    0 -0.24217993747E-02  0.62648152647E-02  0.26748464976E-01  0.27583591537E-01  0.51100000000E-03 0.  1.
         11    1    4    4    0    0 -0.42682123520E-01  0.40753528661E-01  0.84496290148E-01  0.10306550313E+00  0.51100000000E-03 0. -1.
</event>
<event>
 8    1  0.1146431E+005  0.1043930E+01  0.7957747E-01            NaN
         13   -1    0    0    0    0  0.00000000000E+00  0.00000000000E+00  0.74505805969E-08  0.10566000000E+00  0.10566000000E+00 0.  1.
     999900   -1    0    0    0    0 -0.00000000000E+00 -0.00000000000E+00 -0.74505805969E-08  0.93827000000E+00  0.93827000000E+00 0.  1.
     999902    2    1    2    0    0 -0.76277686760E-02 -0.21270410203E-01  0.68339280299E-02  0.10203224635E+01  0.10200493193E+01 0.  0.
     999903    2    3    3    0    0  0.26288077345E-01 -0.98653828831E-02 -0.12482273662E+00  0.12980922018E+00  0.21939217757E-01 0.  0.
         14    1    1    2    0    0  0.76277686760E-02  0.21270410203E-01 -0.68339280299E-02  0.23607536455E-01  0.00000000000E+00 0. -1.
     999901    1    3    3    0    0 -0.33915846021E-01 -0.11405027320E-01  0.13165666465E+00  0.89051324336E+00  0.88000000000E+00 0. -1.
        -11    1    4    4    0    0  0.78268387487E-02 -0.58615211247E-02 -0.86788138670E-01  0.87338759835E-01  0.51100000000E-03 0. -1.
         11    1    4    4    0    0  0.18461238596E-01 -0.40038617583E-02 -0.38034597953E-01  0.42470460346E-01  0.51100000000E-03 0.  1.
</event>
<event>
 8    1  0.1146431E+005  0.1043930E+01  0.7957747E-01            NaN
         13   -1    0    0    0    0  0.00000000000E+00  0.00000000000E+00  0.74505805969E-08  0.10566000000E+00  0.10566000000E+00 0. -1.
     999900   -1    0    0    0    0 -0.00000000000E+00 -0.00000000000E+00 -0.74505805969E-08  0.93827000000E+00  0.93827000000E+00 0. -1.
     999902    2    1    2    0    0  0.86342308827E-02 -0.15136990244E-01  0.18182719264E-01  0.10187448914E+01  0.10184335344E+01 0.  0.
     999903    2    3    3    0    0 -0.48657014289E-01 -0.93824047265E-01  0.75693675258E-01  0.13151242478E+00  0.19887898672E-01 0.  0.
         14    1    1    2    0    0 -0.86342308827E-02  0.15136990244E-01 -0.18182719264E-01  0.25185108624E-01  0.00000000000E+00 0.  1.
     999901    1    3    3    0    0  0.57291245172E-01  0.78687057021E-01 -0.57510955994E-01  0.88723246659E+00  0.88000000000E+00 0. -1.
        -11    1    4    4    0    0 -0.42194935201E-01 -0.61563569577E-01  0.52949802325E-01  0.91511902739E-01  0.51100000000E-03 0. -1.
         11    1    4    4    0    0 -0.64620790879E-02 -0.32260477689E-01  0.22743872933E-01  0.40000522045E-01  0.51100000000E-03 0.  1.
</event>
<event>
 8    1  0.1146431E+005  0.1043930E+01  0.7957747E-01            NaN
         13   -1    0    0    0    0  0.00000000000E+00  0.00000000000E+00  0.74505805969E-08  0.10566000000E+00  0.10566000000E+00 0. -1.
     999900   -1    0    0    0    0 -0.00000000000E+00 -0.00000000000E+00 -0.74505805969E-08  0.93827000000E+00  0.93827000000E+00 0. -1.
     999902    2    1    2    0    0  0.48822519096E-02  0.16115588401E-02  0.23602327789E-01  0.10197741853E+01  0.10194880508E+01 0.  0.
     999903    2    3    3    0    0 -0.84542497082E-01 -0.82855733817E-01 -0.46919665600E-01  0.12842416383E+00  0.16697436836E-01 0.  0.
         14    1    1    2    0    0 -0.48822519096E-02 -0.16115588401E-02 -0.23602327789E-01  0.24155814676E-01  0.00000000000E+00 0.  1.
     999901    1    3    3    0    0  0.89424748991E-01  0.84467292657E-01  0.70521993389E-01  0.89135002149E+00  0.88000000000E+00 0.  1.
        -11    1    4    4    0    0 -0.19100190631E-01 -0.11837176833E-01 -0.13561757945E-01  0.26251065447E-01  0.51100000000E-03 0. -1.
         11    1    4    4    0    0 -0.65442306451E-01 -0.71018556984E-01 -0.33357907655E-01  0.10217309839E+00  0.51100000000E-03 0.  1.
</event>
<event>
 8    1  0.1146431E+005  0.1043930E+01  0.7957747E-01            NaN
         13   -1    0    0    0    0  0.00000000000E+00  0.00000000000E+00  0.74505805969E-08  0.10566000000E+00  0.10566000000E+00 0.  1.
     999900   -1    0    0    0    0 -0.00000000000E+00 -0.00000000000E+00 -0.74505805969E-08  0.93827000000E+00  0.93827000000E+00 0. -1.
     999902    2    1    2    0    0  0.20567374725E-01  0.16792730677E-02  0.11045051927E-01  0.10205242308E+01  0.10202557893E+01 0.  0.
     999903    2    3    3    0    0  0.55891058626E-01  0.74449360828E-01 -0.90041607821E-01  0.13105148746E+00  0.20012082950E-01 0.  0.
         14    1    1    2    0    0 -0.20567374725E-01 -0.16792730677E-02 -0.11045051927E-01  0.23405769229E-01  0.00000000000E+00 0. -1.
     999901    1    3    3    0    0 -0.35323683901E-01 -0.72770087761E-01  0.10108665975E+00  0.88947274331E+00  0.88000000000E+00 0.  1.
        -11    1    4    4    0    0  0.21809822834E-01  0.29279501151E-01 -0.22299137692E-01  0.42783994934E-01  0.51100000000E-03 0. -1.
         11    1    4    4    0    0  0.34081235792E-01  0.45169859678E-01 -0.67742470130E-01  0.88267492525E-01  0.51100000000E-03 0.  1.
</event>
<event>
 8    1  0.1146431E+005  0.1043930E+01  0.7957747E-01            NaN
         13   -1    0    0    0    0  0.00000000000E+00  0.00000000000E+00  0.74505805969E-08  0.10566000000E+00  0.10566000000E+00 0. -1.
     999900   -1    0    0    0    0 -0.00000000000E+00 -0.00000000000E+00 -0.74505805969E-08  0.93827000000E+00  0.93827000000E+00 0. -1.
     999902    2    1    2    0    0  0.33899217773E-02 -0.22809105764E-01  0.55220363601E-02  0.10202184045E+01  0.10199428186E+01 0.  0.
     999903    2    3    3    0    0 -0.90095259813E-01 -0.78520581119E-01 -0.51718110172E-01  0.13166920382E+00  0.19477649102E-01 0.  0.
         14    1    1    2    0    0 -0.33899217773E-02  0.22809105764E-01 -0.55220363601E-02  0.23711595496E-01  0.00000000000E+00 0.  1.
     999901    1    3    3    0    0  0.93485181590E-01  0.55711475355E-01  0.57240146532E-01  0.88854920069E+00  0.88000000000E+00 0. -1.
        -11    1    4    4    0    0 -0.51234753236E-01 -0.31849494781E-01 -0.24475123950E-01  0.65105169306E-01  0.51100000000E-03 0. -1.
         11    1    4    4    0    0 -0.38860506577E-01 -0.46671086338E-01 -0.27242986222E-01  0.66564034513E-01  0.51100000000E-03 0.  1.
</event>
<event>
 8    1  0.1146431E+005  0.1043930E+01  0.7957747E-01            NaN
         13   -1    0    0    0    0  0.00000000000E+00  0.00000000000E+00  0.74505805969E-08  0.10566000000E+00  0.10566000000E+00 0.  1.
     999900   -1    0    0    0    0 -0.00000000000E+00 -0.00000000000E+00 -0.74505805969E-08  0.93827000000E+00  0.93827000000E+00 0.  1.
     999902    2    1    2    0    0  0.50492749756E-03 -0.22663726273E-01 -0.64640262977E-02  0.10203570690E+01  0.10200847343E+01 0.  0.
     999903    2    3    3    0    0  0.18227497094E-01 -0.89673733150E-01 -0.94709615191E-01  0.13323153421E+00  0.20176977772E-01 0.  0.
         14    1    1    2    0    0 -0.50492749756E-03  0.22663726273E-01  0.64640262977E-02  0.23572931009E-01  0.00000000000E+00 0.  1.
     999901    1    3    3    0    0 -0.17722569597E-01  0.67010006876E-01  0.88245588893E-01  0.88712553478E+00  0.88000000000E+00 0.  1.
        -11    1    4    4    0    0  0.97792340228E-02 -0.64554740581E-01 -0.54389532332E-01  0.84978999158E-01  0.51100000000E-03 0.  1.
         11    1    4    4    0    0  0.84482630716E-02 -0.25118992569E-01 -0.40320082859E-01  0.48252535056E-01  0.51100000000E-03 0. -1.
</event>
<event>
 8    1  0.1146431E+005  0.1043930E+01  0.7957747E-01            NaN
         13   -1    0    0    0    0  0.00000000000E+00  0.00000000000E+00  0.74505805969E-08  0.10566000000E+00  0.10566000000E+00 0.  1.
     999900   -1    0    0    0    0 -0.00000000000E+00 -0.00000000000E+00 -0.74505805969E-08  0.93827000000E+00  0.93827000000E+00 0. -1.
     999902    2    1    2    0    0 -0.13300393207E-01 -0.58904008749E-02  0.18698085446E-01  0.10202400088E+01  0.10199649307E+01 0.  0.
     999903    2    3    3    0    0 -0.22663328449E-02 -0.40989302336E-01  0.12497814982E+00  0.13308211114E+00  0.20150712185E-01 0.  0.
         14    1    1    2    0    0  0.13300393207E-01  0.58904008749E-02 -0.18698085446E-01  0.23689991162E-01  0.00000000000E+00 0. -1.
     999901    1    3    3    0    0 -0.11034060362E-01  0.35098901461E-01 -0.10628006437E+00  0.88715789770E+00  0.88000000000E+00 0. -1.
        -11    1    4    4    0    0 -0.79425194509E-02 -0.52893425546E-02  0.24463746856E-01  0.26263982774E-01  0.51100000000E-03 0. -1.
         11    1    4    4    0    0  0.56761866060E-02 -0.35699959782E-01  0.10051440296E+00  0.10681812836E+00  0.51100000000E-03 0.  1.
</event>
<event>
 8    1  0.1146431E+005  0.1043930E+01  0.7957747E-01            NaN
         13   -1    0    0    0    0  0.00000000000E+00  0.00000000000E+00  0.74505805969E-08  0.10566000000E+00  0.10566000000E+00 0.  1.
     999900   -1    0    0    0    0 -0.00000000000E+00 -0.00000000000E+00 -0.74505805969E-08  0.93827000000E+00  0.93827000000E+00 0.  1.
     999902    2    1    2    0    0  0.20229057634E-01 -0.84169227543E-02  0.95809271699E-02  0.10200165409E+01  0.10197361865E+01 0.  0.
     999903    2    3    3    0    0  0.53219365529E-01 -0.70888633640E-01  0.96808347520E-01  0.13288650648E+00  0.20723614771E-01 0.  0.
         14    1    1    2    0    0 -0.20229057634E-01  0.84169227543E-02 -0.95809271699E-02  0.23913459115E-01  0.00000000000E+00 0. -1.
     999901    1    3    3    0    0 -0.32990307895E-01  0.62471710886E-01 -0.87227420351E-01  0.88713003440E+00  0.88000000000E+00 0.  1.
        -11    1    4    4    0    0  0.11562691957E-01 -0.24371919376E-01  0.41329387214E-01  0.49356515961E-01  0.51100000000E-03 0. -1.
         11    1    4    4    0    0  0.41656673571E-01 -0.46516714264E-01  0.55478960306E-01  0.83529990522E-01  0.51100000000E-03 0.  1.
</event>
<event>
 8    1  0.1146431E+005  0.1043930E+01  0.7957747E-01            NaN
         13   -1    0    0    0    0  0.00000000000E+00  0.00000000000E+00  0.74505805969E-08  0.10566000000E+00  0.10566000000E+00 0.  1.
     999900   -1    0    0    0    0 -0.00000000000E+00 -0.00000000000E+00 -0.74505805969E-08  0.93827000000E+00  0.93827000000E+00 0. -1.
     999902    2    1    2    0    0  0.19942609717E-01  0.67617518300E-02  0.78459979730E-02  0.10214580474E+01  0.10212108274E+01 0.  0.
     999903    2    3    3    0    0 -0.16384619222E-02  0.13056731321E+00  0.10366350938E-01  0.13252615356E+00  0.20129885999E-01 0.  0.
         14    1    1    2    0    0 -0.19942609717E-01 -0.67617518300E-02 -0.78459979730E-02  0.22471952615E-01  0.00000000000E+00 0. -1.
     999901    1    3    3    0    0  0.21581071639E-01 -0.12380556138E+00 -0.25203529646E-02  0.88893189383E+00  0.88000000000E+00 0. -1.
        -11    1    4    4    0    0  0.10462467639E-02  0.71589969706E-01 -0.41753580435E-02  0.71721078705E-01  0.51100000000E-03 0.  1.
         11    1    4    4    0    0 -0.26847086861E-02  0.58977343500E-01  0.14541708981E-01  0.60805074855E-01  0.51100000000E-03 0. -1.
</event>
<event>
 8    1  0.1146431E+005  0.1043930E+01  0.7957747E-01            NaN
         13   -1    0    0    0    0  0.00000000000E+00  0.00000000000E+00  0.74505805969E-08  0.10566000000E+00  0.10566000000E+00 0. -1.
     999900   -1    0    0    0    0 -0.00000000000E+00 -0.00000000000E+00 -0.74505805969E-08  0.93827000000E+00  0.93827000000E+00 0.  1.
     999902    2    1    2    0    0 -0.16802568881E-01  0.11314271645E-01  0.10373012492E-01  0.10211717388E+01  0.10209181072E+01 0.  0.
     999903    2    3    3    0    0  0.54275264249E-01  0.10913656272E+00  0.47016742700E-01  0.13214754232E+00  0.19894854001E-01 0.  0.
         14    1    1    2    0    0  0.16802568881E-01 -0.11314271645E-01 -0.10373012492E-01  0.22758261182E-01  0.00000000000E+00 0.  1.
     999901    1    3    3    0    0 -0.71077833129E-01 -0.97822291075E-01 -0.36643730208E-01  0.88902419650E+00  0.88000000000E+00 0.  1.
        -11    1    4    4    0    0  0.43398643789E-01  0.88893282547E-01  0.46116054608E-01  0.10914398553E+00  0.51100000000E-03 0. -1.
         11    1    4    4    0    0  0.10876620460E-01  0.20243280173E-01  0.90068809185E-03  0.23003556787E-01  0.51100000000E-03 0.  1.
</event>
<event>
 8    1  0.1146431E+005  0.1043930E+01  0.7957747E-01            NaN
         13   -1    0    0    0    0  0.00000000000E+00  0.00000000000E+00  0.74505805969E-08  0.10566000000E+00  0.10566000000E+00 0.  1.
     999900   -1    0    0    0    0 -0.00000000000E+00 -0.00000000000E+00 -0.74505805969E-08  0.93827000000E+00  0.93827000000E+00 0. -1.
     999902    2    1    2    0    0  0.21139853649E-01  0.27156513441E-02 -0.70223197411E-02  0.10214893862E+01  0.10212428628E+01 0.  0.
     999903    2    3    3    0    0 -0.10615526532E+00 -0.70659911501E-01  0.46967871192E-02  0.12923081490E+00  0.20415196819E-01 0.  0.
         14    1    1    2    0    0 -0.21139853649E-01 -0.27156513441E-02  0.70223197411E-02  0.22440613830E-01  0.00000000000E+00 0. -1.
     999901    1    3    3    0    0  0.12729511897E+00  0.73375562845E-01 -0.11719106860E-01  0.89225857127E+00  0.88000000000E+00 0. -1.
        -11    1    4    4    0    0 -0.78979376824E-01 -0.58794894272E-01  0.10467003533E-01  0.99017174469E-01  0.51100000000E-03 0. -1.
         11    1    4    4    0    0 -0.27175888501E-01 -0.11865017229E-01 -0.57702164134E-02  0.30213640432E-01  0.51100000000E-03 0.  1.
</event>
<event>
 8    1  0.1146431E+005  0.1043930E+01  0.7957747E-01            NaN
         13   -1    0    0    0    0  0.00000000000E+00  0.00000000000E+00  0.74505805969E-08  0.10566000000E+00  0.10566000000E+00 0. -1.
     999900   -1    0    0    0    0 -0.00000000000E+00 -0.00000000000E+00 -0.74505805969E-08  0.93827000000E+00  0.93827000000E+00 0.  1.
     999902    2    1    2    0    0 -0.19129461368E-02  0.93251562713E-02 -0.21694223882E-01  0.10202391315E+01  0.10199640328E+01 0.  0.
     999903    2    3    3    0    0  0.84301246478E-01 -0.77287514349E-01 -0.60513015598E-01  0.13094641232E+00  0.20126544937E-01 0.  0.
         14    1    1    2    0    0  0.19129461368E-02 -0.93251562713E-02  0.21694223882E-01  0.23690868541E-01  0.00000000000E+00 0. -1.
     999901    1    3    3    0    0 -0.86214192615E-01  0.86612670620E-01  0.38818791716E-01  0.88929271914E+00  0.88000000000E+00 0. -1.
        -11    1    4    4    0    0  0.41262702917E-01 -0.28804590800E-01 -0.18134034826E-01  0.53492237225E-01  0.51100000000E-03 0.  1.
         11    1    4    4    0    0  0.43038543561E-01 -0.48482923548E-01 -0.42378980772E-01  0.77454175097E-01  0.51100000000E-03 0. -1.
</event>
<event>
 8    1  0.1146431E+005  0.1043930E+01  0.7957747E-01            NaN
         13   -1    0    0    0    0  0.00000000000E+00  0.00000000000E+00  0.74505805969E-08  0.10566000000E+00  0.10566000000E+00 0.  1.
     999900   -1    0    0    0    0 -0.00000000000E+00 -0.00000000000E+00 -0.74505805969E-08  0.93827000000E+00  0.93827000000E+00 0. -1.
     999902    2    1    2    0    0  0.11788869825E-01  0.19481938860E-01 -0.62770932660E-02  0.10203095577E+01  0.10200361113E+01 0.  0.
     999903    2    3    3    0    0 -0.10591987388E+00 -0.64773830961E-01  0.22268155572E-01  0.12802641078E+00  0.21913973715E-01 0.  0.
         14    1    1    2    0    0 -0.11788869825E-01 -0.19481938860E-01  0.62770932660E-02  0.23620442277E-01  0.00000000000E+00 0.  1.
     999901    1    3    3    0    0  0.11770874370E+00  0.84255769821E-01 -0.28545248838E-01  0.89228314695E+00  0.88000000000E+00 0. -1.
        -11    1    4    4    0    0 -0.36567057906E-01 -0.11458888114E-01  0.10673887853E-01  0.39782519322E-01  0.51100000000E-03 0. -1.
         11    1    4    4    0    0 -0.69352815973E-01 -0.53314942848E-01  0.11594267719E-01  0.88243891455E-01  0.51100000000E-03 0.  1.
</event>
<event>
 8    1  0.1146431E+005  0.1043930E+01  0.7957747E-01            NaN
         13   -1    0    0    0    0  0.00000000000E+00  0.00000000000E+00  0.74505805969E-08  0.10566000000E+00  0.10566000000E+00 0. -1.
     999900   -1    0    0    0    0 -0.00000000000E+00 -0.00000000000E+00 -0.74505805969E-08  0.93827000000E+00  0.93827000000E+00 0.  1.
     999902    2    1    2    0    0 -0.16497119999E-01 -0.34884914710E-02  0.16576426242E-01  0.10202846527E+01  0.10200106226E+01 0.  0.
     999903    2    3    3    0    0 -0.12541582389E-01  0.54899198637E-01  0.11814391428E+00  0.13251175200E+00  0.20740458890E-01 0.  0.
         14    1    1    2    0    0  0.16497119999E-01  0.34884914710E-02 -0.16576426242E-01  0.23645347280E-01  0.00000000000E+00 0.  1.
     999901    1    3    3    0    0 -0.39555376106E-02 -0.58387690108E-01 -0.10156748804E+00  0.88777290072E+00  0.88000000000E+00 0.  1.
        -11    1    4    4    0    0 -0.11706291545E-02  0.14214021593E-01  0.13431136753E-01  0.19597585003E-01  0.51100000000E-03 0. -1.
         11    1    4    4    0    0 -0.11370953234E-01  0.40685177043E-01  0.10471277753E+00  0.11291416699E+00  0.51100000000E-03 0.  1.
</event>
<event>
 8    1  0.1146431E+005  0.1043930E+01  0.7957747E-01            NaN
         13   -1    0    0    0    0  0.00000000000E+00  0.00000000000E+00  0.74505805969E-08  0.10566000000E+00  0.10566000000E+00 0.  1.
     999900   -1    0    0    0    0 -0.00000000000E+00 -0.00000000000E+00 -0.74505805969E-08  0.93827000000E+00  0.93827000000E+00 0. -1.
     999902    2    1    2    0    0 -0.38465215801E-02  0.22414937507E-02  0.24371484460E-01  0.10191552290E+01  0.10188540580E+01 0.  0.
     999903    2    3    3    0    0  0.12286476809E+00 -0.23887896138E-01 -0.21542829769E-01  0.12851129332E+00  0.19613163347E-01 0.  0.
         14    1    1    2    0    0  0.38465215801E-02 -0.22414937507E-02 -0.24371484460E-01  0.24774770983E-01  0.00000000000E+00 0. -1.
     999901    1    3    3    0    0 -0.12671128967E+00  0.26129389889E-01  0.45914314229E-01  0.89064393570E+00  0.88000000000E+00 0.  1.
        -11    1    4    4    0    0  0.76761573735E-01 -0.24241936574E-01 -0.11425169484E-01  0.81306865084E-01  0.51100000000E-03 0. -1.
         11    1    4    4    0    0  0.46103194354E-01  0.35404043575E-03 -0.10117660285E-01  0.47204428234E-01  0.51100000000E-03 0.  1.
</event>
<event>
 8    1  0.1146431E+005  0.1043930E+01  0.7957747E-01            NaN
         13   -1    0    0    0    0  0.00000000000E+00  0.00000000000E+00  0.74505805969E-08  0.10566000000E+00  0.10566000000E+00 0.  1.
     999900   -1    0    0    0    0 -0.00000000000E+00 -0.00000000000E+00 -0.74505805969E-08  0.93827000000E+00  0.93827000000E+00 0. -1.
     999902    2    1    2    0    0  0.44676402416E-02  0.14574447160E-01 -0.17798613966E-01  0.10204957307E+01  0.10202266275E+01 0.  0.
     999903    2    3    3    0    0  0.12939715621E+00  0.14854812427E-02 -0.10861497736E-01  0.13154869707E+00  0.21006115245E-01 0.  0.
         14    1    1    2    0    0 -0.44676402416E-02 -0.14574447160E-01  0.17798613966E-01  0.23434269317E-01  0.00000000000E+00 0.  1.
     999901    1    3    3    0    0 -0.12492951597E+00  0.13088965917E-01 -0.69371162297E-02  0.88894703361E+00  0.88000000000E+00 0.  1.
        -11    1    4    4    0    0  0.10876432260E+00 -0.59976631618E-02 -0.11844564742E-01  0.10957282815E+00  0.51100000000E-03 0.  1.
         11    1    4    4    0    0  0.20632833608E-01  0.74831444045E-02  0.98306700626E-03  0.21975868916E-01  0.51100000000E-03 0. -1.
</event>
<event>
 8    1  0.1146431E+005  0.1043930E+01  0.7957747E-01            NaN
         13   -1    0    0    0    0  0.00000000000E+00  0.00000000000E+00  0.74505805969E-08  0.10566000000E+00  0.10566000000E+00 0. -1.
     999900   -1    0    0    0    0 -0.00000000000E+00 -0.00000000000E+00 -0.74505805969E-08  0.93827000000E+00  0.93827000000E+00 0.  1.
     999902    2    1    2    0    0  0.27120209063E-02 -0.95622598168E-02  0.32848251396E-01  0.10096109165E+01  0.10090274542E+01 0.  0.
     999903    2    3    3    0    0  0.18764748325E-01 -0.98895545382E-02  0.12140798714E+00  0.12502026319E+00  0.20982082805E-01 0.  0.
         14    1    1    2    0    0 -0.27120209063E-02  0.95622598168E-02 -0.32848251396E-01  0.34319083466E-01  0.00000000000E+00 0.  1.
     999901    1    3    3    0    0 -0.16052727418E-01  0.32729472133E-03 -0.88559735746E-01  0.88459065334E+00  0.88000000000E+00 0.  1.
        -11    1    4    4    0    0  0.19705515875E-01 -0.13943884654E-04  0.73817887295E-01  0.76404510050E-01  0.51100000000E-03 0. -1.
         11    1    4    4    0    0 -0.94076755077E-03 -0.98756106535E-02  0.47590099847E-01  0.48615753145E-01  0.51100000000E-03 0.  1.
</event>
<event>
 8    1  0.1146431E+005  0.1043930E+01  0.7957747E-01            NaN
         13   -1    0    0    0    0  0.00000000000E+00  0.00000000000E+00  0.74505805969E-08  0.10566000000E+00  0.10566000000E+00 0.  1.
     999900   -1    0    0    0    0 -0.00000000000E+00 -0.00000000000E+00 -0.74505805969E-08  0.93827000000E+00  0.93827000000E+00 0.  1.
     999902    2    1    2    0    0 -0.12278431814E-01 -0.79899376328E-02  0.18028021756E-01  0.10207005239E+01  0.10204361572E+01 0.  0.
     999903    2    3    3    0    0  0.13530930292E-03 -0.12791057216E+00 -0.23781887213E-01  0.13149687567E+00  0.19097575044E-01 0.  0.
         14    1    1    2    0    0  0.12278431814E-01  0.79899376328E-02 -0.18028021756E-01  0.23229476095E-01  0.00000000000E+00 0. -1.
     999901    1    3    3    0    0 -0.12413741117E-01  0.11992063452E+00  0.41809908969E-01  0.88920364824E+00  0.88000000000E+00 0. -1.
        -11    1    4    4    0    0 -0.50178028110E-02 -0.93362492636E-01 -0.24126003260E-01  0.96561164712E-01  0.51100000000E-03 0.  1.
         11    1    4    4    0    0  0.51531121139E-02 -0.34548079521E-01  0.34411604710E-03  0.34935710954E-01  0.51100000000E-03 0. -1.
</event>
<event>
 8    1  0.1146431E+005  0.1043930E+01  0.7957747E-01            NaN
         13   -1    0    0    0    0  0.00000000000E+00  0.00000000000E+00  0.74505805969E-08  0.10566000000E+00  0.10566000000E+00 0. -1.
     999900   -1    0    0    0    0 -0.00000000000E+00 -0.00000000000E+00 -0.74505805969E-08  0.93827000000E+00  0.93827000000E+00 0.  1.
     999902    2    1    2    0    0  0.19429592049E-01 -0.10875472002E-01 -0.67325912121E-02  0.10206681703E+01  0.10204030581E+01 0.  0.
     999903    2    3    3    0    0 -0.11326664769E+00  0.46503655465E-01  0.31880464069E-01  0.12803631762E+00  0.19621701996E-01 0.  0.
         14    1    1    2    0    0 -0.19429592049E-01  0.10875472002E-01  0.67325912121E-02  0.23261829741E-01  0.00000000000E+00 0.  1.
     999901    1    3    3    0    0  0.13269623974E+00 -0.57379127468E-01 -0.38613055281E-01  0.89263185264E+00  0.88000000000E+00 0. -1.
        -11    1    4    4    0    0 -0.39773741993E-01  0.26611603625E-01  0.11658897806E-01  0.49257679794E-01  0.51100000000E-03 0.  1.
         11    1    4    4    0    0 -0.73492905699E-01  0.19892051840E-01  0.20221566263E-01  0.78778637825E-01  0.51100000000E-03 0. -1.
</event>
<event>
 8    1  0.1146431E+005  0.1043930E+01  0.7957747E-01            NaN
         13   -1    0    0    0    0  0.00000000000E+00  0.00000000000E+00  0.74505805969E-08  0.10566000000E+00  0.10566000000E+00 0.  1.
     999900   -1    0    0    0    0 -0.00000000000E+00 -0.00000000000E+00 -0.74505805969E-08  0.93827000000E+00  0.93827000000E+00 0.  1.
     999902    2    1    2    0    0 -0.50167461347E-02 -0.41282067259E-02  0.21734446434E-01  0.10212452916E+01  0.10209933152E+01 0.  0.
     999903    2    3    3    0    0  0.10532801525E+00  0.35905296301E-01  0.68785791237E-01  0.13220509187E+00  0.19066204145E-01 0.  0.
         14    1    1    2    0    0  0.50167461347E-02  0.41282067259E-02 -0.21734446434E-01  0.22684708381E-01  0.00000000000E+00 0. -1.
     999901    1    3    3    0    0 -0.11034476138E+00 -0.40033503027E-01 -0.47051344803E-01  0.88904019975E+00  0.88000000000E+00 0. -1.
        -11    1    4    4    0    0  0.10010423212E+00  0.33035441982E-01  0.59186982017E-01  0.12089482072E+00  0.51100000000E-03 0. -1.
         11    1    4    4    0    0  0.52237831283E-02  0.28698543199E-02  0.95988092198E-02  0.11310271147E-01  0.51100000000E-03 0.  1.
</event>
<event>
 8    1  0.1146431E+005  0.1043930E+01  0.7957747E-01            NaN
         13   -1    0    0    0    0  0.00000000000E+00  0.00000000000E+00  0.74505805969E-08  0.10566000000E+00  0.10566000000E+00 0.  1.
     999900   -1    0    0    0    0 -0.00000000000E+00 -0.00000000000E+00 -0.74505805969E-08  0.93827000000E+00  0.93827000000E+00 0. -1.
     999902    2    1    2    0    0 -0.20823006870E-01 -0.88862351662E-02  0.34651535489E-02  0.10210265051E+01  0.10207695891E+01 0.  0.
     999903    2    3    3    0    0  0.10943395132E+00 -0.58009282390E-01  0.33463311220E-01  0.12957833587E+00  0.18162747160E-01 0.  0.
         14    1    1    2    0    0  0.20823006870E-01  0.88862351662E-02 -0.34651535489E-02  0.22903494922E-01  0.00000000000E+00 0. -1.
     999901    1    3    3    0    0 -0.13025695819E+00  0.49123047224E-01 -0.29998157671E-01  0.89144816921E+00  0.88000000000E+00 0. -1.
        -11    1    4    4    0    0  0.55445884146E-01 -0.39294410454E-01  0.20495458423E-01  0.70983249423E-01  0.51100000000E-03 0.  1.
         11    1    4    4    0    0  0.53988067169E-01 -0.18714871937E-01  0.12967852797E-01  0.58595086445E-01  0.51100000000E-03 0. -1.
</event>
<event>
 8    1  0.1146431E+005  0.1043930E+01  0.7957747E-01            NaN
         13   -1    0    0    0    0  0.00000000000E+00  0.00000000000E+00  0.74505805969E-08  0.10566000000E+00  0.10566000000E+00 0. -1.
     999900   -1    0    0    0    0 -0.00000000000E+00 -0.00000000000E+00 -0.74505805969E-08  0.93827000000E+00  0.93827000000E+00 0. -1.
     999902    2    1    2    0    0 -0.96437052045E-02 -0.44889637495E-02  0.20272452164E-01  0.10210362418E+01  0.10207795467E+01 0.  0.
     999903    2    3    3    0    0 -0.97788578554E-01 -0.23995794311E-01  0.85995206108E-01  0.13397958327E+00  0.20419329565E-01 0.  0.
         14    1    1    2    0    0  0.96437052045E-02  0.44889637495E-02 -0.20272452164E-01  0.22893758153E-01  0.00000000000E+00 0.  1.
     999901    1    3    3    0    0  0.88144873349E-01  0.19506830561E-01 -0.65722753944E-01  0.88705665858E+00  0.88000000000E+00 0. -1.
        -11    1    4    4    0    0 -0.45979524930E-01 -0.17180762910E-02  0.43977215015E-01  0.63650020113E-01  0.51100000000E-03 0.  1.
         11    1    4    4    0    0 -0.51809053624E-01 -0.22277718020E-01  0.42017991093E-01  0.70329563159E-01  0.51100000000E-03 0. -1.
</event>
<event>
 8    1  0.1146431E+005  0.1043930E+01  0.7957747E-01            NaN
         13   -1    0    0    0    0  0.00000000000E+00  0.00000000000E+00  0.74505805969E-08  0.10566000000E+00  0.10566000000E+00 0. -1.
     999900   -1    0    0    0    0 -0.00000000000E+00 -0.00000000000E+00 -0.74505805969E-08  0.93827000000E+00  0.93827000000E+00 0.  1.
     999902    2    1    2    0    0 -0.11175070958E-01  0.44401696564E-02  0.21870509785E-01  0.10189717045E+01  0.10186659992E+01 0.  0.
     999903    2    3    3    0    0 -0.12579388703E+00  0.28783320788E-01  0.12949062136E-01  0.13115998218E+00  0.19562237782E-01 0.  0.
         14    1    1    2    0    0  0.11175070958E-01 -0.44401696564E-02 -0.21870509785E-01  0.24958295530E-01  0.00000000000E+00 0.  1.
     999901    1    3    3    0    0  0.11461881607E+00 -0.24343151132E-01  0.89214476484E-02  0.88781172229E+00  0.88000000000E+00 0.  1.
        -11    1    4    4    0    0 -0.44415329137E-01  0.19710325292E-01  0.32582648527E-02  0.48704166109E-01  0.51100000000E-03 0.  1.
         11    1    4    4    0    0 -0.81378557889E-01  0.90729954964E-02  0.96907972835E-02  0.82455816074E-01  0.51100000000E-03 0. -1.
</event>
<event>
 8    1  0.1146431E+005  0.1043930E+01  0.7957747E-01            NaN
         13   -1    0    0    0    0  0.00000000000E+00  0.00000000000E+00  0.74505805969E-08  0.10566000000E+00  0.10566000000E+00 0. -1.
     999900   -1    0    0    0    0 -0.00000000000E+00 -0.00000000000E+00 -0.74505805969E-08  0.93827000000E+00  0.93827000000E+00 0. -1.
     999902    2    1    2    0    0  0.11315091901E-02  0.63461158999E-02 -0.17641776059E-01  0.10251474080E+01  0.10249753277E+01 0.  0.
     999903    2    3    3    0    0  0.81870997182E-01  0.78219172353E-01  0.69203878828E-01  0.13429008555E+00  0.20580357879E-01 0.  0.
         14    1    1    2    0    0 -0.11315091901E-02 -0.63461158999E-02  0.17641776059E-01  0.18782592009E-01  0.00000000000E+00 0. -1.
     999901    1    3    3    0    0 -0.80739487992E-01 -0.71873056453E-01 -0.86845654887E-01  0.89085732244E+00  0.88000000000E+00 0. -1.
        -11    1    4    4    0    0  0.56351258619E-01  0.56104265391E-01  0.58975335946E-01  0.99002547007E-01  0.51100000000E-03 0.  1.
         11    1    4    4    0    0  0.25519738563E-01  0.22114906962E-01  0.10228542882E-01  0.35287538547E-01  0.51100000000E-03 0. -1.
</event>
<event>
 8    1  0.1146431E+005  0.1043930E+01  0.7957747E-01            NaN
         13   -1    0    0    0    0  0.00000000000E+00  0.00000000000E+00  0.74505805969E-08  0.10566000000E+00  0.10566000000E+00 0.  1.
     999900   -1    0    0    0    0 -0.00000000000E+00 -0.00000000000E+00 -0.74505805969E-08  0.93827000000E+00  0.93827000000E+00 0.  1.
     999902    2    1    2    0    0  0.19333845725E-01 -0.99897844619E-02 -0.92282278400E-02  0.10202920311E+01  0.10200181739E+01 0.  0.
     999903    2    3    3    0    0  0.52424148453E-01  0.11720193492E+00 -0.10763186606E-01  0.13053079476E+00  0.20925040154E-01 0.  0.
         14    1    1    2    0    0 -0.19333845725E-01  0.99897844619E-02  0.92282278400E-02  0.23637968889E-01  0.00000000000E+00 0.  1.
     999901    1    3    3    0    0 -0.33090302728E-01 -0.12719171938E+00  0.15349587665E-02  0.88976123635E+00  0.88000000000E+00 0.  1.
        -11    1    4    4    0    0  0.13328072448E-01  0.37743281511E-01 -0.12560557815E-01  0.41954994315E-01  0.51100000000E-03 0.  1.
         11    1    4    4    0    0  0.39096076006E-01  0.79458653407E-01  0.17973712088E-02  0.88575800446E-01  0.51100000000E-03 0. -1.
</event>
<event>
 8    1  0.1146431E+005  0.1043930E+01  0.7957747E-01            NaN
         13   -1    0    0    0    0  0.00000000000E+00  0.00000000000E+00  0.74505805969E-08  0.10566000000E+00  0.10566000000E+00 0.  1.
     999900   -1    0    0    0    0 -0.00000000000E+00 -0.00000000000E+00 -0.74505805969E-08  0.93827000000E+00  0.93827000000E+00 0. -1.
     999902    2    1    2    0    0  0.74605487094E-02 -0.11110602156E-01  0.19546911135E-01  0.10202406141E+01  0.10199655503E+01 0.  0.
     999903    2    3    3    0    0 -0.31331296285E-01  0.66336111023E-01  0.10738140335E+00  0.13163625975E+00  0.20376686296E-01 0.  0.
         14    1    1    2    0    0 -0.74605487094E-02  0.11110602156E-01 -0.19546911135E-01  0.23689385855E-01  0.00000000000E+00 0. -1.
     999901    1    3    3    0    0  0.38791844995E-01 -0.77446713179E-01 -0.87834492213E-01  0.88860435439E+00  0.88000000000E+00 0. -1.
        -11    1    4    4    0    0 -0.16468467924E-01  0.53004188289E-01  0.70872040443E-01  0.90020895627E-01  0.51100000000E-03 0.  1.
         11    1    4    4    0    0 -0.14862828361E-01  0.13331922735E-01  0.36509362905E-01  0.41615364127E-01  0.51100000000E-03 0. -1.
</event>
<event>
 8    1  0.1146431E+005  0.1043930E+01  0.7957747E-01            NaN
         13   -1    0    0    0    0  0.00000000000E+00  0.00000000000E+00  0.74505805969E-08  0.10566000000E+00  0.10566000000E+00 0. -1.
     999900   -1    0    0    0    0 -0.00000000000E+00 -0.00000000000E+00 -0.74505805969E-08  0.93827000000E+00  0.93827000000E+00 0. -1.
     999902    2    1    2    0    0  0.33398892899E-02  0.27026140002E-02 -0.24738204169E-01  0.10188214810E+01  0.10185120384E+01 0.  0.
     999903    2    3    3    0    0  0.47220510714E-01  0.54833619461E-01 -0.10893731861E+00  0.13218026742E+00  0.19177623832E-01 0.  0.
         14    1    1    2    0    0 -0.33398892899E-02 -0.27026140002E-02  0.24738204169E-01  0.25108519041E-01  0.00000000000E+00 0. -1.
     999901    1    3    3    0    0 -0.43880621424E-01 -0.52131005461E-01  0.84199114438E-01  0.88664121354E+00  0.88000000000E+00 0.  1.
        -11    1    4    4    0    0  0.37154929529E-01  0.37320433350E-01 -0.91100577442E-01  0.10522775235E+00  0.51100000000E-03 0.  1.
         11    1    4    4    0    0  0.10065581184E-01  0.17513186111E-01 -0.17836741165E-01  0.26952515072E-01  0.51100000000E-03 0. -1.
</event>
<event>
 8    1  0.1146431E+005  0.1043930E+01  0.7957747E-01            NaN
         13   -1    0    0    0    0  0.00000000000E+00  0.00000000000E+00  0.74505805969E-08  0.10566000000E+00  0.10566000000E+00 0. -1.
     999900   -1    0    0    0    0 -0.00000000000E+00 -0.00000000000E+00 -0.74505805969E-08  0.93827000000E+00  0.93827000000E+00 0. -1.
     999902    2    1    2    0    0 -0.11318037329E-01  0.18844564175E-01  0.77453547666E-02  0.10206232180E+01  0.10203570684E+01 0.  0.
     999903    2    3    3    0    0  0.88107515246E-01 -0.73364889444E-01  0.55733570238E-01  0.12894452435E+00  0.19367970002E-01 0.  0.
         14    1    1    2    0    0  0.11318037329E-01 -0.18844564175E-01 -0.77453547666E-02  0.23306782026E-01  0.00000000000E+00 0.  1.
     999901    1    3    3    0    0 -0.99425552575E-01  0.92209453620E-01 -0.47988215472E-01  0.89167869363E+00  0.88000000000E+00 0. -1.
        -11    1    4    4    0    0  0.67606803196E-01 -0.45163935962E-01  0.41465576865E-01  0.91269469899E-01  0.51100000000E-03 0.  1.
         11    1    4    4    0    0  0.20500712051E-01 -0.28200953482E-01  0.14267993373E-01  0.37675054449E-01  0.51100000000E-03 0. -1.
</event>
<event>
 7    1  0.1146431E+005  0.1043930E+01  0.7957747E-01            NaN
         13   -1    0    0    0    0  0.00000000000E+00  0.00000000000E+00  0.74505805969E-08  0.10566000000E+00  0.10566000000E+00 0. -1.
     999900   -1    0    0    0    0 -0.00000000000E+00 -0.00000000000E+00 -0.74505805969E-08  0.93827000000E+00  0.93827000000E+00 0.  1.
     999902    2    1    2    0    0 -0.12890008531E-01 -0.17049039470E-01  0.17052159420E-01  0.10165877578E+01  0.10162199915E+01 0.  0.
         14    1    1    2    0    0  0.12890008531E-01  0.17049039470E-01 -0.17052159420E-01  0.27342242184E-01  0.00000000000E+00 0.  1.
     999901    1    3    3    0    0 -0.63586379713E-01 -0.12390341494E+00 -0.60007516993E-02  0.89097210559E+00  0.88000000000E+00 0.  1.
        -11    1    3    3    0    0  0.54788097930E-02  0.45836563923E-01 -0.27323132922E-03  0.46166478373E-01  0.51100000000E-03 0. -1.
         11    1    3    3    0    0  0.45217561388E-01  0.61017811543E-01  0.23326142448E-01  0.79449173853E-01  0.51100000000E-03 0.  1.
</event>
<event>
 8    1  0.1146431E+005  0.1043930E+01  0.7957747E-01            NaN
         13   -1    0    0    0    0  0.00000000000E+00  0.00000000000E+00  0.74505805969E-08  0.10566000000E+00  0.10566000000E+00 0. -1.
     999900   -1    0    0    0    0 -0.00000000000E+00 -0.00000000000E+00 -0.74505805969E-08  0.93827000000E+00  0.93827000000E+00 0.  1.
     999902    2    1    2    0    0 -0.13465641307E-01 -0.15490297297E-01 -0.72803568964E-02  0.10221521121E+01  0.10219200868E+01 0.  0.
     999903    2    3    3    0    0 -0.64037150575E-01  0.41572445445E-01 -0.10730049447E+00  0.13321023429E+00  0.20063537318E-01 0.  0.
         14    1    1    2    0    0  0.13465641307E-01  0.15490297297E-01  0.72803568964E-02  0.21777887930E-01  0.00000000000E+00 0. -1.
     999901    1    3    3    0    0  0.50571509269E-01 -0.57062742743E-01  0.10002013758E+00  0.88894187779E+00  0.88000000000E+00 0. -1.
        -11    1    4    4    0    0 -0.24447158335E-01  0.25065551125E-01 -0.59018227618E-01  0.68624760226E-01  0.51100000000E-03 0. -1.
         11    1    4    4    0    0 -0.39589992240E-01  0.16506894321E-01 -0.48282266856E-01  0.64585474059E-01  0.51100000000E-03 0.  1.
</event>
<event>
 8    1  0.1146431E+005  0.1043930E+01  0.7957747E-01            NaN
         13   -1    0    0    0    0  0.00000000000E+00  0.00000000000E+00  0.74505805969E-08  0.10566000000E+00  0.10566000000E+00 0. -1.
     999900   -1    0    0    0    0 -0.00000000000E+00 -0.00000000000E+00 -0.74505805969E-08  0.93827000000E+00  0.93827000000E+00 0.  1.
     999902    2    1    2    0    0 -0.26044237309E-02  0.37658530791E-02  0.23224640725E-01  0.10202583163E+01  0.10199836682E+01 0.  0.
     999903    2    3    3    0    0  0.86607566683E-01 -0.90255672929E-01 -0.26029237196E-01  0.12940211518E+00  0.20504368334E-01 0.  0.
         14    1    1    2    0    0  0.26044237309E-02 -0.37658530791E-02 -0.23224640725E-01  0.23671683700E-01  0.00000000000E+00 0.  1.
     999901    1    3    3    0    0 -0.89211990414E-01  0.94021526009E-01  0.49253877922E-01  0.89085620112E+00  0.88000000000E+00 0.  1.
        -11    1    4    4    0    0  0.52193733848E-01 -0.44870626485E-01 -0.62869710691E-02  0.69118348507E-01  0.51100000000E-03 0.  1.
         11    1    4    4    0    0  0.34413832836E-01 -0.45385046445E-01 -0.19742266127E-01  0.60283766671E-01  0.51100000000E-03 0. -1.
</event>
<event>
 8    1  0.1146431E+005  0.1043930E+01  0.7957747E-01            NaN
         13   -1    0    0    0    0  0.00000000000E+00  0.00000000000E+00  0.74505805969E-08  0.10566000000E+00  0.10566000000E+00 0. -1.
     999900   -1    0    0    0    0 -0.00000000000E+00 -0.00000000000E+00 -0.74505805969E-08  0.93827000000E+00  0.93827000000E+00 0.  1.
     999902    2    1    2    0    0 -0.36278172007E-02 -0.12992616021E-01 -0.20133220808E-01  0.10196954026E+01  0.10194073761E+01 0.  0.
     999903    2    3    3    0    0  0.20100854942E-01 -0.74009838658E-01  0.10171651483E+00  0.12889042432E+00  0.19621200365E-01 0.  0.
         14    1    1    2    0    0  0.36278172007E-02  0.12992616021E-01  0.20133220808E-01  0.24234597352E-01  0.00000000000E+00 0. -1.
     999901    1    3    3    0    0 -0.23728672143E-01  0.61017222636E-01 -0.12184973564E+00  0.89080497833E+00  0.88000000000E+00 0.  1.
        -11    1    4    4    0    0  0.67831183488E-02 -0.64992552925E-02  0.19688432760E-01  0.21820781824E-01  0.51100000000E-03 0.  1.
         11    1    4    4    0    0  0.13317736593E-01 -0.67510583365E-01  0.82028082073E-01  0.10706964249E+00  0.51100000000E-03 0. -1.
</event>
<event>
 8    1  0.1146431E+005  0.1043930E+01  0.7957747E-01            NaN
         13   -1    0    0    0    0  0.00000000000E+00  0.00000000000E+00  0.74505805969E-08  0.10566000000E+00  0.10566000000E+00 0.  1.
     999900   -1    0    0    0    0 -0.00000000000E+00 -0.00000000000E+00 -0.74505805969E-08  0.93827000000E+00  0.93827000000E+00 0. -1.
     999902    2    1    2    0    0  0.21774719060E-01 -0.49016522247E-02 -0.84684582802E-02  0.10200578537E+01  0.10197784786E+01 0.  0.
     999903    2    3    3    0    0  0.78375840065E-01 -0.51145854520E-01 -0.92566611804E-01  0.13303208597E+00  0.19242856735E-01 0.  0.
         14    1    1    2    0    0 -0.21774719060E-01  0.49016522247E-02  0.84684582802E-02  0.23872146329E-01  0.00000000000E+00 0.  1.
     999901    1    3    3    0    0 -0.56601121005E-01  0.46244202295E-01  0.84098153524E-01  0.88702576770E+00  0.88000000000E+00 0.  1.
        -11    1    4    4    0    0  0.23773166573E-01 -0.20330435842E-01 -0.42620858681E-01  0.52870490694E-01  0.51100000000E-03 0.  1.
         11    1    4    4    0    0  0.54602673492E-01 -0.30815418678E-01 -0.49945753123E-01  0.80161595274E-01  0.51100000000E-03 0. -1.
</event>
<event>
 8    1  0.1146431E+005  0.1043930E+01  0.7957747E-01            NaN
         13   -1    0    0    0    0  0.00000000000E+00  0.00000000000E+00  0.74505805969E-08  0.10566000000E+00  0.10566000000E+00 0.  1.
     999900   -1    0    0    0    0 -0.00000000000E+00 -0.00000000000E+00 -0.74505805969E-08  0.93827000000E+00  0.93827000000E+00 0. -1.
     999902    2    1    2    0    0  0.54485402220E-02  0.23414869508E-01  0.95938343213E-03  0.10198704256E+01  0.10195865936E+01 0.  0.
     999903    2    3    3    0    0 -0.66034979593E-01  0.71136581482E-01 -0.86269701618E-01  0.13139073044E+00  0.20000771832E-01 0.  0.
         14    1    1    2    0    0 -0.54485402220E-02 -0.23414869508E-01 -0.95938343213E-03  0.24059574418E-01  0.00000000000E+00 0. -1.
     999901    1    3    3    0    0  0.71483519815E-01 -0.47721711975E-01  0.87229085050E-01  0.88847969514E+00  0.88000000000E+00 0.  1.
        -11    1    4    4    0    0 -0.45071912825E-01  0.60897138711E-01 -0.65656910071E-01  0.10025482427E+00  0.51100000000E-03 0. -1.
         11    1    4    4    0    0 -0.20963066768E-01  0.10239442771E-01 -0.20612791546E-01  0.31135906168E-01  0.51100000000E-03 0.  1.
</event>
<event>
 8    1  0.1146431E+005  0.1043930E+01  0.7957747E-01            NaN
         13   -1    0    0    0    0  0.00000000000E+00  0.00000000000E+00  0.74505805969E-08  0.10566000000E+00  0.10566000000E+00 0. -1.
     999900   -1    0    0    0    0 -0.00000000000E+00 -0.00000000000E+00 -0.74505805969E-08  0.93827000000E+00  0.93827000000E+00 0. -1.
     999902    2    1    2    0    0  0.95373066235E-02  0.17248455841E-01 -0.12156167117E-01  0.10207731037E+01  0.10205104053E+01 0.  0.
     999903    2    3    3    0    0 -0.98945107807E-01 -0.64222087770E-01 -0.49872009337E-01  0.12957819323E+00  0.19714967146E-01 0.  0.
         14    1    1    2    0    0 -0.95373066235E-02 -0.17248455841E-01  0.12156167117E-01  0.23156896284E-01  0.00000000000E+00 0. -1.
     999901    1    3    3    0    0  0.10848241443E+00  0.81470543611E-01  0.37715842220E-01  0.89119491048E+00  0.88000000000E+00 0.  1.
        -11    1    4    4    0    0 -0.62673454901E-01 -0.30359699776E-01 -0.33845343307E-01  0.77430237662E-01  0.51100000000E-03 0.  1.
         11    1    4    4    0    0 -0.36271652906E-01 -0.33862387994E-01 -0.16026666030E-01  0.52147955571E-01  0.51100000000E-03 0. -1.
</event>
<event>
 8    1  0.1146431E+005  0.1043930E+01  0.7957747E-01            NaN
         13   -1    0    0    0    0  0.00000000000E+00  0.00000000000E+00  0.74505805969E-08  0.10566000000E+00  0.10566000000E+00 0.  1.
     999900   -1    0    0    0    0 -0.00000000000E+00 -0.00000000000E+00 -0.74505805969E-08  0.93827000000E+00  0.93827000000E+00 0.  1.
     999902    2    1    2    0    0  0.46347212067E-02 -0.20220281686E-01  0.10008712000E-01  0.10208970942E+01  0.10206372334E+01 0.  0.
     999903    2    3    3    0    0  0.54911880967E-01  0.37413169111E-01 -0.10947767763E+00  0.12953498782E+00  0.19465129751E-01 0.  0.
         14    1    1    2    0    0 -0.46347212067E-02  0.20220281686E-01 -0.10008712000E-01  0.23032905766E-01  0.00000000000E+00 0.  1.
     999901    1    3    3    0    0 -0.50277159760E-01 -0.57633450796E-01  0.11948638963E+00  0.89136210641E+00  0.88000000000E+00 0. -1.
        -11    1    4    4    0    0  0.32651383188E-01  0.30065745356E-01 -0.83322745742E-01  0.94408701648E-01  0.51100000000E-03 0. -1.
         11    1    4    4    0    0  0.22260497779E-01  0.73474237543E-02 -0.26154931887E-01  0.35126286172E-01  0.51100000000E-03 0.  1.
</event>
<event>
 8    1  0.1146431E+005  0.1043930E+01  0.7957747E-01            NaN
         13   -1    0    0    0    0  0.00000000000E+00  0.00000000000E+00  0.74505805969E-08  0.10566000000E+00  0.10566000000E+00 0.  1.
     999900   -1    0    0    0    0 -0.00000000000E+00 -0.00000000000E+00 -0.74505805969E-08  0.93827000000E+00  0.93827000000E+00 0.  1.
     999902    2    1    2    0    0  0.82639262226E-02 -0.22012471164E-01 -0.29248138814E-03  0.10204156021E+01  0.10201446339E+01 0.  0.
     999903    2    3    3    0    0 -0.57674747081E-01  0.45264572427E-01 -0.10447223268E+00  0.12927726839E+00  0.20564696754E-01 0.  0.
         14    1    1    2    0    0 -0.82639262226E-02  0.22012471164E-01  0.29248138814E-03  0.23514397902E-01  0.00000000000E+00 0.  1.
     999901    1    3    3    0    0  0.65938673304E-01 -0.67277043591E-01  0.10417975129E+00  0.89113833371E+00  0.88000000000E+00 0. -1.
        -11    1    4    4    0    0 -0.64823243066E-03 -0.56940398623E-03 -0.86923222321E-02  0.87499721697E-02  0.51100000000E-03 0.  1.
         11    1    4    4    0    0 -0.57026514650E-01  0.45833976413E-01 -0.95779910447E-01  0.12052729622E+00  0.51100000000E-03 0. -1.
</event>
<event>
 8    1  0.1146431E+005  0.1043930E+01  0.7957747E-01            NaN
         13   -1    0    0    0    0  0.00000000000E+00  0.00000000000E+00  0.74505805969E-08  0.10566000000E+00  0.10566000000E+00 0.  1.
     999900   -1    0    0    0    0 -0.00000000000E+00 -0.00000000000E+00 -0.74505805969E-08  0.93827000000E+00  0.93827000000E+00 0.  1.
     999902    2    1    2    0    0 -0.16573361354E-01 -0.14930784540E-01  0.46864517636E-02  0.10211359775E+01  0.10208815392E+01 0.  0.
     999903    2    3    3    0    0 -0.12002769796E+00  0.16983019149E-01  0.51882395283E-01  0.13324592362E+00  0.19173471353E-01 0.  0.
         14    1    1    2    0    0  0.16573361354E-01  0.14930784540E-01 -0.46864517636E-02  0.22794022542E-01  0.00000000000E+00 0. -1.
     999901    1    3    3    0    0  0.10345433660E+00 -0.31913803689E-01 -0.47195943519E-01  0.88789005384E+00  0.88000000000E+00 0.  1.
        -11    1    4    4    0    0 -0.67682401601E-01  0.87123516852E-02  0.39395170892E-01  0.78797545450E-01  0.51100000000E-03 0. -1.
         11    1    4    4    0    0 -0.52345296355E-01  0.82706674641E-02  0.12487224390E-01  0.54448378165E-01  0.51100000000E-03 0.  1.
</event>
<event>
 7    1  0.1146431E+005  0.1043930E+01  0.7957747E-01            NaN
         13   -1    0    0    0    0  0.00000000000E+00  0.00000000000E+00  0.74505805969E-08  0.10566000000E+00  0.10566000000E+00 0.  1.
     999900   -1    0    0    0    0 -0.00000000000E+00 -0.00000000000E+00 -0.74505805969E-08  0.93827000000E+00  0.93827000000E+00 0.  1.
     999903    2    1    2    0    0  0.96356123514E-01 -0.52109602293E-01 -0.22673144908E-01  0.11364188221E+00  0.20012313767E-01 0.  0.
         14    1    1    2    0    0 -0.45050656212E-02 -0.40083516678E-01 -0.18647120404E-02  0.40378968245E-01  0.00000000000E+00 0.  1.
     999901    1    1    2    0    0 -0.91851057893E-01  0.92193118971E-01  0.24537856948E-01  0.88990914955E+00  0.88000000000E+00 0.  1.
        -11    1    3    3    0    0  0.19713986892E-01 -0.18353966611E-01 -0.23903809909E-03  0.26941188350E-01  0.51100000000E-03 0. -1.
         11    1    3    3    0    0  0.76642136622E-01 -0.33755635682E-01 -0.22434106808E-01  0.86700693859E-01  0.51100000000E-03 0.  1.
</event>
<event>
 8    1  0.1146431E+005  0.1043930E+01  0.7957747E-01            NaN
         13   -1    0    0    0    0  0.00000000000E+00  0.00000000000E+00  0.74505805969E-08  0.10566000000E+00  0.10566000000E+00 0.  1.
     999900   -1    0    0    0    0 -0.00000000000E+00 -0.00000000000E+00 -0.74505805969E-08  0.93827000000E+00  0.93827000000E+00 0.  1.
     999902    2    1    2    0    0  0.20985149307E-01  0.10026411216E-01  0.47924667458E-02  0.10201839866E+01  0.10199075906E+01 0.  0.
     999903    2    3    3    0    0  0.11206417912E+00 -0.66638266464E-01  0.84055795112E-02  0.13216038500E+00  0.19916696428E-01 0.  0.
         14    1    1    2    0    0 -0.20985149307E-01 -0.10026411216E-01 -0.47924667458E-02  0.23746013366E-01  0.00000000000E+00 0.  1.
     999901    1    3    3    0    0 -0.91079029816E-01  0.76664677680E-01 -0.36131127654E-02  0.88802360163E+00  0.88000000000E+00 0.  1.
        -11    1    4    4    0    0  0.57565309359E-01 -0.42567750030E-01 -0.22659684341E-02  0.71632212852E-01  0.51100000000E-03 0.  1.
         11    1    4    4    0    0  0.54498869764E-01 -0.24070516434E-01  0.10671547945E-01  0.60528172147E-01  0.51100000000E-03 0. -1.
</event>
<event>
 8    1  0.1146431E+005  0.1043930E+01  0.7957747E-01            NaN
         13   -1    0    0    0    0  0.00000000000E+00  0.00000000000E+00  0.74505805969E-08  0.10566000000E+00  0.10566000000E+00 0.  1.
     999900   -1    0    0    0    0 -0.00000000000E+00 -0.00000000000E+00 -0.74505805969E-08  0.93827000000E+00  0.93827000000E+00 0.  1.
     999902    2    1    2    0    0 -0.74234175723E-02  0.19989702366E-01 -0.64388470759E-02  0.10216554836E+01  0.10214126361E+01 0.  0.
     999903    2    3    3    0    0  0.93020317770E-02 -0.92154346174E-01 -0.89595193911E-01  0.13049275643E+00  0.20545301046E-01 0.  0.
         14    1    1    2    0    0  0.74234175723E-02 -0.19989702366E-01  0.64388470759E-02  0.22274516399E-01  0.00000000000E+00 0. -1.
     999901    1    3    3    0    0 -0.16725449349E-01  0.11214404854E+00  0.83156346835E-01  0.89116272717E+00  0.88000000000E+00 0. -1.
        -11    1    4    4    0    0 -0.83528707759E-03 -0.69531144241E-01 -0.59673805361E-01  0.91632428164E-01  0.51100000000E-03 0. -1.
         11    1    4    4    0    0  0.10137318855E-01 -0.22623201933E-01 -0.29921388549E-01  0.38860328267E-01  0.51100000000E-03 0.  1.
</event>
<event>
 8    1  0.1146431E+005  0.1043930E+01  0.7957747E-01            NaN
         13   -1    0    0    0    0  0.00000000000E+00  0.00000000000E+00  0.74505805969E-08  0.10566000000E+00  0.10566000000E+00 0.  1.
     999900   -1    0    0    0    0 -0.00000000000E+00 -0.00000000000E+00 -0.74505805969E-08  0.93827000000E+00  0.93827000000E+00 0. -1.
     999902    2    1    2    0    0 -0.60960470438E-02 -0.16218935758E-02  0.23100133700E-01  0.10199840503E+01  0.10197029246E+01 0.  0.
     999903    2    3    3    0    0 -0.10919582555E+00  0.46103534484E-01  0.54821305052E-01  0.13211383824E+00  0.19985658811E-01 0.  0.
         14    1    1    2    0    0  0.60960470438E-02  0.16218935758E-02 -0.23100133700E-01  0.23945949664E-01  0.00000000000E+00 0. -1.
     999901    1    3    3    0    0  0.10309977851E+00 -0.47725428060E-01 -0.31721171351E-01  0.88787021209E+00  0.88000000000E+00 0. -1.
        -11    1    4    4    0    0 -0.31418195325E-01  0.80663124828E-02  0.69439381972E-02  0.33176012317E-01  0.51100000000E-03 0.  1.
         11    1    4    4    0    0 -0.77777630225E-01  0.38037222001E-01  0.47877366854E-01  0.98937825925E-01  0.51100000000E-03 0. -1.
</event>
<event>
 7    1  0.1146431E+005  0.1043930E+01  0.7957747E-01            NaN
         13   -1    0    0    0    0  0.00000000000E+00  0.00000000000E+00  0.74505805969E-08  0.10566000000E+00  0.10566000000E+00 0. -1.
     999900   -1    0    0    0    0 -0.00000000000E+00 -0.00000000000E+00 -0.74505805969E-08  0.93827000000E+00  0.93827000000E+00 0. -1.
     999903    2    1    2    0    0 -0.80353210611E-01  0.16152816710E-01  0.43985404855E-01  0.95261457520E-01  0.20554257599E-01 0.  0.
         14    1    1    2    0    0  0.13633126488E-01  0.44954578801E-01 -0.43508896804E-01  0.64029683695E-01  0.00000000000E+00 0.  1.
     999901    1    1    2    0    0  0.66720084124E-01 -0.61107395511E-01 -0.47650805047E-03  0.88463885878E+00  0.88000000000E+00 0. -1.
        -11    1    3    3    0    0 -0.28071786990E-01  0.75575357369E-03  0.24832852691E-01  0.37490373192E-01  0.51100000000E-03 0.  1.
         11    1    3    3    0    0 -0.52281423621E-01  0.15397063136E-01  0.19152552163E-01  0.57771084328E-01  0.51100000000E-03 0. -1.
</event>
<event>
 8    1  0.1146431E+005  0.1043930E+01  0.7957747E-01            NaN
         13   -1    0    0    0    0  0.00000000000E+00  0.00000000000E+00  0.74505805969E-08  0.10566000000E+00  0.10566000000E+00 0.  1.
     999900   -1    0    0    0    0 -0.00000000000E+00 -0.00000000000E+00 -0.74505805969E-08  0.93827000000E+00  0.93827000000E+00 0. -1.
     999902    2    1    2    0    0  0.28454082258E-02  0.20682424211E-01 -0.11779388142E-01  0.10199589132E+01  0.10196771899E+01 0.  0.
     999903    2    3    3    0    0 -0.41197757575E-01  0.11283947836E+00  0.49490774408E-01  0.13193483922E+00  0.22966539637E-01 0.  0.
         14    1    1    2    0    0 -0.28454082258E-02 -0.20682424211E-01  0.11779388142E-01  0.23971086838E-01  0.00000000000E+00 0.  1.
     999901    1    3    3    0    0  0.44043165800E-01 -0.92157054148E-01 -0.61270162550E-01  0.88802407394E+00  0.88000000000E+00 0.  1.
        -11    1    4    4    0    0 -0.14031279084E-01  0.71225602640E-01  0.28770395603E-01  0.78089436215E-01  0.51100000000E-03 0. -1.
         11    1    4    4    0    0 -0.27166478491E-01  0.41613875718E-01  0.20720378804E-01  0.53845403004E-01  0.51100000000E-03 0.  1.
</event>
<event>
 8    1  0.1146431E+005  0.1043930E+01  0.7957747E-01            NaN
         13   -1    0    0    0    0  0.00000000000E+00  0.00000000000E+00  0.74505805969E-08  0.10566000000E+00  0.10566000000E+00 0.  1.
     999900   -1    0    0    0    0 -0.00000000000E+00 -0.00000000000E+00 -0.74505805969E-08  0.93827000000E+00  0.93827000000E+00 0. -1.
     999902    2    1    2    0    0  0.43440815360E-02 -0.75974423086E-02  0.23625594438E-01  0.10187355386E+01  0.10184239474E+01 0.  0.
     999903    2    3    3    0    0  0.63771552360E-01  0.69219764669E-01 -0.82842784196E-01  0.12701359580E+00  0.20281516542E-01 0.  0.
         14    1    1    2    0    0 -0.43440815360E-02  0.75974423086E-02 -0.23625594438E-01  0.25194461426E-01  0.00000000000E+00 0. -1.
     999901    1    3    3    0    0 -0.59427470824E-01 -0.76817206978E-01  0.10646837863E+00  0.89172194277E+00  0.88000000000E+00 0.  1.
        -11    1    4    4    0    0  0.18471475777E-01  0.93213227674E-02 -0.12902344546E-01  0.24388810780E-01  0.51100000000E-03 0.  1.
         11    1    4    4    0    0  0.45300076584E-01  0.59898441902E-01 -0.69940439650E-01  0.10262478502E+00  0.51100000000E-03 0. -1.
</event>
<event>
 8    1  0.1146431E+005  0.1043930E+01  0.7957747E-01            NaN
         13   -1    0    0    0    0  0.00000000000E+00  0.00000000000E+00  0.74505805969E-08  0.10566000000E+00  0.10566000000E+00 0.  1.
     999900   -1    0    0    0    0 -0.00000000000E+00 -0.00000000000E+00 -0.74505805969E-08  0.93827000000E+00  0.93827000000E+00 0. -1.
     999902    2    1    2    0    0  0.42745990479E-02  0.17617683128E-01  0.14637753255E-01  0.10206293825E+01  0.10203633753E+01 0.  0.
     999903    2    3    3    0    0 -0.43181593725E-01 -0.11362224713E+00 -0.35678603681E-01  0.12821258228E+00  0.19769633658E-01 0.  0.
         14    1    1    2    0    0 -0.42745990479E-02 -0.17617683128E-01 -0.14637753255E-01  0.23300617507E-01  0.00000000000E+00 0. -1.
     999901    1    3    3    0    0  0.47456192773E-01  0.13123993026E+00  0.50316356936E-01  0.89241680021E+00  0.88000000000E+00 0.  1.
        -11    1    4    4    0    0 -0.16514817970E-01 -0.67670567719E-01 -0.25070259528E-01  0.74032587296E-01  0.51100000000E-03 0. -1.
         11    1    4    4    0    0 -0.26666775755E-01 -0.45951679411E-01 -0.10608344153E-01  0.54179994985E-01  0.51100000000E-03 0.  1.
</event>
<event>
 8    1  0.1146431E+005  0.1043930E+01  0.7957747E-01            NaN
         13   -1    0    0    0    0  0.00000000000E+00  0.00000000000E+00  0.74505805969E-08  0.10566000000E+00  0.10566000000E+00 0.  1.
     999900   -1    0    0    0    0 -0.00000000000E+00 -0.00000000000E+00 -0.74505805969E-08  0.93827000000E+00  0.93827000000E+00 0. -1.
     999902    2    1    2    0    0 -0.21619424305E-01  0.89356985787E-02  0.74386209420E-03  0.10205248820E+01  0.10202564556E+01 0.  0.
     999903    2    3    3    0    0  0.59688636513E-01 -0.57628129627E-01 -0.97500811634E-01  0.12884458064E+00  0.14518368936E-01 0.  0.
         14    1    1    2    0    0  0.21619424305E-01 -0.89356985787E-02 -0.74386209420E-03  0.23405117970E-01  0.00000000000E+00 0. -1.
     999901    1    3    3    0    0 -0.81308060818E-01  0.66563828206E-01  0.98244673728E-01  0.89168030139E+00  0.88000000000E+00 0.  1.
        -11    1    4    4    0    0  0.34975930496E-01 -0.41860602319E-01 -0.68956948902E-01  0.87925807721E-01  0.51100000000E-03 0. -1.
         11    1    4    4    0    0  0.24712706017E-01 -0.15767527308E-01 -0.28543862733E-01  0.40918772914E-01  0.51100000000E-03 0.  1.
</event>
<event>
 8    1  0.1146431E+005  0.1043930E+01  0.7957747E-01            NaN
         13   -1    0    0    0    0  0.00000000000E+00  0.00000000000E+00  0.74505805969E-08  0.10566000000E+00  0.10566000000E+00 0. -1.
     999900   -1    0    0    0    0 -0.00000000000E+00 -0.00000000000E+00 -0.74505805969E-08  0.93827000000E+00  0.93827000000E+00 0.  1.
     999902    2    1    2    0    0  0.16360508521E-02 -0.23038571050E-01 -0.71724635143E-02  0.10197453633E+01  0.10194585373E+01 0.  0.
     999903    2    3    3    0    0 -0.29895542488E-01 -0.89285614588E-01 -0.91355097914E-01  0.13268864130E+00  0.19871013590E-01 0.  0.
         14    1    1    2    0    0 -0.16360508521E-02  0.23038571050E-01  0.71724635143E-02  0.24184636678E-01  0.00000000000E+00 0. -1.
     999901    1    3    3    0    0  0.31531593340E-01  0.66247043538E-01  0.84182634400E-01  0.88705672203E+00  0.88000000000E+00 0. -1.
        -11    1    4    4    0    0 -0.73111889792E-02 -0.29378888772E-01 -0.42355240522E-01  0.52065344621E-01  0.51100000000E-03 0. -1.
         11    1    4    4    0    0 -0.22584353509E-01 -0.59906725816E-01 -0.48999857392E-01  0.80623296675E-01  0.51100000000E-03 0.  1.
</event>
<event>
 8    1  0.1146431E+005  0.1043930E+01  0.7957747E-01            NaN
         13   -1    0    0    0    0  0.00000000000E+00  0.00000000000E+00  0.74505805969E-08  0.10566000000E+00  0.10566000000E+00 0. -1.
     999900   -1    0    0    0    0 -0.00000000000E+00 -0.00000000000E+00 -0.74505805969E-08  0.93827000000E+00  0.93827000000E+00 0.  1.
     999902    2    1    2    0    0  0.12613695064E-02 -0.23474846935E-01  0.38033945741E-03  0.10204182125E+01  0.10201473052E+01 0.  0.
     999903    2    3    3    0    0 -0.84151044562E-01  0.58409279758E-01  0.76558754365E-01  0.12923728726E+00  0.18654524530E-01 0.  0.
         14    1    1    2    0    0 -0.12613695064E-02  0.23474846935E-01 -0.38033945741E-03  0.23511787464E-01  0.00000000000E+00 0.  1.
     999901    1    3    3    0    0  0.85412414068E-01 -0.81884126692E-01 -0.76178414907E-01  0.89118092528E+00  0.88000000000E+00 0. -1.
        -11    1    4    4    0    0 -0.36266327064E-01  0.36294018494E-01  0.35515020211E-01  0.62402564361E-01  0.51100000000E-03 0. -1.
         11    1    4    4    0    0 -0.47884717497E-01  0.22115261263E-01  0.41043734154E-01  0.66834722898E-01  0.51100000000E-03 0.  1.
</event>
<event>
 8    1  0.1146431E+005  0.1043930E+01  0.7957747E-01            NaN
         13   -1    0    0    0    0  0.00000000000E+00  0.00000000000E+00  0.74505805969E-08  0.10566000000E+00  0.10566000000E+00 0. -1.
     999900   -1    0    0    0    0 -0.00000000000E+00 -0.00000000000E+00 -0.74505805969E-08  0.93827000000E+00  0.93827000000E+00 0.  1.
     999902    2    1    2    0    0 -0.17802466615E-01 -0.13614388895E-02  0.17682969346E-01  0.10188009583E+01  0.10184910033E+01 0.  0.
     999903    2    3    3    0    0  0.10959563221E+00  0.29738687823E-01 -0.51525003782E-01  0.12639564844E+00  0.20626239981E-01 0.  0.
         14    1    1    2    0    0  0.17802466615E-01  0.13614388895E-02 -0.17682969346E-01  0.25129041731E-01  0.00000000000E+00 0.  1.
     999901    1    3    3    0    0 -0.12739809883E+00 -0.31100126712E-01  0.69207973128E-01  0.89240530983E+00  0.88000000000E+00 0.  1.
        -11    1    4    4    0    0  0.33475684020E-01  0.19049122760E-01 -0.18534630638E-01  0.42746744349E-01  0.51100000000E-03 0.  1.
         11    1    4    4    0    0  0.76119948195E-01  0.10689565062E-01 -0.32990373144E-01  0.83648904091E-01  0.51100000000E-03 0. -1.
</event>
<event>
 8    1  0.1146431E+005  0.1043930E+01  0.7957747E-01            NaN
         13   -1    0    0    0    0  0.00000000000E+00  0.00000000000E+00  0.74505805969E-08  0.10566000000E+00  0.10566000000E+00 0. -1.
     999900   -1    0    0    0    0 -0.00000000000E+00 -0.00000000000E+00 -0.74505805969E-08  0.93827000000E+00  0.93827000000E+00 0. -1.
     999902    2    1    2    0    0  0.17441992613E-01  0.13370154933E-01 -0.85334432946E-02  0.10203545084E+01  0.10200821139E+01 0.  0.
     999903    2    3    3    0    0  0.40137540280E-01 -0.29415650743E-01 -0.12059242602E+00  0.13192728648E+00  0.19646197014E-01 0.  0.
         14    1    1    2    0    0 -0.17441992613E-01 -0.13370154933E-01  0.85334432946E-02  0.23575491590E-01  0.00000000000E+00 0.  1.
     999901    1    3    3    0    0 -0.22695547667E-01  0.42785805676E-01  0.11205898273E+00  0.88842722193E+00  0.88000000000E+00 0.  1.
        -11    1    4    4    0    0  0.70583489900E-02 -0.16054919797E-01 -0.33672724219E-01  0.37969648636E-01  0.51100000000E-03 0. -1.
         11    1    4    4    0    0  0.33079191290E-01 -0.13360730946E-01 -0.86919701800E-01  0.93957637848E-01  0.51100000000E-03 0.  1.
</event>
<event>
 8    1  0.1146431E+005  0.1043930E+01  0.7957747E-01            NaN
         13   -1    0    0    0    0  0.00000000000E+00  0.00000000000E+00  0.74505805969E-08  0.10566000000E+00  0.10566000000E+00 0.  1.
     999900   -1    0    0    0    0 -0.00000000000E+00 -0.00000000000E+00 -0.74505805969E-08  0.93827000000E+00  0.93827000000E+00 0.  1.
     999902    2    1    2    0    0  0.18695134473E-02  0.43475731914E-03 -0.23922390673E-01  0.10199307319E+01  0.10196483379E+01 0.  0.
     999903    2    3    3    0    0 -0.24968645917E-01 -0.12390952449E+00 -0.26856281114E-01  0.13077922909E+00  0.20123205204E-01 0.  0.
         14    1    1    2    0    0 -0.18695134473E-02 -0.43475731914E-03  0.23922390673E-01  0.23999268113E-01  0.00000000000E+00 0.  1.
     999901    1    3    3    0    0  0.26838159364E-01  0.12434428181E+00  0.29338904404E-02  0.88915150280E+00  0.88000000000E+00 0. -1.
        -11    1    4    4    0    0 -0.10362360881E-01 -0.44128989630E-01 -0.19466480545E-01  0.49335091310E-01  0.51100000000E-03 0.  1.
         11    1    4    4    0    0 -0.14606285036E-01 -0.79780534859E-01 -0.73898005682E-02  0.81444137777E-01  0.51100000000E-03 0. -1.
</event>
<event>
 8    1  0.1146431E+005  0.1043930E+01  0.7957747E-01            NaN
         13   -1    0    0    0    0  0.00000000000E+00  0.00000000000E+00  0.74505805969E-08  0.10566000000E+00  0.10566000000E+00 0. -1.
     999900   -1    0    0    0    0 -0.00000000000E+00 -0.00000000000E+00 -0.74505805969E-08  0.93827000000E+00  0.93827000000E+00 0. -1.
     999902    2    1    2    0    0 -0.14516449045E-01  0.18256152546E-01 -0.18848525889E-02  0.10205298490E+01  0.10202615378E+01 0.  0.
     999903    2    3    3    0    0  0.10782805856E+00 -0.61916767429E-01  0.23386501686E-01  0.12809804935E+00  0.20040096905E-01 0.  0.
         14    1    1    2    0    0  0.14516449045E-01 -0.18256152546E-01  0.18848525889E-02  0.23400151024E-01  0.00000000000E+00 0. -1.
     999901    1    3    3    0    0 -0.12234450761E+00  0.80172919976E-01 -0.25271354275E-01  0.89243179963E+00  0.88000000000E+00 0. -1.
        -11    1    4    4    0    0  0.89248913996E-01 -0.42978784515E-01  0.14502448297E-01  0.10011556670E+00  0.51100000000E-03 0. -1.
         11    1    4    4    0    0  0.18579144564E-01 -0.18937982914E-01  0.88840533895E-02  0.27982482650E-01  0.51100000000E-03 0.  1.
</event>
<event>
 8    1  0.1146431E+005  0.1043930E+01  0.7957747E-01            NaN
         13   -1    0    0    0    0  0.00000000000E+00  0.00000000000E+00  0.74505805969E-08  0.10566000000E+00  0.10566000000E+00 0. -1.
     999900   -1    0    0    0    0 -0.00000000000E+00 -0.00000000000E+00 -0.74505805969E-08  0.93827000000E+00  0.93827000000E+00 0.  1.
     999902    2    1    2    0    0  0.11287667541E-01 -0.83312574276E-02  0.19360048782E-01  0.10200211569E+01  0.10197409121E+01 0.  0.
     999903    2    3    3    0    0  0.80196106994E-01 -0.74932826371E-01  0.72680917433E-01  0.13321381761E+00  0.20422081139E-01 0.  0.
         14    1    1    2    0    0 -0.11287667541E-01  0.83312574276E-02 -0.19360048782E-01  0.23908843086E-01  0.00000000000E+00 0.  1.
     999901    1    3    3    0    0 -0.68908439453E-01  0.66601568943E-01 -0.53320868651E-01  0.88680733931E+00  0.88000000000E+00 0. -1.
        -11    1    4    4    0    0  0.63048024113E-01 -0.46167734351E-01  0.51165565730E-01  0.93406045185E-01  0.51100000000E-03 0.  1.
         11    1    4    4    0    0  0.17148082881E-01 -0.28765092020E-01  0.21515351703E-01  0.39807772424E-01  0.51100000000E-03 0. -1.
</event>
<event>
 8    1  0.1146431E+005  0.1043930E+01  0.7957747E-01            NaN
         13   -1    0    0    0    0  0.00000000000E+00  0.00000000000E+00  0.74505805969E-08  0.10566000000E+00  0.10566000000E+00 0.  1.
     999900   -1    0    0    0    0 -0.00000000000E+00 -0.00000000000E+00 -0.74505805969E-08  0.93827000000E+00  0.93827000000E+00 0.  1.
     999902    2    1    2    0    0 -0.22292253478E-01  0.74768071047E-02 -0.11834101444E-02  0.10203875348E+01  0.10201159118E+01 0.  0.
     999903    2    3    3    0    0  0.78867494192E-01  0.99293981182E-02 -0.10007371518E+00  0.12908590110E+00  0.18158931859E-01 0.  0.
         14    1    1    2    0    0  0.22292253478E-01 -0.74768071047E-02  0.11834101444E-02  0.23542465232E-01  0.00000000000E+00 0.  1.
     999901    1    3    3    0    0 -0.10115974767E+00 -0.24525910135E-02  0.98890305032E-01  0.89130163367E+00  0.88000000000E+00 0. -1.
        -11    1    4    4    0    0  0.22875196398E-01  0.86618578523E-02 -0.21351626170E-01  0.32472379845E-01  0.51100000000E-03 0. -1.
         11    1    4    4    0    0  0.55992297794E-01  0.12675402659E-02 -0.78722089007E-01  0.96613521254E-01  0.51100000000E-03 0.  1.
</event>
<event>
 8    1  0.1146431E+005  0.1043930E+01  0.7957747E-01            NaN
         13   -1    0    0    0    0  0.00000000000E+00  0.00000000000E+00  0.74505805969E-08  0.10566000000E+00  0.10566000000E+00 0. -1.
     999900   -1    0    0    0    0 -0.00000000000E+00 -0.00000000000E+00 -0.74505805969E-08  0.93827000000E+00  0.93827000000E+00 0.  1.
     999902    2    1    2    0    0 -0.18681327408E-01  0.12310170720E-01  0.70258548912E-02  0.10204801613E+01  0.10202106962E+01 0.  0.
     999903    2    3    3    0    0 -0.11563482045E+00 -0.47535013882E-01  0.39433766981E-01  0.13254339629E+00  0.19538185094E-01 0.  0.
         14    1    1    2    0    0  0.18681327408E-01 -0.12310170720E-01 -0.70258548912E-02  0.23449838673E-01  0.00000000000E+00 0.  1.
     999901    1    3    3    0    0  0.96953493044E-01  0.59845184601E-01 -0.32407912090E-01  0.88793676503E+00  0.88000000000E+00 0.  1.
        -11    1    4    4    0    0 -0.88940114259E-01 -0.44767630142E-01  0.33457178223E-01  0.10504346019E+00  0.51100000000E-03 0.  1.
         11    1    4    4    0    0 -0.26694706192E-01 -0.27673837392E-02  0.59765887584E-02  0.27499936102E-01  0.51100000000E-03 0. -1.
</event>
<event>
 8    1  0.1146431E+005  0.1043930E+01  0.7957747E-01            NaN
         13   -1    0    0    0    0  0.00000000000E+00  0.00000000000E+00  0.74505805969E-08  0.10566000000E+00  0.10566000000E+00 0. -1.
     999900   -1    0    0    0    0 -0.00000000000E+00 -0.00000000000E+00 -0.74505805969E-08  0.93827000000E+00  0.93827000000E+00 0. -1.
     999902    2    1    2    0    0 -0.48985842386E-02  0.22522657369E-01  0.59005573217E-02  0.10201375054E+01  0.10198600135E+01 0.  0.
     999903    2    3    3    0    0  0.60071034590E-01 -0.58822139172E-01  0.96079894963E-01  0.12942411703E+00  0.21229286336E-01 0.  0.
         14    1    1    2    0    0  0.48985842386E-02 -0.22522657369E-01 -0.59005573217E-02  0.23792494598E-01  0.00000000000E+00 0.  1.
     999901    1    3    3    0    0 -0.64969618829E-01  0.81344796540E-01 -0.90179337641E-01  0.89071338838E+00  0.88000000000E+00 0. -1.
        -11    1    4    4    0    0  0.15015929100E-01 -0.22835561215E-01  0.43561675628E-01  0.51427829891E-01  0.51100000000E-03 0.  1.
         11    1    4    4    0    0  0.45055105490E-01 -0.35986577956E-01  0.52518219335E-01  0.77996287135E-01  0.51100000000E-03 0. -1.
</event>
<event>
 8    1  0.1146431E+005  0.1043930E+01  0.7957747E-01            NaN
         13   -1    0    0    0    0  0.00000000000E+00  0.00000000000E+00  0.74505805969E-08  0.10566000000E+00  0.10566000000E+00 0.  1.
     999900   -1    0    0    0    0 -0.00000000000E+00 -0.00000000000E+00 -0.74505805969E-08  0.93827000000E+00  0.93827000000E+00 0. -1.
     999902    2    1    2    0    0 -0.55123546676E-02 -0.20921027130E-01 -0.45062229034E-02  0.10218306454E+01  0.10215916436E+01 0.  0.
     999903    2    3    3    0    0  0.12328464463E+00  0.22526409870E-01 -0.32353079696E-01  0.13095927742E+00  0.19926561006E-01 0.  0.
         14    1    1    2    0    0  0.55123546676E-02  0.20921027130E-01  0.45062229034E-02  0.22099354629E-01  0.00000000000E+00 0.  1.
     999901    1    3    3    0    0 -0.12879699929E+00 -0.43447437000E-01  0.27846856793E-01  0.89087136795E+00  0.88000000000E+00 0. -1.
        -11    1    4    4    0    0  0.58140689628E-01  0.20705820144E-01 -0.14964715768E-01  0.63508067340E-01  0.51100000000E-03 0.  1.
         11    1    4    4    0    0  0.65143954997E-01  0.18205897266E-02 -0.17388363928E-01  0.67451210076E-01  0.51100000000E-03 0. -1.
</event>
<event>
 8    1  0.1146431E+005  0.1043930E+01  0.7957747E-01            NaN
         13   -1    0    0    0    0  0.00000000000E+00  0.00000000000E+00  0.74505805969E-08  0.10566000000E+00  0.10566000000E+00 0. -1.
     999900   -1    0    0    0    0 -0.00000000000E+00 -0.00000000000E+00 -0.74505805969E-08  0.93827000000E+00  0.93827000000E+00 0. -1.
     999902    2    1    2    0    0  0.74713825427E-02 -0.20381834243E-01 -0.97799760114E-02  0.10201205763E+01  0.10198426847E+01 0.  0.
     999903    2    3    3    0    0  0.83232598411E-02 -0.13008833355E+00 -0.19902678655E-01  0.13325039937E+00  0.19165102010E-01 0.  0.
         14    1    1    2    0    0 -0.74713825427E-02  0.20381834243E-01  0.97799760114E-02  0.23809423659E-01  0.00000000000E+00 0.  1.
     999901    1    3    3    0    0 -0.85187729849E-03  0.10970649931E+00  0.10122702644E-01  0.88687017697E+00  0.88000000000E+00 0. -1.
        -11    1    4    4    0    0 -0.50341179791E-02 -0.47182202997E-01 -0.11700420285E-01  0.48873956043E-01  0.51100000000E-03 0. -1.
         11    1    4    4    0    0  0.13357377820E-01 -0.82906130555E-01 -0.82022583705E-02  0.84376443331E-01  0.51100000000E-03 0.  1.
</event>
<event>
 8    1  0.1146431E+005  0.1043930E+01  0.7957747E-01            NaN
         13   -1    0    0    0    0  0.00000000000E+00  0.00000000000E+00  0.74505805969E-08  0.10566000000E+00  0.10566000000E+00 0.  1.
     999900   -1    0    0    0    0 -0.00000000000E+00 -0.00000000000E+00 -0.74505805969E-08  0.93827000000E+00  0.93827000000E+00 0.  1.
     999902    2    1    2    0    0 -0.12872133592E-01 -0.56495488487E-02 -0.19372551394E-01  0.10199945666E+01  0.10197136906E+01 0.  0.
     999903    2    3    3    0    0  0.22170666099E-01 -0.15331834114E-01 -0.12811204561E+00  0.13255666900E+00  0.20783904687E-01 0.  0.
         14    1    1    2    0    0  0.12872133592E-01  0.56495488487E-02  0.19372551394E-01  0.23935433419E-01  0.00000000000E+00 0.  1.
     999901    1    3    3    0    0 -0.35042799692E-01  0.96822852649E-02  0.10873949422E+00  0.88743789758E+00  0.88000000000E+00 0. -1.
        -11    1    4    4    0    0  0.22356460192E-01 -0.47129783115E-02 -0.75591191022E-01  0.78970328339E-01  0.51100000000E-03 0.  1.
         11    1    4    4    0    0 -0.18579409308E-03 -0.10618855802E-01 -0.52520854588E-01  0.53586340663E-01  0.51100000000E-03 0. -1.
</event>
<event>
 8    1  0.1146431E+005  0.1043930E+01  0.7957747E-01            NaN
         13   -1    0    0    0    0  0.00000000000E+00  0.00000000000E+00  0.74505805969E-08  0.10566000000E+00  0.10566000000E+00 0.  1.
     999900   -1    0    0    0    0 -0.00000000000E+00 -0.00000000000E+00 -0.74505805969E-08  0.93827000000E+00  0.93827000000E+00 0. -1.
     999902    2    1    2    0    0  0.51470260505E-02  0.12632873414E-01 -0.19047682543E-01  0.10205014794E+01  0.10202325097E+01 0.  0.
     999903    2    3    3    0    0  0.10822538357E+00  0.72995651040E-01  0.58731911088E-02  0.13208161094E+00  0.19234314540E-01 0.  0.
         14    1    1    2    0    0 -0.51470260505E-02 -0.12632873414E-01  0.19047682543E-01  0.23428520613E-01  0.00000000000E+00 0.  1.
     999901    1    3    3    0    0 -0.10307835751E+00 -0.60362777626E-01 -0.24920873651E-01  0.88841986845E+00  0.88000000000E+00 0.  1.
        -11    1    4    4    0    0  0.92110116904E-01  0.63134850529E-01 -0.17938003811E-02  0.11168599656E+00  0.51100000000E-03 0. -1.
         11    1    4    4    0    0  0.16115266661E-01  0.98608005108E-02  0.76669914899E-02  0.20395614376E-01  0.51100000000E-03 0.  1.
</event>
<event>
 8    1  0.1146431E+005  0.1043930E+01  0.7957747E-01            NaN
         13   -1    0    0    0    0  0.00000000000E+00  0.00000000000E+00  0.74505805969E-08  0.10566000000E+00  0.10566000000E+00 0. -1.
     999900   -1    0    0    0    0 -0.00000000000E+00 -0.00000000000E+00 -0.74505805969E-08  0.93827000000E+00  0.93827000000E+00 0. -1.
     999902    2    1    2    0    0 -0.17607159770E-01  0.47809165393E-03 -0.14832534087E-01  0.10209029569E+01  0.10206432299E+01 0.  0.
     999903    2    3    3    0    0  0.59183700618E-01  0.47366076658E-01  0.10165441374E+00  0.12867847371E+00  0.21869479329E-01 0.  0.
         14    1    1    2    0    0  0.17607159770E-01 -0.47809165393E-03  0.14832534087E-01  0.23027043107E-01  0.00000000000E+00 0. -1.
     999901    1    3    3    0    0 -0.76790860388E-01 -0.46887985004E-01 -0.11648694783E+00  0.89222448318E+00  0.88000000000E+00 0. -1.
        -11    1    4    4    0    0  0.28285839639E-01  0.27227475923E-01  0.69127069688E-01  0.79499918577E-01  0.51100000000E-03 0.  1.
         11    1    4    4    0    0  0.30897860979E-01  0.20138600735E-01  0.32527344055E-01  0.49178555132E-01  0.51100000000E-03 0. -1.
</event>
<event>
 8    1  0.1146431E+005  0.1043930E+01  0.7957747E-01            NaN
         13   -1    0    0    0    0  0.00000000000E+00  0.00000000000E+00  0.74505805969E-08  0.10566000000E+00  0.10566000000E+00 0.  1.
     999900   -1    0    0    0    0 -0.00000000000E+00 -0.00000000000E+00 -0.74505805969E-08  0.93827000000E+00  0.93827000000E+00 0. -1.
     999902    2    1    2    0    0 -0.11664204168E-01 -0.17514450369E-01  0.11240885807E-01  0.10200727758E+01  0.10197937541E+01 0.  0.
     999903    2    3    3    0    0  0.31053199909E-01  0.11779062535E+00  0.35274496442E-01  0.12838344959E+00  0.19977171575E-01 0.  0.
         14    1    1    2    0    0  0.11664204168E-01  0.17514450369E-01 -0.11240885807E-01  0.23857224154E-01  0.00000000000E+00 0. -1.
     999901    1    3    3    0    0 -0.42717404077E-01 -0.13530507572E+00 -0.24033610635E-01  0.89168932626E+00  0.88000000000E+00 0.  1.
        -11    1    4    4    0    0  0.43521261275E-02  0.28894169105E-01  0.40115051831E-03  0.29227316894E-01  0.51100000000E-03 0.  1.
         11    1    4    4    0    0  0.26701073782E-01  0.88896456243E-01  0.34873345924E-01  0.99156132692E-01  0.51100000000E-03 0. -1.
</event>
<event>
 8    1  0.1146431E+005  0.1043930E+01  0.7957747E-01            NaN
         13   -1    0    0    0    0  0.00000000000E+00  0.00000000000E+00  0.74505805969E-08  0.10566000000E+00  0.10566000000E+00 0.  1.
     999900   -1    0    0    0    0 -0.00000000000E+00 -0.00000000000E+00 -0.74505805969E-08  0.93827000000E+00  0.93827000000E+00 0. -1.
     999902    2    1    2    0    0  0.17355052927E-01 -0.18530059566E-01 -0.91650425570E-03  0.10185252573E+01  0.10182083769E+01 0.  0.
     999903    2    3    3    0    0 -0.10379574873E+00 -0.37494812100E-01  0.60839006833E-01  0.12787890680E+00  0.21730431746E-01 0.  0.
         14    1    1    2    0    0 -0.17355052927E-01  0.18530059566E-01  0.91650425570E-03  0.25404742661E-01  0.00000000000E+00 0. -1.
     999901    1    3    3    0    0  0.12115080165E+00  0.18964752534E-01 -0.61755511089E-01  0.89064635054E+00  0.88000000000E+00 0. -1.
        -11    1    4    4    0    0 -0.35705727505E-01 -0.55129844228E-02  0.28384601523E-01  0.45948217577E-01  0.51100000000E-03 0. -1.
         11    1    4    4    0    0 -0.68090021220E-01 -0.31981827677E-01  0.32454405311E-01  0.81930689222E-01  0.51100000000E-03 0.  1.
</event>
<event>
 8    1  0.1146431E+005  0.1043930E+01  0.7957747E-01            NaN
         13   -1    0    0    0    0  0.00000000000E+00  0.00000000000E+00  0.74505805969E-08  0.10566000000E+00  0.10566000000E+00 0.  1.
     999900   -1    0    0    0    0 -0.00000000000E+00 -0.00000000000E+00 -0.74505805969E-08  0.93827000000E+00  0.93827000000E+00 0.  1.
     999902    2    1    2    0    0 -0.10376314099E-01 -0.20529491836E-01  0.52025551448E-02  0.10203462236E+01  0.10200736353E+01 0.  0.
     999903    2    3    3    0    0 -0.10566570292E-01  0.12521327423E+00  0.15900532586E-01  0.12829497127E+00  0.20414609153E-01 0.  0.
         14    1    1    2    0    0  0.10376314099E-01  0.20529491836E-01 -0.52025551448E-02  0.23583776402E-01  0.00000000000E+00 0. -1.
     999901    1    3    3    0    0  0.19025619335E-03 -0.14574276606E+00 -0.10697977441E-01  0.89205125233E+00  0.88000000000E+00 0. -1.
        -11    1    4    4    0    0 -0.19210464874E-02  0.49217817221E-01  0.16052050851E-01  0.51807464801E-01  0.51100000000E-03 0.  1.
         11    1    4    4    0    0 -0.86455238050E-02  0.75995457005E-01 -0.15151826444E-03  0.76487506470E-01  0.51100000000E-03 0. -1.
</event>
<event>
 8    1  0.1146431E+005  0.1043930E+01  0.7957747E-01            NaN
         13   -1    0    0    0    0  0.00000000000E+00  0.00000000000E+00  0.74505805969E-08  0.10566000000E+00  0.10566000000E+00 0.  1.
     999900   -1    0    0    0    0 -0.00000000000E+00 -0.00000000000E+00 -0.74505805969E-08  0.93827000000E+00  0.93827000000E+00 0.  1.
     999902    2    1    2    0    0 -0.23618298560E-01 -0.70893168813E-02 -0.33672067224E-03  0.10192683735E+01  0.10189699806E+01 0.  0.
     999903    2    3    3    0    0  0.75025098338E-01  0.53236810417E-01  0.85792355378E-01  0.12753524127E+00  0.21023466874E-01 0.  0.
         14    1    1    2    0    0  0.23618298560E-01  0.70893168813E-02  0.33672067224E-03  0.24661626498E-01  0.00000000000E+00 0.  1.
     999901    1    3    3    0    0 -0.98643396898E-01 -0.60326127299E-01 -0.86129076050E-01  0.89173313224E+00  0.88000000000E+00 0.  1.
        -11    1    4    4    0    0  0.32899517630E-01  0.11037173331E-01  0.33156001568E-01  0.47997698032E-01  0.51100000000E-03 0.  1.
         11    1    4    4    0    0  0.42125580708E-01  0.42199637087E-01  0.52636353810E-01  0.79537543233E-01  0.51100000000E-03 0. -1.
</event>
<event>
 8    1  0.1146431E+005  0.1043930E+01  0.7957747E-01            NaN
         13   -1    0    0    0    0  0.00000000000E+00  0.00000000000E+00  0.74505805969E-08  0.10566000000E+00  0.10566000000E+00 0.  1.
     999900   -1    0    0    0    0 -0.00000000000E+00 -0.00000000000E+00 -0.74505805969E-08  0.93827000000E+00  0.93827000000E+00 0.  1.
     999902    2    1    2    0    0 -0.22781111746E-01 -0.13277231378E-01 -0.97496457877E-02  0.10158173780E+01  0.10154282967E+01 0.  0.
     999903    2    3    3    0    0 -0.96570876384E-01  0.12815684093E-01 -0.82618911595E-01  0.12934363356E+00  0.20339986819E-01 0.  0.
         14    1    1    2    0    0  0.22781111746E-01  0.13277231378E-01  0.97496457877E-02  0.28112622049E-01  0.00000000000E+00 0.  1.
     999901    1    3    3    0    0  0.73789764638E-01 -0.26092915471E-01  0.72869265808E-01  0.88647374440E+00  0.88000000000E+00 0. -1.
        -11    1    4    4    0    0 -0.47857364947E-01 -0.22887688749E-03 -0.30141509364E-01  0.56561041999E-01  0.51100000000E-03 0. -1.
         11    1    4    4    0    0 -0.48713511437E-01  0.13044560980E-01 -0.52477402231E-01  0.72782591557E-01  0.51100000000E-03 0.  1.
</event>
<event>
 8    1  0.1146431E+005  0.1043930E+01  0.7957747E-01            NaN
         13   -1    0    0    0    0  0.00000000000E+00  0.00000000000E+00  0.74505805969E-08  0.10566000000E+00  0.10566000000E+00 0.  1.
     999900   -1    0    0    0    0 -0.00000000000E+00 -0.00000000000E+00 -0.74505805969E-08  0.93827000000E+00  0.93827000000E+00 0. -1.
     999902    2    1    2    0    0 -0.11984940471E-01  0.10097161733E-01 -0.17672591625E-01  0.10203098398E+01  0.10200364000E+01 0.  0.
     999903    2    3    3    0    0 -0.12191651182E+00 -0.36671044348E-01  0.24014179070E-01  0.13125978366E+00  0.21072462166E-01 0.  0.
         14    1    1    2    0    0  0.11984940471E-01 -0.10097161733E-01  0.17672591625E-01  0.23620160201E-01  0.00000000000E+00 0.  1.
     999901    1    3    3    0    0  0.10993157135E+00  0.46768206081E-01 -0.41686770696E-01  0.88905005614E+00  0.88000000000E+00 0. -1.
        -11    1    4    4    0    0 -0.21321410983E-01 -0.64906043206E-02 -0.37956330760E-02  0.22614120859E-01  0.51100000000E-03 0. -1.
         11    1    4    4    0    0 -0.10059510083E+00 -0.30180440028E-01  0.27809812146E-01  0.10864566280E+00  0.51100000000E-03 0.  1.
</event>
<event>
 8    1  0.1146431E+005  0.1043930E+01  0.7957747E-01            NaN
         13   -1    0    0    0    0  0.00000000000E+00  0.00000000000E+00  0.74505805969E-08  0.10566000000E+00  0.10566000000E+00 0. -1.
     999900   -1    0    0    0    0 -0.00000000000E+00 -0.00000000000E+00 -0.74505805969E-08  0.93827000000E+00  0.93827000000E+00 0.  1.
     999902    2    1    2    0    0  0.67808844944E-02 -0.11935006624E-01  0.18992472035E-01  0.10204962898E+01  0.10202271996E+01 0.  0.
     999903    2    3    3    0    0  0.12653093860E+00  0.22694714545E-01 -0.14708324548E-01  0.13107229830E+00  0.20940011430E-01 0.  0.
         14    1    1    2    0    0 -0.67808844944E-02  0.11935006624E-01 -0.18992472035E-01  0.23433710155E-01  0.00000000000E+00 0.  1.
     999901    1    3    3    0    0 -0.11975005411E+00 -0.34629721170E-01  0.33700796583E-01  0.88942399155E+00  0.88000000000E+00 0. -1.
        -11    1    4    4    0    0  0.52814184491E-01  0.12089153333E-01 -0.16288829975E-01  0.56578024132E-01  0.51100000000E-03 0. -1.
         11    1    4    4    0    0  0.73716754111E-01  0.10605561213E-01  0.15805054267E-02  0.74494274167E-01  0.51100000000E-03 0.  1.
</event>
<event>
 8    1  0.1146431E+005  0.1043930E+01  0.7957747E-01            NaN
         13   -1    0    0    0    0  0.00000000000E+00  0.00000000000E+00  0.74505805969E-08  0.10566000000E+00  0.10566000000E+00 0.  1.
     999900   -1    0    0    0    0 -0.00000000000E+00 -0.00000000000E+00 -0.74505805969E-08  0.93827000000E+00  0.93827000000E+00 0. -1.
     999902    2    1    2    0    0  0.40736306936E-02  0.94685174781E-02 -0.21447095069E-01  0.10201345135E+01  0.10198569510E+01 0.  0.
     999903    2    3    3    0    0 -0.12321309241E+00 -0.26780766686E-01  0.20452481685E-01  0.12925208860E+00  0.19726195641E-01 0.  0.
         14    1    1    2    0    0 -0.40736306936E-02 -0.94685174781E-02  0.21447095069E-01  0.23795486487E-01  0.00000000000E+00 0.  1.
     999901    1    3    3    0    0  0.12728672311E+00  0.36249284164E-01 -0.41899576754E-01  0.89088242491E+00  0.88000000000E+00 0. -1.
        -11    1    4    4    0    0 -0.94135231077E-01 -0.12555615420E-01  0.11512605884E-01  0.95665492335E-01  0.51100000000E-03 0. -1.
         11    1    4    4    0    0 -0.29077861338E-01 -0.14225151266E-01  0.89398758006E-02  0.33586596268E-01  0.51100000000E-03 0.  1.
</event>
<event>
 8    1  0.1146431E+005  0.1043930E+01  0.7957747E-01            NaN
         13   -1    0    0    0    0  0.00000000000E+00  0.00000000000E+00  0.74505805969E-08  0.10566000000E+00  0.10566000000E+00 0.  1.
     999900   -1    0    0    0    0 -0.00000000000E+00 -0.00000000000E+00 -0.74505805969E-08  0.93827000000E+00  0.93827000000E+00 0. -1.
     999902    2    1    2    0    0 -0.11249372449E-01 -0.14182745729E-01  0.15707281834E-01  0.10199629944E+01  0.10196813681E+01 0.  0.
     999903    2    3    3    0    0 -0.85384934050E-01  0.91581364282E-01  0.30200590147E-01  0.13041693909E+00  0.20463848835E-01 0.  0.
         14    1    1    2    0    0  0.11249372449E-01  0.14182745729E-01 -0.15707281834E-01  0.23967005643E-01  0.00000000000E+00 0. -1.
     999901    1    3    3    0    0  0.74135561601E-01 -0.10576411001E+00 -0.14493308313E-01  0.88954605527E+00  0.88000000000E+00 0.  1.
        -11    1    4    4    0    0 -0.38289851155E-01  0.53726996089E-01  0.10155427248E-01  0.66754000882E-01  0.51100000000E-03 0.  1.
         11    1    4    4    0    0 -0.47095082895E-01  0.37854368193E-01  0.20045162900E-01  0.63662938205E-01  0.51100000000E-03 0. -1.
</event>
<event>
 8    1  0.1146431E+005  0.1043930E+01  0.7957747E-01            NaN
         13   -1    0    0    0    0  0.00000000000E+00  0.00000000000E+00  0.74505805969E-08  0.10566000000E+00  0.10566000000E+00 0. -1.
     999900   -1    0    0    0    0 -0.00000000000E+00 -0.00000000000E+00 -0.74505805969E-08  0.93827000000E+00  0.93827000000E+00 0.  1.
     999902    2    1    2    0    0 -0.75703556342E-06 -0.23853777131E-01 -0.34265572346E-02  0.10198313698E+01  0.10195466045E+01 0.  0.
     999903    2    3    3    0    0  0.97511182304E-01  0.60815497212E-01 -0.55040288134E-01  0.12890968885E+00  0.19527395793E-01 0.  0.
         14    1    1    2    0    0  0.75703556341E-06  0.23853777131E-01  0.34265572346E-02  0.24098630220E-01  0.00000000000E+00 0.  1.
     999901    1    3    3    0    0 -0.97511939340E-01 -0.84669274343E-01  0.51613730899E-01  0.89092168093E+00  0.88000000000E+00 0. -1.
        -11    1    4    4    0    0  0.53780730930E-01  0.42256050572E-01 -0.25671241798E-01  0.73056242757E-01  0.51100000000E-03 0.  1.
         11    1    4    4    0    0  0.43730451374E-01  0.18559446640E-01 -0.29369046336E-01  0.55853446095E-01  0.51100000000E-03 0. -1.
</event>
<event>
 8    1  0.1146431E+005  0.1043930E+01  0.7957747E-01            NaN
         13   -1    0    0    0    0  0.00000000000E+00  0.00000000000E+00  0.74505805969E-08  0.10566000000E+00  0.10566000000E+00 0. -1.
     999900   -1    0    0    0    0 -0.00000000000E+00 -0.00000000000E+00 -0.74505805969E-08  0.93827000000E+00  0.93827000000E+00 0. -1.
     999902    2    1    2    0    0  0.30826402682E-02  0.23698082610E-01  0.53849874999E-03  0.10200261976E+01  0.10197460723E+01 0.  0.
     999903    2    3    3    0    0  0.11556217433E+00 -0.31326647111E-01  0.46449330969E-01  0.12997722644E+00  0.20014097333E-01 0.  0.
         14    1    1    2    0    0 -0.30826402682E-02 -0.23698082610E-01 -0.53849874999E-03  0.23903802444E-01  0.00000000000E+00 0.  1.
     999901    1    3    3    0    0 -0.11247953406E+00  0.55024729720E-01 -0.45910832219E-01  0.89004897111E+00  0.88000000000E+00 0. -1.
        -11    1    4    4    0    0  0.30014456278E-01 -0.17462906619E-01  0.13379406498E-01  0.37216801750E-01  0.51100000000E-03 0.  1.
         11    1    4    4    0    0  0.85547718049E-01 -0.13863740492E-01  0.33069924471E-01  0.92760424694E-01  0.51100000000E-03 0. -1.
</event>
<event>
 8    1  0.1146431E+005  0.1043930E+01  0.7957747E-01            NaN
         13   -1    0    0    0    0  0.00000000000E+00  0.00000000000E+00  0.74505805969E-08  0.10566000000E+00  0.10566000000E+00 0. -1.
     999900   -1    0    0    0    0 -0.00000000000E+00 -0.00000000000E+00 -0.74505805969E-08  0.93827000000E+00  0.93827000000E+00 0.  1.
     999902    2    1    2    0    0  0.29189402961E-02 -0.82792995785E-02 -0.22253957961E-01  0.10200070892E+01  0.10197265106E+01 0.  0.
     999903    2    3    3    0    0  0.10226107788E+00  0.47552951583E-01 -0.64991151572E-01  0.13163072290E+00  0.19600667710E-01 0.  0.
         14    1    1    2    0    0 -0.29189402961E-02  0.82792995785E-02  0.22253957961E-01  0.23922910753E-01  0.00000000000E+00 0. -1.
     999901    1    3    3    0    0 -0.99342137583E-01 -0.55832251162E-01  0.42737193611E-01  0.88837636635E+00  0.88000000000E+00 0. -1.
        -11    1    4    4    0    0  0.16405697532E-01  0.14014941272E-01 -0.18339678426E-01  0.28322613159E-01  0.51100000000E-03 0. -1.
         11    1    4    4    0    0  0.85855380347E-01  0.33538010311E-01 -0.46651473146E-01  0.10330810974E+00  0.51100000000E-03 0.  1.
</event>
<event>
 8    1  0.1146431E+005  0.1043930E+01  0.7957747E-01            NaN
         13   -1    0    0    0    0  0.00000000000E+00  0.00000000000E+00  0.74505805969E-08  0.10566000000E+00  0.10566000000E+00 0. -1.
     999900   -1    0    0    0    0 -0.00000000000E+00 -0.00000000000E+00 -0.74505805969E-08  0.93827000000E+00  0.93827000000E+00 0.  1.
     999902    2    1    2    0    0  0.31430584650E-02 -0.95092735221E-02 -0.20354541650E-01  0.10212449286E+01  0.10209929440E+01 0.  0.
     999903    2    3    3    0    0 -0.65906751845E-03 -0.12075394213E+00 -0.53454622802E-01  0.13361581244E+00  0.20343050982E-01 0.  0.
         14    1    1    2    0    0 -0.31430584650E-02  0.95092735221E-02  0.20354541650E-01  0.22685071418E-01  0.00000000000E+00 0. -1.
     999901    1    3    3    0    0  0.38021259835E-02  0.11124466861E+00  0.33100081152E-01  0.88762911615E+00  0.88000000000E+00 0.  1.
        -11    1    4    4    0    0 -0.10260667107E-01 -0.49681060819E-01 -0.22730463863E-01  0.55591583914E-01  0.51100000000E-03 0.  1.
         11    1    4    4    0    0  0.96015995889E-02 -0.71072881315E-01 -0.30724158939E-01  0.78024228523E-01  0.51100000000E-03 0. -1.
</event>
<event>
 8    1  0.1146431E+005  0.1043930E+01  0.7957747E-01            NaN
         13   -1    0    0    0    0  0.00000000000E+00  0.00000000000E+00  0.74505805969E-08  0.10566000000E+00  0.10566000000E+00 0.  1.
     999900   -1    0    0    0    0 -0.00000000000E+00 -0.00000000000E+00 -0.74505805969E-08  0.93827000000E+00  0.93827000000E+00 0. -1.
     999902    2    1    2    0    0  0.14189834251E-01 -0.10682843176E-01  0.16485064625E-01  0.10196971320E+01  0.10194091471E+01 0.  0.
     999903    2    3    3    0    0  0.12548472834E-02  0.12514361150E+00  0.92670406731E-02  0.12915334335E+00  0.30532112877E-01 0.  0.
         14    1    1    2    0    0 -0.14189834251E-01  0.10682843176E-01 -0.16485064625E-01  0.24232867971E-01  0.00000000000E+00 0. -1.
     999901    1    3    3    0    0  0.12934986968E-01 -0.13582645467E+00  0.72180239515E-02  0.89054378867E+00  0.88000000000E+00 0. -1.
        -11    1    4    4    0    0 -0.12383631317E-02  0.66478164139E-01  0.20054313817E-01  0.69450100606E-01  0.51100000000E-03 0. -1.
         11    1    4    4    0    0  0.24932104150E-02  0.58665447358E-01 -0.10787273143E-01  0.59703242749E-01  0.51100000000E-03 0.  1.
</event>
<event>
 8    1  0.1146431E+005  0.1043930E+01  0.7957747E-01            NaN
         13   -1    0    0    0    0  0.00000000000E+00  0.00000000000E+00  0.74505805969E-08  0.10566000000E+00  0.10566000000E+00 0. -1.
     999900   -1    0    0    0    0 -0.00000000000E+00 -0.00000000000E+00 -0.74505805969E-08  0.93827000000E+00  0.93827000000E+00 0. -1.
     999902    2    1    2    0    0 -0.30824962020E-02 -0.11285950972E-01  0.19933464111E-01  0.10208168552E+01  0.10205551599E+01 0.  0.
     999903    2    3    3    0    0  0.28668540759E-02 -0.34266128432E-01 -0.12273159990E+00  0.12901149311E+00  0.19963299542E-01 0.  0.
         14    1    1    2    0    0  0.30824962020E-02  0.11285950972E-01 -0.19933464111E-01  0.23113144824E-01  0.00000000000E+00 0.  1.
     999901    1    3    3    0    0 -0.59493502779E-02  0.22980177459E-01  0.14266506402E+00  0.89180536207E+00  0.88000000000E+00 0.  1.
        -11    1    4    4    0    0  0.17904984347E-02 -0.28275081692E-02 -0.45386095373E-01  0.45512190250E-01  0.51100000000E-03 0. -1.
         11    1    4    4    0    0  0.10763556413E-02 -0.31438620263E-01 -0.77345504531E-01  0.83499302857E-01  0.51100000000E-03 0.  1.
</event>
<event>
 8    1  0.1146431E+005  0.1043930E+01  0.7957747E-01            NaN
         13   -1    0    0    0    0  0.00000000000E+00  0.00000000000E+00  0.74505805969E-08  0.10566000000E+00  0.10566000000E+00 0.  1.
     999900   -1    0    0    0    0 -0.00000000000E+00 -0.00000000000E+00 -0.74505805969E-08  0.93827000000E+00  0.93827000000E+00 0.  1.
     999902    2    1    2    0    0  0.87498470313E-02 -0.21054643765E-01 -0.68060097796E-02  0.10201354709E+01  0.10198579310E+01 0.  0.
     999903    2    3    3    0    0  0.65020439717E-01 -0.65136212672E-03  0.11114690631E+00  0.13025033002E+00  0.19581415537E-01 0.  0.
         14    1    1    2    0    0 -0.87498470313E-02  0.21054643765E-01  0.68060097796E-02  0.23794529124E-01  0.00000000000E+00 0.  1.
     999901    1    3    3    0    0 -0.56270592685E-01 -0.20403281638E-01 -0.11795291609E+00  0.88988514086E+00  0.88000000000E+00 0.  1.
        -11    1    4    4    0    0  0.43822432765E-01 -0.88121906226E-02  0.66081918708E-01  0.79781836392E-01  0.51100000000E-03 0.  1.
         11    1    4    4    0    0  0.21198006951E-01  0.81608284959E-02  0.45064987602E-01  0.50468493627E-01  0.51100000000E-03 0. -1.
</event>
<event>
 8    1  0.1146431E+005  0.1043930E+01  0.7957747E-01            NaN
         13   -1    0    0    0    0  0.00000000000E+00  0.00000000000E+00  0.74505805969E-08  0.10566000000E+00  0.10566000000E+00 0. -1.
     999900   -1    0    0    0    0 -0.00000000000E+00 -0.00000000000E+00 -0.74505805969E-08  0.93827000000E+00  0.93827000000E+00 0.  1.
     999902    2    1    2    0    0 -0.59344280076E-02  0.12021410356E-01  0.19409835772E-01  0.10203403101E+01  0.10200675836E+01 0.  0.
     999903    2    3    3    0    0  0.82687567966E-01  0.24572788922E-01 -0.93202522662E-01  0.12866046931E+00  0.20633717115E-01 0.  0.
         14    1    1    2    0    0  0.59344280076E-02 -0.12021410356E-01 -0.19409835772E-01  0.23589689854E-01  0.00000000000E+00 0.  1.
     999901    1    3    3    0    0 -0.88621995973E-01 -0.12551378566E-01  0.11261235843E+00  0.89167984083E+00  0.88000000000E+00 0. -1.
        -11    1    4    4    0    0  0.25429016957E-01 -0.10424900728E-03 -0.35754890310E-01  0.43878457964E-01  0.51100000000E-03 0. -1.
         11    1    4    4    0    0  0.57258551009E-01  0.24677037929E-01 -0.57447632352E-01  0.84782011350E-01  0.51100000000E-03 0.  1.
</event>
<event>
 8    1  0.1146431E+005  0.1043930E+01  0.7957747E-01            NaN
         13   -1    0    0    0    0  0.00000000000E+00  0.00000000000E+00  0.74505805969E-08  0.10566000000E+00  0.10566000000E+00 0.  1.
     999900   -1    0    0    0    0 -0.00000000000E+00 -0.00000000000E+00 -0.74505805969E-08  0.93827000000E+00  0.93827000000E+00 0. -1.
     999902    2    1    2    0    0 -0.17842624817E-01  0.13299613098E-01 -0.24092725591E-02  0.10215459976E+01  0.10213007303E+01 0.  0.
     999903    2    3    3    0    0 -0.33337899130E-01  0.10215577687E+00  0.74876110379E-01  0.13356595741E+00  0.26195702077E-01 0.  0.
         14    1    1    2    0    0  0.17842624817E-01 -0.13299613098E-01  0.24092725591E-02  0.22384002394E-01  0.00000000000E+00 0.  1.
     999901    1    3    3    0    0  0.15495274313E-01 -0.88856163773E-01 -0.77285382938E-01  0.88798004019E+00  0.88000000000E+00 0. -1.
        -11    1    4    4    0    0 -0.85387438677E-02  0.48085560905E-01  0.20492000467E-01  0.52965219895E-01  0.51100000000E-03 0.  1.
         11    1    4    4    0    0 -0.24799155263E-01  0.54070215966E-01  0.54384109912E-01  0.80600737517E-01  0.51100000000E-03 0. -1.
</event>
<event>
 8    1  0.1146431E+005  0.1043930E+01  0.7957747E-01            NaN
         13   -1    0    0    0    0  0.00000000000E+00  0.00000000000E+00  0.74505805969E-08  0.10566000000E+00  0.10566000000E+00 0. -1.
     999900   -1    0    0    0    0 -0.00000000000E+00 -0.00000000000E+00 -0.74505805969E-08  0.93827000000E+00  0.93827000000E+00 0.  1.
     999902    2    1    2    0    0 -0.11514753156E-01  0.18450727479E-01 -0.84786239824E-02  0.10205867794E+01  0.10203197873E+01 0.  0.
     999903    2    3    3    0    0 -0.39387128196E-02 -0.10480890426E+00  0.72076250623E-01  0.12832032756E+00  0.16452984224E-01 0.  0.
         14    1    1    2    0    0  0.11514753156E-01 -0.18450727479E-01  0.84786239824E-02  0.23343220630E-01  0.00000000000E+00 0.  1.
     999901    1    3    3    0    0 -0.75760403362E-02  0.12325963174E+00 -0.80554874605E-01  0.89226645181E+00  0.88000000000E+00 0.  1.
        -11    1    4    4    0    0 -0.99327540054E-02 -0.54783940398E-01  0.35043075584E-01  0.65789193604E-01  0.51100000000E-03 0.  1.
         11    1    4    4    0    0  0.59940411858E-02 -0.50024963864E-01  0.37033175038E-01  0.62531133955E-01  0.51100000000E-03 0. -1.
</event>
<event>
 8    1  0.1146431E+005  0.1043930E+01  0.7957747E-01            NaN
         13   -1    0    0    0    0  0.00000000000E+00  0.00000000000E+00  0.74505805969E-08  0.10566000000E+00  0.10566000000E+00 0.  1.
     999900   -1    0    0    0    0 -0.00000000000E+00 -0.00000000000E+00 -0.74505805969E-08  0.93827000000E+00  0.93827000000E+00 0.  1.
     999902    2    1    2    0    0 -0.14731069646E-01 -0.20955175492E-01 -0.11548076775E-03  0.10183148262E+01  0.10179926071E+01 0.  0.
     999903    2    3    3    0    0  0.68934677552E-01 -0.10763936888E+00  0.12983018871E-01  0.13000988007E+00  0.19894387021E-01 0.  0.
         14    1    1    2    0    0  0.14731069646E-01  0.20955175492E-01  0.11548076775E-03  0.25615173796E-01  0.00000000000E+00 0. -1.
     999901    1    3    3    0    0 -0.83665747198E-01  0.86684193384E-01 -0.13098499638E-01  0.88830494614E+00  0.88000000000E+00 0. -1.
        -11    1    4    4    0    0  0.57728859803E-01 -0.76643407224E-01  0.49464281967E-02  0.96081014763E-01  0.51100000000E-03 0.  1.
         11    1    4    4    0    0  0.11205817749E-01 -0.30995961652E-01  0.80365906739E-02  0.33928865304E-01  0.51100000000E-03 0. -1.
</event>
<event>
 8    1  0.1146431E+005  0.1043930E+01  0.7957747E-01            NaN
         13   -1    0    0    0    0  0.00000000000E+00  0.00000000000E+00  0.74505805969E-08  0.10566000000E+00  0.10566000000E+00 0. -1.
     999900   -1    0    0    0    0 -0.00000000000E+00 -0.00000000000E+00 -0.74505805969E-08  0.93827000000E+00  0.93827000000E+00 0. -1.
     999902    2    1    2    0    0  0.16517208052E-02 -0.25526618719E-01 -0.19894057925E-01  0.10115245994E+01  0.10110053933E+01 0.  0.
     999903    2    3    3    0    0  0.39459995724E-02 -0.10604401746E+00 -0.66031611129E-01  0.12664212756E+00  0.20424256493E-01 0.  0.
         14    1    1    2    0    0 -0.16517208052E-02  0.25526618719E-01  0.19894057925E-01  0.32405400562E-01  0.00000000000E+00 0. -1.
     999901    1    3    3    0    0 -0.22942787672E-02  0.80517398744E-01  0.46137553204E-01  0.88488247187E+00  0.88000000000E+00 0.  1.
        -11    1    4    4    0    0 -0.40966770817E-02 -0.66089727273E-01 -0.49424568922E-01  0.82629800607E-01  0.51100000000E-03 0.  1.
         11    1    4    4    0    0  0.80426766541E-02 -0.39954290189E-01 -0.16607042207E-01  0.44012326957E-01  0.51100000000E-03 0. -1.
</event>
<event>
 8    1  0.1146431E+005  0.1043930E+01  0.7957747E-01            NaN
         13   -1    0    0    0    0  0.00000000000E+00  0.00000000000E+00  0.74505805969E-08  0.10566000000E+00  0.10566000000E+00 0. -1.
     999900   -1    0    0    0    0 -0.00000000000E+00 -0.00000000000E+00 -0.74505805969E-08  0.93827000000E+00  0.93827000000E+00 0.  1.
     999902    2    1    2    0    0  0.21890461047E-01  0.81290121819E-02 -0.61969458781E-02  0.10197706279E+01  0.10194844080E+01 0.  0.
     999903    2    3    3    0    0  0.75632725708E-01  0.73735793422E-01  0.76824544646E-01  0.13180382181E+00  0.17690685533E-01 0.  0.
         14    1    1    2    0    0 -0.21890461047E-01 -0.81290121819E-02  0.61969458781E-02  0.24159372139E-01  0.00000000000E+00 0.  1.
     999901    1    3    3    0    0 -0.53742264661E-01 -0.65606781240E-01 -0.83021490524E-01  0.88796680605E+00  0.88000000000E+00 0.  1.
        -11    1    4    4    0    0  0.65915265157E-02  0.15575734700E-02  0.80521324148E-02  0.10534335022E-01  0.51100000000E-03 0.  1.
         11    1    4    4    0    0  0.69041199193E-01  0.72178219952E-01  0.68772412231E-01  0.12126948679E+00  0.51100000000E-03 0. -1.
</event>
<event>
 8    1  0.1146431E+005  0.1043930E+01  0.7957747E-01            NaN
         13   -1    0    0    0    0  0.00000000000E+00  0.00000000000E+00  0.74505805969E-08  0.10566000000E+00  0.10566000000E+00 0.  1.
     999900   -1    0    0    0    0 -0.00000000000E+00 -0.00000000000E+00 -0.74505805969E-08  0.93827000000E+00  0.93827000000E+00 0.  1.
     999902    2    1    2    0    0 -0.12323156027E-01  0.19703683433E-01 -0.13506963190E-01  0.10170500192E+01  0.10166947468E+01 0.  0.
     999903    2    3    3    0    0  0.51234043268E-01  0.77954103273E-01 -0.87777456624E-01  0.12972328385E+00  0.20529955575E-01 0.  0.
         14    1    1    2    0    0  0.12323156027E-01 -0.19703683433E-01  0.13506963190E-01  0.26879980840E-01  0.00000000000E+00 0.  1.
     999901    1    3    3    0    0 -0.63557199296E-01 -0.58250419839E-01  0.74270493434E-01  0.88732673531E+00  0.88000000000E+00 0. -1.
        -11    1    4    4    0    0  0.38256849956E-01  0.55359193355E-01 -0.74778965449E-01  0.10060010762E+00  0.51100000000E-03 0.  1.
         11    1    4    4    0    0  0.12977193312E-01  0.22594909918E-01 -0.12998491175E-01  0.29123176239E-01  0.51100000000E-03 0. -1.
</event>
<event>
 8    1  0.1146431E+005  0.1043930E+01  0.7957747E-01            NaN
         13   -1    0    0    0    0  0.00000000000E+00  0.00000000000E+00  0.74505805969E-08  0.10566000000E+00  0.10566000000E+00 0.  1.
     999900   -1    0    0    0    0 -0.00000000000E+00 -0.00000000000E+00 -0.74505805969E-08  0.93827000000E+00  0.93827000000E+00 0. -1.
     999902    2    1    2    0    0 -0.23728261774E-01 -0.75748033866E-02  0.45934049480E-02  0.10186020032E+01  0.10182870585E+01 0.  0.
     999903    2    3    3    0    0  0.80011534812E-01 -0.52754762068E-01  0.82364266734E-01  0.12795533868E+00  0.20094418106E-01 0.  0.
         14    1    1    2    0    0  0.23728261774E-01  0.75748033866E-02 -0.45934049480E-02  0.25327996806E-01  0.00000000000E+00 0. -1.
     999901    1    3    3    0    0 -0.10373979659E+00  0.45179958681E-01 -0.77770861787E-01  0.89064666451E+00  0.88000000000E+00 0. -1.
        -11    1    4    4    0    0  0.29901315242E-01 -0.13257838994E-01  0.18061752178E-01  0.37367726192E-01  0.51100000000E-03 0.  1.
         11    1    4    4    0    0  0.50110219570E-01 -0.39496923073E-01  0.64302514556E-01  0.90587612491E-01  0.51100000000E-03 0. -1.
</event>
<event>
 8    1  0.1146431E+005  0.1043930E+01  0.7957747E-01            NaN
         13   -1    0    0    0    0  0.00000000000E+00  0.00000000000E+00  0.74505805969E-08  0.10566000000E+00  0.10566000000E+00 0. -1.
     999900   -1    0    0    0    0 -0.00000000000E+00 -0.00000000000E+00 -0.74505805969E-08  0.93827000000E+00  0.93827000000E+00 0. -1.
     999902    2    1    2    0    0 -0.12468158356E-01 -0.13582315390E-01  0.14815634834E-01  0.10202775731E+01  0.10200033769E+01 0.  0.
     999903    2    3    3    0    0  0.75308496820E-01  0.95617786983E-01 -0.32348617425E-01  0.12794698957E+00  0.22580261526E-01 0.  0.
         14    1    1    2    0    0  0.12468158356E-01  0.13582315390E-01 -0.14815634834E-01  0.23652426931E-01  0.00000000000E+00 0.  1.
     999901    1    3    3    0    0 -0.87776655176E-01 -0.10920010237E+00  0.47164252259E-01  0.89233058350E+00  0.88000000000E+00 0.  1.
        -11    1    4    4    0    0  0.45650088146E-01  0.71056820584E-01 -0.15311272608E-01  0.85835298620E-01  0.51100000000E-03 0.  1.
         11    1    4    4    0    0  0.29658408674E-01  0.24560966399E-01 -0.17037344817E-01  0.42111690953E-01  0.51100000000E-03 0. -1.
</event>
<event>
 8    1  0.1146431E+005  0.1043930E+01  0.7957747E-01            NaN
         13   -1    0    0    0    0  0.00000000000E+00  0.00000000000E+00  0.74505805969E-08  0.10566000000E+00  0.10566000000E+00 0. -1.
     999900   -1    0    0    0    0 -0.00000000000E+00 -0.00000000000E+00 -0.74505805969E-08  0.93827000000E+00  0.93827000000E+00 0. -1.
     999902    2    1    2    0    0 -0.12337977891E-01  0.11569727721E-01 -0.17322065335E-01  0.10197197079E+01  0.10194322657E+01 0.  0.
     999903    2    3    3    0    0 -0.11280217053E+00  0.18276172702E-01  0.60023986116E-01  0.13060754279E+00  0.19927447350E-01 0.  0.
         14    1    1    2    0    0  0.12337977891E-01 -0.11569727721E-01  0.17322065335E-01  0.24210292139E-01  0.00000000000E+00 0. -1.
     999901    1    3    3    0    0  0.10046419264E+00 -0.67064449817E-02 -0.77346051451E-01  0.88911216507E+00  0.88000000000E+00 0. -1.
        -11    1    4    4    0    0 -0.13948043259E-01  0.69222775276E-04  0.14929023039E-01  0.20437454647E-01  0.51100000000E-03 0. -1.
         11    1    4    4    0    0 -0.98854127275E-01  0.18206949927E-01  0.45094963076E-01  0.11017008814E+00  0.51100000000E-03 0.  1.
</event>
<event>
 8    1  0.1146431E+005  0.1043930E+01  0.7957747E-01            NaN
         13   -1    0    0    0    0  0.00000000000E+00  0.00000000000E+00  0.74505805969E-08  0.10566000000E+00  0.10566000000E+00 0. -1.
     999900   -1    0    0    0    0 -0.00000000000E+00 -0.00000000000E+00 -0.74505805969E-08  0.93827000000E+00  0.93827000000E+00 0. -1.
     999902    2    1    2    0    0  0.17963606692E-01 -0.62505869988E-02 -0.12996881335E-01  0.10208935088E+01  0.10206335661E+01 0.  0.
     999903    2    3    3    0    0 -0.13618590312E-01  0.12479804640E+00  0.26621944562E-01  0.12974771215E+00  0.19123872248E-01 0.  0.
         14    1    1    2    0    0 -0.17963606692E-01  0.62505869988E-02  0.12996881335E-01  0.23036491219E-01  0.00000000000E+00 0. -1.
     999901    1    3    3    0    0  0.31582197004E-01 -0.13104863340E+00 -0.39618825896E-01  0.89114579663E+00  0.88000000000E+00 0. -1.
        -11    1    4    4    0    0  0.13298626153E-02  0.54076950400E-01  0.51485376258E-02  0.54340166174E-01  0.51100000000E-03 0. -1.
         11    1    4    4    0    0 -0.14948452927E-01  0.70721095999E-01  0.21473406936E-01  0.75407545979E-01  0.51100000000E-03 0.  1.
</event>
<event>
 8    1  0.1146431E+005  0.1043930E+01  0.7957747E-01            NaN
         13   -1    0    0    0    0  0.00000000000E+00  0.00000000000E+00  0.74505805969E-08  0.10566000000E+00  0.10566000000E+00 0.  1.
     999900   -1    0    0    0    0 -0.00000000000E+00 -0.00000000000E+00 -0.74505805969E-08  0.93827000000E+00  0.93827000000E+00 0. -1.
     999902    2    1    2    0    0 -0.85818804618E-02  0.21726745246E-01  0.52927713455E-03  0.10205637794E+01  0.10202962548E+01 0.  0.
     999903    2    3    3    0    0  0.10456519181E+00 -0.24645637891E-01  0.69551315028E-01  0.12943152232E+00  0.19335116818E-01 0.  0.
         14    1    1    2    0    0  0.85818804618E-02 -0.21726745246E-01 -0.52927713455E-03  0.23366220609E-01  0.00000000000E+00 0. -1.
     999901    1    3    3    0    0 -0.11314707227E+00  0.46372383137E-01 -0.69022037893E-01  0.89113225707E+00  0.88000000000E+00 0. -1.
        -11    1    4    4    0    0  0.29825466625E-01 -0.16134625317E-01  0.20523987553E-01  0.39640632936E-01  0.51100000000E-03 0. -1.
         11    1    4    4    0    0  0.74739725184E-01 -0.85110125734E-02  0.49027327475E-01  0.89790889382E-01  0.51100000000E-03 0.  1.
</event>
<event>
 8    1  0.1146431E+005  0.1043930E+01  0.7957747E-01            NaN
         13   -1    0    0    0    0  0.00000000000E+00  0.00000000000E+00  0.74505805969E-08  0.10566000000E+00  0.10566000000E+00 0. -1.
     999900   -1    0    0    0    0 -0.00000000000E+00 -0.00000000000E+00 -0.74505805969E-08  0.93827000000E+00  0.93827000000E+00 0.  1.
     999902    2    1    2    0    0 -0.65612778223E-02 -0.10678673504E-01 -0.20071763163E-01  0.10202665237E+01  0.10199920682E+01 0.  0.
     999903    2    3    3    0    0  0.59865016893E-01 -0.99554302473E-01  0.55256534707E-01  0.13010604237E+00  0.19478661248E-01 0.  0.
         14    1    1    2    0    0  0.65612778223E-02  0.10678673504E-01  0.20071763163E-01  0.23663476307E-01  0.00000000000E+00 0. -1.
     999901    1    3    3    0    0 -0.66426294715E-01  0.88875628970E-01 -0.75328297871E-01  0.89016048133E+00  0.88000000000E+00 0.  1.
        -11    1    4    4    0    0  0.13145194491E-01 -0.29507594229E-01  0.24183806050E-01  0.40356063379E-01  0.51100000000E-03 0.  1.
         11    1    4    4    0    0  0.46719822402E-01 -0.70046708244E-01  0.31072728657E-01  0.89749978988E-01  0.51100000000E-03 0. -1.
</event>
<event>
 8    1  0.1146431E+005  0.1043930E+01  0.7957747E-01            NaN
         13   -1    0    0    0    0  0.00000000000E+00  0.00000000000E+00  0.74505805969E-08  0.10566000000E+00  0.10566000000E+00 0. -1.
     999900   -1    0    0    0    0 -0.00000000000E+00 -0.00000000000E+00 -0.74505805969E-08  0.93827000000E+00  0.93827000000E+00 0. -1.
     999902    2    1    2    0    0 -0.36559008198E-02  0.15334577330E-01  0.17811816461E-01  0.10201439604E+01  0.10198666209E+01 0.  0.
     999903    2    3    3    0    0  0.37750040218E-01 -0.66310864452E-01 -0.10025826035E+00  0.12755168332E+00  0.19887605936E-01 0.  0.
         14    1    1    2    0    0  0.36559008198E-02 -0.15334577330E-01 -0.17811816461E-01  0.23786039568E-01  0.00000000000E+00 0. -1.
     999901    1    3    3    0    0 -0.41405941038E-01  0.81645441782E-01  0.11807007681E+00  0.89259227711E+00  0.88000000000E+00 0.  1.
        -11    1    4    4    0    0  0.28576061415E-01 -0.61191280613E-01 -0.79762110168E-01  0.10451420692E+00  0.51100000000E-03 0.  1.
         11    1    4    4    0    0  0.91739788031E-02 -0.51195838389E-02 -0.20496150179E-01  0.23037476401E-01  0.51100000000E-03 0. -1.
</event>
<event>
 8    1  0.1146431E+005  0.1043930E+01  0.7957747E-01            NaN
         13   -1    0    0    0    0  0.00000000000E+00  0.00000000000E+00  0.74505805969E-08  0.10566000000E+00  0.10566000000E+00 0.  1.
     999900   -1    0    0    0    0 -0.00000000000E+00 -0.00000000000E+00 -0.74505805969E-08  0.93827000000E+00  0.93827000000E+00 0. -1.
     999902    2    1    2    0    0 -0.16691327783E-01 -0.15665051071E-01 -0.51634579781E-02  0.10204639491E+01  0.10201941069E+01 0.  0.
     999903    2    3    3    0    0 -0.46165424191E-01  0.65803263756E-01  0.10028623952E+00  0.12994418658E+00  0.19153221032E-01 0.  0.
         14    1    1    2    0    0  0.16691327783E-01  0.15665051071E-01  0.51634579781E-02  0.23466050936E-01  0.00000000000E+00 0. -1.
     999901    1    3    3    0    0  0.29474096407E-01 -0.81468314826E-01 -0.10544969750E+00  0.89051976249E+00  0.88000000000E+00 0. -1.
        -11    1    4    4    0    0 -0.16513483978E-01  0.24681013775E-01  0.23237840681E-01  0.37710820126E-01  0.51100000000E-03 0. -1.
         11    1    4    4    0    0 -0.29651940213E-01  0.41122249981E-01  0.77048398840E-01  0.92233366450E-01  0.51100000000E-03 0.  1.
</event>
<event>
 8    1  0.1146431E+005  0.1043930E+01  0.7957747E-01            NaN
         13   -1    0    0    0    0  0.00000000000E+00  0.00000000000E+00  0.74505805969E-08  0.10566000000E+00  0.10566000000E+00 0. -1.
     999900   -1    0    0    0    0 -0.00000000000E+00 -0.00000000000E+00 -0.74505805969E-08  0.93827000000E+00  0.93827000000E+00 0. -1.
     999902    2    1    2    0    0 -0.50900115119E-02  0.20909380238E-02  0.23134565555E-01  0.10201500008E+01  0.10198728037E+01 0.  0.
     999903    2    3    3    0    0 -0.10679481751E+00  0.73690775292E-01 -0.11921232365E-03  0.13109930345E+00  0.18749659773E-01 0.  0.
         14    1    1    2    0    0  0.50900115119E-02 -0.20909380238E-02 -0.23134565555E-01  0.23779999210E-01  0.00000000000E+00 0.  1.
     999901    1    3    3    0    0  0.10170480600E+00 -0.71599837268E-01  0.23253777878E-01  0.88905069734E+00  0.88000000000E+00 0.  1.
        -11    1    4    4    0    0 -0.71116158541E-01  0.38164877589E-01  0.14195357111E-02  0.80723863198E-01  0.51100000000E-03 0. -1.
         11    1    4    4    0    0 -0.35678658974E-01  0.35525897703E-01 -0.15387480347E-02  0.50375440249E-01  0.51100000000E-03 0.  1.
</event>
<event>
 8    1  0.1146431E+005  0.1043930E+01  0.7957747E-01            NaN
         13   -1    0    0    0    0  0.00000000000E+00  0.00000000000E+00  0.74505805969E-08  0.10566000000E+00  0.10566000000E+00 0. -1.
     999900   -1    0    0    0    0 -0.00000000000E+00 -0.00000000000E+00 -0.74505805969E-08  0.93827000000E+00  0.93827000000E+00 0. -1.
     999902    2    1    2    0    0 -0.14402556463E-01 -0.19394285802E-01 -0.13610471975E-02  0.10197344549E+01  0.10194473670E+01 0.  0.
     999903    2    3    3    0    0 -0.70658646747E-01  0.74481899100E-01  0.75363100175E-01  0.12964227955E+00  0.24234812257E-01 0.  0.
         14    1    1    2    0    0  0.14402556463E-01  0.19394285802E-01  0.13610471975E-02  0.24195545125E-01  0.00000000000E+00 0.  1.
     999901    1    3    3    0    0  0.56256090284E-01 -0.93876184902E-01 -0.76724147372E-01  0.89009217533E+00  0.88000000000E+00 0. -1.
        -11    1    4    4    0    0 -0.42240461300E-01  0.59904535483E-01  0.56465414571E-01  0.92527909875E-01  0.51100000000E-03 0. -1.
         11    1    4    4    0    0 -0.28418185447E-01  0.14577363618E-01  0.18897685604E-01  0.37114369674E-01  0.51100000000E-03 0.  1.
</event>
<event>
 8    1  0.1146431E+005  0.1043930E+01  0.7957747E-01            NaN
         13   -1    0    0    0    0  0.00000000000E+00  0.00000000000E+00  0.74505805969E-08  0.10566000000E+00  0.10566000000E+00 0. -1.
     999900   -1    0    0    0    0 -0.00000000000E+00 -0.00000000000E+00 -0.74505805969E-08  0.93827000000E+00  0.93827000000E+00 0. -1.
     999902    2    1    2    0    0  0.29916448852E-02 -0.23284373735E-01 -0.29044480954E-02  0.10202752369E+01  0.10200009859E+01 0.  0.
     999903    2    3    3    0    0 -0.37152160844E-01 -0.12649130679E+00 -0.97824027162E-03  0.13333278867E+00  0.19908335735E-01 0.  0.
         14    1    1    2    0    0 -0.29916448852E-02  0.23284373735E-01  0.29044480954E-02  0.23654763117E-01  0.00000000000E+00 0.  1.
     999901    1    3    3    0    0  0.40143805729E-01  0.10320693305E+00 -0.19262078238E-02  0.88694244821E+00  0.88000000000E+00 0. -1.
        -11    1    4    4    0    0  0.52101656916E-03 -0.24233103447E-01 -0.22384093943E-02  0.24347204327E-01  0.51100000000E-03 0.  1.
         11    1    4    4    0    0 -0.37673177413E-01 -0.10225820334E+00  0.12601691227E-02  0.10898558434E+00  0.51100000000E-03 0. -1.
</event>
<event>
 8    1  0.1146431E+005  0.1043930E+01  0.7957747E-01            NaN
         13   -1    0    0    0    0  0.00000000000E+00  0.00000000000E+00  0.74505805969E-08  0.10566000000E+00  0.10566000000E+00 0. -1.
     999900   -1    0    0    0    0 -0.00000000000E+00 -0.00000000000E+00 -0.74505805969E-08  0.93827000000E+00  0.93827000000E+00 0.  1.
     999902    2    1    2    0    0 -0.11846040022E-01 -0.11292435683E-01 -0.18386774689E-01  0.10193145323E+01  0.10190172690E+01 0.  0.
     999903    2    3    3    0    0 -0.87357807741E-01  0.23032869103E-01  0.89703504553E-01  0.12882940490E+00  0.19707795537E-01 0.  0.
         14    1    1    2    0    0  0.11846040022E-01  0.11292435683E-01  0.18386774689E-01  0.24615467725E-01  0.00000000000E+00 0. -1.
     999901    1    3    3    0    0  0.75511767719E-01 -0.34325304787E-01 -0.10809027924E+00  0.89048512738E+00  0.88000000000E+00 0.  1.
        -11    1    4    4    0    0 -0.62812595535E-01  0.85318606625E-02  0.68240014079E-01  0.93140621894E-01  0.51100000000E-03 0.  1.
         11    1    4    4    0    0 -0.24545212205E-01  0.14501008441E-01  0.21463490474E-01  0.35688783005E-01  0.51100000000E-03 0. -1.
</event>
<event>
 8    1  0.1146431E+005  0.1043930E+01  0.7957747E-01            NaN
         13   -1    0    0    0    0  0.00000000000E+00  0.00000000000E+00  0.74505805969E-08  0.10566000000E+00  0.10566000000E+00 0. -1.
     999900   -1    0    0    0    0 -0.00000000000E+00 -0.00000000000E+00 -0.74505805969E-08  0.93827000000E+00  0.93827000000E+00 0.  1.
     999902    2    1    2    0    0  0.67060396738E-02  0.14015467598E-02  0.23043905387E-01  0.10198892663E+01  0.10196058840E+01 0.  0.
     999903    2    3    3    0    0 -0.77986510278E-01 -0.33541905151E-01  0.98914595946E-01  0.13188575587E+00  0.20069881010E-01 0.  0.
         14    1    1    2    0    0 -0.67060396738E-02 -0.14015467598E-02 -0.23043905387E-01  0.24040733701E-01  0.00000000000E+00 0.  1.
     999901    1    3    3    0    0  0.84692549952E-01  0.34943451910E-01 -0.75870690559E-01  0.88800351043E+00  0.88000000000E+00 0.  1.
        -11    1    4    4    0    0 -0.68890237030E-01 -0.22869028159E-01  0.88205195556E-01  0.11423342265E+00  0.51100000000E-03 0. -1.
         11    1    4    4    0    0 -0.90962732476E-02 -0.10672876991E-01  0.10709400389E-01  0.17652333216E-01  0.51100000000E-03 0.  1.
</event>
<event>
 8    1  0.1146431E+005  0.1043930E+01  0.7957747E-01            NaN
         13   -1    0    0    0    0  0.00000000000E+00  0.00000000000E+00  0.74505805969E-08  0.10566000000E+00  0.10566000000E+00 0.  1.
     999900   -1    0    0    0    0 -0.00000000000E+00 -0.00000000000E+00 -0.74505805969E-08  0.93827000000E+00  0.93827000000E+00 0.  1.
     999902    2    1    2    0    0 -0.16706131633E-01 -0.13572636836E-01 -0.86274718264E-02  0.10207406797E+01  0.10204772367E+01 0.  0.
     999903    2    3    3    0    0  0.88288646656E-01 -0.77972949652E-01 -0.53566994196E-01  0.13102675692E+00  0.20589369971E-01 0.  0.
         14    1    1    2    0    0  0.16706131633E-01  0.13572636836E-01  0.86274718264E-02  0.23189320278E-01  0.00000000000E+00 0.  1.
     999901    1    3    3    0    0 -0.10499477829E+00  0.64400312815E-01  0.44939522369E-01  0.88971392280E+00  0.88000000000E+00 0. -1.
        -11    1    4    4    0    0  0.62621012172E-01 -0.63068177131E-01 -0.32534462180E-01  0.94645329956E-01  0.51100000000E-03 0. -1.
         11    1    4    4    0    0  0.25667634485E-01 -0.14904772521E-01 -0.21032532016E-01  0.36381426964E-01  0.51100000000E-03 0.  1.
</event>
<event>
 8    1  0.1146431E+005  0.1043930E+01  0.7957747E-01            NaN
         13   -1    0    0    0    0  0.00000000000E+00  0.00000000000E+00  0.74505805969E-08  0.10566000000E+00  0.10566000000E+00 0.  1.
     999900   -1    0    0    0    0 -0.00000000000E+00 -0.00000000000E+00 -0.74505805969E-08  0.93827000000E+00  0.93827000000E+00 0. -1.
     999902    2    1    2    0    0  0.22570632244E-01  0.10095023070E-02  0.39407405984E-02  0.10209957032E+01  0.10207380878E+01 0.  0.
     999903    2    3    3    0    0  0.75588315869E-01 -0.31826628120E-01  0.10320880067E+00  0.13322138838E+00  0.19218585659E-01 0.  0.
         14    1    1    2    0    0 -0.22570632244E-01 -0.10095023070E-02 -0.39407405984E-02  0.22934296834E-01  0.00000000000E+00 0. -1.
     999901    1    3    3    0    0 -0.53017683626E-01  0.32836130427E-01 -0.99268060067E-01  0.88777431478E+00  0.88000000000E+00 0. -1.
        -11    1    4    4    0    0  0.33680573601E-01 -0.24438427152E-01  0.53626620878E-01  0.67879992248E-01  0.51100000000E-03 0.  1.
         11    1    4    4    0    0  0.41907742268E-01 -0.73882009679E-02  0.49582179788E-01  0.65341396136E-01  0.51100000000E-03 0. -1.
</event>
<event>
 8    1  0.1146431E+005  0.1043930E+01  0.7957747E-01            NaN
         13   -1    0    0    0    0  0.00000000000E+00  0.00000000000E+00  0.74505805969E-08  0.10566000000E+00  0.10566000000E+00 0. -1.
     999900   -1    0    0    0    0 -0.00000000000E+00 -0.00000000000E+00 -0.74505805969E-08  0.93827000000E+00  0.93827000000E+00 0.  1.
     999902    2    1    2    0    0 -0.19768247856E-01 -0.14868241082E-02  0.13008410839E-01  0.10202189684E+01  0.10199433957E+01 0.  0.
     999903    2    3    3    0    0  0.58562480795E-01  0.10057824904E+00  0.52446950330E-01  0.12998957061E+00  0.24516474678E-01 0.  0.
         14    1    1    2    0    0  0.19768247856E-01  0.14868241082E-02 -0.13008410839E-01  0.23711031647E-01  0.00000000000E+00 0.  1.
     999901    1    3    3    0    0 -0.78330728651E-01 -0.10206507315E+00 -0.39438539492E-01  0.89022939774E+00  0.88000000000E+00 0. -1.
        -11    1    4    4    0    0  0.71060395494E-02  0.55404712683E-02 -0.15805385892E-02  0.91625238436E-02  0.51100000000E-03 0. -1.
         11    1    4    4    0    0  0.51456441246E-01  0.95037777776E-01  0.54027488920E-01  0.12082704677E+00  0.51100000000E-03 0.  1.
</event>
<event>
 8    1  0.1146431E+005  0.1043930E+01  0.7957747E-01            NaN
         13   -1    0    0    0    0  0.00000000000E+00  0.00000000000E+00  0.74505805969E-08  0.10566000000E+00  0.10566000000E+00 0. -1.
     999900   -1    0    0    0    0 -0.00000000000E+00 -0.00000000000E+00 -0.74505805969E-08  0.93827000000E+00  0.93827000000E+00 0. -1.
     999902    2    1    2    0    0 -0.18555948240E-01 -0.12270644765E-01  0.68197913094E-02  0.10206619642E+01  0.10203967089E+01 0.  0.
     999903    2    3    3    0    0 -0.82971389491E-01 -0.73386466692E-01 -0.70218817025E-01  0.13284473076E+00  0.21147464592E-01 0.  0.
         14    1    1    2    0    0  0.18555948240E-01  0.12270644765E-01 -0.68197913094E-02  0.23268035833E-01  0.00000000000E+00 0. -1.
     999901    1    3    3    0    0  0.64415441251E-01  0.61115821927E-01  0.77038608334E-01  0.88781723341E+00  0.88000000000E+00 0.  1.
        -11    1    4    4    0    0 -0.64749006900E-01 -0.52263224609E-01 -0.61961904705E-01  0.10374689054E+00  0.51100000000E-03 0. -1.
         11    1    4    4    0    0 -0.18222382591E-01 -0.21123242083E-01 -0.82569123197E-02  0.29097840219E-01  0.51100000000E-03 0.  1.
</event>
<event>
 8    1  0.1714515E+005  0.1043930E+01  0.7957747E-01            NaN
         13   -1    0    0    0    0  0.00000000000E+00  0.00000000000E+00  0.74505805969E-08  0.10566000000E+00  0.10566000000E+00 0.  1.
     999900   -1    0    0    0    0 -0.00000000000E+00 -0.00000000000E+00 -0.74505805969E-08  0.93827000000E+00  0.93827000000E+00 0.  1.
     999902    2    1    2    0    0  0.11390375330E-01  0.48454930997E-03  0.19638741387E-01  0.10212219485E+01  0.10209694474E+01 0.  0.
     999903    2    3    3    0    0 -0.79417761113E-02  0.12351055319E+00 -0.35230252490E-01  0.13076154166E+00  0.23226741697E-01 0.  0.
         14    1    1    2    0    0 -0.11390375330E-01 -0.48454930997E-03 -0.19638741387E-01  0.22708051468E-01  0.00000000000E+00 0. -1.
     999901    1    3    3    0    0  0.19332151441E-01 -0.12302600388E+00  0.54868993877E-01  0.89046040687E+00  0.88000000000E+00 0.  1.
        -11    1    4    4    0    0 -0.14498267075E-01  0.51132987239E-01 -0.17451290146E-01  0.55942745561E-01  0.51100000000E-03 0. -1.
         11    1    4    4    0    0  0.65564909636E-02  0.72377565955E-01 -0.17778962344E-01  0.74818796103E-01  0.51100000000E-03 0.  1.
</event>
<event>
 8    1  0.1146431E+005  0.1043930E+01  0.7957747E-01            NaN
         13   -1    0    0    0    0  0.00000000000E+00  0.00000000000E+00  0.74505805969E-08  0.10566000000E+00  0.10566000000E+00 0. -1.
     999900   -1    0    0    0    0 -0.00000000000E+00 -0.00000000000E+00 -0.74505805969E-08  0.93827000000E+00  0.93827000000E+00 0.  1.
     999902    2    1    2    0    0 -0.11613573069E-01 -0.12281931521E-01  0.16473842738E-01  0.10203268558E+01  0.10200538144E+01 0.  0.
     999903    2    3    3    0    0 -0.70288525020E-01  0.45697125233E-01  0.10046590985E+00  0.13248734984E+00  0.20755597358E-01 0.  0.
         14    1    1    2    0    0  0.11613573069E-01  0.12281931521E-01 -0.16473842738E-01  0.23603144195E-01  0.00000000000E+00 0. -1.
     999901    1    3    3    0    0  0.58674951951E-01 -0.57979056754E-01 -0.83992067115E-01  0.88783950596E+00  0.88000000000E+00 0.  1.
        -11    1    4    4    0    0 -0.38405057992E-01  0.36547034289E-01  0.57635534675E-01  0.78311877598E-01  0.51100000000E-03 0.  1.
         11    1    4    4    0    0 -0.31883467028E-01  0.91500909442E-02  0.42830375178E-01  0.54175472245E-01  0.51100000000E-03 0. -1.
</event>
<event>
 8    1  0.1146431E+005  0.1043930E+01  0.7957747E-01            NaN
         13   -1    0    0    0    0  0.00000000000E+00  0.00000000000E+00  0.74505805969E-08  0.10566000000E+00  0.10566000000E+00 0.  1.
     999900   -1    0    0    0    0 -0.00000000000E+00 -0.00000000000E+00 -0.74505805969E-08  0.93827000000E+00  0.93827000000E+00 0.  1.
     999902    2    1    2    0    0 -0.22376639120E-01  0.76034790032E-02 -0.72391123587E-02  0.10192129691E+01  0.10189132174E+01 0.  0.
     999903    2    3    3    0    0  0.66328227253E-01 -0.21767936428E-01 -0.10628895871E+00  0.12874000179E+00  0.20084036687E-01 0.  0.
         14    1    1    2    0    0  0.22376639120E-01 -0.76034790032E-02  0.72391123587E-02  0.24717030950E-01  0.00000000000E+00 0.  1.
     999901    1    3    3    0    0 -0.88704866373E-01  0.29371415431E-01  0.99049846352E-01  0.89047296726E+00  0.88000000000E+00 0.  1.
        -11    1    4    4    0    0  0.20827078605E-01 -0.72386279553E-03 -0.44727828483E-01  0.49347045934E-01  0.51100000000E-03 0.  1.
         11    1    4    4    0    0  0.45501148648E-01 -0.21044073633E-01 -0.61561130227E-01  0.79392955854E-01  0.51100000000E-03 0. -1.
</event>
<event>
 8    1  0.1146431E+005  0.1043930E+01  0.7957747E-01            NaN
         13   -1    0    0    0    0  0.00000000000E+00  0.00000000000E+00  0.74505805969E-08  0.10566000000E+00  0.10566000000E+00 0. -1.
     999900   -1    0    0    0    0 -0.00000000000E+00 -0.00000000000E+00 -0.74505805969E-08  0.93827000000E+00  0.93827000000E+00 0. -1.
     999902    2    1    2    0    0 -0.18333452544E-01 -0.13978413876E-02  0.14374840609E-01  0.10205910736E+01  0.10203241809E+01 0.  0.
     999903    2    3    3    0    0  0.14824910943E-01  0.36683419306E-01  0.12443066555E+00  0.13229948629E+00  0.21323984342E-01 0.  0.
         14    1    1    2    0    0  0.18333452544E-01  0.13978413876E-02 -0.14374840609E-01  0.23338926395E-01  0.00000000000E+00 0.  1.
     999901    1    3    3    0    0 -0.33158363487E-01 -0.38081260694E-01 -0.11005582494E+00  0.88829158731E+00  0.88000000000E+00 0. -1.
        -11    1    4    4    0    0  0.19777718018E-02  0.30591681537E-01  0.88085384456E-01  0.93268744156E-01  0.51100000000E-03 0.  1.
         11    1    4    4    0    0  0.12847139141E-01  0.60917377689E-02  0.36345281092E-01  0.39030742138E-01  0.51100000000E-03 0. -1.
</event>
<event>
 8    1  0.1146431E+005  0.1043930E+01  0.7957747E-01            NaN
         13   -1    0    0    0    0  0.00000000000E+00  0.00000000000E+00  0.74505805969E-08  0.10566000000E+00  0.10566000000E+00 0. -1.
     999900   -1    0    0    0    0 -0.00000000000E+00 -0.00000000000E+00 -0.74505805969E-08  0.93827000000E+00  0.93827000000E+00 0.  1.
     999902    2    1    2    0    0 -0.15242843710E-01 -0.66831529801E-02  0.17717207286E-01  0.10196213955E+01  0.10193315859E+01 0.  0.
     999903    2    3    3    0    0 -0.38043598670E-01 -0.86728228201E-01  0.90748781770E-01  0.13268244645E+00  0.20004730351E-01 0.  0.
         14    1    1    2    0    0  0.15242843710E-01  0.66831529801E-02 -0.17717207286E-01  0.24308604487E-01  0.00000000000E+00 0.  1.
     999901    1    3    3    0    0  0.22800754960E-01  0.80045075221E-01 -0.73031574484E-01  0.88693894906E+00  0.88000000000E+00 0. -1.
        -11    1    4    4    0    0 -0.21380163366E-01 -0.38334690074E-01  0.29625389582E-01  0.52958329633E-01  0.51100000000E-03 0.  1.
         11    1    4    4    0    0 -0.16663435303E-01 -0.48393538127E-01  0.61123392188E-01  0.79724116816E-01  0.51100000000E-03 0. -1.
</event>
<event>
 8    1  0.1146431E+005  0.1043930E+01  0.7957747E-01            NaN
         13   -1    0    0    0    0  0.00000000000E+00  0.00000000000E+00  0.74505805969E-08  0.10566000000E+00  0.10566000000E+00 0. -1.
     999900   -1    0    0    0    0 -0.00000000000E+00 -0.00000000000E+00 -0.74505805969E-08  0.93827000000E+00  0.93827000000E+00 0.  1.
     999902    2    1    2    0    0  0.10848628084E-01 -0.48762826131E-02  0.20873058491E-01  0.10199059405E+01  0.10196229558E+01 0.  0.
     999903    2    3    3    0    0 -0.17930975478E-01 -0.12558909696E+00  0.27022091638E-01  0.13117782701E+00  0.19577734916E-01 0.  0.
         14    1    1    2    0    0 -0.10848628084E-01  0.48762826131E-02 -0.20873058491E-01  0.24024059486E-01  0.00000000000E+00 0.  1.
     999901    1    3    3    0    0  0.28779603563E-01  0.12071281435E+00 -0.61490331469E-02  0.88872811351E+00  0.88000000000E+00 0.  1.
        -11    1    4    4    0    0 -0.20574057910E-01 -0.11155829150E+00  0.28040238692E-01  0.11685486882E+00  0.51100000000E-03 0.  1.
         11    1    4    4    0    0  0.26430824312E-02 -0.14030805464E-01 -0.10181470538E-02  0.14322958184E-01  0.51100000000E-03 0. -1.
</event>
<event>
 8    1  0.1146431E+005  0.1043930E+01  0.7957747E-01            NaN
         13   -1    0    0    0    0  0.00000000000E+00  0.00000000000E+00  0.74505805969E-08  0.10566000000E+00  0.10566000000E+00 0.  1.
     999900   -1    0    0    0    0 -0.00000000000E+00 -0.00000000000E+00 -0.74505805969E-08  0.93827000000E+00  0.93827000000E+00 0. -1.
     999902    2    1    2    0    0  0.64567871033E-02 -0.11659422592E-01 -0.26315994294E-01  0.10144314612E+01  0.10140024782E+01 0.  0.
     999903    2    3    3    0    0 -0.84225280045E-01 -0.88677454037E-01 -0.26957003568E-01  0.12642502804E+00  0.17292166422E-01 0.  0.
         14    1    1    2    0    0 -0.64567871033E-02  0.11659422592E-01  0.26315994294E-01  0.29498538787E-01  0.00000000000E+00 0.  1.
     999901    1    3    3    0    0  0.90682067148E-01  0.77018031445E-01  0.64100927335E-03  0.88800643318E+00  0.88000000000E+00 0.  1.
        -11    1    4    4    0    0 -0.41247702596E-01 -0.35992401069E-01 -0.49947930437E-02  0.54973038689E-01  0.51100000000E-03 0.  1.
         11    1    4    4    0    0 -0.42977577449E-01 -0.52685052968E-01 -0.21962210524E-01  0.71451989347E-01  0.51100000000E-03 0. -1.
</event>
<event>
 8    1  0.1146431E+005  0.1043930E+01  0.7957747E-01            NaN
         13   -1    0    0    0    0  0.00000000000E+00  0.00000000000E+00  0.74505805969E-08  0.10566000000E+00  0.10566000000E+00 0. -1.
     999900   -1    0    0    0    0 -0.00000000000E+00 -0.00000000000E+00 -0.74505805969E-08  0.93827000000E+00  0.93827000000E+00 0. -1.
     999902    2    1    2    0    0  0.22949922208E-01  0.58518137081E-02 -0.65454792267E-02  0.10193579437E+01  0.10190617407E+01 0.  0.
     999903    2    3    3    0    0  0.32493460012E-01 -0.58997101004E-01 -0.11050861986E+00  0.13081711994E+00  0.19091383852E-01 0.  0.
         14    1    1    2    0    0 -0.22949922208E-01 -0.58518137081E-02  0.65454792267E-02  0.24572056310E-01  0.00000000000E+00 0.  1.
     999901    1    3    3    0    0 -0.95435378042E-02  0.64848914712E-01  0.10396314063E+00  0.88854082375E+00  0.88000000000E+00 0.  1.
        -11    1    4    4    0    0  0.18511377999E-01 -0.23146088498E-01 -0.63398756092E-01  0.69986255245E-01  0.51100000000E-03 0.  1.
         11    1    4    4    0    0  0.13982082013E-01 -0.35851012506E-01 -0.47109863765E-01  0.60830864699E-01  0.51100000000E-03 0. -1.
</event>
<event>
 8    1  0.1146431E+005  0.1043930E+01  0.7957747E-01            NaN
         13   -1    0    0    0    0  0.00000000000E+00  0.00000000000E+00  0.74505805969E-08  0.10566000000E+00  0.10566000000E+00 0.  1.
     999900   -1    0    0    0    0 -0.00000000000E+00 -0.00000000000E+00 -0.74505805969E-08  0.93827000000E+00  0.93827000000E+00 0. -1.
     999902    2    1    2    0    0  0.18353571871E-01 -0.58813667510E-02 -0.13481527269E-01  0.10204098883E+01  0.10201387869E+01 0.  0.
     999903    2    3    3    0    0 -0.16166045006E-02 -0.72632898760E-01 -0.10904341008E+00  0.13249849162E+00  0.19678252129E-01 0.  0.
         14    1    1    2    0    0 -0.18353571871E-01  0.58813667510E-02  0.13481527269E-01  0.23520111666E-01  0.00000000000E+00 0. -1.
     999901    1    3    3    0    0  0.19970176372E-01  0.66751532009E-01  0.95561882812E-01  0.88791139672E+00  0.88000000000E+00 0.  1.
        -11    1    4    4    0    0  0.10455885775E-02 -0.31192769028E-01 -0.30444225855E-01  0.43602684597E-01  0.51100000000E-03 0. -1.
         11    1    4    4    0    0 -0.26621930782E-02 -0.41440129731E-01 -0.78599184226E-01  0.88895807022E-01  0.51100000000E-03 0.  1.
</event>
<event>
 8    1  0.1146431E+005  0.1043930E+01  0.7957747E-01            NaN
         13   -1    0    0    0    0  0.00000000000E+00  0.00000000000E+00  0.74505805969E-08  0.10566000000E+00  0.10566000000E+00 0.  1.
     999900   -1    0    0    0    0 -0.00000000000E+00 -0.00000000000E+00 -0.74505805969E-08  0.93827000000E+00  0.93827000000E+00 0. -1.
     999902    2    1    2    0    0 -0.22581583572E-01  0.38328579028E-02  0.30279746443E-02  0.10208261616E+01  0.10205646795E+01 0.  0.
     999903    2    3    3    0    0  0.10781127706E+00 -0.63912011940E-01  0.20257399121E-01  0.12847616385E+00  0.19691260162E-01 0.  0.
         14    1    1    2    0    0  0.22581583572E-01 -0.38328579028E-02 -0.30279746443E-02  0.23103838356E-01  0.00000000000E+00 0.  1.
     999901    1    3    3    0    0 -0.13039286063E+00  0.67744869843E-01 -0.17229424477E-01  0.89234999779E+00  0.88000000000E+00 0. -1.
        -11    1    4    4    0    0  0.36660011086E-01 -0.11283309433E-01  0.67403812603E-02  0.38948213632E-01  0.51100000000E-03 0.  1.
         11    1    4    4    0    0  0.71151265975E-01 -0.52628702507E-01  0.13517017861E-01  0.89527950219E-01  0.51100000000E-03 0. -1.
</event>
<event>
 8    1  0.1146431E+005  0.1043930E+01  0.7957747E-01            NaN
         13   -1    0    0    0    0  0.00000000000E+00  0.00000000000E+00  0.74505805969E-08  0.10566000000E+00  0.10566000000E+00 0.  1.
     999900   -1    0    0    0    0 -0.00000000000E+00 -0.00000000000E+00 -0.74505805969E-08  0.93827000000E+00  0.93827000000E+00 0. -1.
     999902    2    1    2    0    0  0.13076957843E-01  0.47980057702E-03 -0.20967494104E-01  0.10192141580E+01  0.10189144356E+01 0.  0.
     999903    2    3    3    0    0 -0.17685612342E-01 -0.11779061556E+00  0.44004737436E-01  0.12839677050E+00  0.19023768288E-01 0.  0.
         14    1    1    2    0    0 -0.13076957843E-01 -0.47980057702E-03  0.20967494104E-01  0.24715841965E-01  0.00000000000E+00 0.  1.
     999901    1    3    3    0    0  0.30762570185E-01  0.11827041614E+00 -0.64972231540E-01  0.89081738753E+00  0.88000000000E+00 0. -1.
        -11    1    4    4    0    0 -0.90200418641E-02 -0.89392240457E-01  0.25455682404E-01  0.93384081603E-01  0.51100000000E-03 0. -1.
         11    1    4    4    0    0 -0.86655704776E-02 -0.28398375107E-01  0.18549055032E-01  0.35012688900E-01  0.51100000000E-03 0.  1.
</event>
<event>
 8    1  0.1146431E+005  0.1043930E+01  0.7957747E-01            NaN
         13   -1    0    0    0    0  0.00000000000E+00  0.00000000000E+00  0.74505805969E-08  0.10566000000E+00  0.10566000000E+00 0.  1.
     999900   -1    0    0    0    0 -0.00000000000E+00 -0.00000000000E+00 -0.74505805969E-08  0.93827000000E+00  0.93827000000E+00 0. -1.
     999902    2    1    2    0    0  0.22904149223E-01 -0.75620858644E-02 -0.11572165631E-02  0.10197820323E+01  0.10194960858E+01 0.  0.
     999903    2    3    3    0    0  0.57560689116E-01  0.36395681830E-01 -0.11034842479E+00  0.13126862156E+00  0.20415620629E-01 0.  0.
         14    1    1    2    0    0 -0.22904149223E-01  0.75620858644E-02  0.11572165631E-02  0.24147967708E-01  0.00000000000E+00 0. -1.
     999901    1    3    3    0    0 -0.34656539893E-01 -0.43957767694E-01  0.10919120822E+00  0.88851341073E+00  0.88000000000E+00 0.  1.
        -11    1    4    4    0    0  0.19883038565E-01  0.21724636921E-01 -0.58686872764E-01  0.65663576112E-01  0.51100000000E-03 0. -1.
         11    1    4    4    0    0  0.37677650551E-01  0.14671044908E-01 -0.51661552023E-01  0.65605045448E-01  0.51100000000E-03 0.  1.
</event>
<event>
 8    1  0.1146431E+005  0.1043930E+01  0.7957747E-01            NaN
         13   -1    0    0    0    0  0.00000000000E+00  0.00000000000E+00  0.74505805969E-08  0.10566000000E+00  0.10566000000E+00 0.  1.
     999900   -1    0    0    0    0 -0.00000000000E+00 -0.00000000000E+00 -0.74505805969E-08  0.93827000000E+00  0.93827000000E+00 0. -1.
     999902    2    1    2    0    0 -0.20364785458E-01 -0.39518739941E-02  0.10204538120E-01  0.10208112978E+01  0.10205494752E+01 0.  0.
     999903    2    3    3    0    0  0.48471714814E-01  0.13407480422E-01  0.11933442821E+00  0.13123322707E+00  0.21264676393E-01 0.  0.
         14    1    1    2    0    0  0.20364785458E-01  0.39518739941E-02 -0.10204538120E-01  0.23118702235E-01  0.00000000000E+00 0. -1.
     999901    1    3    3    0    0 -0.68836500272E-01 -0.17359354417E-01 -0.10912989009E+00  0.88957807070E+00  0.88000000000E+00 0. -1.
        -11    1    4    4    0    0  0.29264131577E-01  0.15080362478E-01  0.92511615173E-01  0.98196063018E-01  0.51100000000E-03 0. -1.
         11    1    4    4    0    0  0.19207583237E-01 -0.16728820560E-02  0.26822813036E-01  0.33037164048E-01  0.51100000000E-03 0.  1.
</event>
<event>
 8    1  0.1146431E+005  0.1043930E+01  0.7957747E-01            NaN
         13   -1    0    0    0    0  0.00000000000E+00  0.00000000000E+00  0.74505805969E-08  0.10566000000E+00  0.10566000000E+00 0.  1.
     999900   -1    0    0    0    0 -0.00000000000E+00 -0.00000000000E+00 -0.74505805969E-08  0.93827000000E+00  0.93827000000E+00 0.  1.
     999902    2    1    2    0    0  0.19607482761E-01  0.69001666716E-02  0.77253542450E-02  0.10217546358E+01  0.10215139690E+01 0.  0.
     999903    2    3    3    0    0 -0.28494843666E-01  0.35275891765E-01  0.12363750868E+00  0.13239832747E+00  0.13665244513E-01 0.  0.
         14    1    1    2    0    0 -0.19607482761E-01 -0.69001666716E-02 -0.77253542450E-02  0.22175364225E-01  0.00000000000E+00 0.  1.
     999901    1    3    3    0    0  0.48102326427E-01 -0.28375725094E-01 -0.11591215444E+00  0.88935630831E+00  0.88000000000E+00 0.  1.
        -11    1    4    4    0    0 -0.12648756120E-01  0.18409798003E-01  0.42387608731E-01  0.47915364851E-01  0.51100000000E-03 0. -1.
         11    1    4    4    0    0 -0.15846087546E-01  0.16866093762E-01  0.81249899950E-01  0.84482962615E-01  0.51100000000E-03 0.  1.
</event>
<event>
 8    1  0.1146431E+005  0.1043930E+01  0.7957747E-01            NaN
         13   -1    0    0    0    0  0.00000000000E+00  0.00000000000E+00  0.74505805969E-08  0.10566000000E+00  0.10566000000E+00 0.  1.
     999900   -1    0    0    0    0 -0.00000000000E+00 -0.00000000000E+00 -0.74505805969E-08  0.93827000000E+00  0.93827000000E+00 0. -1.
     999902    2    1    2    0    0  0.38003506550E-03 -0.19133895301E-01 -0.72706905943E-02  0.10234577427E+01  0.10232529686E+01 0.  0.
     999903    2    3    3    0    0 -0.12796266689E+00 -0.25958248726E-01  0.20606515595E-01  0.13368498546E+00  0.19969277867E-01 0.  0.
         14    1    1    2    0    0 -0.38003506550E-03  0.19133895301E-01  0.72706905943E-02  0.20472257270E-01  0.00000000000E+00 0.  1.
     999901    1    3    3    0    0  0.12834270196E+00  0.68243534249E-02 -0.27877206190E-01  0.88977275726E+00  0.88000000000E+00 0. -1.
        -11    1    4    4    0    0 -0.57891572010E-01 -0.28733813198E-02  0.13863544732E-01  0.59599911271E-01  0.51100000000E-03 0.  1.
         11    1    4    4    0    0 -0.70071094882E-01 -0.23084867406E-01  0.67429708633E-02  0.74085074193E-01  0.51100000000E-03 0. -1.
</event>
<event>
 8    1  0.1146431E+005  0.1043930E+01  0.7957747E-01            NaN
         13   -1    0    0    0    0  0.00000000000E+00  0.00000000000E+00  0.74505805969E-08  0.10566000000E+00  0.10566000000E+00 0. -1.
     999900   -1    0    0    0    0 -0.00000000000E+00 -0.00000000000E+00 -0.74505805969E-08  0.93827000000E+00  0.93827000000E+00 0. -1.
     999902    2    1    2    0    0 -0.86371587364E-02  0.22105139969E-01 -0.10402551472E-02  0.10201745826E+01  0.10198979651E+01 0.  0.
     999903    2    3    3    0    0  0.93949257844E-01 -0.66966392543E-01  0.51976165300E-01  0.12817208733E+00  0.20386304990E-01 0.  0.
         14    1    1    2    0    0  0.86371587364E-02 -0.22105139969E-01  0.10402551472E-02  0.23755417379E-01  0.00000000000E+00 0. -1.
     999901    1    3    3    0    0 -0.10258641658E+00  0.89071532512E-01 -0.53016420448E-01  0.89200249529E+00  0.88000000000E+00 0. -1.
        -11    1    4    4    0    0  0.72691164088E-01 -0.47815039329E-01  0.47733042769E-01  0.99242066764E-01  0.51100000000E-03 0. -1.
         11    1    4    4    0    0  0.21258093756E-01 -0.19151353214E-01  0.42431225310E-02  0.28930020564E-01  0.51100000000E-03 0.  1.
</event>
<event>
 8    1  0.1146431E+005  0.1043930E+01  0.7957747E-01            NaN
         13   -1    0    0    0    0  0.00000000000E+00  0.00000000000E+00  0.74505805969E-08  0.10566000000E+00  0.10566000000E+00 0. -1.
     999900   -1    0    0    0    0 -0.00000000000E+00 -0.00000000000E+00 -0.74505805969E-08  0.93827000000E+00  0.93827000000E+00 0. -1.
     999902    2    1    2    0    0 -0.49455769390E-02 -0.14872602539E-01 -0.16672640782E-01  0.10210470372E+01  0.10207905868E+01 0.  0.
     999903    2    3    3    0    0 -0.26231096366E-02 -0.13208283803E-01  0.12716044162E+00  0.12936541270E+00  0.19603383004E-01 0.  0.
         14    1    1    2    0    0  0.49455769390E-02  0.14872602539E-01  0.16672640782E-01  0.22882962836E-01  0.00000000000E+00 0. -1.
     999901    1    3    3    0    0 -0.23224673024E-02 -0.16643187356E-02 -0.14383308240E+00  0.89168162446E+00  0.88000000000E+00 0. -1.
        -11    1    4    4    0    0 -0.61439917283E-02 -0.12311043242E-01  0.43553366788E-01  0.45677864438E-01  0.51100000000E-03 0. -1.
         11    1    4    4    0    0  0.35208820917E-02 -0.89724056133E-03  0.83607074832E-01  0.83687548263E-01  0.51100000000E-03 0.  1.
</event>
<event>
 8    1  0.1146431E+005  0.1043930E+01  0.7957747E-01            NaN
         13   -1    0    0    0    0  0.00000000000E+00  0.00000000000E+00  0.74505805969E-08  0.10566000000E+00  0.10566000000E+00 0. -1.
     999900   -1    0    0    0    0 -0.00000000000E+00 -0.00000000000E+00 -0.74505805969E-08  0.93827000000E+00  0.93827000000E+00 0.  1.
     999902    2    1    2    0    0  0.14540508781E-01 -0.15978140693E-01 -0.83151423447E-02  0.10207811562E+01  0.10205186426E+01 0.  0.
     999903    2    3    3    0    0 -0.13977044256E-01 -0.53668962691E-01 -0.11873146439E+00  0.13262260447E+00  0.20393117894E-01 0.  0.
         14    1    1    2    0    0 -0.14540508781E-01  0.15978140693E-01  0.83151423447E-02  0.23148843769E-01  0.00000000000E+00 0. -1.
     999901    1    3    3    0    0  0.28517553037E-01  0.37690821998E-01  0.11041632205E+00  0.88815855176E+00  0.88000000000E+00 0. -1.
        -11    1    4    4    0    0 -0.16493886291E-01 -0.37083939414E-01 -0.97114205200E-01  0.10525538856E+00  0.51100000000E-03 0. -1.
         11    1    4    4    0    0  0.25168420353E-02 -0.16585023277E-01 -0.21617259190E-01  0.27367215913E-01  0.51100000000E-03 0.  1.
</event>
<event>
 8    1  0.1146431E+005  0.1043930E+01  0.7957747E-01            NaN
         13   -1    0    0    0    0  0.00000000000E+00  0.00000000000E+00  0.74505805969E-08  0.10566000000E+00  0.10566000000E+00 0. -1.
     999900   -1    0    0    0    0 -0.00000000000E+00 -0.00000000000E+00 -0.74505805969E-08  0.93827000000E+00  0.93827000000E+00 0. -1.
     999902    2    1    2    0    0 -0.19258833362E-01  0.19815229799E-02  0.97594938149E-02  0.10222487451E+01  0.10220187963E+01 0.  0.
     999903    2    3    3    0    0  0.28287303145E-01 -0.10689328684E+00 -0.67869111698E-01  0.13087869862E+00  0.17224144103E-01 0.  0.
         14    1    1    2    0    0  0.19258833362E-01 -0.19815229799E-02 -0.97594938149E-02  0.21681254929E-01  0.00000000000E+00 0.  1.
     999901    1    3    3    0    0 -0.47546136507E-01  0.10887480982E+00  0.77628605512E-01  0.89137004645E+00  0.88000000000E+00 0.  1.
        -11    1    4    4    0    0  0.33033641045E-03 -0.31300022171E-01 -0.18695576029E-01  0.36463491250E-01  0.51100000000E-03 0. -1.
         11    1    4    4    0    0  0.27956966735E-01 -0.75593264668E-01 -0.49173535669E-01  0.94415207373E-01  0.51100000000E-03 0.  1.
</event>
<event>
 8    1  0.1146431E+005  0.1043930E+01  0.7957747E-01            NaN
         13   -1    0    0    0    0  0.00000000000E+00  0.00000000000E+00  0.74505805969E-08  0.10566000000E+00  0.10566000000E+00 0. -1.
     999900   -1    0    0    0    0 -0.00000000000E+00 -0.00000000000E+00 -0.74505805969E-08  0.93827000000E+00  0.93827000000E+00 0. -1.
     999902    2    1    2    0    0  0.86240731187E-03 -0.20481445750E-01  0.11762818305E-01  0.10202953377E+01  0.10200215581E+01 0.  0.
     999903    2    3    3    0    0 -0.12717916925E+00  0.12288215577E-01 -0.15814416037E-01  0.12999819638E+00  0.17997054595E-01 0.  0.
         14    1    1    2    0    0 -0.86240731187E-03  0.20481445750E-01 -0.11762818305E-01  0.23634662275E-01  0.00000000000E+00 0.  1.
     999901    1    3    3    0    0  0.12804157656E+00 -0.32769661328E-01  0.27577234342E-01  0.89029714134E+00  0.88000000000E+00 0.  1.
        -11    1    4    4    0    0 -0.44549909747E-01  0.50995648516E-02 -0.14204408947E-01  0.47039625580E-01  0.51100000000E-03 0.  1.
         11    1    4    4    0    0 -0.82629259504E-01  0.71886507255E-02 -0.16100070900E-02  0.82958570801E-01  0.51100000000E-03 0. -1.
</event>
<event>
 8    1  0.1146431E+005  0.1043930E+01  0.7957747E-01            NaN
         13   -1    0    0    0    0  0.00000000000E+00  0.00000000000E+00  0.74505805969E-08  0.10566000000E+00  0.10566000000E+00 0. -1.
     999900   -1    0    0    0    0 -0.00000000000E+00 -0.00000000000E+00 -0.74505805969E-08  0.93827000000E+00  0.93827000000E+00 0.  1.
     999902    2    1    2    0    0 -0.11737658577E-01  0.79001846062E-02 -0.19277061181E-01  0.10200178559E+01  0.10197375328E+01 0.  0.
     999903    2    3    3    0    0 -0.19742361318E-01 -0.12652775432E+00 -0.73909026950E-02  0.12969419188E+00  0.19155273979E-01 0.  0.
         14    1    1    2    0    0  0.11737658577E-01 -0.79001846062E-02  0.19277061181E-01  0.23912144058E-01  0.00000000000E+00 0. -1.
     999901    1    3    3    0    0  0.80047027412E-02  0.13442793892E+00 -0.11886158486E-01  0.89032366406E+00  0.88000000000E+00 0.  1.
        -11    1    4    4    0    0 -0.22347014143E-01 -0.12006285293E+00 -0.47340996114E-02  0.12221763585E+00  0.51100000000E-03 0. -1.
         11    1    4    4    0    0  0.26046528253E-02 -0.64649013915E-02 -0.26568030836E-02  0.74765560232E-02  0.51100000000E-03 0.  1.
</event>
<event>
 8    1  0.1146431E+005  0.1043930E+01  0.7957747E-01            NaN
         13   -1    0    0    0    0  0.00000000000E+00  0.00000000000E+00  0.74505805969E-08  0.10566000000E+00  0.10566000000E+00 0. -1.
     999900   -1    0    0    0    0 -0.00000000000E+00 -0.00000000000E+00 -0.74505805969E-08  0.93827000000E+00  0.93827000000E+00 0.  1.
     999902    2    1    2    0    0 -0.23675555998E-01  0.41030434327E-03 -0.34909663174E-02  0.10199949390E+01  0.10197140719E+01 0.  0.
     999903    2    3    3    0    0 -0.48943164449E-01  0.44768713558E-01 -0.11222070816E+00  0.13183488735E+00  0.19679408582E-01 0.  0.
         14    1    1    2    0    0  0.23675555998E-01 -0.41030434327E-03  0.34909663174E-02  0.23935061046E-01  0.00000000000E+00 0. -1.
     999901    1    3    3    0    0  0.25267608451E-01 -0.44358409215E-01  0.10872974184E+00  0.88816005160E+00  0.88000000000E+00 0.  1.
        -11    1    4    4    0    0 -0.44816308832E-01  0.33908393926E-01 -0.81609353400E-01  0.99088992322E-01  0.51100000000E-03 0.  1.
         11    1    4    4    0    0 -0.41268556164E-02  0.10860319632E-01 -0.30611354762E-01  0.32745895027E-01  0.51100000000E-03 0. -1.
</event>
<event>
 8    1  0.1146431E+005  0.1043930E+01  0.7957747E-01            NaN
         13   -1    0    0    0    0  0.00000000000E+00  0.00000000000E+00  0.74505805969E-08  0.10566000000E+00  0.10566000000E+00 0.  1.
     999900   -1    0    0    0    0 -0.00000000000E+00 -0.00000000000E+00 -0.74505805969E-08  0.93827000000E+00  0.93827000000E+00 0. -1.
     999902    2    1    2    0    0  0.11969573308E-01 -0.11818528252E-01 -0.16005309451E-01  0.10207110804E+01  0.10204469567E+01 0.  0.
     999903    2    3    3    0    0 -0.10476853565E+00 -0.19091458540E-01  0.69776790634E-01  0.12883707011E+00  0.19729679985E-01 0.  0.
         14    1    1    2    0    0 -0.11969573308E-01  0.11818528252E-01  0.16005309451E-01  0.23218919566E-01  0.00000000000E+00 0.  1.
     999901    1    3    3    0    0  0.11673810896E+00  0.72729302883E-02 -0.85782100084E-01  0.89187401032E+00  0.88000000000E+00 0. -1.
        -11    1    4    4    0    0 -0.57760547930E-01 -0.17143452379E-02  0.31844971056E-01  0.65981688212E-01  0.51100000000E-03 0. -1.
         11    1    4    4    0    0 -0.47007987718E-01 -0.17377113302E-01  0.37931819577E-01  0.62855381897E-01  0.51100000000E-03 0.  1.
</event>
<event>
 8    1  0.1146431E+005  0.1043930E+01  0.7957747E-01            NaN
         13   -1    0    0    0    0  0.00000000000E+00  0.00000000000E+00  0.74505805969E-08  0.10566000000E+00  0.10566000000E+00 0.  1.
     999900   -1    0    0    0    0 -0.00000000000E+00 -0.00000000000E+00 -0.74505805969E-08  0.93827000000E+00  0.93827000000E+00 0.  1.
     999902    2    1    2    0    0  0.25082825770E-02  0.21770063628E-01 -0.35342265809E-02  0.10217327500E+01  0.10214916027E+01 0.  0.
     999903    2    3    3    0    0  0.32233115815E-01  0.21060339982E-01 -0.12549941875E+00  0.13282354339E+00  0.20235560240E-01 0.  0.
         14    1    1    2    0    0 -0.25082825770E-02 -0.21770063628E-01  0.35342265809E-02  0.22197250041E-01  0.00000000000E+00 0. -1.
     999901    1    3    3    0    0 -0.29724833238E-01  0.70972364577E-03  0.12196519217E+00  0.88890920657E+00  0.88000000000E+00 0. -1.
        -11    1    4    4    0    0  0.20283719620E-01  0.18758368707E-01 -0.58149246448E-01  0.64380910693E-01  0.51100000000E-03 0.  1.
         11    1    4    4    0    0  0.11949396195E-01  0.23019712753E-02 -0.67350172299E-01  0.68442632699E-01  0.51100000000E-03 0. -1.
</event>
<event>
 8    1  0.1146431E+005  0.1043930E+01  0.7957747E-01            NaN
         13   -1    0    0    0    0  0.00000000000E+00  0.00000000000E+00  0.74505805969E-08  0.10566000000E+00  0.10566000000E+00 0. -1.
     999900   -1    0    0    0    0 -0.00000000000E+00 -0.00000000000E+00 -0.74505805969E-08  0.93827000000E+00  0.93827000000E+00 0.  1.
     999902    2    1    2    0    0  0.38726731695E-02  0.14195950216E-01 -0.20414447906E-01  0.10187650982E+01  0.10184542469E+01 0.  0.
     999903    2    3    3    0    0  0.77886461917E-01  0.20212291375E-01  0.97217051546E-01  0.12783782453E+00  0.20408738231E-01 0.  0.
         14    1    1    2    0    0 -0.38726731695E-02 -0.14195950216E-01  0.20414447906E-01  0.25164901814E-01  0.00000000000E+00 0. -1.
     999901    1    3    3    0    0 -0.74013788747E-01 -0.60163411586E-02 -0.11763149945E+00  0.89092727366E+00  0.88000000000E+00 0.  1.
        -11    1    4    4    0    0  0.31308518009E-01 -0.20331201413E-02  0.35558393719E-01  0.47423805861E-01  0.51100000000E-03 0. -1.
         11    1    4    4    0    0  0.46577943908E-01  0.22245411516E-01  0.61658657826E-01  0.80414018667E-01  0.51100000000E-03 0.  1.
</event>
<event>
 8    1  0.1146431E+005  0.1043930E+01  0.7957747E-01            NaN
         13   -1    0    0    0    0  0.00000000000E+00  0.00000000000E+00  0.74505805969E-08  0.10566000000E+00  0.10566000000E+00 0.  1.
     999900   -1    0    0    0    0 -0.00000000000E+00 -0.00000000000E+00 -0.74505805969E-08  0.93827000000E+00  0.93827000000E+00 0.  1.
     999902    2    1    2    0    0 -0.21250454548E-01 -0.56653634976E-02 -0.95645995355E-02  0.10199475121E+01  0.10196655176E+01 0.  0.
     999903    2    3    3    0    0  0.79740457571E-01  0.17071049990E-01 -0.98923437446E-01  0.12938526792E+00  0.17456796875E-01 0.  0.
         14    1    1    2    0    0  0.21250454548E-01  0.56653634976E-02  0.95645995355E-02  0.23982487910E-01  0.00000000000E+00 0.  1.
     999901    1    3    3    0    0 -0.10099091212E+00 -0.22736413487E-01  0.89358837910E-01  0.89056224417E+00  0.88000000000E+00 0. -1.
        -11    1    4    4    0    0  0.53882021654E-01  0.19756843602E-01 -0.67999902184E-01  0.88982318157E-01  0.51100000000E-03 0.  1.
         11    1    4    4    0    0  0.25858435918E-01 -0.26857936120E-02 -0.30923535261E-01  0.40402949762E-01  0.51100000000E-03 0. -1.
</event>
<event>
 8    1  0.1146431E+005  0.1043930E+01  0.7957747E-01            NaN
         13   -1    0    0    0    0  0.00000000000E+00  0.00000000000E+00  0.74505805969E-08  0.10566000000E+00  0.10566000000E+00 0. -1.
     999900   -1    0    0    0    0 -0.00000000000E+00 -0.00000000000E+00 -0.74505805969E-08  0.93827000000E+00  0.93827000000E+00 0. -1.
     999902    2    1    2    0    0 -0.10202891582E-01  0.17224401294E-01 -0.13954536922E-02  0.10238619586E+01  0.10236652695E+01 0.  0.
     999903    2    3    3    0    0  0.35689621829E-01 -0.92575400880E-01 -0.84897044316E-01  0.13193447552E+00  0.18847910859E-01 0.  0.
         14    1    1    2    0    0  0.10202891582E-01 -0.17224401294E-01  0.13954536922E-02  0.20068041448E-01  0.00000000000E+00 0. -1.
     999901    1    3    3    0    0 -0.45892513410E-01  0.10979980217E+00  0.83501590624E-01  0.89192748303E+00  0.88000000000E+00 0. -1.
        -11    1    4    4    0    0  0.22088739336E-01 -0.43921188441E-01 -0.31321886566E-01  0.58294981761E-01  0.51100000000E-03 0. -1.
         11    1    4    4    0    0  0.13600882493E-01 -0.48654212439E-01 -0.53575157749E-01  0.73639493762E-01  0.51100000000E-03 0.  1.
</event>
<event>
 8    1  0.1146431E+005  0.1043930E+01  0.7957747E-01            NaN
         13   -1    0    0    0    0  0.00000000000E+00  0.00000000000E+00  0.74505805969E-08  0.10566000000E+00  0.10566000000E+00 0. -1.
     999900   -1    0    0    0    0 -0.00000000000E+00 -0.00000000000E+00 -0.74505805969E-08  0.93827000000E+00  0.93827000000E+00 0.  1.
     999902    2    1    2    0    0  0.66699234919E-02  0.12678689468E-01 -0.18354775757E-01  0.10206462108E+01  0.10203805921E+01 0.  0.
     999903    2    3    3    0    0  0.22649972833E-01 -0.48030738933E-01 -0.11988590499E+00  0.13258677199E+00  0.19663385724E-01 0.  0.
         14    1    1    2    0    0 -0.66699234919E-02 -0.12678689468E-01  0.18354775757E-01  0.23283789192E-01  0.00000000000E+00 0. -1.
     999901    1    3    3    0    0 -0.15980049341E-01  0.60709428402E-01  0.10153112924E+00  0.88805943882E+00  0.88000000000E+00 0. -1.
        -11    1    4    4    0    0  0.13646288905E-01 -0.85896366384E-02 -0.32092755421E-01  0.35919481204E-01  0.51100000000E-03 0.  1.
         11    1    4    4    0    0  0.90036839274E-02 -0.39441102295E-01 -0.87793149573E-01  0.96667290784E-01  0.51100000000E-03 0. -1.
</event>
<event>
 8    1  0.1146431E+005  0.1043930E+01  0.7957747E-01            NaN
         13   -1    0    0    0    0  0.00000000000E+00  0.00000000000E+00  0.74505805969E-08  0.10566000000E+00  0.10566000000E+00 0. -1.
     999900   -1    0    0    0    0 -0.00000000000E+00 -0.00000000000E+00 -0.74505805969E-08  0.93827000000E+00  0.93827000000E+00 0.  1.
     999902    2    1    2    0    0 -0.11820782721E-01  0.65086096650E-02  0.19727912343E-01  0.10200284639E+01  0.10197483923E+01 0.  0.
     999903    2    3    3    0    0  0.13124228744E-01 -0.87998698888E-01 -0.90393911584E-01  0.12779491761E+00  0.15635387100E-01 0.  0.
         14    1    1    2    0    0  0.11820782721E-01 -0.65086096650E-02 -0.19727912343E-01  0.23901536129E-01  0.00000000000E+00 0.  1.
     999901    1    3    3    0    0 -0.24945011466E-01  0.94507308553E-01  0.11012182393E+00  0.89223354626E+00  0.88000000000E+00 0. -1.
        -11    1    4    4    0    0 -0.14886535688E-02 -0.39635008412E-01 -0.36198767404E-01  0.53700669119E-01  0.51100000000E-03 0. -1.
         11    1    4    4    0    0  0.14612882313E-01 -0.48363690475E-01 -0.54195144180E-01  0.74094248492E-01  0.51100000000E-03 0.  1.
</event>
<event>
 8    1  0.1146431E+005  0.1043930E+01  0.7957747E-01            NaN
         13   -1    0    0    0    0  0.00000000000E+00  0.00000000000E+00  0.74505805969E-08  0.10566000000E+00  0.10566000000E+00 0.  1.
     999900   -1    0    0    0    0 -0.00000000000E+00 -0.00000000000E+00 -0.74505805969E-08  0.93827000000E+00  0.93827000000E+00 0.  1.
     999902    2    1    2    0    0 -0.26468698406E-01 -0.28471959737E-03  0.43193178295E-02  0.10171096800E+01  0.10167560039E+01 0.  0.
     999903    2    3    3    0    0  0.10924356763E+00  0.10859019554E-01 -0.55522095893E-01  0.12462830936E+00  0.19935821693E-01 0.  0.
         14    1    1    2    0    0  0.26468698406E-01  0.28471959737E-03 -0.43193178295E-02  0.26820320041E-01  0.00000000000E+00 0. -1.
     999901    1    3    3    0    0 -0.13571226604E+00 -0.11143739152E-01  0.59841413723E-01  0.89248137060E+00  0.88000000000E+00 0. -1.
        -11    1    4    4    0    0  0.10688618829E+00  0.13636566092E-01 -0.54766230488E-01  0.12087271944E+00  0.51100000000E-03 0.  1.
         11    1    4    4    0    0  0.23573793453E-02 -0.27775465380E-02 -0.75586540526E-03  0.37555899216E-02  0.51100000000E-03 0. -1.
</event>
<event>
 8    1  0.1146431E+005  0.1043930E+01  0.7957747E-01            NaN
         13   -1    0    0    0    0  0.00000000000E+00  0.00000000000E+00  0.74505805969E-08  0.10566000000E+00  0.10566000000E+00 0. -1.
     999900   -1    0    0    0    0 -0.00000000000E+00 -0.00000000000E+00 -0.74505805969E-08  0.93827000000E+00  0.93827000000E+00 0. -1.
     999902    2    1    2    0    0  0.13994294389E-01  0.24754307329E-01 -0.50807998941E-02  0.10150434887E+01  0.10146323735E+01 0.  0.
     999903    2    3    3    0    0  0.35990819922E-01  0.11702685724E+00 -0.36177128087E-01  0.12939962562E+00  0.21091564203E-01 0.  0.
         14    1    1    2    0    0 -0.13994294389E-01 -0.24754307329E-01  0.50807998941E-02  0.28886511287E-01  0.00000000000E+00 0. -1.
     999901    1    3    3    0    0 -0.21996525533E-01 -0.92272549910E-01  0.31096328193E-01  0.88564386309E+00  0.88000000000E+00 0.  1.
        -11    1    4    4    0    0  0.33178887968E-01  0.92356676157E-01 -0.21209103067E-01  0.10040259664E+00  0.51100000000E-03 0. -1.
         11    1    4    4    0    0  0.28119319540E-02  0.24670181082E-01 -0.14968025020E-01  0.28997028985E-01  0.51100000000E-03 0.  1.
</event>
<event>
 8    1  0.1146431E+005  0.1043930E+01  0.7957747E-01            NaN
         13   -1    0    0    0    0  0.00000000000E+00  0.00000000000E+00  0.74505805969E-08  0.10566000000E+00  0.10566000000E+00 0.  1.
     999900   -1    0    0    0    0 -0.00000000000E+00 -0.00000000000E+00 -0.74505805969E-08  0.93827000000E+00  0.93827000000E+00 0. -1.
     999902    2    1    2    0    0 -0.16988730092E-01 -0.11754508099E-01 -0.16621637570E-01  0.10174146413E+01  0.10170690675E+01 0.  0.
     999903    2    3    3    0    0  0.59371925773E-01  0.10169945105E+00 -0.41387698405E-01  0.12650717789E+00  0.20574755555E-01 0.  0.
         14    1    1    2    0    0  0.16988730092E-01  0.11754508099E-01  0.16621637570E-01  0.26515358687E-01  0.00000000000E+00 0.  1.
     999901    1    3    3    0    0 -0.76360655865E-01 -0.11345395914E+00  0.24766060835E-01  0.89090746342E+00  0.88000000000E+00 0.  1.
        -11    1    4    4    0    0  0.25949843627E-01  0.61828094293E-01 -0.17776398285E-01  0.69371241052E-01  0.51100000000E-03 0.  1.
         11    1    4    4    0    0  0.33422082146E-01  0.39871356753E-01 -0.23611300120E-01  0.57135936840E-01  0.51100000000E-03 0. -1.
</event>
<event>
 8    1  0.1146431E+005  0.1043930E+01  0.7957747E-01            NaN
         13   -1    0    0    0    0  0.00000000000E+00  0.00000000000E+00  0.74505805969E-08  0.10566000000E+00  0.10566000000E+00 0. -1.
     999900   -1    0    0    0    0 -0.00000000000E+00 -0.00000000000E+00 -0.74505805969E-08  0.93827000000E+00  0.93827000000E+00 0. -1.
     999902    2    1    2    0    0 -0.50031814285E-02 -0.12549413315E-01 -0.21474365487E-01  0.10185593876E+01  0.10182433688E+01 0.  0.
     999903    2    3    3    0    0 -0.15534446261E-01 -0.12229107856E+00  0.37742190903E-01  0.12970577697E+00  0.14236877837E-01 0.  0.
         14    1    1    2    0    0  0.50031814285E-02  0.12549413315E-01  0.21474365487E-01  0.25370612370E-01  0.00000000000E+00 0. -1.
     999901    1    3    3    0    0  0.10531264833E-01  0.10974166524E+00 -0.59216556390E-01  0.88885361066E+00  0.88000000000E+00 0. -1.
        -11    1    4    4    0    0 -0.10312294403E-01 -0.42161732658E-01  0.18149653234E-01  0.47049188623E-01  0.51100000000E-03 0.  1.
         11    1    4    4    0    0 -0.52221518586E-02 -0.80129345899E-01  0.19592537669E-01  0.82656588349E-01  0.51100000000E-03 0. -1.
</event>
<event>
 8    1  0.1146431E+005  0.1043930E+01  0.7957747E-01            NaN
         13   -1    0    0    0    0  0.00000000000E+00  0.00000000000E+00  0.74505805969E-08  0.10566000000E+00  0.10566000000E+00 0.  1.
     999900   -1    0    0    0    0 -0.00000000000E+00 -0.00000000000E+00 -0.74505805969E-08  0.93827000000E+00  0.93827000000E+00 0. -1.
     999902    2    1    2    0    0  0.43655286191E-02 -0.20271887144E-01  0.11396011312E-01  0.10202682942E+01  0.10199938803E+01 0.  0.
     999903    2    3    3    0    0 -0.73106604086E-01  0.62932301295E-01 -0.81281683660E-01  0.12812815751E+00  0.22473596510E-01 0.  0.
         14    1    1    2    0    0 -0.43655286191E-02  0.20271887144E-01 -0.11396011312E-01  0.23661705820E-01  0.00000000000E+00 0. -1.
     999901    1    3    3    0    0  0.77472132705E-01 -0.83204188438E-01  0.92677694972E-01  0.89214013667E+00  0.88000000000E+00 0.  1.
        -11    1    4    4    0    0 -0.31293051741E-01  0.13275602026E-01 -0.31098698672E-01  0.46074796543E-01  0.51100000000E-03 0.  1.
         11    1    4    4    0    0 -0.41813552345E-01  0.49656699269E-01 -0.50182984988E-01  0.82053360963E-01  0.51100000000E-03 0. -1.
</event>
<event>
 8    1  0.1146431E+005  0.1043930E+01  0.7957747E-01            NaN
         13   -1    0    0    0    0  0.00000000000E+00  0.00000000000E+00  0.74505805969E-08  0.10566000000E+00  0.10566000000E+00 0.  1.
     999900   -1    0    0    0    0 -0.00000000000E+00 -0.00000000000E+00 -0.74505805969E-08  0.93827000000E+00  0.93827000000E+00 0. -1.
     999902    2    1    2    0    0  0.17289705474E-01  0.16435474306E-01 -0.50522451898E-02  0.10195459086E+01  0.10192542744E+01 0.  0.
     999903    2    3    3    0    0 -0.11498394076E+00  0.96888319751E-02 -0.52425950046E-01  0.12837471149E+00  0.20406033779E-01 0.  0.
         14    1    1    2    0    0 -0.17289705474E-01 -0.16435474306E-01  0.50522451898E-02  0.24384091381E-01  0.00000000000E+00 0. -1.
     999901    1    3    3    0    0  0.13227364624E+00  0.67466423306E-02  0.47373704856E-01  0.89117119712E+00  0.88000000000E+00 0.  1.
        -11    1    4    4    0    0 -0.35347808429E-01 -0.49754648991E-02 -0.10636492393E-01  0.37250757081E-01  0.51100000000E-03 0. -1.
         11    1    4    4    0    0 -0.79636132334E-01  0.14664296874E-01 -0.41789457654E-01  0.91123954414E-01  0.51100000000E-03 0.  1.
</event>
<event>
 8    1  0.1146431E+005  0.1043930E+01  0.7957747E-01            NaN
         13   -1    0    0    0    0  0.00000000000E+00  0.00000000000E+00  0.74505805969E-08  0.10566000000E+00  0.10566000000E+00 0.  1.
     999900   -1    0    0    0    0 -0.00000000000E+00 -0.00000000000E+00 -0.74505805969E-08  0.93827000000E+00  0.93827000000E+00 0. -1.
     999902    2    1    2    0    0  0.16027385747E-01  0.12108180313E-02 -0.18530823066E-01  0.10193997212E+01  0.10191045368E+01 0.  0.
     999903    2    3    3    0    0  0.36896739078E-01  0.77231601844E-01 -0.98839197993E-01  0.13223337572E+00  0.19758261978E-01 0.  0.
         14    1    1    2    0    0 -0.16027385747E-01 -0.12108180313E-02  0.18530823066E-01  0.24530278793E-01  0.00000000000E+00 0.  1.
     999901    1    3    3    0    0 -0.20869353331E-01 -0.76020783813E-01  0.80308374928E-01  0.88716634549E+00  0.88000000000E+00 0. -1.
        -11    1    4    4    0    0  0.36467105314E-01  0.59109691238E-01 -0.74132968967E-01  0.10158623714E+00  0.51100000000E-03 0. -1.
         11    1    4    4    0    0  0.42963376341E-03  0.18121910606E-01 -0.24706229026E-01  0.30647138576E-01  0.51100000000E-03 0.  1.
</event>
<event>
 8    1  0.1146431E+005  0.1043930E+01  0.7957747E-01            NaN
         13   -1    0    0    0    0  0.00000000000E+00  0.00000000000E+00  0.74505805969E-08  0.10566000000E+00  0.10566000000E+00 0.  1.
     999900   -1    0    0    0    0 -0.00000000000E+00 -0.00000000000E+00 -0.74505805969E-08  0.93827000000E+00  0.93827000000E+00 0.  1.
     999902    2    1    2    0    0  0.12353963919E-01 -0.17122287057E-01  0.10378456712E-01  0.10204033024E+01  0.10201320473E+01 0.  0.
     999903    2    3    3    0    0  0.96069405924E-01 -0.57992504933E-01 -0.66883835811E-01  0.13211950098E+00  0.19739646963E-01 0.  0.
         14    1    1    2    0    0 -0.12353963919E-01  0.17122287057E-01 -0.10378456712E-01  0.23526697650E-01  0.00000000000E+00 0. -1.
     999901    1    3    3    0    0 -0.83715442005E-01  0.40870217875E-01  0.77262292523E-01  0.88828380137E+00  0.88000000000E+00 0. -1.
        -11    1    4    4    0    0  0.22254995154E-01 -0.22804455614E-01 -0.14550621754E-01  0.35032980456E-01  0.51100000000E-03 0. -1.
         11    1    4    4    0    0  0.73814410769E-01 -0.35188049319E-01 -0.52333214057E-01  0.97086520519E-01  0.51100000000E-03 0.  1.
</event>
<event>
 8    1  0.1146431E+005  0.1043930E+01  0.7957747E-01            NaN
         13   -1    0    0    0    0  0.00000000000E+00  0.00000000000E+00  0.74505805969E-08  0.10566000000E+00  0.10566000000E+00 0.  1.
     999900   -1    0    0    0    0 -0.00000000000E+00 -0.00000000000E+00 -0.74505805969E-08  0.93827000000E+00  0.93827000000E+00 0.  1.
     999902    2    1    2    0    0  0.68627547167E-03 -0.18496303287E-01  0.14413623919E-01  0.10204707425E+01  0.10202010584E+01 0.  0.
     999903    2    3    3    0    0 -0.39129472672E-02  0.99309939806E-01 -0.77687413184E-01  0.12784424455E+00  0.20761536456E-01 0.  0.
         14    1    1    2    0    0 -0.68627547167E-03  0.18496303287E-01 -0.14413623919E-01  0.23459257528E-01  0.00000000000E+00 0. -1.
     999901    1    3    3    0    0  0.45992227389E-02 -0.11780624309E+00  0.92101037103E-01  0.89262649792E+00  0.88000000000E+00 0. -1.
        -11    1    4    4    0    0  0.36361289563E-02  0.29534742250E-01 -0.33944545872E-01  0.45144387792E-01  0.51100000000E-03 0. -1.
         11    1    4    4    0    0 -0.75490762235E-02  0.69775197556E-01 -0.43742867312E-01  0.82699856756E-01  0.51100000000E-03 0.  1.
</event>
<event>
 8    1  0.1146431E+005  0.1043930E+01  0.7957747E-01            NaN
         13   -1    0    0    0    0  0.00000000000E+00  0.00000000000E+00  0.74505805969E-08  0.10566000000E+00  0.10566000000E+00 0.  1.
     999900   -1    0    0    0    0 -0.00000000000E+00 -0.00000000000E+00 -0.74505805969E-08  0.93827000000E+00  0.93827000000E+00 0. -1.
     999902    2    1    2    0    0  0.11303742859E-03  0.23389255847E-01 -0.72367270626E-02  0.10194465304E+01  0.10191524852E+01 0.  0.
     999903    2    3    3    0    0 -0.44469319909E-01 -0.45509375173E-02  0.11885603186E+00  0.12890308682E+00  0.22158926833E-01 0.  0.
         14    1    1    2    0    0 -0.11303742859E-03 -0.23389255847E-01  0.72367270626E-02  0.24483469630E-01  0.00000000000E+00 0.  1.
     999901    1    3    3    0    0  0.44582357338E-01  0.27940193364E-01 -0.12609275892E+00  0.89054344355E+00  0.88000000000E+00 0. -1.
        -11    1    4    4    0    0 -0.12736097480E-01 -0.49399529890E-02  0.14951181461E-01  0.20258584912E-01  0.51100000000E-03 0.  1.
         11    1    4    4    0    0 -0.31733222429E-01  0.38901547173E-03  0.10390485040E+00  0.10864450191E+00  0.51100000000E-03 0. -1.
</event>
<event>
 8    1  0.1146431E+005  0.1043930E+01  0.7957747E-01            NaN
         13   -1    0    0    0    0  0.00000000000E+00  0.00000000000E+00  0.74505805969E-08  0.10566000000E+00  0.10566000000E+00 0. -1.
     999900   -1    0    0    0    0 -0.00000000000E+00 -0.00000000000E+00 -0.74505805969E-08  0.93827000000E+00  0.93827000000E+00 0. -1.
     999902    2    1    2    0    0 -0.12381894922E-01 -0.41392668744E-02  0.18923378472E-01  0.10209400216E+01  0.10206811396E+01 0.  0.
     999903    2    3    3    0    0 -0.71094326105E-01  0.54645454726E-01 -0.92288713906E-01  0.13005791802E+00  0.18903079056E-01 0.  0.
         14    1    1    2    0    0  0.12381894922E-01  0.41392668744E-02 -0.18923378472E-01  0.22989978358E-01  0.00000000000E+00 0.  1.
     999901    1    3    3    0    0  0.58712431183E-01 -0.58784721600E-01  0.11121209238E+00  0.89088210363E+00  0.88000000000E+00 0.  1.
        -11    1    4    4    0    0 -0.17502667152E-01  0.16963965096E-01 -0.37111024053E-01  0.44402800548E-01  0.51100000000E-03 0.  1.
         11    1    4    4    0    0 -0.53591658953E-01  0.37681489630E-01 -0.55177689853E-01  0.85655117468E-01  0.51100000000E-03 0. -1.
</event>
<event>
 8    1  0.1146431E+005  0.1043930E+01  0.7957747E-01            NaN
         13   -1    0    0    0    0  0.00000000000E+00  0.00000000000E+00  0.74505805969E-08  0.10566000000E+00  0.10566000000E+00 0. -1.
     999900   -1    0    0    0    0 -0.00000000000E+00 -0.00000000000E+00 -0.74505805969E-08  0.93827000000E+00  0.93827000000E+00 0.  1.
     999902    2    1    2    0    0  0.14173978725E-02 -0.23448109806E-01  0.93377555624E-03  0.10204205379E+01  0.10201496848E+01 0.  0.
     999903    2    3    3    0    0 -0.34056490139E-02  0.12558003624E+00  0.11211593153E-01  0.12781856413E+00  0.20735032385E-01 0.  0.
         14    1    1    2    0    0 -0.14173978725E-02  0.23448109806E-01 -0.93377555624E-03  0.23509462074E-01  0.00000000000E+00 0.  1.
     999901    1    3    3    0    0  0.48230468864E-02 -0.14902814604E+00 -0.10277817597E-01  0.89260197380E+00  0.88000000000E+00 0.  1.
        -11    1    4    4    0    0 -0.93135259369E-02  0.26964595246E-01  0.25496006733E-02  0.28645990064E-01  0.51100000000E-03 0.  1.
         11    1    4    4    0    0  0.59078769230E-02  0.98615440991E-01  0.86619924798E-02  0.99172574064E-01  0.51100000000E-03 0. -1.
</event>
<event>
 8    1  0.1146431E+005  0.1043930E+01  0.7957747E-01            NaN
         13   -1    0    0    0    0  0.00000000000E+00  0.00000000000E+00  0.74505805969E-08  0.10566000000E+00  0.10566000000E+00 0.  1.
     999900   -1    0    0    0    0 -0.00000000000E+00 -0.00000000000E+00 -0.74505805969E-08  0.93827000000E+00  0.93827000000E+00 0. -1.
     999902    2    1    2    0    0  0.75048914096E-02 -0.11359764692E-01 -0.19312418337E-01  0.10203008411E+01  0.10200271904E+01 0.  0.
     999903    2    3    3    0    0 -0.91638119004E-01 -0.80732969411E-01 -0.44947009248E-01  0.13165067916E+00  0.19907548258E-01 0.  0.
         14    1    1    2    0    0 -0.75048914096E-02  0.11359764692E-01  0.19312418337E-01  0.23629158913E-01  0.00000000000E+00 0.  1.
     999901    1    3    3    0    0  0.99143010414E-01  0.69373204719E-01  0.25634590911E-01  0.88865016193E+00  0.88000000000E+00 0.  1.
        -11    1    4    4    0    0 -0.62761862932E-01 -0.54906768202E-01 -0.20620191375E-01  0.85902607914E-01  0.51100000000E-03 0. -1.
         11    1    4    4    0    0 -0.28876256072E-01 -0.25826201209E-01 -0.24326817873E-01  0.45748071243E-01  0.51100000000E-03 0.  1.
</event>
<event>
 8    1  0.1146431E+005  0.1043930E+01  0.7957747E-01            NaN
         13   -1    0    0    0    0  0.00000000000E+00  0.00000000000E+00  0.74505805969E-08  0.10566000000E+00  0.10566000000E+00 0.  1.
     999900   -1    0    0    0    0 -0.00000000000E+00 -0.00000000000E+00 -0.74505805969E-08  0.93827000000E+00  0.93827000000E+00 0. -1.
     999902    2    1    2    0    0 -0.63951021706E-02  0.44509160284E-02 -0.20557344610E-01  0.10219456328E+01  0.10217091386E+01 0.  0.
     999903    2    3    3    0    0 -0.11594714883E+00  0.48402273972E-01 -0.41702739362E-01  0.13381247805E+00  0.19497162952E-01 0.  0.
         14    1    1    2    0    0  0.63951021706E-02 -0.44509160284E-02  0.20557344610E-01  0.21984367234E-01  0.00000000000E+00 0.  1.
     999901    1    3    3    0    0  0.10955204666E+00 -0.43951357944E-01  0.21145394752E-01  0.88813315472E+00  0.88000000000E+00 0. -1.
        -11    1    4    4    0    0 -0.24294412651E-01  0.16965635768E-01 -0.15458428080E-01  0.33425669818E-01  0.51100000000E-03 0.  1.
         11    1    4    4    0    0 -0.91652736179E-01  0.31436638204E-01 -0.26244311282E-01  0.10038680823E+00  0.51100000000E-03 0. -1.
</event>
<event>
 8    1  0.1146431E+005  0.1043930E+01  0.7957747E-01            NaN
         13   -1    0    0    0    0  0.00000000000E+00  0.00000000000E+00  0.74505805969E-08  0.10566000000E+00  0.10566000000E+00 0.  1.
     999900   -1    0    0    0    0 -0.00000000000E+00 -0.00000000000E+00 -0.74505805969E-08  0.93827000000E+00  0.93827000000E+00 0.  1.
     999902    2    1    2    0    0 -0.17190315631E-01 -0.82365635802E-02 -0.14717673540E-01  0.10198476860E+01  0.10195633109E+01 0.  0.
     999903    2    3    3    0    0 -0.63764037083E-01 -0.11251393713E+00  0.16058328814E-01  0.13193437694E+00  0.20580850836E-01 0.  0.
         14    1    1    2    0    0  0.17190315631E-01  0.82365635802E-02  0.14717673540E-01  0.24082313957E-01  0.00000000000E+00 0. -1.
     999901    1    3    3    0    0  0.46573721451E-01  0.10427737355E+00 -0.30776002354E-01  0.88791330910E+00  0.88000000000E+00 0.  1.
        -11    1    4    4    0    0 -0.13977992653E-01 -0.33350222234E-01  0.12785210485E-01  0.38358106442E-01  0.51100000000E-03 0.  1.
         11    1    4    4    0    0 -0.49786044430E-01 -0.79163714892E-01  0.32731183292E-02  0.93576270496E-01  0.51100000000E-03 0. -1.
</event>
<event>
 8    1  0.1146431E+005  0.1043930E+01  0.7957747E-01            NaN
         13   -1    0    0    0    0  0.00000000000E+00  0.00000000000E+00  0.74505805969E-08  0.10566000000E+00  0.10566000000E+00 0.  1.
     999900   -1    0    0    0    0 -0.00000000000E+00 -0.00000000000E+00 -0.74505805969E-08  0.93827000000E+00  0.93827000000E+00 0.  1.
     999902    2    1    2    0    0  0.15653324245E-01  0.80283340525E-02 -0.15481752076E-01  0.10204957226E+01  0.10202266192E+01 0.  0.
     999903    2    3    3    0    0 -0.75386530219E-01  0.10245953751E+00  0.18078502592E-01  0.13014085071E+00  0.20705627316E-01 0.  0.
         14    1    1    2    0    0 -0.15653324245E-01 -0.80283340525E-02  0.15481752076E-01  0.23434277350E-01  0.00000000000E+00 0.  1.
     999901    1    3    3    0    0  0.91039854465E-01 -0.94431203460E-01 -0.33560254667E-01  0.89035487194E+00  0.88000000000E+00 0.  1.
        -11    1    4    4    0    0 -0.78102717668E-02  0.21911515347E-01 -0.96904507028E-03  0.23287658088E-01  0.51100000000E-03 0.  1.
         11    1    4    4    0    0 -0.67576258453E-01  0.80548022166E-01  0.19047547662E-01  0.10685319263E+00  0.51100000000E-03 0. -1.
</event>
<event>
 8    1  0.1146431E+005  0.1043930E+01  0.7957747E-01            NaN
         13   -1    0    0    0    0  0.00000000000E+00  0.00000000000E+00  0.74505805969E-08  0.10566000000E+00  0.10566000000E+00 0. -1.
     999900   -1    0    0    0    0 -0.00000000000E+00 -0.00000000000E+00 -0.74505805969E-08  0.93827000000E+00  0.93827000000E+00 0.  1.
     999902    2    1    2    0    0  0.22259038668E-01 -0.21370734169E-02 -0.84987039105E-02  0.10200080466E+01  0.10197274907E+01 0.  0.
     999903    2    3    3    0    0  0.63096934472E-01  0.96922288127E-01 -0.60540613213E-01  0.13198279295E+00  0.19471484544E-01 0.  0.
         14    1    1    2    0    0 -0.22259038668E-01  0.21370734169E-02  0.84987039105E-02  0.23921953377E-01  0.00000000000E+00 0. -1.
     999901    1    3    3    0    0 -0.40837895804E-01 -0.99059361544E-01  0.52041909303E-01  0.88802525368E+00  0.88000000000E+00 0. -1.
        -11    1    4    4    0    0  0.50359221747E-01  0.60664467096E-01 -0.40540220059E-01  0.88656637352E-01  0.51100000000E-03 0.  1.
         11    1    4    4    0    0  0.12737712724E-01  0.36257821031E-01 -0.20000393154E-01  0.43326155595E-01  0.51100000000E-03 0. -1.
</event>
<event>
 8    1  0.1146431E+005  0.1043930E+01  0.7957747E-01            NaN
         13   -1    0    0    0    0  0.00000000000E+00  0.00000000000E+00  0.74505805969E-08  0.10566000000E+00  0.10566000000E+00 0.  1.
     999900   -1    0    0    0    0 -0.00000000000E+00 -0.00000000000E+00 -0.74505805969E-08  0.93827000000E+00  0.93827000000E+00 0. -1.
     999902    2    1    2    0    0 -0.16836218830E-01  0.48062865782E-02  0.14511710772E-01  0.10211891028E+01  0.10209358625E+01 0.  0.
     999903    2    3    3    0    0 -0.50886501744E-01  0.11656176627E+00  0.34185727183E-01  0.13325004188E+00  0.20268899881E-01 0.  0.
         14    1    1    2    0    0  0.16836218830E-01 -0.48062865782E-02 -0.14511710772E-01  0.22740897182E-01  0.00000000000E+00 0. -1.
     999901    1    3    3    0    0  0.34050282914E-01 -0.11175547970E+00 -0.19674016412E-01  0.88793906093E+00  0.88000000000E+00 0. -1.
        -11    1    4    4    0    0 -0.19337023039E-01  0.68318910087E-01  0.15774324700E-01  0.72735715960E-01  0.51100000000E-03 0. -1.
         11    1    4    4    0    0 -0.31549478705E-01  0.48242856188E-01  0.18411402484E-01  0.60514325924E-01  0.51100000000E-03 0.  1.
</event>
<event>
 8    1  0.1146431E+005  0.1043930E+01  0.7957747E-01            NaN
         13   -1    0    0    0    0  0.00000000000E+00  0.00000000000E+00  0.74505805969E-08  0.10566000000E+00  0.10566000000E+00 0.  1.
     999900   -1    0    0    0    0 -0.00000000000E+00 -0.00000000000E+00 -0.74505805969E-08  0.93827000000E+00  0.93827000000E+00 0. -1.
     999902    2    1    2    0    0 -0.46787177128E-03  0.10625847324E-02 -0.24265217526E-01  0.10196370222E+01  0.10193475895E+01 0.  0.
     999903    2    3    3    0    0  0.14255932655E-01 -0.12758665409E+00  0.30841799908E-02  0.12974073236E+00  0.18481329795E-01 0.  0.
         14    1    1    2    0    0  0.46787177128E-03 -0.10625847324E-02  0.24265217526E-01  0.24292977831E-01  0.00000000000E+00 0.  1.
     999901    1    3    3    0    0 -0.14723804426E-01  0.12864923882E+00 -0.27349397517E-01  0.88989628981E+00  0.88000000000E+00 0. -1.
        -11    1    4    4    0    0  0.12807554952E-01 -0.38498193922E-01 -0.24954855542E-03  0.40576690286E-01  0.51100000000E-03 0.  1.
         11    1    4    4    0    0  0.14483777035E-02 -0.89088460165E-01  0.33337285462E-02  0.89164042077E-01  0.51100000000E-03 0. -1.
</event>
<event>
 8    1  0.1146431E+005  0.1043930E+01  0.7957747E-01            NaN
         13   -1    0    0    0    0  0.00000000000E+00  0.00000000000E+00  0.74505805969E-08  0.10566000000E+00  0.10566000000E+00 0. -1.
     999900   -1    0    0    0    0 -0.00000000000E+00 -0.00000000000E+00 -0.74505805969E-08  0.93827000000E+00  0.93827000000E+00 0. -1.
     999902    2    1    2    0    0 -0.11260761541E-01 -0.19534880404E-01 -0.41997260203E-02  0.10209941329E+01  0.10207364818E+01 0.  0.
     999903    2    3    3    0    0  0.63449412848E-01 -0.11540256422E+00 -0.29941254225E-02  0.13263965607E+00  0.15515597193E-01 0.  0.
         14    1    1    2    0    0  0.11260761541E-01  0.19534880404E-01  0.41997260203E-02  0.22935867141E-01  0.00000000000E+00 0.  1.
     999901    1    3    3    0    0 -0.74710174388E-01  0.95867683815E-01 -0.12056005978E-02  0.88835447679E+00  0.88000000000E+00 0.  1.
        -11    1    4    4    0    0  0.66989714079E-02 -0.13846578088E-01  0.45745236961E-02  0.16055881499E-01  0.51100000000E-03 0. -1.
         11    1    4    4    0    0  0.56750441440E-01 -0.10155598613E+00 -0.75686491186E-02  0.11658377457E+00  0.51100000000E-03 0.  1.
</event>
<event>
 8    1  0.1146431E+005  0.1043930E+01  0.7957747E-01            NaN
         13   -1    0    0    0    0  0.00000000000E+00  0.00000000000E+00  0.74505805969E-08  0.10566000000E+00  0.10566000000E+00 0. -1.
     999900   -1    0    0    0    0 -0.00000000000E+00 -0.00000000000E+00 -0.74505805969E-08  0.93827000000E+00  0.93827000000E+00 0.  1.
     999902    2    1    2    0    0  0.17161765935E-02  0.23413945735E-01 -0.35463487415E-04  0.10204532163E+01  0.10201831243E+01 0.  0.
     999903    2    3    3    0    0 -0.10208007259E+00 -0.55038664888E-01 -0.51056386001E-01  0.12942481717E+00  0.26352094709E-01 0.  0.
         14    1    1    2    0    0 -0.17161765935E-02 -0.23413945735E-01  0.35463487415E-04  0.23476783737E-01  0.00000000000E+00 0.  1.
     999901    1    3    3    0    0  0.10379624918E+00  0.78452610622E-01  0.51020922513E-01  0.89102839909E+00  0.88000000000E+00 0. -1.
        -11    1    4    4    0    0 -0.14102108314E-01 -0.14220477113E-01 -0.47310694754E-03  0.20039370734E-01  0.51100000000E-03 0. -1.
         11    1    4    4    0    0 -0.87977964275E-01 -0.40818187774E-01 -0.50583279053E-01  0.10938544644E+00  0.51100000000E-03 0.  1.
</event>
<event>
 8    1  0.1146431E+005  0.1043930E+01  0.7957747E-01            NaN
         13   -1    0    0    0    0  0.00000000000E+00  0.00000000000E+00  0.74505805969E-08  0.10566000000E+00  0.10566000000E+00 0. -1.
     999900   -1    0    0    0    0 -0.00000000000E+00 -0.00000000000E+00 -0.74505805969E-08  0.93827000000E+00  0.93827000000E+00 0.  1.
     999902    2    1    2    0    0  0.12866912837E-01 -0.16450399927E-01 -0.11299006267E-01  0.10201846711E+01  0.10199082912E+01 0.  0.
     999903    2    3    3    0    0 -0.11619538114E+00  0.12400104497E-01  0.48646864556E-01  0.12828617081E+00  0.20873308317E-01 0.  0.
         14    1    1    2    0    0 -0.12866912837E-01  0.16450399927E-01  0.11299006267E-01  0.23745328937E-01  0.00000000000E+00 0. -1.
     999901    1    3    3    0    0  0.12906229397E+00 -0.28850504424E-01 -0.59945870823E-01  0.89189850026E+00  0.88000000000E+00 0. -1.
        -11    1    4    4    0    0 -0.93228586698E-01  0.14825906088E-01  0.31502654696E-01  0.99519119986E-01  0.51100000000E-03 0. -1.
         11    1    4    4    0    0 -0.22966794439E-01 -0.24258015913E-02  0.17144209860E-01  0.28767050820E-01  0.51100000000E-03 0.  1.
</event>
<event>
 8    1  0.1146431E+005  0.1043930E+01  0.7957747E-01            NaN
         13   -1    0    0    0    0  0.00000000000E+00  0.00000000000E+00  0.74505805969E-08  0.10566000000E+00  0.10566000000E+00 0.  1.
     999900   -1    0    0    0    0 -0.00000000000E+00 -0.00000000000E+00 -0.74505805969E-08  0.93827000000E+00  0.93827000000E+00 0.  1.
     999902    2    1    2    0    0  0.19158778578E-02 -0.23108557030E-01 -0.66923446237E-02  0.10197957200E+01  0.10195101015E+01 0.  0.
     999903    2    3    3    0    0 -0.98055155400E-01 -0.21129407725E-01  0.79896656516E-01  0.12991045791E+00  0.20784272407E-01 0.  0.
         14    1    1    2    0    0 -0.19158778578E-02  0.23108557030E-01  0.66923446237E-02  0.24134280029E-01  0.00000000000E+00 0. -1.
     999901    1    3    3    0    0  0.99971033258E-01 -0.19791493050E-02 -0.86589001139E-01  0.88988526207E+00  0.88000000000E+00 0.  1.
        -11    1    4    4    0    0 -0.22966449449E-01 -0.14099051710E-01  0.19036605776E-01  0.32998402081E-01  0.51100000000E-03 0.  1.
         11    1    4    4    0    0 -0.75088705951E-01 -0.70303560145E-02  0.60860050740E-01  0.96912055825E-01  0.51100000000E-03 0. -1.
</event>
<event>
 8    1  0.1146431E+005  0.1043930E+01  0.7957747E-01            NaN
         13   -1    0    0    0    0  0.00000000000E+00  0.00000000000E+00  0.74505805969E-08  0.10566000000E+00  0.10566000000E+00 0.  1.
     999900   -1    0    0    0    0 -0.00000000000E+00 -0.00000000000E+00 -0.74505805969E-08  0.93827000000E+00  0.93827000000E+00 0.  1.
     999902    2    1    2    0    0  0.11687400878E-01  0.13568819434E-01  0.13122560839E-01  0.10217284279E+01  0.10214871857E+01 0.  0.
     999903    2    3    3    0    0 -0.29353632382E-01  0.12832139704E+00  0.79424587366E-02  0.13331447376E+00  0.19535853987E-01 0.  0.
         14    1    1    2    0    0 -0.11687400878E-01 -0.13568819434E-01 -0.13122560839E-01  0.22201572086E-01  0.00000000000E+00 0.  1.
     999901    1    3    3    0    0  0.41041033260E-01 -0.11475257761E+00  0.51801021024E-02  0.88841395415E+00  0.88000000000E+00 0. -1.
        -11    1    4    4    0    0 -0.17822065565E-01  0.10582461955E+00  0.19732585475E-02  0.10733420235E+00  0.51100000000E-03 0.  1.
         11    1    4    4    0    0 -0.11531566817E-01  0.22496777494E-01  0.59692001891E-02  0.25980271414E-01  0.51100000000E-03 0. -1.
</event>
<event>
 8    1  0.1146431E+005  0.1043930E+01  0.7957747E-01            NaN
         13   -1    0    0    0    0  0.00000000000E+00  0.00000000000E+00  0.74505805969E-08  0.10566000000E+00  0.10566000000E+00 0. -1.
     999900   -1    0    0    0    0 -0.00000000000E+00 -0.00000000000E+00 -0.74505805969E-08  0.93827000000E+00  0.93827000000E+00 0. -1.
     999902    2    1    2    0    0  0.14596848886E-01 -0.85688137116E-02  0.14553428694E-01  0.10216074810E+01  0.10213635741E+01 0.  0.
     999903    2    3    3    0    0  0.86496671646E-01  0.93797477209E-01  0.30467211698E-01  0.13261834133E+00  0.19486727103E-01 0.  0.
         14    1    1    2    0    0 -0.14596848886E-01  0.85688137116E-02 -0.14553428694E-01  0.22322518957E-01  0.00000000000E+00 0.  1.
     999901    1    3    3    0    0 -0.71899822760E-01 -0.10236629092E+00 -0.15913783004E-01  0.88898913971E+00  0.88000000000E+00 0. -1.
        -11    1    4    4    0    0  0.49544890478E-01  0.61797982470E-01  0.26707878216E-01  0.83589824079E-01  0.51100000000E-03 0.  1.
         11    1    4    4    0    0  0.36951781168E-01  0.31999494739E-01  0.37593334815E-02  0.49028517256E-01  0.51100000000E-03 0. -1.
</event>
<event>
 8    1  0.1146431E+005  0.1043930E+01  0.7957747E-01            NaN
         13   -1    0    0    0    0  0.00000000000E+00  0.00000000000E+00  0.74505805969E-08  0.10566000000E+00  0.10566000000E+00 0. -1.
     999900   -1    0    0    0    0 -0.00000000000E+00 -0.00000000000E+00 -0.74505805969E-08  0.93827000000E+00  0.93827000000E+00 0. -1.
     999902    2    1    2    0    0 -0.18330820933E-01  0.12190701865E-01 -0.96674279248E-02  0.10198864693E+01  0.10196030202E+01 0.  0.
     999903    2    3    3    0    0 -0.42085782448E-01 -0.99061704650E-01  0.68442415510E-01  0.12913255049E+00  0.20159785289E-01 0.  0.
         14    1    1    2    0    0  0.18330820933E-01 -0.12190701865E-01  0.96674279248E-02  0.24043530746E-01  0.00000000000E+00 0.  1.
     999901    1    3    3    0    0  0.23754961515E-01  0.11125240651E+00 -0.78109843435E-01  0.89075391876E+00  0.88000000000E+00 0. -1.
        -11    1    4    4    0    0 -0.32912242677E-01 -0.71320096876E-01  0.59598148377E-01  0.98600062614E-01  0.51100000000E-03 0.  1.
         11    1    4    4    0    0 -0.91735397706E-02 -0.27741607774E-01  0.88442671324E-02  0.30532487876E-01  0.51100000000E-03 0. -1.
</event>
<event>
 8    1  0.1146431E+005  0.1043930E+01  0.7957747E-01            NaN
         13   -1    0    0    0    0  0.00000000000E+00  0.00000000000E+00  0.74505805969E-08  0.10566000000E+00  0.10566000000E+00 0.  1.
     999900   -1    0    0    0    0 -0.00000000000E+00 -0.00000000000E+00 -0.74505805969E-08  0.93827000000E+00  0.93827000000E+00 0.  1.
     999902    2    1    2    0    0 -0.20542054419E-01  0.40685063625E-02  0.11454246299E-01  0.10200610138E+01  0.10197817136E+01 0.  0.
     999903    2    3    3    0    0 -0.22015710938E-01 -0.98372936853E-01  0.81627575061E-01  0.13134243235E+00  0.20636067746E-01 0.  0.
         14    1    1    2    0    0  0.20542054419E-01 -0.40685063625E-02 -0.11454246299E-01  0.23868986196E-01  0.00000000000E+00 0. -1.
     999901    1    3    3    0    0  0.14736565193E-02  0.10244144322E+00 -0.70173328762E-01  0.88871858145E+00  0.88000000000E+00 0.  1.
        -11    1    4    4    0    0 -0.12533685140E-01 -0.63286066200E-01  0.39280173248E-01  0.75534181465E-01  0.51100000000E-03 0. -1.
         11    1    4    4    0    0 -0.94820257983E-02 -0.35086870653E-01  0.42347401814E-01  0.55808250885E-01  0.51100000000E-03 0.  1.
</event>
<event>
 8    1  0.1146431E+005  0.1043930E+01  0.7957747E-01            NaN
         13   -1    0    0    0    0  0.00000000000E+00  0.00000000000E+00  0.74505805969E-08  0.10566000000E+00  0.10566000000E+00 0. -1.
     999900   -1    0    0    0    0 -0.00000000000E+00 -0.00000000000E+00 -0.74505805969E-08  0.93827000000E+00  0.93827000000E+00 0. -1.
     999902    2    1    2    0    0 -0.18048847844E-01 -0.14617890562E-01 -0.40068173931E-04  0.10207040396E+01  0.10204397538E+01 0.  0.
     999903    2    3    3    0    0  0.20388731899E-01 -0.11528802675E+00  0.57687621246E-01  0.13225347257E+00  0.21356260452E-01 0.  0.
         14    1    1    2    0    0  0.18048847844E-01  0.14617890562E-01  0.40068173931E-04  0.23225960442E-01  0.00000000000E+00 0. -1.
     999901    1    3    3    0    0 -0.38437579743E-01  0.10067013619E+00 -0.57727689420E-01  0.88845056699E+00  0.88000000000E+00 0. -1.
        -11    1    4    4    0    0  0.15078312166E-01 -0.59963422265E-01  0.41115048989E-01  0.74254130402E-01  0.51100000000E-03 0.  1.
         11    1    4    4    0    0  0.53104197332E-02 -0.55324604489E-01  0.16572572257E-01  0.57999342167E-01  0.51100000000E-03 0. -1.
</event>
<event>
 8    1  0.1146431E+005  0.1043930E+01  0.7957747E-01            NaN
         13   -1    0    0    0    0  0.00000000000E+00  0.00000000000E+00  0.74505805969E-08  0.10566000000E+00  0.10566000000E+00 0. -1.
     999900   -1    0    0    0    0 -0.00000000000E+00 -0.00000000000E+00 -0.74505805969E-08  0.93827000000E+00  0.93827000000E+00 0. -1.
     999902    2    1    2    0    0  0.75028688499E-02 -0.46800182320E-02  0.20044175650E-01  0.10220219059E+01  0.10217870676E+01 0.  0.
     999903    2    3    3    0    0 -0.46317629634E-01 -0.50325447134E-01 -0.10854712554E+00  0.12988073206E+00  0.20212685459E-01 0.  0.
         14    1    1    2    0    0 -0.75028688499E-02  0.46800182320E-02 -0.20044175650E-01  0.21908094146E-01  0.00000000000E+00 0.  1.
     999901    1    3    3    0    0  0.53820498484E-01  0.45645428902E-01  0.12859130119E+00  0.89214117379E+00  0.88000000000E+00 0.  1.
        -11    1    4    4    0    0 -0.32731914210E-01 -0.45862076209E-01 -0.93106616876E-01  0.10882927671E+00  0.51100000000E-03 0.  1.
         11    1    4    4    0    0 -0.13585715424E-01 -0.44633709249E-02 -0.15440508663E-01  0.21051455350E-01  0.51100000000E-03 0. -1.
</event>
<event>
 8    1  0.1146431E+005  0.1043930E+01  0.7957747E-01            NaN
         13   -1    0    0    0    0  0.00000000000E+00  0.00000000000E+00  0.74505805969E-08  0.10566000000E+00  0.10566000000E+00 0.  1.
     999900   -1    0    0    0    0 -0.00000000000E+00 -0.00000000000E+00 -0.74505805969E-08  0.93827000000E+00  0.93827000000E+00 0. -1.
     999902    2    1    2    0    0 -0.17677412594E-01 -0.86668253711E-02 -0.12723179304E-01  0.10204889235E+01  0.10202196620E+01 0.  0.
     999903    2    3    3    0    0 -0.11934509660E+00  0.12349641417E-01  0.51395236492E-01  0.13206943859E+00  0.20127109801E-01 0.  0.
         14    1    1    2    0    0  0.17677412594E-01  0.86668253711E-02  0.12723179304E-01  0.23441076546E-01  0.00000000000E+00 0. -1.
     999901    1    3    3    0    0  0.10166768401E+00 -0.21016466788E-01 -0.64118415796E-01  0.88841948487E+00  0.88000000000E+00 0. -1.
        -11    1    4    4    0    0 -0.95746888716E-01  0.15127723373E-01  0.34429949547E-01  0.10286883522E+00  0.51100000000E-03 0. -1.
         11    1    4    4    0    0 -0.23598207884E-01 -0.27780819569E-02  0.16965286945E-01  0.29200603364E-01  0.51100000000E-03 0.  1.
</event>
<event>
 8    1  0.1146431E+005  0.1043930E+01  0.7957747E-01            NaN
         13   -1    0    0    0    0  0.00000000000E+00  0.00000000000E+00  0.74505805969E-08  0.10566000000E+00  0.10566000000E+00 0.  1.
     999900   -1    0    0    0    0 -0.00000000000E+00 -0.00000000000E+00 -0.74505805969E-08  0.93827000000E+00  0.93827000000E+00 0. -1.
     999902    2    1    2    0    0  0.20143573801E-01  0.12798848078E-01  0.39159325541E-02  0.10197451162E+01  0.10194582843E+01 0.  0.
     999903    2    3    3    0    0  0.56111818858E-01  0.10376146893E+00 -0.56489502995E-01  0.13226738142E+00  0.19713386082E-01 0.  0.
         14    1    1    2    0    0 -0.20143573801E-01 -0.12798848078E-01 -0.39159325541E-02  0.24184883820E-01  0.00000000000E+00 0. -1.
     999901    1    3    3    0    0 -0.35968245057E-01 -0.90962620849E-01  0.60405435549E-01  0.88747773476E+00  0.88000000000E+00 0.  1.
        -11    1    4    4    0    0  0.55917736318E-01  0.92311437559E-01 -0.53283659449E-01  0.12036446413E+00  0.51100000000E-03 0. -1.
         11    1    4    4    0    0  0.19408253950E-03  0.11450031368E-01 -0.32058435459E-02  0.11902917298E-01  0.51100000000E-03 0.  1.
</event>
<event>
 8    1  0.1146431E+005  0.1043930E+01  0.7957747E-01            NaN
         13   -1    0    0    0    0  0.00000000000E+00  0.00000000000E+00  0.74505805969E-08  0.10566000000E+00  0.10566000000E+00 0.  1.
     999900   -1    0    0    0    0 -0.00000000000E+00 -0.00000000000E+00 -0.74505805969E-08  0.93827000000E+00  0.93827000000E+00 0.  1.
     999902    2    1    2    0    0 -0.20377436109E-01 -0.12726496849E-01  0.21421363491E-02  0.10198096274E+01  0.10195243420E+01 0.  0.
     999903    2    3    3    0    0 -0.85689676767E-01 -0.63675677673E-01 -0.75810260845E-01  0.13248889397E+00  0.20218772106E-01 0.  0.
         14    1    1    2    0    0  0.20377436109E-01  0.12726496849E-01 -0.21421363491E-02  0.24120372563E-01  0.00000000000E+00 0.  1.
     999901    1    3    3    0    0  0.65312240659E-01  0.50949180823E-01  0.77952397194E-01  0.88732073346E+00  0.88000000000E+00 0. -1.
        -11    1    4    4    0    0 -0.46529639995E-01 -0.22154793202E-01 -0.37808385238E-01  0.63918521378E-01  0.51100000000E-03 0.  1.
         11    1    4    4    0    0 -0.39160036772E-01 -0.41520884471E-01 -0.38001875606E-01  0.68570372595E-01  0.51100000000E-03 0. -1.
</event>
<event>
 8    1  0.1146431E+005  0.1043930E+01  0.7957747E-01            NaN
         13   -1    0    0    0    0  0.00000000000E+00  0.00000000000E+00  0.74505805969E-08  0.10566000000E+00  0.10566000000E+00 0. -1.
     999900   -1    0    0    0    0 -0.00000000000E+00 -0.00000000000E+00 -0.74505805969E-08  0.93827000000E+00  0.93827000000E+00 0. -1.
     999902    2    1    2    0    0 -0.19752447443E-01  0.27720994012E-02  0.12206282046E-01  0.10205454530E+01  0.10202775038E+01 0.  0.
     999903    2    3    3    0    0  0.95201160421E-01 -0.18246334707E-01  0.84106230164E-01  0.12991325675E+00  0.20184316960E-01 0.  0.
         14    1    1    2    0    0  0.19752447443E-01 -0.27720994012E-02 -0.12206282046E-01  0.23384546958E-01  0.00000000000E+00 0.  1.
     999901    1    3    3    0    0 -0.11495360786E+00  0.21018434108E-01 -0.71899948118E-01  0.89063219629E+00  0.88000000000E+00 0. -1.
        -11    1    4    4    0    0  0.38613974073E-01 -0.17176862333E-01  0.32457165447E-01  0.53289889315E-01  0.51100000000E-03 0.  1.
         11    1    4    4    0    0  0.56587186348E-01 -0.10694723740E-02  0.51649064717E-01  0.76623367435E-01  0.51100000000E-03 0. -1.
</event>
<event>
 8    1  0.1146431E+005  0.1043930E+01  0.7957747E-01            NaN
         13   -1    0    0    0    0  0.00000000000E+00  0.00000000000E+00  0.74505805969E-08  0.10566000000E+00  0.10566000000E+00 0.  1.
     999900   -1    0    0    0    0 -0.00000000000E+00 -0.00000000000E+00 -0.74505805969E-08  0.93827000000E+00  0.93827000000E+00 0.  1.
     999902    2    1    2    0    0  0.99968662849E-03 -0.23549042084E-01  0.75172575475E-03  0.10203477641E+01  0.10200752119E+01 0.  0.
     999903    2    3    3    0    0  0.35930593906E-01  0.14117999832E-01 -0.12293788278E+00  0.13021401375E+00  0.18752089366E-01 0.  0.
         14    1    1    2    0    0 -0.99968662849E-03  0.23549042084E-01 -0.75172575475E-03  0.23582235857E-01  0.00000000000E+00 0.  1.
     999901    1    3    3    0    0 -0.34930907277E-01 -0.37667041915E-01  0.12368960854E+00  0.89013375039E+00  0.88000000000E+00 0. -1.
        -11    1    4    4    0    0  0.37895543842E-02  0.91810412929E-04 -0.20465216522E-02  0.43380322101E-02  0.51100000000E-03 0. -1.
         11    1    4    4    0    0  0.32141039521E-01  0.14026189419E-01 -0.12089136113E+00  0.12587598154E+00  0.51100000000E-03 0.  1.
</event>
<event>
 8    1  0.1146431E+005  0.1043930E+01  0.7957747E-01            NaN
         13   -1    0    0    0    0  0.00000000000E+00  0.00000000000E+00  0.74505805969E-08  0.10566000000E+00  0.10566000000E+00 0. -1.
     999900   -1    0    0    0    0 -0.00000000000E+00 -0.00000000000E+00 -0.74505805969E-08  0.93827000000E+00  0.93827000000E+00 0. -1.
     999902    2    1    2    0    0 -0.18954718583E-01  0.12869884831E-01  0.55468568929E-02  0.10203570724E+01  0.10200847378E+01 0.  0.
     999903    2    3    3    0    0 -0.12171125762E-01  0.12620772549E+00  0.32730285459E-01  0.13264629632E+00  0.21148098430E-01 0.  0.
         14    1    1    2    0    0  0.18954718583E-01 -0.12869884831E-01 -0.55468568929E-02  0.23572927555E-01  0.00000000000E+00 0. -1.
     999901    1    3    3    0    0 -0.67835928215E-02 -0.11333784065E+00 -0.27183428566E-01  0.88771077612E+00  0.88000000000E+00 0.  1.
        -11    1    4    4    0    0 -0.83176667982E-02  0.99721246903E-01  0.34419522684E-01  0.10582284880E+00  0.51100000000E-03 0. -1.
         11    1    4    4    0    0 -0.38534589636E-02  0.26486478582E-01 -0.16892372255E-02  0.26823447524E-01  0.51100000000E-03 0.  1.
</event>
<event>
 8    1  0.1146431E+005  0.1043930E+01  0.7957747E-01            NaN
         13   -1    0    0    0    0  0.00000000000E+00  0.00000000000E+00  0.74505805969E-08  0.10566000000E+00  0.10566000000E+00 0.  1.
     999900   -1    0    0    0    0 -0.00000000000E+00 -0.00000000000E+00 -0.74505805969E-08  0.93827000000E+00  0.93827000000E+00 0.  1.
     999902    2    1    2    0    0 -0.22367590219E-01  0.56289314927E-02 -0.14995505031E-02  0.10208163111E+01  0.10205546034E+01 0.  0.
     999903    2    3    3    0    0 -0.21321137536E-01 -0.12400919369E+00  0.29736870160E-01  0.13076976597E+00  0.19585178547E-01 0.  0.
         14    1    1    2    0    0  0.22367590219E-01 -0.56289314927E-02  0.14995505031E-02  0.23113688880E-01  0.00000000000E+00 0.  1.
     999901    1    3    3    0    0 -0.10464526823E-02  0.12963812518E+00 -0.31236420663E-01  0.89004654515E+00  0.88000000000E+00 0.  1.
        -11    1    4    4    0    0 -0.21257470256E-01 -0.66706626076E-01  0.15056046622E-01  0.71614242055E-01  0.51100000000E-03 0.  1.
         11    1    4    4    0    0 -0.63667280738E-04 -0.57302567613E-01  0.14680823538E-01  0.59155523912E-01  0.51100000000E-03 0. -1.
</event>
<event>
 8    1  0.1146431E+005  0.1043930E+01  0.7957747E-01            NaN
         13   -1    0    0    0    0  0.00000000000E+00  0.00000000000E+00  0.74505805969E-08  0.10566000000E+00  0.10566000000E+00 0. -1.
     999900   -1    0    0    0    0 -0.00000000000E+00 -0.00000000000E+00 -0.74505805969E-08  0.93827000000E+00  0.93827000000E+00 0. -1.
     999902    2    1    2    0    0  0.29461612223E-02  0.12613050900E-01 -0.19987486990E-01  0.10201125997E+01  0.10198345197E+01 0.  0.
     999903    2    3    3    0    0  0.20288277270E-02  0.12001316081E+00 -0.53563051707E-01  0.13294691980E+00  0.19965171367E-01 0.  0.
         14    1    1    2    0    0 -0.29461612223E-02 -0.12613050900E-01  0.19987486990E-01  0.23817400260E-01  0.00000000000E+00 0. -1.
     999901    1    3    3    0    0  0.91733349529E-03 -0.10740010991E+00  0.33575564716E-01  0.88716567994E+00  0.88000000000E+00 0. -1.
        -11    1    4    4    0    0 -0.13608424754E-02  0.96953794069E-01 -0.50814541371E-01  0.10947268523E+00  0.51100000000E-03 0.  1.
         11    1    4    4    0    0  0.33896702024E-02  0.23059366741E-01 -0.27485103354E-02  0.23474234570E-01  0.51100000000E-03 0. -1.
</event>
<event>
 8    1  0.1146431E+005  0.1043930E+01  0.7957747E-01            NaN
         13   -1    0    0    0    0  0.00000000000E+00  0.00000000000E+00  0.74505805969E-08  0.10566000000E+00  0.10566000000E+00 0.  1.
     999900   -1    0    0    0    0 -0.00000000000E+00 -0.00000000000E+00 -0.74505805969E-08  0.93827000000E+00  0.93827000000E+00 0. -1.
     999902    2    1    2    0    0 -0.14706648500E-01  0.19260817018E-01  0.53644112170E-02  0.10191098169E+01  0.10188075271E+01 0.  0.
     999903    2    3    3    0    0 -0.20478471345E-01  0.87165276890E-01  0.94748321388E-01  0.13196055492E+00  0.20474138903E-01 0.  0.
         14    1    1    2    0    0  0.14706648500E-01 -0.19260817018E-01 -0.53644112170E-02  0.24820183118E-01  0.00000000000E+00 0. -1.
     999901    1    3    3    0    0  0.57718228443E-02 -0.67904459872E-01 -0.89383910171E-01  0.88714926197E+00  0.88000000000E+00 0. -1.
        -11    1    4    4    0    0 -0.26147501275E-02  0.60675932011E-04  0.12911248117E-02  0.29612031469E-02  0.51100000000E-03 0. -1.
         11    1    4    4    0    0 -0.17863721217E-01  0.87104600958E-01  0.93457196577E-01  0.12899935177E+00  0.51100000000E-03 0.  1.
</event>
<event>
 8    1  0.1146431E+005  0.1043930E+01  0.7957747E-01            NaN
         13   -1    0    0    0    0  0.00000000000E+00  0.00000000000E+00  0.74505805969E-08  0.10566000000E+00  0.10566000000E+00 0. -1.
     999900   -1    0    0    0    0 -0.00000000000E+00 -0.00000000000E+00 -0.74505805969E-08  0.93827000000E+00  0.93827000000E+00 0. -1.
     999902    2    1    2    0    0 -0.67248044030E-03 -0.24312084183E-02  0.22031983581E-01  0.10217540828E+01  0.10215134039E+01 0.  0.
     999903    2    3    3    0    0 -0.52174925654E-01  0.94915023685E-01 -0.68672059853E-01  0.13026318867E+00  0.22837730416E-01 0.  0.
         14    1    1    2    0    0  0.67248044030E-03  0.24312084183E-02 -0.22031983581E-01  0.22175917227E-01  0.00000000000E+00 0.  1.
     999901    1    3    3    0    0  0.51502445214E-01 -0.97346232104E-01  0.90704043435E-01  0.89149089410E+00  0.88000000000E+00 0.  1.
        -11    1    4    4    0    0 -0.15549553517E-01  0.51928694658E-01 -0.32912932556E-01  0.63418453102E-01  0.51100000000E-03 0.  1.
         11    1    4    4    0    0 -0.36625372138E-01  0.42986329027E-01 -0.35759127297E-01  0.66844735571E-01  0.51100000000E-03 0. -1.
</event>
<event>
 8    1  0.1146431E+005  0.1043930E+01  0.7957747E-01            NaN
         13   -1    0    0    0    0  0.00000000000E+00  0.00000000000E+00  0.74505805969E-08  0.10566000000E+00  0.10566000000E+00 0.  1.
     999900   -1    0    0    0    0 -0.00000000000E+00 -0.00000000000E+00 -0.74505805969E-08  0.93827000000E+00  0.93827000000E+00 0.  1.
     999902    2    1    2    0    0 -0.57287949973E-02 -0.20761130110E-01  0.63741110506E-02  0.10214695257E+01  0.10212225609E+01 0.  0.
     999903    2    3    3    0    0 -0.13055069085E-01 -0.13178984657E+00 -0.98124062622E-02  0.13431505574E+00  0.20130881618E-01 0.  0.
         14    1    1    2    0    0  0.57287949973E-02  0.20761130110E-01 -0.63741110506E-02  0.22460474333E-01  0.00000000000E+00 0. -1.
     999901    1    3    3    0    0  0.73262740874E-02  0.11102871646E+00  0.16186517313E-01  0.88715446993E+00  0.88000000000E+00 0. -1.
        -11    1    4    4    0    0  0.20772209910E-02 -0.37898900517E-01  0.41746181639E-02  0.38188088002E-01  0.51100000000E-03 0. -1.
         11    1    4    4    0    0 -0.15132290076E-01 -0.93890946050E-01 -0.13987024426E-01  0.96126967738E-01  0.51100000000E-03 0.  1.
</event>
<event>
 8    1  0.1146431E+005  0.1043930E+01  0.7957747E-01            NaN
         13   -1    0    0    0    0  0.00000000000E+00  0.00000000000E+00  0.74505805969E-08  0.10566000000E+00  0.10566000000E+00 0.  1.
     999900   -1    0    0    0    0 -0.00000000000E+00 -0.00000000000E+00 -0.74505805969E-08  0.93827000000E+00  0.93827000000E+00 0.  1.
     999902    2    1    2    0    0 -0.83424786886E-03  0.22976805500E-01  0.33806869409E-02  0.10206908390E+01  0.10204262493E+01 0.  0.
     999903    2    3    3    0    0 -0.98836241783E-01 -0.80453248441E-01  0.87817482456E-02  0.12921378469E+00  0.19435924921E-01 0.  0.
         14    1    1    2    0    0  0.83424786886E-03 -0.22976805500E-01 -0.33806869409E-02  0.23239161015E-01  0.00000000000E+00 0.  1.
     999901    1    3    3    0    0  0.98001993914E-01  0.10343005394E+00 -0.54010613047E-02  0.89147705429E+00  0.88000000000E+00 0. -1.
        -11    1    4    4    0    0 -0.46794805457E-01 -0.25857383251E-01  0.24764250302E-02  0.53523377026E-01  0.51100000000E-03 0. -1.
         11    1    4    4    0    0 -0.52041436326E-01 -0.54595865190E-01  0.63053232154E-02  0.75690407666E-01  0.51100000000E-03 0.  1.
</event>
<event>
 8    1  0.1146431E+005  0.1043930E+01  0.7957747E-01            NaN
         13   -1    0    0    0    0  0.00000000000E+00  0.00000000000E+00  0.74505805969E-08  0.10566000000E+00  0.10566000000E+00 0. -1.
     999900   -1    0    0    0    0 -0.00000000000E+00 -0.00000000000E+00 -0.74505805969E-08  0.93827000000E+00  0.93827000000E+00 0. -1.
     999902    2    1    2    0    0 -0.10987368826E-01  0.14594366708E-01  0.15706398044E-01  0.10198383261E+01  0.10195537272E+01 0.  0.
     999903    2    3    3    0    0  0.10105495186E+00  0.12611201988E-01 -0.74391489705E-01  0.12816851950E+00  0.22845786009E-01 0.  0.
         14    1    1    2    0    0  0.10987368826E-01 -0.14594366708E-01 -0.15706398044E-01  0.24091673932E-01  0.00000000000E+00 0. -1.
     999901    1    3    3    0    0 -0.11204232069E+00  0.19831647203E-02  0.90097887749E-01  0.89166980657E+00  0.88000000000E+00 0. -1.
        -11    1    4    4    0    0  0.40357054731E-01 -0.39897726018E-02 -0.37418170183E-01  0.55181434676E-01  0.51100000000E-03 0. -1.
         11    1    4    4    0    0  0.60697897133E-01  0.16600974590E-01 -0.36973319522E-01  0.72987084825E-01  0.51100000000E-03 0.  1.
</event>
<event>
 8    1  0.1146431E+005  0.1043930E+01  0.7957747E-01            NaN
         13   -1    0    0    0    0  0.00000000000E+00  0.00000000000E+00  0.74505805969E-08  0.10566000000E+00  0.10566000000E+00 0. -1.
     999900   -1    0    0    0    0 -0.00000000000E+00 -0.00000000000E+00 -0.74505805969E-08  0.93827000000E+00  0.93827000000E+00 0. -1.
     999902    2    1    2    0    0 -0.14771629746E-01 -0.14612898202E-01  0.11837166627E-01  0.10200164818E+01  0.10197361261E+01 0.  0.
     999903    2    3    3    0    0 -0.74820209822E-01  0.88769376148E-01  0.56790663764E-01  0.13079516878E+00  0.20103003390E-01 0.  0.
         14    1    1    2    0    0  0.14771629746E-01  0.14612898202E-01 -0.11837166627E-01  0.23913518206E-01  0.00000000000E+00 0.  1.
     999901    1    3    3    0    0  0.60048580076E-01 -0.10338227435E+00 -0.44953497137E-01  0.88922131302E+00  0.88000000000E+00 0. -1.
        -11    1    4    4    0    0 -0.33055601873E-01  0.27528612520E-01  0.27679453310E-01  0.51155748250E-01  0.51100000000E-03 0.  1.
         11    1    4    4    0    0 -0.41764607948E-01  0.61240763628E-01  0.29111210454E-01  0.79639420527E-01  0.51100000000E-03 0. -1.
</event>
<event>
 8    1  0.1146431E+005  0.1043930E+01  0.7957747E-01            NaN
         13   -1    0    0    0    0  0.00000000000E+00  0.00000000000E+00  0.74505805969E-08  0.10566000000E+00  0.10566000000E+00 0. -1.
     999900   -1    0    0    0    0 -0.00000000000E+00 -0.00000000000E+00 -0.74505805969E-08  0.93827000000E+00  0.93827000000E+00 0. -1.
     999902    2    1    2    0    0  0.15167760702E-01 -0.66863184395E-03 -0.16635486397E-01  0.10214078456E+01  0.10211595074E+01 0.  0.
     999903    2    3    3    0    0 -0.19174275740E-01 -0.11263153125E+00  0.59613849284E-01  0.13038089450E+00  0.19795250515E-01 0.  0.
         14    1    1    2    0    0 -0.15167760702E-01  0.66863184395E-03  0.16635486397E-01  0.22522154446E-01  0.00000000000E+00 0.  1.
     999901    1    3    3    0    0  0.34342036442E-01  0.11196289940E+00 -0.76249335680E-01  0.89102695105E+00  0.88000000000E+00 0.  1.
        -11    1    4    4    0    0 -0.33994129452E-02 -0.59548866736E-01  0.39115515749E-01  0.71329574730E-01  0.51100000000E-03 0. -1.
         11    1    4    4    0    0 -0.15774862795E-01 -0.53082664513E-01  0.20498333535E-01  0.59051319771E-01  0.51100000000E-03 0.  1.
</event>
<event>
 8    1  0.1146431E+005  0.1043930E+01  0.7957747E-01            NaN
         13   -1    0    0    0    0  0.00000000000E+00  0.00000000000E+00  0.74505805969E-08  0.10566000000E+00  0.10566000000E+00 0. -1.
     999900   -1    0    0    0    0 -0.00000000000E+00 -0.00000000000E+00 -0.74505805969E-08  0.93827000000E+00  0.93827000000E+00 0. -1.
     999902    2    1    2    0    0 -0.18487683530E-01 -0.70232105344E-02  0.12751917871E-01  0.10203985033E+01  0.10201271363E+01 0.  0.
     999903    2    3    3    0    0  0.84383564465E-01  0.82986661340E-01 -0.44490094848E-01  0.12800793928E+00  0.19982293818E-01 0.  0.
         14    1    1    2    0    0  0.18487683530E-01  0.70232105344E-02 -0.12751917871E-01  0.23531496721E-01  0.00000000000E+00 0. -1.
     999901    1    3    3    0    0 -0.10287124800E+00 -0.90009871875E-01  0.57242012719E-01  0.89239056400E+00  0.88000000000E+00 0. -1.
        -11    1    4    4    0    0  0.24791941158E-01  0.34310841390E-01 -0.90403073588E-02  0.43288133032E-01  0.51100000000E-03 0. -1.
         11    1    4    4    0    0  0.59591623308E-01  0.48675819951E-01 -0.35449787490E-01  0.84719806246E-01  0.51100000000E-03 0.  1.
</event>
<event>
 8    1  0.1146431E+005  0.1043930E+01  0.7957747E-01            NaN
         13   -1    0    0    0    0  0.00000000000E+00  0.00000000000E+00  0.74505805969E-08  0.10566000000E+00  0.10566000000E+00 0. -1.
     999900   -1    0    0    0    0 -0.00000000000E+00 -0.00000000000E+00 -0.74505805969E-08  0.93827000000E+00  0.93827000000E+00 0. -1.
     999902    2    1    2    0    0 -0.22827067287E-01  0.46921675310E-02  0.46519787684E-02  0.10201659022E+01  0.10198890801E+01 0.  0.
     999903    2    3    3    0    0 -0.82166663034E-01  0.92143709183E-01  0.44543745157E-01  0.13294534746E+00  0.21177736463E-01 0.  0.
         14    1    1    2    0    0  0.22827067287E-01 -0.46921675310E-02 -0.46519787684E-02  0.23764097785E-01  0.00000000000E+00 0. -1.
     999901    1    3    3    0    0  0.59339595747E-01 -0.87451541652E-01 -0.39891766389E-01  0.88722055476E+00  0.88000000000E+00 0.  1.
        -11    1    4    4    0    0 -0.53903341084E-01  0.53985225412E-01  0.37254716801E-01  0.84900823245E-01  0.51100000000E-03 0.  1.
         11    1    4    4    0    0 -0.28263321950E-01  0.38158483771E-01  0.72890283562E-02  0.48044524211E-01  0.51100000000E-03 0. -1.
</event>
<event>
 8    1  0.1146431E+005  0.1043930E+01  0.7957747E-01            NaN
         13   -1    0    0    0    0  0.00000000000E+00  0.00000000000E+00  0.74505805969E-08  0.10566000000E+00  0.10566000000E+00 0.  1.
     999900   -1    0    0    0    0 -0.00000000000E+00 -0.00000000000E+00 -0.74505805969E-08  0.93827000000E+00  0.93827000000E+00 0.  1.
     999902    2    1    2    0    0 -0.12501066864E-01  0.15867485017E-01 -0.14361173327E-01  0.10191449833E+01  0.10188435601E+01 0.  0.
     999903    2    3    3    0    0  0.56140807535E-01 -0.11145040889E+00  0.12009267769E-01  0.12694716152E+00  0.19959343503E-01 0.  0.
         14    1    1    2    0    0  0.12501066864E-01 -0.15867485017E-01  0.14361173327E-01  0.24785016700E-01  0.00000000000E+00 0.  1.
     999901    1    3    3    0    0 -0.68641874399E-01  0.12731789390E+00 -0.26370441097E-01  0.89219782178E+00  0.88000000000E+00 0.  1.
        -11    1    4    4    0    0  0.17275355575E-01 -0.37607903773E-01  0.13350001119E-01  0.43488803011E-01  0.51100000000E-03 0. -1.
         11    1    4    4    0    0  0.38865451960E-01 -0.73842505115E-01 -0.13407333500E-02  0.83458358507E-01  0.51100000000E-03 0.  1.
</event>
<event>
 8    1  0.1146431E+005  0.1043930E+01  0.7957747E-01            NaN
         13   -1    0    0    0    0  0.00000000000E+00  0.00000000000E+00  0.74505805969E-08  0.10566000000E+00  0.10566000000E+00 0.  1.
     999900   -1    0    0    0    0 -0.00000000000E+00 -0.00000000000E+00 -0.74505805969E-08  0.93827000000E+00  0.93827000000E+00 0. -1.
     999902    2    1    2    0    0 -0.22853762579E-01  0.40557854519E-02 -0.80399887272E-02  0.10193660981E+01  0.10190700941E+01 0.  0.
     999903    2    3    3    0    0  0.77982405223E-03 -0.12538665378E+00  0.23149005061E-01  0.12903658332E+00  0.19802583871E-01 0.  0.
         14    1    1    2    0    0  0.22853762579E-01 -0.40557854519E-02  0.80399887272E-02  0.24563901937E-01  0.00000000000E+00 0. -1.
     999901    1    3    3    0    0 -0.23633586631E-01  0.12944243923E+00 -0.31188993788E-01  0.89032951474E+00  0.88000000000E+00 0. -1.
        -11    1    4    4    0    0  0.91690091167E-02 -0.78671972368E-01  0.18551770132E-01  0.81349734237E-01  0.51100000000E-03 0. -1.
         11    1    4    4    0    0 -0.83891850645E-02 -0.46714681411E-01  0.45972349286E-02  0.47686849082E-01  0.51100000000E-03 0.  1.
</event>
<event>
 8    1  0.1146431E+005  0.1043930E+01  0.7957747E-01            NaN
         13   -1    0    0    0    0  0.00000000000E+00  0.00000000000E+00  0.74505805969E-08  0.10566000000E+00  0.10566000000E+00 0.  1.
     999900   -1    0    0    0    0 -0.00000000000E+00 -0.00000000000E+00 -0.74505805969E-08  0.93827000000E+00  0.93827000000E+00 0.  1.
     999902    2    1    2    0    0  0.22079443269E-01  0.10454153946E-01 -0.35807458888E-02  0.10192396600E+01  0.10189405633E+01 0.  0.
     999903    2    3    3    0    0 -0.18506312053E-01  0.88641264979E-01 -0.91680022967E-01  0.13046414810E+00  0.20393868846E-01 0.  0.
         14    1    1    2    0    0 -0.22079443269E-01 -0.10454153946E-01  0.35807458888E-02  0.24690340032E-01  0.00000000000E+00 0. -1.
     999901    1    3    3    0    0  0.40585755322E-01 -0.78187111033E-01  0.88099277078E-01  0.88877551186E+00  0.88000000000E+00 0. -1.
        -11    1    4    4    0    0 -0.10156080261E-01  0.79193223000E-01 -0.74966200123E-01  0.10952125281E+00  0.51100000000E-03 0.  1.
         11    1    4    4    0    0 -0.83502317917E-02  0.94480419786E-02 -0.16713822844E-01  0.20942895293E-01  0.51100000000E-03 0. -1.
</event>
<event>
 8    1  0.1146431E+005  0.1043930E+01  0.7957747E-01            NaN
         13   -1    0    0    0    0  0.00000000000E+00  0.00000000000E+00  0.74505805969E-08  0.10566000000E+00  0.10566000000E+00 0. -1.
     999900   -1    0    0    0    0 -0.00000000000E+00 -0.00000000000E+00 -0.74505805969E-08  0.93827000000E+00  0.93827000000E+00 0. -1.
     999902    2    1    2    0    0 -0.11274374242E-01  0.19243298377E-01  0.46945580636E-02  0.10211384462E+01  0.10208840637E+01 0.  0.
     999903    2    3    3    0    0  0.17547706863E-01  0.10556802273E+00 -0.76150238647E-01  0.13275871238E+00  0.19325822790E-01 0.  0.
         14    1    1    2    0    0  0.11274374242E-01 -0.19243298377E-01 -0.46945580636E-02  0.22791553751E-01  0.00000000000E+00 0.  1.
     999901    1    3    3    0    0 -0.28822081105E-01 -0.86324724358E-01  0.80844796710E-01  0.88837973387E+00  0.88000000000E+00 0. -1.
        -11    1    4    4    0    0  0.14232937929E-01  0.65078823215E-01 -0.57720487323E-01  0.88146160046E-01  0.51100000000E-03 0.  1.
         11    1    4    4    0    0  0.33147689346E-02  0.40489199520E-01 -0.18429751324E-01  0.44612552334E-01  0.51100000000E-03 0. -1.
</event>
<event>
 8    1  0.1146431E+005  0.1043930E+01  0.7957747E-01            NaN
         13   -1    0    0    0    0  0.00000000000E+00  0.00000000000E+00  0.74505805969E-08  0.10566000000E+00  0.10566000000E+00 0. -1.
     999900   -1    0    0    0    0 -0.00000000000E+00 -0.00000000000E+00 -0.74505805969E-08  0.93827000000E+00  0.93827000000E+00 0.  1.
     999902    2    1    2    0    0 -0.19569713958E-01 -0.17809957229E-01 -0.19904009081E-02  0.10173945525E+01  0.10170484479E+01 0.  0.
     999903    2    3    3    0    0  0.89210007035E-01  0.54975356406E-02 -0.86947162970E-01  0.12633118863E+00  0.20275892557E-01 0.  0.
         14    1    1    2    0    0  0.19569713958E-01  0.17809957229E-01  0.19904009081E-02  0.26535447549E-01  0.00000000000E+00 0. -1.
     999901    1    3    3    0    0 -0.10877972099E+00 -0.23307492869E-01  0.84956762062E-01  0.89106336382E+00  0.88000000000E+00 0. -1.
        -11    1    4    4    0    0  0.18935504340E-01  0.19461164816E-02 -0.31228565070E-01  0.36576291383E-01  0.51100000000E-03 0. -1.
         11    1    4    4    0    0  0.70274502694E-01  0.35514191590E-02 -0.55718597900E-01  0.89754897248E-01  0.51100000000E-03 0.  1.
</event>
<event>
 8    1  0.1146431E+005  0.1043930E+01  0.7957747E-01            NaN
         13   -1    0    0    0    0  0.00000000000E+00  0.00000000000E+00  0.74505805969E-08  0.10566000000E+00  0.10566000000E+00 0. -1.
     999900   -1    0    0    0    0 -0.00000000000E+00 -0.00000000000E+00 -0.74505805969E-08  0.93827000000E+00  0.93827000000E+00 0.  1.
     999902    2    1    2    0    0  0.32198571502E-02 -0.18192095847E-01  0.18160185911E-01  0.10180241670E+01  0.10176944986E+01 0.  0.
     999903    2    3    3    0    0 -0.98891896013E-02 -0.11500251702E+00  0.60094677918E-01  0.13162549463E+00  0.19761718770E-01 0.  0.
         14    1    1    2    0    0 -0.32198571502E-02  0.18192095847E-01 -0.18160185911E-01  0.25905833005E-01  0.00000000000E+00 0.  1.
     999901    1    3    3    0    0  0.13109046752E-01  0.96810421178E-01 -0.41934492007E-01  0.88639867237E+00  0.88000000000E+00 0. -1.
        -11    1    4    4    0    0  0.10718387265E-02 -0.78928242021E-01  0.46056623240E-01  0.91390863285E-01  0.51100000000E-03 0. -1.
         11    1    4    4    0    0 -0.10961028328E-01 -0.36074275004E-01  0.14038054678E-01  0.40234631342E-01  0.51100000000E-03 0.  1.
</event>
<event>
 8    1  0.1146431E+005  0.1043930E+01  0.7957747E-01            NaN
         13   -1    0    0    0    0  0.00000000000E+00  0.00000000000E+00  0.74505805969E-08  0.10566000000E+00  0.10566000000E+00 0. -1.
     999900   -1    0    0    0    0 -0.00000000000E+00 -0.00000000000E+00 -0.74505805969E-08  0.93827000000E+00  0.93827000000E+00 0. -1.
     999902    2    1    2    0    0 -0.91859926946E-03 -0.22741570511E-01 -0.58742794776E-02  0.10204240430E+01  0.10201532716E+01 0.  0.
     999903    2    3    3    0    0 -0.66969117423E-01 -0.26310084750E-01 -0.10917882481E+00  0.13191561069E+00  0.17453633119E-01 0.  0.
         14    1    1    2    0    0  0.91859926946E-03  0.22741570511E-01  0.58742794776E-02  0.23505956975E-01  0.00000000000E+00 0. -1.
     999901    1    3    3    0    0  0.66050518153E-01  0.35685142390E-02  0.10330454533E+00  0.88850843233E+00  0.88000000000E+00 0.  1.
        -11    1    4    4    0    0 -0.14211695163E-01 -0.81082023330E-02 -0.38662248721E-01  0.41985066651E-01  0.51100000000E-03 0. -1.
         11    1    4    4    0    0 -0.52757422260E-01 -0.18201882417E-01 -0.70516576089E-01  0.89930544041E-01  0.51100000000E-03 0.  1.
</event>
<event>
 8    1  0.1146431E+005  0.1043930E+01  0.7957747E-01            NaN
         13   -1    0    0    0    0  0.00000000000E+00  0.00000000000E+00  0.74505805969E-08  0.10566000000E+00  0.10566000000E+00 0. -1.
     999900   -1    0    0    0    0 -0.00000000000E+00 -0.00000000000E+00 -0.74505805969E-08  0.93827000000E+00  0.93827000000E+00 0.  1.
     999902    2    1    2    0    0  0.10473932401E-01  0.71468939887E-02 -0.18775400517E-01  0.10212739408E+01  0.10210226076E+01 0.  0.
     999903    2    3    3    0    0 -0.31398178051E-01  0.11680257713E+00  0.47091399887E-01  0.13104021988E+00  0.18034735212E-01 0.  0.
         14    1    1    2    0    0 -0.10473932401E-01 -0.71468939887E-02  0.18775400517E-01  0.22656059194E-01  0.00000000000E+00 0. -1.
     999901    1    3    3    0    0  0.41872110452E-01 -0.10965568314E+00 -0.65866800404E-01  0.89023372093E+00  0.88000000000E+00 0.  1.
        -11    1    4    4    0    0 -0.16708280930E-01  0.33327544045E-01  0.10623892431E-01  0.38768802600E-01  0.51100000000E-03 0. -1.
         11    1    4    4    0    0 -0.14689897121E-01  0.83475033083E-01  0.36467507456E-01  0.92271417279E-01  0.51100000000E-03 0.  1.
</event>
<event>
 8    1  0.1146431E+005  0.1043930E+01  0.7957747E-01            NaN
         13   -1    0    0    0    0  0.00000000000E+00  0.00000000000E+00  0.74505805969E-08  0.10566000000E+00  0.10566000000E+00 0.  1.
     999900   -1    0    0    0    0 -0.00000000000E+00 -0.00000000000E+00 -0.74505805969E-08  0.93827000000E+00  0.93827000000E+00 0. -1.
     999902    2    1    2    0    0 -0.14648188591E-02  0.23749433400E-01  0.71452469096E-02  0.10190857686E+01  0.10187828856E+01 0.  0.
     999903    2    3    3    0    0  0.29496530428E-02  0.12369780318E+00  0.43412358289E-01  0.13267476485E+00  0.20201817024E-01 0.  0.
         14    1    1    2    0    0  0.14648188591E-02 -0.23749433400E-01 -0.71452469096E-02  0.24844231413E-01  0.00000000000E+00 0. -1.
     999901    1    3    3    0    0 -0.44144719019E-02 -0.99948369777E-01 -0.36267111379E-01  0.88641100374E+00  0.88000000000E+00 0. -1.
        -11    1    4    4    0    0 -0.68532419674E-02  0.34388524820E-01  0.17339422380E-01  0.39121020618E-01  0.51100000000E-03 0. -1.
         11    1    4    4    0    0  0.98028950102E-02  0.89309278358E-01  0.26072935909E-01  0.93553744229E-01  0.51100000000E-03 0.  1.
</event>
<event>
 8    1  0.1146431E+005  0.1043930E+01  0.7957747E-01            NaN
         13   -1    0    0    0    0  0.00000000000E+00  0.00000000000E+00  0.74505805969E-08  0.10566000000E+00  0.10566000000E+00 0. -1.
     999900   -1    0    0    0    0 -0.00000000000E+00 -0.00000000000E+00 -0.74505805969E-08  0.93827000000E+00  0.93827000000E+00 0. -1.
     999902    2    1    2    0    0 -0.22445276540E-01  0.73270707308E-02  0.26030859093E-02  0.10201760012E+01  0.10198994170E+01 0.  0.
     999903    2    3    3    0    0 -0.68371160393E-01 -0.10953085453E+00  0.11261211728E-01  0.13122160152E+00  0.20510244983E-01 0.  0.
         14    1    1    2    0    0  0.22445276540E-01 -0.73270707308E-02 -0.26030859093E-02  0.23753998836E-01  0.00000000000E+00 0. -1.
     999901    1    3    3    0    0  0.45925883853E-01  0.11685792526E+00 -0.86581258192E-02  0.88895439964E+00  0.88000000000E+00 0. -1.
        -11    1    4    4    0    0 -0.33483227310E-01 -0.68293156671E-01  0.96094680506E-04  0.76061502184E-01  0.51100000000E-03 0. -1.
         11    1    4    4    0    0 -0.34887933083E-01 -0.41237697855E-01  0.11165117048E-01  0.55160099337E-01  0.51100000000E-03 0.  1.
</event>
<event>
 8    1  0.1146431E+005  0.1043930E+01  0.7957747E-01            NaN
         13   -1    0    0    0    0  0.00000000000E+00  0.00000000000E+00  0.74505805969E-08  0.10566000000E+00  0.10566000000E+00 0.  1.
     999900   -1    0    0    0    0 -0.00000000000E+00 -0.00000000000E+00 -0.74505805969E-08  0.93827000000E+00  0.93827000000E+00 0. -1.
     999902    2    1    2    0    0 -0.66678891378E-02 -0.19487446142E-01 -0.91804173400E-02  0.10213800252E+01  0.10211310662E+01 0.  0.
     999903    2    3    3    0    0 -0.29420934410E-01  0.10196180075E+00  0.70835806811E-01  0.12915235423E+00  0.20020461612E-01 0.  0.
         14    1    1    2    0    0  0.66678891378E-02  0.19487446142E-01  0.91804173400E-02  0.22549974839E-01  0.00000000000E+00 0. -1.
     999901    1    3    3    0    0  0.22753045272E-01 -0.12144924690E+00 -0.80016224151E-01  0.89222767093E+00  0.88000000000E+00 0. -1.
        -11    1    4    4    0    0 -0.11595333016E-01  0.26290453181E-01  0.29162740850E-01  0.40943451871E-01  0.51100000000E-03 0. -1.
         11    1    4    4    0    0 -0.17825601394E-01  0.75671347573E-01  0.41673065961E-01  0.88208902363E-01  0.51100000000E-03 0.  1.
</event>
<event>
 8    1  0.1146431E+005  0.1043930E+01  0.7957747E-01            NaN
         13   -1    0    0    0    0  0.00000000000E+00  0.00000000000E+00  0.74505805969E-08  0.10566000000E+00  0.10566000000E+00 0.  1.
     999900   -1    0    0    0    0 -0.00000000000E+00 -0.00000000000E+00 -0.74505805969E-08  0.93827000000E+00  0.93827000000E+00 0. -1.
     999902    2    1    2    0    0  0.17007913230E-01  0.54824089026E-02  0.15355701199E-01  0.10203689415E+01  0.10200968842E+01 0.  0.
     999903    2    3    3    0    0  0.71930738806E-01  0.10888586576E+00  0.12556349577E-01  0.13260961145E+00  0.19937005458E-01 0.  0.
         14    1    1    2    0    0 -0.17007913230E-01 -0.54824089026E-02 -0.15355701199E-01  0.23561058532E-01  0.00000000000E+00 0.  1.
     999901    1    3    3    0    0 -0.54922825576E-01 -0.10340345686E+00  0.27993516218E-02  0.88775933002E+00  0.88000000000E+00 0. -1.
        -11    1    4    4    0    0  0.70286323487E-01  0.95824255416E-01  0.11362844809E-01  0.11938103098E+00  0.51100000000E-03 0.  1.
         11    1    4    4    0    0  0.16444153190E-02  0.13061610348E-01  0.11935047683E-02  0.13228580470E-01  0.51100000000E-03 0. -1.
</event>
<event>
 8    1  0.1146431E+005  0.1043930E+01  0.7957747E-01            NaN
         13   -1    0    0    0    0  0.00000000000E+00  0.00000000000E+00  0.74505805969E-08  0.10566000000E+00  0.10566000000E+00 0.  1.
     999900   -1    0    0    0    0 -0.00000000000E+00 -0.00000000000E+00 -0.74505805969E-08  0.93827000000E+00  0.93827000000E+00 0. -1.
     999902    2    1    2    0    0  0.50366006681E-02  0.20099295989E-01 -0.78956710118E-02  0.10217559010E+01  0.10215152620E+01 0.  0.
     999903    2    3    3    0    0 -0.61424396085E-01  0.23114849423E-01 -0.11397188997E+00  0.13289240086E+00  0.19066877215E-01 0.  0.
         14    1    1    2    0    0 -0.50366006681E-02 -0.20099295989E-01  0.78956710118E-02  0.22174098996E-01  0.00000000000E+00 0.  1.
     999901    1    3    3    0    0  0.66460996753E-01 -0.30155534341E-02  0.10607621896E+00  0.88886350014E+00  0.88000000000E+00 0.  1.
        -11    1    4    4    0    0 -0.37009100853E-01  0.38561835177E-02 -0.60138934800E-01  0.70721257746E-01  0.51100000000E-03 0. -1.
         11    1    4    4    0    0 -0.24415295232E-01  0.19258665906E-01 -0.53832955167E-01  0.62171143119E-01  0.51100000000E-03 0.  1.
</event>
<event>
 8    1  0.1146431E+005  0.1043930E+01  0.7957747E-01            NaN
         13   -1    0    0    0    0  0.00000000000E+00  0.00000000000E+00  0.74505805969E-08  0.10566000000E+00  0.10566000000E+00 0. -1.
     999900   -1    0    0    0    0 -0.00000000000E+00 -0.00000000000E+00 -0.74505805969E-08  0.93827000000E+00  0.93827000000E+00 0. -1.
     999902    2    1    2    0    0 -0.81494446357E-02 -0.80599990881E-02 -0.20070705115E-01  0.10208170115E+01  0.10205553198E+01 0.  0.
     999903    2    3    3    0    0  0.11384639324E+00  0.18027161675E-01  0.54066998839E-01  0.12893141147E+00  0.20349169221E-01 0.  0.
         14    1    1    2    0    0  0.81494446357E-02  0.80599990881E-02  0.20070705115E-01  0.23112988491E-01  0.00000000000E+00 0. -1.
     999901    1    3    3    0    0 -0.12199583787E+00 -0.26087160763E-01 -0.74137703953E-01  0.89188560004E+00  0.88000000000E+00 0.  1.
        -11    1    4    4    0    0  0.10353232838E+00  0.19106775060E-01  0.54475238500E-01  0.11854039229E+00  0.51100000000E-03 0.  1.
         11    1    4    4    0    0  0.10314064860E-01 -0.10796133855E-02 -0.40823966126E-03  0.10391019181E-01  0.51100000000E-03 0. -1.
</event>
<event>
 8    1  0.1146431E+005  0.1043930E+01  0.7957747E-01            NaN
         13   -1    0    0    0    0  0.00000000000E+00  0.00000000000E+00  0.74505805969E-08  0.10566000000E+00  0.10566000000E+00 0.  1.
     999900   -1    0    0    0    0 -0.00000000000E+00 -0.00000000000E+00 -0.74505805969E-08  0.93827000000E+00  0.93827000000E+00 0. -1.
     999902    2    1    2    0    0 -0.27234319913E-02 -0.19337615709E-02 -0.23601451221E-01  0.10200933682E+01  0.10198148336E+01 0.  0.
     999903    2    3    3    0    0 -0.44051079849E-01 -0.11220320988E+00 -0.49596085286E-01  0.13186870816E+00  0.19988160850E-01 0.  0.
         14    1    1    2    0    0  0.27234319913E-02  0.19337615709E-02  0.23601451221E-01  0.23836631796E-01  0.00000000000E+00 0.  1.
     999901    1    3    3    0    0  0.41327647858E-01  0.11026944831E+00  0.25994634064E-01  0.88822466004E+00  0.88000000000E+00 0.  1.
        -11    1    4    4    0    0 -0.22577818489E-01 -0.63267368011E-01 -0.17090249024E-01  0.69317064821E-01  0.51100000000E-03 0. -1.
         11    1    4    4    0    0 -0.21473261360E-01 -0.48935841866E-01 -0.32505836262E-01  0.62551643341E-01  0.51100000000E-03 0.  1.
</event>
<event>
 8    1  0.1146431E+005  0.1043930E+01  0.7957747E-01            NaN
         13   -1    0    0    0    0  0.00000000000E+00  0.00000000000E+00  0.74505805969E-08  0.10566000000E+00  0.10566000000E+00 0.  1.
     999900   -1    0    0    0    0 -0.00000000000E+00 -0.00000000000E+00 -0.74505805969E-08  0.93827000000E+00  0.93827000000E+00 0.  1.
     999902    2    1    2    0    0  0.88653710103E-02  0.59546315786E-02 -0.23003962363E-01  0.10185679274E+01  0.10182521240E+01 0.  0.
     999903    2    3    3    0    0  0.36305763421E-02  0.10409155644E+00  0.71576147406E-01  0.12806040009E+00  0.20690287266E-01 0.  0.
         14    1    1    2    0    0 -0.88653710103E-02 -0.59546315786E-02  0.23003962363E-01  0.25362072565E-01  0.00000000000E+00 0.  1.
     999901    1    3    3    0    0  0.52347946682E-02 -0.98136924860E-01 -0.94580109769E-01  0.89050752735E+00  0.88000000000E+00 0. -1.
        -11    1    4    4    0    0 -0.54585929988E-02  0.23849030645E-01  0.96997156236E-02  0.26323337638E-01  0.51100000000E-03 0.  1.
         11    1    4    4    0    0  0.90891693410E-02  0.80242525793E-01  0.61876431783E-01  0.10173706245E+00  0.51100000000E-03 0. -1.
</event>
<event>
 8    1  0.1146431E+005  0.1043930E+01  0.7957747E-01            NaN
         13   -1    0    0    0    0  0.00000000000E+00  0.00000000000E+00  0.74505805969E-08  0.10566000000E+00  0.10566000000E+00 0.  1.
     999900   -1    0    0    0    0 -0.00000000000E+00 -0.00000000000E+00 -0.74505805969E-08  0.93827000000E+00  0.93827000000E+00 0. -1.
     999902    2    1    2    0    0  0.93874496337E-02 -0.43193566360E-02 -0.21571724708E-01  0.10200109624E+01  0.10197304757E+01 0.  0.
     999903    2    3    3    0    0 -0.49216316858E-01 -0.71324996959E-01 -0.97804945023E-01  0.13224091270E+00  0.20306419785E-01 0.  0.
         14    1    1    2    0    0 -0.93874496337E-02  0.43193566360E-02  0.21571724708E-01  0.23919037590E-01  0.00000000000E+00 0.  1.
     999901    1    3    3    0    0  0.58603766491E-01  0.67005640323E-01  0.76233220315E-01  0.88777004971E+00  0.88000000000E+00 0.  1.
        -11    1    4    4    0    0 -0.24945192033E-01 -0.20000332269E-01 -0.40082481729E-01  0.51275163179E-01  0.51100000000E-03 0.  1.
         11    1    4    4    0    0 -0.24271124824E-01 -0.51324664690E-01 -0.57722463294E-01  0.80965749521E-01  0.51100000000E-03 0. -1.
</event>
<event>
 8    1  0.1146431E+005  0.1043930E+01  0.7957747E-01            NaN
         13   -1    0    0    0    0  0.00000000000E+00  0.00000000000E+00  0.74505805969E-08  0.10566000000E+00  0.10566000000E+00 0. -1.
     999900   -1    0    0    0    0 -0.00000000000E+00 -0.00000000000E+00 -0.74505805969E-08  0.93827000000E+00  0.93827000000E+00 0.  1.
     999902    2    1    2    0    0  0.11471732968E-01 -0.20181483247E-01 -0.31797707482E-02  0.10204991685E+01  0.10202301451E+01 0.  0.
     999903    2    3    3    0    0  0.91155303769E-01 -0.77369819977E-01  0.55729466794E-01  0.13309268013E+00  0.17677940667E-01 0.  0.
         14    1    1    2    0    0 -0.11471732968E-01  0.20181483247E-01  0.31797707482E-02  0.23430831513E-01  0.00000000000E+00 0. -1.
     999901    1    3    3    0    0 -0.79683570801E-01  0.57188336729E-01 -0.58909237542E-01  0.88740648836E+00  0.88000000000E+00 0. -1.
        -11    1    4    4    0    0  0.28284536377E-01 -0.16139071700E-01  0.96483331198E-02  0.33968162835E-01  0.51100000000E-03 0. -1.
         11    1    4    4    0    0  0.62870767392E-01 -0.61230748277E-01  0.46081133674E-01  0.99124517294E-01  0.51100000000E-03 0.  1.
</event>
<event>
 8    1  0.1146431E+005  0.1043930E+01  0.7957747E-01            NaN
         13   -1    0    0    0    0  0.00000000000E+00  0.00000000000E+00  0.74505805969E-08  0.10566000000E+00  0.10566000000E+00 0.  1.
     999900   -1    0    0    0    0 -0.00000000000E+00 -0.00000000000E+00 -0.74505805969E-08  0.93827000000E+00  0.93827000000E+00 0.  1.
     999902    2    1    2    0    0  0.49920503407E-02 -0.73854879604E-02  0.28266993495E-01  0.10142906862E+01  0.10138575380E+01 0.  0.
     999903    2    3    3    0    0 -0.84361652881E-02  0.52346024462E-01  0.11475928520E+00  0.12793348563E+00  0.19647087425E-01 0.  0.
         14    1    1    2    0    0 -0.49920503407E-02  0.73854879604E-02 -0.28266993495E-01  0.29639313761E-01  0.00000000000E+00 0. -1.
     999901    1    3    3    0    0  0.13428215629E-01 -0.59731512422E-01 -0.86492291702E-01  0.88635720061E+00  0.88000000000E+00 0.  1.
        -11    1    4    4    0    0  0.31962295423E-02  0.33634322737E-01  0.79080215744E-01  0.85996658030E-01  0.51100000000E-03 0. -1.
         11    1    4    4    0    0 -0.11632394830E-01  0.18711701725E-01  0.35679069453E-01  0.41936827597E-01  0.51100000000E-03 0.  1.
</event>
<event>
 8    1  0.1146431E+005  0.1043930E+01  0.7957747E-01            NaN
         13   -1    0    0    0    0  0.00000000000E+00  0.00000000000E+00  0.74505805969E-08  0.10566000000E+00  0.10566000000E+00 0. -1.
     999900   -1    0    0    0    0 -0.00000000000E+00 -0.00000000000E+00 -0.74505805969E-08  0.93827000000E+00  0.93827000000E+00 0.  1.
     999902    2    1    2    0    0 -0.15900705939E-01 -0.15827974806E-01  0.63503706884E-02  0.10206129581E+01  0.10203465714E+01 0.  0.
     999903    2    3    3    0    0  0.24685532525E-01  0.17352545896E-01  0.12585525027E+00  0.13098966368E+00  0.20205484489E-01 0.  0.
         14    1    1    2    0    0  0.15900705939E-01  0.15827974806E-01 -0.63503706884E-02  0.23317041916E-01  0.00000000000E+00 0.  1.
     999901    1    3    3    0    0 -0.40586238465E-01 -0.33180520702E-01 -0.11950487959E+00  0.88962329441E+00  0.88000000000E+00 0.  1.
        -11    1    4    4    0    0  0.10690166434E-01  0.18555675591E-01  0.89088578656E-01  0.91627663525E-01  0.51100000000E-03 0. -1.
         11    1    4    4    0    0  0.13995366091E-01 -0.12031296948E-02  0.36766671618E-01  0.39362000152E-01  0.51100000000E-03 0.  1.
</event>
<event>
 8    1  0.1146431E+005  0.1043930E+01  0.7957747E-01            NaN
         13   -1    0    0    0    0  0.00000000000E+00  0.00000000000E+00  0.74505805969E-08  0.10566000000E+00  0.10566000000E+00 0. -1.
     999900   -1    0    0    0    0 -0.00000000000E+00 -0.00000000000E+00 -0.74505805969E-08  0.93827000000E+00  0.93827000000E+00 0.  1.
     999902    2    1    2    0    0 -0.20525867296E-01  0.10007645527E-01  0.56272749032E-02  0.10204112751E+01  0.10201402060E+01 0.  0.
     999903    2    3    3    0    0  0.53986960039E-01  0.12786234533E-02 -0.11536395864E+00  0.12897017451E+00  0.20204856544E-01 0.  0.
         14    1    1    2    0    0  0.20525867296E-01 -0.10007645527E-01 -0.56272749032E-02  0.23518724883E-01  0.00000000000E+00 0. -1.
     999901    1    3    3    0    0 -0.74512827335E-01  0.87290220742E-02  0.12099123354E+00  0.89144110061E+00  0.88000000000E+00 0. -1.
        -11    1    4    4    0    0  0.20221696711E-01 -0.46099762783E-02 -0.63487627904E-01  0.66791533273E-01  0.51100000000E-03 0. -1.
         11    1    4    4    0    0  0.33765263328E-01  0.58885997315E-02 -0.51876330733E-01  0.62178641234E-01  0.51100000000E-03 0.  1.
</event>
<event>
 8    1  0.1146431E+005  0.1043930E+01  0.7957747E-01            NaN
         13   -1    0    0    0    0  0.00000000000E+00  0.00000000000E+00  0.74505805969E-08  0.10566000000E+00  0.10566000000E+00 0. -1.
     999900   -1    0    0    0    0 -0.00000000000E+00 -0.00000000000E+00 -0.74505805969E-08  0.93827000000E+00  0.93827000000E+00 0.  1.
     999902    2    1    2    0    0  0.78846825398E-02  0.21989270591E-01  0.28327650229E-02  0.10203987272E+01  0.10201273655E+01 0.  0.
     999903    2    3    3    0    0  0.89491061324E-01  0.91437043937E-01 -0.32156674567E-01  0.13320829945E+00  0.18466625653E-01 0.  0.
         14    1    1    2    0    0 -0.78846825398E-02 -0.21989270591E-01 -0.28327650229E-02  0.23531272756E-01  0.00000000000E+00 0.  1.
     999901    1    3    3    0    0 -0.81606378784E-01 -0.69447773346E-01  0.34989439590E-01  0.88719042779E+00  0.88000000000E+00 0.  1.
        -11    1    4    4    0    0  0.25133784373E-01  0.19762540675E-01 -0.15169132895E-01  0.35392497010E-01  0.51100000000E-03 0.  1.
         11    1    4    4    0    0  0.64357276951E-01  0.71674503262E-01 -0.16987541673E-01  0.97815802442E-01  0.51100000000E-03 0. -1.
</event>
<event>
 8    1  0.1146431E+005  0.1043930E+01  0.7957747E-01            NaN
         13   -1    0    0    0    0  0.00000000000E+00  0.00000000000E+00  0.74505805969E-08  0.10566000000E+00  0.10566000000E+00 0. -1.
     999900   -1    0    0    0    0 -0.00000000000E+00 -0.00000000000E+00 -0.74505805969E-08  0.93827000000E+00  0.93827000000E+00 0. -1.
     999902    2    1    2    0    0  0.41331931300E-02 -0.21661293521E-01  0.99554457045E-02  0.10197348389E+01  0.10194477602E+01 0.  0.
     999903    2    3    3    0    0  0.10578583792E-01  0.98079199518E-01  0.80304322457E-01  0.12882053706E+00  0.20359537054E-01 0.  0.
         14    1    1    2    0    0 -0.41331931300E-02  0.21661293521E-01 -0.99554457045E-02  0.24195161120E-01  0.00000000000E+00 0.  1.
     999901    1    3    3    0    0 -0.64453906619E-02 -0.11974049304E+00 -0.70348876752E-01  0.89091430182E+00  0.88000000000E+00 0. -1.
        -11    1    4    4    0    0 -0.31310816490E-02  0.22148806512E-01  0.10280135874E-01  0.24623476944E-01  0.51100000000E-03 0.  1.
         11    1    4    4    0    0  0.13709665441E-01  0.75930393006E-01  0.70024186582E-01  0.10419706011E+00  0.51100000000E-03 0. -1.
</event>
<event>
 8    1  0.1146431E+005  0.1043930E+01  0.7957747E-01            NaN
         13   -1    0    0    0    0  0.00000000000E+00  0.00000000000E+00  0.74505805969E-08  0.10566000000E+00  0.10566000000E+00 0.  1.
     999900   -1    0    0    0    0 -0.00000000000E+00 -0.00000000000E+00 -0.74505805969E-08  0.93827000000E+00  0.93827000000E+00 0.  1.
     999902    2    1    2    0    0  0.17710779255E-01 -0.46627267230E-02 -0.15215416444E-01  0.10201198841E+01  0.10198419761E+01 0.  0.
     999903    2    3    3    0    0  0.11320865005E+00  0.33869466022E-01  0.53939870672E-01  0.13142025714E+00  0.19960840753E-01 0.  0.
         14    1    1    2    0    0 -0.17710779255E-01  0.46627267230E-02  0.15215416444E-01  0.23810115915E-01  0.00000000000E+00 0.  1.
     999901    1    3    3    0    0 -0.95497870792E-01 -0.38532192745E-01 -0.69155287116E-01  0.88869962695E+00  0.88000000000E+00 0.  1.
        -11    1    4    4    0    0  0.27250182972E-01 -0.14786038569E-03  0.96604736865E-02  0.28916780726E-01  0.51100000000E-03 0. -1.
         11    1    4    4    0    0  0.85958467074E-01  0.34017326408E-01  0.44279396985E-01  0.10250347641E+00  0.51100000000E-03 0.  1.
</event>
<event>
 8    1  0.1146431E+005  0.1043930E+01  0.7957747E-01            NaN
         13   -1    0    0    0    0  0.00000000000E+00  0.00000000000E+00  0.74505805969E-08  0.10566000000E+00  0.10566000000E+00 0. -1.
     999900   -1    0    0    0    0 -0.00000000000E+00 -0.00000000000E+00 -0.74505805969E-08  0.93827000000E+00  0.93827000000E+00 0.  1.
     999902    2    1    2    0    0 -0.19854831822E-01 -0.10777703600E-01 -0.56774047833E-02  0.10206360916E+01  0.10203702394E+01 0.  0.
     999903    2    3    3    0    0  0.10496920909E+00  0.65220625437E-01  0.26932041483E-01  0.12798825336E+00  0.19580431555E-01 0.  0.
         14    1    1    2    0    0  0.19854831822E-01  0.10777703600E-01  0.56774047833E-02  0.23293908359E-01  0.00000000000E+00 0.  1.
     999901    1    3    3    0    0 -0.12482404091E+00 -0.75998329037E-01 -0.32609446266E-01  0.89264783828E+00  0.88000000000E+00 0. -1.
        -11    1    4    4    0    0  0.61113893785E-01  0.40791517473E-01  0.25457333264E-01  0.77763698788E-01  0.51100000000E-03 0.  1.
         11    1    4    4    0    0  0.43855315304E-01  0.24429107964E-01  0.14747082188E-02  0.50224554569E-01  0.51100000000E-03 0. -1.
</event>
<event>
 8    1  0.1146431E+005  0.1043930E+01  0.7957747E-01            NaN
         13   -1    0    0    0    0  0.00000000000E+00  0.00000000000E+00  0.74505805969E-08  0.10566000000E+00  0.10566000000E+00 0. -1.
     999900   -1    0    0    0    0 -0.00000000000E+00 -0.00000000000E+00 -0.74505805969E-08  0.93827000000E+00  0.93827000000E+00 0.  1.
     999902    2    1    2    0    0  0.23192111063E-02 -0.32604601586E-02 -0.24606982760E-01  0.10189998387E+01  0.10186948308E+01 0.  0.
     999903    2    3    3    0    0  0.12590779956E+00 -0.15109961736E-01  0.18375411161E-01  0.12924591990E+00  0.16904648483E-01 0.  0.
         14    1    1    2    0    0 -0.23192111063E-02  0.32604601586E-02  0.24606982760E-01  0.24930161274E-01  0.00000000000E+00 0. -1.
     999901    1    3    3    0    0 -0.12358858846E+00  0.11849501577E-01 -0.42982393921E-01  0.88975391883E+00  0.88000000000E+00 0.  1.
        -11    1    4    4    0    0  0.50794532914E-01  0.15888787421E-02  0.41285248390E-02  0.50989361125E-01  0.51100000000E-03 0.  1.
         11    1    4    4    0    0  0.75113266648E-01 -0.16698840478E-01  0.14246886322E-01  0.78256558772E-01  0.51100000000E-03 0. -1.
</event>
<event>
 8    1  0.1146431E+005  0.1043930E+01  0.7957747E-01            NaN
         13   -1    0    0    0    0  0.00000000000E+00  0.00000000000E+00  0.74505805969E-08  0.10566000000E+00  0.10566000000E+00 0.  1.
     999900   -1    0    0    0    0 -0.00000000000E+00 -0.00000000000E+00 -0.74505805969E-08  0.93827000000E+00  0.93827000000E+00 0. -1.
     999902    2    1    2    0    0  0.79846951219E-02 -0.17938751469E-01 -0.13405335844E-01  0.10201548619E+01  0.10198777795E+01 0.  0.
     999903    2    3    3    0    0 -0.49952932244E-01  0.11338104297E+00  0.23526335627E-01  0.12776167201E+00  0.20469490075E-01 0.  0.
         14    1    1    2    0    0 -0.79846951219E-02  0.17938751469E-01  0.13405335844E-01  0.23775138056E-01  0.00000000000E+00 0.  1.
     999901    1    3    3    0    0  0.57937627366E-01 -0.13131979444E+00 -0.36931671472E-01  0.89239318993E+00  0.88000000000E+00 0.  1.
        -11    1    4    4    0    0 -0.36361783122E-01  0.10034183615E+00  0.20481891837E-01  0.10867581317E+00  0.51100000000E-03 0.  1.
         11    1    4    4    0    0 -0.13591149123E-01  0.13039206816E-01  0.30444437907E-02  0.19085858846E-01  0.51100000000E-03 0. -1.
</event>
<event>
 8    1  0.1146431E+005  0.1043930E+01  0.7957747E-01            NaN
         13   -1    0    0    0    0  0.00000000000E+00  0.00000000000E+00  0.74505805969E-08  0.10566000000E+00  0.10566000000E+00 0. -1.
     999900   -1    0    0    0    0 -0.00000000000E+00 -0.00000000000E+00 -0.74505805969E-08  0.93827000000E+00  0.93827000000E+00 0.  1.
     999902    2    1    2    0    0  0.84482612051E-02  0.22657253471E-01  0.32470800227E-02  0.10195318898E+01  0.10192399161E+01 0.  0.
     999903    2    3    3    0    0  0.45258236337E-01  0.10963902127E+00  0.56565782893E-01  0.13287316951E+00  0.19661343807E-01 0.  0.
         14    1    1    2    0    0 -0.84482612051E-02 -0.22657253471E-01 -0.32470800227E-02  0.24398110191E-01  0.00000000000E+00 0. -1.
     999901    1    3    3    0    0 -0.36809975132E-01 -0.86981767802E-01 -0.53318702871E-01  0.88665872029E+00  0.88000000000E+00 0.  1.
        -11    1    4    4    0    0  0.37883006919E-02  0.28288486694E-01  0.91002983832E-02  0.29961078973E-01  0.51100000000E-03 0. -1.
         11    1    4    4    0    0  0.41469935645E-01  0.81350534579E-01  0.47465484510E-01  0.10291209054E+00  0.51100000000E-03 0.  1.
</event>
<event>
 8    1  0.1146431E+005  0.1043930E+01  0.7957747E-01            NaN
         13   -1    0    0    0    0  0.00000000000E+00  0.00000000000E+00  0.74505805969E-08  0.10566000000E+00  0.10566000000E+00 0.  1.
     999900   -1    0    0    0    0 -0.00000000000E+00 -0.00000000000E+00 -0.74505805969E-08  0.93827000000E+00  0.93827000000E+00 0.  1.
     999902    2    1    2    0    0 -0.16364790728E-02 -0.66135602496E-03  0.23410979992E-01  0.10204525760E+01  0.10201824691E+01 0.  0.
     999903    2    3    3    0    0 -0.39966569224E-01  0.26023637452E-02 -0.12066603282E+00  0.12790676016E+00  0.13991027972E-01 0.  0.
         14    1    1    2    0    0  0.16364790728E-02  0.66135602496E-03 -0.23410979992E-01  0.23477424044E-01  0.00000000000E+00 0. -1.
     999901    1    3    3    0    0  0.38330090152E-01 -0.32637197701E-02  0.14407701282E+00  0.89254581580E+00  0.88000000000E+00 0. -1.
        -11    1    4    4    0    0 -0.18700495630E-01  0.81460257868E-02 -0.60787595308E-01  0.64120660767E-01  0.51100000000E-03 0. -1.
         11    1    4    4    0    0 -0.21266073594E-01 -0.55436620416E-02 -0.59878437517E-01  0.63786099390E-01  0.51100000000E-03 0.  1.
</event>
<event>
 8    1  0.1146431E+005  0.1043930E+01  0.7957747E-01            NaN
         13   -1    0    0    0    0  0.00000000000E+00  0.00000000000E+00  0.74505805969E-08  0.10566000000E+00  0.10566000000E+00 0. -1.
     999900   -1    0    0    0    0 -0.00000000000E+00 -0.00000000000E+00 -0.74505805969E-08  0.93827000000E+00  0.93827000000E+00 0.  1.
     999902    2    1    2    0    0 -0.13569977814E-01  0.30881648887E-02  0.19216464613E-01  0.10202033573E+01  0.10199274174E+01 0.  0.
     999903    2    3    3    0    0  0.66338065157E-01 -0.12603043443E-01  0.11161308354E+00  0.13162660513E+00  0.17564372164E-01 0.  0.
         14    1    1    2    0    0  0.13569977814E-01 -0.30881648887E-02 -0.19216464613E-01  0.23726642672E-01  0.00000000000E+00 0.  1.
     999901    1    3    3    0    0 -0.79908042971E-01  0.15691208332E-01 -0.92396618925E-01  0.88857675219E+00  0.88000000000E+00 0.  1.
        -11    1    4    4    0    0  0.48392944755E-01 -0.59480162474E-02  0.92547725809E-01  0.10460687679E+00  0.51100000000E-03 0. -1.
         11    1    4    4    0    0  0.17945120401E-01 -0.66550271959E-02  0.19065357730E-01  0.27019728340E-01  0.51100000000E-03 0.  1.
</event>
<event>
 8    1  0.1146431E+005  0.1043930E+01  0.7957747E-01            NaN
         13   -1    0    0    0    0  0.00000000000E+00  0.00000000000E+00  0.74505805969E-08  0.10566000000E+00  0.10566000000E+00 0. -1.
     999900   -1    0    0    0    0 -0.00000000000E+00 -0.00000000000E+00 -0.74505805969E-08  0.93827000000E+00  0.93827000000E+00 0. -1.
     999902    2    1    2    0    0  0.53866491930E-03  0.85301167466E-03  0.28109687244E-01  0.10158022147E+01  0.10154127078E+01 0.  0.
     999903    2    3    3    0    0  0.87954530343E-01  0.53402197040E-02 -0.85404998256E-01  0.12420406958E+00  0.19186448820E-01 0.  0.
         14    1    1    2    0    0 -0.53866491930E-03 -0.85301167466E-03 -0.28109687244E-01  0.28127785298E-01  0.00000000000E+00 0.  1.
     999901    1    3    3    0    0 -0.87415865424E-01 -0.44872080294E-02  0.11351468550E+00  0.89159814512E+00  0.88000000000E+00 0.  1.
        -11    1    4    4    0    0  0.16140445738E-01 -0.58990239457E-02 -0.12528738536E-01  0.21273055315E-01  0.51100000000E-03 0. -1.
         11    1    4    4    0    0  0.71814084605E-01  0.11239243650E-01 -0.72876259720E-01  0.10293101426E+00  0.51100000000E-03 0.  1.
</event>
<event>
 8    1  0.1146431E+005  0.1043930E+01  0.7957747E-01            NaN
         13   -1    0    0    0    0  0.00000000000E+00  0.00000000000E+00  0.74505805969E-08  0.10566000000E+00  0.10566000000E+00 0. -1.
     999900   -1    0    0    0    0 -0.00000000000E+00 -0.00000000000E+00 -0.74505805969E-08  0.93827000000E+00  0.93827000000E+00 0.  1.
     999902    2    1    2    0    0 -0.50681780031E-02  0.21408926575E-01 -0.98942498096E-02  0.10198068836E+01  0.10195215324E+01 0.  0.
     999903    2    3    3    0    0  0.12088304199E+00 -0.34594881316E-01  0.18700820895E-01  0.12861789445E+00  0.19578723575E-01 0.  0.
         14    1    1    2    0    0  0.50681780031E-02 -0.21408926575E-01  0.98942498096E-02  0.24123116396E-01  0.00000000000E+00 0.  1.
     999901    1    3    3    0    0 -0.12595122000E+00  0.56003807890E-01 -0.28595070705E-01  0.89118898915E+00  0.88000000000E+00 0. -1.
        -11    1    4    4    0    0  0.84841002947E-01 -0.21000272677E-01  0.21447936849E-01  0.89996012965E-01  0.51100000000E-03 0.  1.
         11    1    4    4    0    0  0.36042039045E-01 -0.13594608639E-01 -0.27471159540E-02  0.38621881488E-01  0.51100000000E-03 0. -1.
</event>
<event>
 8    1  0.1146431E+005  0.1043930E+01  0.7957747E-01            NaN
         13   -1    0    0    0    0  0.00000000000E+00  0.00000000000E+00  0.74505805969E-08  0.10566000000E+00  0.10566000000E+00 0. -1.
     999900   -1    0    0    0    0 -0.00000000000E+00 -0.00000000000E+00 -0.74505805969E-08  0.93827000000E+00  0.93827000000E+00 0. -1.
     999902    2    1    2    0    0 -0.21624191876E-01  0.32434237130E-02 -0.80264162055E-02  0.10206373224E+01  0.10203714986E+01 0.  0.
     999903    2    3    3    0    0  0.66772719607E-01 -0.10506541924E+00  0.27139425013E-01  0.12890784786E+00  0.19579235047E-01 0.  0.
         14    1    1    2    0    0  0.21624191876E-01 -0.32434237130E-02  0.80264162055E-02  0.23292677579E-01  0.00000000000E+00 0.  1.
     999901    1    3    3    0    0 -0.88396911483E-01  0.10830884295E+00 -0.35165841219E-01  0.89172947457E+00  0.88000000000E+00 0. -1.
        -11    1    4    4    0    0  0.51747106716E-01 -0.73965171465E-01  0.11541245235E-01  0.91005885007E-01  0.51100000000E-03 0.  1.
         11    1    4    4    0    0  0.15025612891E-01 -0.31100247774E-01  0.15598179778E-01  0.37901962848E-01  0.51100000000E-03 0. -1.
</event>
<event>
 8    1  0.1146431E+005  0.1043930E+01  0.7957747E-01            NaN
         13   -1    0    0    0    0  0.00000000000E+00  0.00000000000E+00  0.74505805969E-08  0.10566000000E+00  0.10566000000E+00 0. -1.
     999900   -1    0    0    0    0 -0.00000000000E+00 -0.00000000000E+00 -0.74505805969E-08  0.93827000000E+00  0.93827000000E+00 0.  1.
     999902    2    1    2    0    0 -0.19635055336E-02  0.69103188509E-02  0.22168628679E-01  0.10206264389E+01  0.10203603637E+01 0.  0.
     999903    2    3    3    0    0 -0.12937795588E+00 -0.60571882621E-02 -0.16373390788E-02  0.13103702663E+00  0.19816065992E-01 0.  0.
         14    1    1    2    0    0  0.19635055336E-02 -0.69103188509E-02 -0.22168628679E-01  0.23303561061E-01  0.00000000000E+00 0.  1.
     999901    1    3    3    0    0  0.12741445034E+00  0.12967507113E-01  0.23805967758E-01  0.88958941231E+00  0.88000000000E+00 0. -1.
        -11    1    4    4    0    0 -0.10042907093E+00 -0.54517641668E-03  0.59329241609E-02  0.10060693920E+00  0.51100000000E-03 0.  1.
         11    1    4    4    0    0 -0.28948884946E-01 -0.55120118454E-02 -0.75702632397E-02  0.30430087426E-01  0.51100000000E-03 0. -1.
</event>
<event>
 8    1  0.1146431E+005  0.1043930E+01  0.7957747E-01            NaN
         13   -1    0    0    0    0  0.00000000000E+00  0.00000000000E+00  0.74505805969E-08  0.10566000000E+00  0.10566000000E+00 0. -1.
     999900   -1    0    0    0    0 -0.00000000000E+00 -0.00000000000E+00 -0.74505805969E-08  0.93827000000E+00  0.93827000000E+00 0. -1.
     999902    2    1    2    0    0  0.14921798994E-01 -0.26973393600E-03 -0.17917574955E-01  0.10206110735E+01  0.10203446432E+01 0.  0.
     999903    2    3    3    0    0  0.12293754127E+00  0.26604023801E-01  0.32677708727E-01  0.13215765199E+00  0.24008315162E-01 0.  0.
         14    1    1    2    0    0 -0.14921798994E-01  0.26973393600E-03  0.17917574955E-01  0.23318926517E-01  0.00000000000E+00 0. -1.
     999901    1    3    3    0    0 -0.10801574227E+00 -0.26873757737E-01 -0.50595283682E-01  0.88845342149E+00  0.88000000000E+00 0.  1.
        -11    1    4    4    0    0  0.55993634971E-01  0.24319317957E-01  0.16752120695E-01  0.63305695256E-01  0.51100000000E-03 0.  1.
         11    1    4    4    0    0  0.66943906295E-01  0.22847058437E-02  0.15925588033E-01  0.68851956733E-01  0.51100000000E-03 0. -1.
</event>
<event>
 8    1  0.1146431E+005  0.1043930E+01  0.7957747E-01            NaN
         13   -1    0    0    0    0  0.00000000000E+00  0.00000000000E+00  0.74505805969E-08  0.10566000000E+00  0.10566000000E+00 0. -1.
     999900   -1    0    0    0    0 -0.00000000000E+00 -0.00000000000E+00 -0.74505805969E-08  0.93827000000E+00  0.93827000000E+00 0.  1.
     999902    2    1    2    0    0  0.19314549232E-01 -0.54743993536E-02 -0.12615015751E-01  0.10202200974E+01  0.10199445512E+01 0.  0.
     999903    2    3    3    0    0  0.62345920406E-01 -0.52823461367E-01  0.99964076476E-01  0.13074402429E+00  0.20587652593E-01 0.  0.
         14    1    1    2    0    0 -0.19314549232E-01  0.54743993536E-02  0.12615015751E-01  0.23709902630E-01  0.00000000000E+00 0.  1.
     999901    1    3    3    0    0 -0.43031371174E-01  0.47349062014E-01 -0.11257909223E+00  0.88947607308E+00  0.88000000000E+00 0.  1.
        -11    1    4    4    0    0  0.25765003634E-01 -0.34970224691E-01  0.55092616481E-01  0.70158460210E-01  0.51100000000E-03 0.  1.
         11    1    4    4    0    0  0.36580916772E-01 -0.17853236676E-01  0.44871459994E-01  0.60585564079E-01  0.51100000000E-03 0. -1.
</event>
<event>
 8    1  0.1146431E+005  0.1043930E+01  0.7957747E-01            NaN
         13   -1    0    0    0    0  0.00000000000E+00  0.00000000000E+00  0.74505805969E-08  0.10566000000E+00  0.10566000000E+00 0.  1.
     999900   -1    0    0    0    0 -0.00000000000E+00 -0.00000000000E+00 -0.74505805969E-08  0.93827000000E+00  0.93827000000E+00 0.  1.
     999902    2    1    2    0    0  0.15167792366E-01  0.13133199290E-01  0.11593299991E-01  0.10207578733E+01  0.10204948253E+01 0.  0.
     999903    2    3    3    0    0 -0.67098701628E-01  0.89959829551E-01 -0.63314612914E-01  0.13043135877E+00  0.20213669844E-01 0.  0.
         14    1    1    2    0    0 -0.15167792366E-01 -0.13133199290E-01 -0.11593299991E-01  0.23172126650E-01  0.00000000000E+00 0. -1.
     999901    1    3    3    0    0  0.82266493994E-01 -0.76826630261E-01  0.74907912905E-01  0.89032651458E+00  0.88000000000E+00 0. -1.
        -11    1    4    4    0    0 -0.32604104171E-01  0.57944292250E-01 -0.42909831483E-01  0.79133326558E-01  0.51100000000E-03 0.  1.
         11    1    4    4    0    0 -0.34494597457E-01  0.32015537300E-01 -0.20404781430E-01  0.51298032210E-01  0.51100000000E-03 0. -1.
</event>
<event>
 8    1  0.1146431E+005  0.1043930E+01  0.7957747E-01            NaN
         13   -1    0    0    0    0  0.00000000000E+00  0.00000000000E+00  0.74505805969E-08  0.10566000000E+00  0.10566000000E+00 0. -1.
     999900   -1    0    0    0    0 -0.00000000000E+00 -0.00000000000E+00 -0.74505805969E-08  0.93827000000E+00  0.93827000000E+00 0.  1.
     999902    2    1    2    0    0 -0.16184858463E-01  0.14320701817E-01  0.89371738814E-02  0.10205439952E+01  0.10202760121E+01 0.  0.
     999903    2    3    3    0    0  0.10304898143E+00 -0.51488494471E-01  0.54254078067E-01  0.12891560808E+00  0.20138802933E-01 0.  0.
         14    1    1    2    0    0  0.16184858463E-01 -0.14320701817E-01 -0.89371738814E-02  0.23386004810E-01  0.00000000000E+00 0.  1.
     999901    1    3    3    0    0 -0.11923383989E+00  0.65809196288E-01 -0.45316904186E-01  0.89162838711E+00  0.88000000000E+00 0.  1.
        -11    1    4    4    0    0  0.41453404699E-01 -0.99781440923E-02  0.21038724006E-01  0.47548261266E-01  0.51100000000E-03 0.  1.
         11    1    4    4    0    0  0.61595576731E-01 -0.41510350379E-01  0.33215354061E-01  0.81367346816E-01  0.51100000000E-03 0. -1.
</event>
<event>
 8    1  0.1146431E+005  0.1043930E+01  0.7957747E-01            NaN
         13   -1    0    0    0    0  0.00000000000E+00  0.00000000000E+00  0.74505805969E-08  0.10566000000E+00  0.10566000000E+00 0.  1.
     999900   -1    0    0    0    0 -0.00000000000E+00 -0.00000000000E+00 -0.74505805969E-08  0.93827000000E+00  0.93827000000E+00 0. -1.
     999902    2    1    2    0    0  0.11324098082E-01 -0.55411513432E-02 -0.20777507672E-01  0.10196268237E+01  0.10193371450E+01 0.  0.
     999903    2    3    3    0    0 -0.61560902359E-01  0.65163115279E-02  0.10913973443E+00  0.12702607556E+00  0.19797354008E-01 0.  0.
         14    1    1    2    0    0 -0.11324098082E-01  0.55411513432E-02  0.20777507672E-01  0.24303176349E-01  0.00000000000E+00 0. -1.
     999901    1    3    3    0    0  0.72885000441E-01 -0.12057462871E-01 -0.12991724210E+00  0.89260074809E+00  0.88000000000E+00 0. -1.
        -11    1    4    4    0    0 -0.34647648191E-01  0.83633193304E-02  0.78408356207E-01  0.86130924060E-01  0.51100000000E-03 0.  1.
         11    1    4    4    0    0 -0.26913254168E-01 -0.18470078025E-02  0.30731378221E-01  0.40895151499E-01  0.51100000000E-03 0. -1.
</event>
<event>
 8    1  0.1146431E+005  0.1043930E+01  0.7957747E-01            NaN
         13   -1    0    0    0    0  0.00000000000E+00  0.00000000000E+00  0.74505805969E-08  0.10566000000E+00  0.10566000000E+00 0. -1.
     999900   -1    0    0    0    0 -0.00000000000E+00 -0.00000000000E+00 -0.74505805969E-08  0.93827000000E+00  0.93827000000E+00 0. -1.
     999902    2    1    2    0    0 -0.22114043787E-02  0.19448939112E-01  0.10000024185E-01  0.10219492806E+01  0.10217128658E+01 0.  0.
     999903    2    3    3    0    0 -0.26054464847E-01 -0.11784936397E+00  0.44393410318E-01  0.13032031035E+00  0.21102148788E-01 0.  0.
         14    1    1    2    0    0  0.22114043787E-02 -0.19448939112E-01 -0.10000024185E-01  0.21980719407E-01  0.00000000000E+00 0.  1.
     999901    1    3    3    0    0  0.23843060469E-01  0.13729830309E+00 -0.34393386132E-01  0.89162897024E+00  0.88000000000E+00 0.  1.
        -11    1    4    4    0    0  0.10025692400E-02 -0.71746272713E-02  0.77889854160E-02  0.10649405447E-01  0.51100000000E-03 0.  1.
         11    1    4    4    0    0 -0.27057034087E-01 -0.11067473670E+00  0.36604424902E-01  0.11967090491E+00  0.51100000000E-03 0. -1.
</event>
<event>
 8    1  0.1146431E+005  0.1043930E+01  0.7957747E-01            NaN
         13   -1    0    0    0    0  0.00000000000E+00  0.00000000000E+00  0.74505805969E-08  0.10566000000E+00  0.10566000000E+00 0. -1.
     999900   -1    0    0    0    0 -0.00000000000E+00 -0.00000000000E+00 -0.74505805969E-08  0.93827000000E+00  0.93827000000E+00 0. -1.
     999902    2    1    2    0    0 -0.10161412160E-01 -0.23044608014E-01  0.40038051193E-02  0.10184282606E+01  0.10181089251E+01 0.  0.
     999903    2    3    3    0    0 -0.12041217604E+00  0.41751388957E-01  0.79537542815E-02  0.12917612863E+00  0.19517668491E-01 0.  0.
         14    1    1    2    0    0  0.10161412160E-01  0.23044608014E-01 -0.40038051193E-02  0.25501739373E-01  0.00000000000E+00 0. -1.
     999901    1    3    3    0    0  0.11025076388E+00 -0.64795996972E-01 -0.39499491622E-02  0.88925213199E+00  0.88000000000E+00 0. -1.
        -11    1    4    4    0    0 -0.94040701280E-01  0.24619064634E-01  0.95797761634E-02  0.97682061163E-01  0.51100000000E-03 0. -1.
         11    1    4    4    0    0 -0.26371474757E-01  0.17132324324E-01 -0.16260218818E-02  0.31494067469E-01  0.51100000000E-03 0.  1.
</event>
<event>
 8    1  0.1146431E+005  0.1043930E+01  0.7957747E-01            NaN
         13   -1    0    0    0    0  0.00000000000E+00  0.00000000000E+00  0.74505805969E-08  0.10566000000E+00  0.10566000000E+00 0.  1.
     999900   -1    0    0    0    0 -0.00000000000E+00 -0.00000000000E+00 -0.74505805969E-08  0.93827000000E+00  0.93827000000E+00 0.  1.
     999902    2    1    2    0    0 -0.60940716154E-02 -0.22769127395E-02  0.22080742334E-01  0.10209108510E+01  0.10206513040E+01 0.  0.
     999903    2    3    3    0    0 -0.90624523876E-01  0.67457772394E-01  0.67144897320E-01  0.13296991726E+00  0.20228847637E-01 0.  0.
         14    1    1    2    0    0  0.60940716154E-02  0.22769127395E-02 -0.22080742334E-01  0.23019149040E-01  0.00000000000E+00 0. -1.
     999901    1    3    3    0    0  0.84530452260E-01 -0.69734685134E-01 -0.45064154986E-01  0.88794093370E+00  0.88000000000E+00 0. -1.
        -11    1    4    4    0    0 -0.45413298760E-01  0.46212828918E-01  0.39179639542E-01  0.75718548167E-01  0.51100000000E-03 0.  1.
         11    1    4    4    0    0 -0.45211225116E-01  0.21244943476E-01  0.27965257779E-01  0.57251369096E-01  0.51100000000E-03 0. -1.
</event>
<event>
 8    1  0.1146431E+005  0.1043930E+01  0.7957747E-01            NaN
         13   -1    0    0    0    0  0.00000000000E+00  0.00000000000E+00  0.74505805969E-08  0.10566000000E+00  0.10566000000E+00 0.  1.
     999900   -1    0    0    0    0 -0.00000000000E+00 -0.00000000000E+00 -0.74505805969E-08  0.93827000000E+00  0.93827000000E+00 0. -1.
     999902    2    1    2    0    0  0.73843720891E-02 -0.64248372931E-02  0.21545334124E-01  0.10202654927E+01  0.10199910130E+01 0.  0.
     999903    2    3    3    0    0 -0.11298184075E+00 -0.61008232977E-01  0.80910551221E-02  0.13029448756E+00  0.20598239888E-01 0.  0.
         14    1    1    2    0    0 -0.73843720891E-02  0.64248372931E-02 -0.21545334124E-01  0.23664507345E-01  0.00000000000E+00 0. -1.
     999901    1    3    3    0    0  0.12036621284E+00  0.54583395684E-01  0.13454279002E-01  0.88997100509E+00  0.88000000000E+00 0. -1.
        -11    1    4    4    0    0 -0.10855100690E+00 -0.52861658016E-01  0.80431512807E-02  0.12100673283E+00  0.51100000000E-03 0. -1.
         11    1    4    4    0    0 -0.44308338511E-02 -0.81465749606E-02  0.47903841384E-04  0.92877547331E-02  0.51100000000E-03 0.  1.
</event>
<event>
 8    1  0.1146431E+005  0.1043930E+01  0.7957747E-01            NaN
         13   -1    0    0    0    0  0.00000000000E+00  0.00000000000E+00  0.74505805969E-08  0.10566000000E+00  0.10566000000E+00 0.  1.
     999900   -1    0    0    0    0 -0.00000000000E+00 -0.00000000000E+00 -0.74505805969E-08  0.93827000000E+00  0.93827000000E+00 0. -1.
     999902    2    1    2    0    0 -0.34847725640E-02 -0.25327382145E-01  0.10606487168E-01  0.10162511724E+01  0.10158741693E+01 0.  0.
     999903    2    3    3    0    0  0.20252357730E-01 -0.92970422782E-01 -0.84062901978E-01  0.12827520116E+00  0.18283824453E-01 0.  0.
         14    1    1    2    0    0  0.34847725640E-02  0.25327382145E-01 -0.10606487168E-01  0.27678827580E-01  0.00000000000E+00 0. -1.
     999901    1    3    3    0    0 -0.23737130294E-01  0.67643040637E-01  0.94669389146E-01  0.88797597126E+00  0.88000000000E+00 0.  1.
        -11    1    4    4    0    0  0.15779890015E-01 -0.81962844278E-01 -0.64941097147E-01  0.10575689098E+00  0.51100000000E-03 0.  1.
         11    1    4    4    0    0  0.44724677154E-02 -0.11007578505E-01 -0.19121804830E-01  0.22518310171E-01  0.51100000000E-03 0. -1.
</event>
<event>
 8    1  0.1146431E+005  0.1043930E+01  0.7957747E-01            NaN
         13   -1    0    0    0    0  0.00000000000E+00  0.00000000000E+00  0.74505805969E-08  0.10566000000E+00  0.10566000000E+00 0. -1.
     999900   -1    0    0    0    0 -0.00000000000E+00 -0.00000000000E+00 -0.74505805969E-08  0.93827000000E+00  0.93827000000E+00 0.  1.
     999902    2    1    2    0    0  0.13485091353E-01  0.15090525908E-01  0.11849255643E-01  0.10204784218E+01  0.10202089163E+01 0.  0.
     999903    2    3    3    0    0  0.12450087598E+00 -0.12174980575E-01  0.40084140171E-01  0.13263546215E+00  0.18350184051E-01 0.  0.
         14    1    1    2    0    0 -0.13485091353E-01 -0.15090525908E-01 -0.11849255643E-01  0.23451578204E-01  0.00000000000E+00 0.  1.
     999901    1    3    3    0    0 -0.11101578463E+00  0.27265506483E-01 -0.28234884528E-01  0.88784295964E+00  0.88000000000E+00 0.  1.
        -11    1    4    4    0    0  0.10087402487E+00 -0.66335034656E-02  0.25288304834E-01  0.10420811746E+00  0.51100000000E-03 0.  1.
         11    1    4    4    0    0  0.23626851110E-01 -0.55414771094E-02  0.14795835337E-01  0.28427344692E-01  0.51100000000E-03 0. -1.
</event>
<event>
 8    1  0.1146431E+005  0.1043930E+01  0.7957747E-01            NaN
         13   -1    0    0    0    0  0.00000000000E+00  0.00000000000E+00  0.74505805969E-08  0.10566000000E+00  0.10566000000E+00 0. -1.
     999900   -1    0    0    0    0 -0.00000000000E+00 -0.00000000000E+00 -0.74505805969E-08  0.93827000000E+00  0.93827000000E+00 0.  1.
     999902    2    1    2    0    0  0.15229413876E-01 -0.16887076227E-01  0.44487565175E-02  0.10207589011E+01  0.10204958767E+01 0.  0.
     999903    2    3    3    0    0  0.21806153113E-01 -0.12372782618E+00  0.40856638522E-01  0.13352514766E+00  0.19380837453E-01 0.  0.
         14    1    1    2    0    0 -0.15229413876E-01  0.16887076227E-01 -0.44487565175E-02  0.23171098917E-01  0.00000000000E+00 0.  1.
     999901    1    3    3    0    0 -0.65767392378E-02  0.10684074995E+00 -0.36407882005E-01  0.88723375343E+00  0.88000000000E+00 0. -1.
        -11    1    4    4    0    0  0.60776329914E-02 -0.51407421677E-01  0.73719434824E-02  0.52290221820E-01  0.51100000000E-03 0.  1.
         11    1    4    4    0    0  0.15728520122E-01 -0.72320404502E-01  0.33484695040E-01  0.81234925835E-01  0.51100000000E-03 0. -1.
</event>
<event>
 8    1  0.1146431E+005  0.1043930E+01  0.7957747E-01            NaN
         13   -1    0    0    0    0  0.00000000000E+00  0.00000000000E+00  0.74505805969E-08  0.10566000000E+00  0.10566000000E+00 0. -1.
     999900   -1    0    0    0    0 -0.00000000000E+00 -0.00000000000E+00 -0.74505805969E-08  0.93827000000E+00  0.93827000000E+00 0. -1.
     999902    2    1    2    0    0 -0.74071106660E-02  0.40178292134E-02  0.21909085614E-01  0.10204562642E+01  0.10201862432E+01 0.  0.
     999903    2    3    3    0    0  0.11739836246E+00 -0.27163262754E-01 -0.41169752084E-01  0.12886913644E+00  0.19801199182E-01 0.  0.
         14    1    1    2    0    0  0.74071106660E-02 -0.40178292134E-02 -0.21909085614E-01  0.23473735801E-01  0.00000000000E+00 0.  1.
     999901    1    3    3    0    0 -0.12480547312E+00  0.31181091968E-01  0.63078837698E-01  0.89158712776E+00  0.88000000000E+00 0.  1.
        -11    1    4    4    0    0  0.72626841884E-01 -0.82434343563E-02 -0.29887720368E-01  0.78969293537E-01  0.51100000000E-03 0.  1.
         11    1    4    4    0    0  0.44771520575E-01 -0.18919828398E-01 -0.11282031716E-01  0.49899842904E-01  0.51100000000E-03 0. -1.
</event>
<event>
 8    1  0.1146431E+005  0.1043930E+01  0.7957747E-01            NaN
         13   -1    0    0    0    0  0.00000000000E+00  0.00000000000E+00  0.74505805969E-08  0.10566000000E+00  0.10566000000E+00 0.  1.
     999900   -1    0    0    0    0 -0.00000000000E+00 -0.00000000000E+00 -0.74505805969E-08  0.93827000000E+00  0.93827000000E+00 0.  1.
     999902    2    1    2    0    0 -0.77955905513E-03 -0.12425652876E-01  0.20109801410E-01  0.10202781782E+01  0.10200039962E+01 0.  0.
     999903    2    3    3    0    0  0.11487825451E+00  0.29209563571E-01  0.52352187420E-01  0.13114950779E+00  0.20229431568E-01 0.  0.
         14    1    1    2    0    0  0.77955905513E-03  0.12425652876E-01 -0.20109801410E-01  0.23651821800E-01  0.00000000000E+00 0. -1.
     999901    1    3    3    0    0 -0.11565781357E+00 -0.41635216448E-01 -0.32242386010E-01  0.88912867041E+00  0.88000000000E+00 0.  1.
        -11    1    4    4    0    0  0.78120506944E-01  0.22518175793E-01  0.45475480438E-01  0.93156654557E-01  0.51100000000E-03 0. -1.
         11    1    4    4    0    0  0.36757747571E-01  0.66913877784E-02  0.68767069828E-02  0.37992853233E-01  0.51100000000E-03 0.  1.
</event>
<event>
 8    1  0.1146431E+005  0.1043930E+01  0.7957747E-01            NaN
         13   -1    0    0    0    0  0.00000000000E+00  0.00000000000E+00  0.74505805969E-08  0.10566000000E+00  0.10566000000E+00 0. -1.
     999900   -1    0    0    0    0 -0.00000000000E+00 -0.00000000000E+00 -0.74505805969E-08  0.93827000000E+00  0.93827000000E+00 0.  1.
     999902    2    1    2    0    0 -0.15501086314E-01  0.15140706981E-01 -0.89769964956E-02  0.10204755516E+01  0.10202059793E+01 0.  0.
     999903    2    3    3    0    0 -0.69247623227E-01  0.88429953862E-01 -0.69247219689E-01  0.13374419218E+00  0.21845856445E-01 0.  0.
         14    1    1    2    0    0  0.15501086314E-01 -0.15140706981E-01  0.89769964956E-02  0.23454448424E-01  0.00000000000E+00 0. -1.
     999901    1    3    3    0    0  0.53746536914E-01 -0.73289246881E-01  0.60270223193E-01  0.88673135940E+00  0.88000000000E+00 0. -1.
        -11    1    4    4    0    0 -0.63127723347E-01  0.87648790534E-01 -0.67242892008E-01  0.12723713131E+00  0.51100000000E-03 0.  1.
         11    1    4    4    0    0 -0.61198998805E-02  0.78116332764E-03 -0.20043276807E-02  0.65070608683E-02  0.51100000000E-03 0. -1.
</event>
<event>
 8    1  0.1146431E+005  0.1043930E+01  0.7957747E-01            NaN
         13   -1    0    0    0    0  0.00000000000E+00  0.00000000000E+00  0.74505805969E-08  0.10566000000E+00  0.10566000000E+00 0.  1.
     999900   -1    0    0    0    0 -0.00000000000E+00 -0.00000000000E+00 -0.74505805969E-08  0.93827000000E+00  0.93827000000E+00 0. -1.
     999902    2    1    2    0    0  0.18613055714E-01 -0.12115999952E-01  0.81149523898E-02  0.10202847944E+01  0.10200107675E+01 0.  0.
     999903    2    3    3    0    0 -0.19879962227E-01  0.12491952504E+00  0.13647450927E-01  0.12883033333E+00  0.20270698900E-01 0.  0.
         14    1    1    2    0    0 -0.18613055714E-01  0.12115999952E-01 -0.81149523898E-02  0.23645205648E-01  0.00000000000E+00 0. -1.
     999901    1    3    3    0    0  0.38493017941E-01 -0.13703552499E+00 -0.55324985375E-02  0.89145446102E+00  0.88000000000E+00 0.  1.
        -11    1    4    4    0    0 -0.10860217090E-01  0.33279572958E-01 -0.34223553301E-02  0.35177378079E-01  0.51100000000E-03 0.  1.
         11    1    4    4    0    0 -0.90197451363E-02  0.91639952083E-01  0.17069806257E-01  0.93652955249E-01  0.51100000000E-03 0. -1.
</event>
<event>
 8    1  0.1146431E+005  0.1043930E+01  0.7957747E-01            NaN
         13   -1    0    0    0    0  0.00000000000E+00  0.00000000000E+00  0.74505805969E-08  0.10566000000E+00  0.10566000000E+00 0.  1.
     999900   -1    0    0    0    0 -0.00000000000E+00 -0.00000000000E+00 -0.74505805969E-08  0.93827000000E+00  0.93827000000E+00 0.  1.
     999902    2    1    2    0    0  0.18928816968E-01  0.37789162105E-03  0.16318988750E-01  0.10189349543E+01  0.10186283370E+01 0.  0.
     999903    2    3    3    0    0 -0.10221468715E+00 -0.63613673570E-01  0.38954403704E-01  0.12804605497E+00  0.19590939015E-01 0.  0.
         14    1    1    2    0    0 -0.18928816968E-01 -0.37789162105E-03 -0.16318988750E-01  0.24995045663E-01  0.00000000000E+00 0. -1.
     999901    1    3    3    0    0  0.12114350412E+00  0.63991565191E-01 -0.22635414954E-01  0.89088889937E+00  0.88000000000E+00 0. -1.
        -11    1    4    4    0    0 -0.49198291748E-01 -0.24256060311E-01  0.92000297068E-02  0.55621309229E-01  0.51100000000E-03 0.  1.
         11    1    4    4    0    0 -0.53016395401E-01 -0.39357613259E-01  0.29754373997E-01  0.72424745741E-01  0.51100000000E-03 0. -1.
</event>
<event>
 8    1  0.1146431E+005  0.1043930E+01  0.7957747E-01            NaN
         13   -1    0    0    0    0  0.00000000000E+00  0.00000000000E+00  0.74505805969E-08  0.10566000000E+00  0.10566000000E+00 0.  1.
     999900   -1    0    0    0    0 -0.00000000000E+00 -0.00000000000E+00 -0.74505805969E-08  0.93827000000E+00  0.93827000000E+00 0.  1.
     999902    2    1    2    0    0  0.51180988399E-02  0.30652790150E-02 -0.23342833736E-01  0.10198368732E+01  0.10195522396E+01 0.  0.
     999903    2    3    3    0    0  0.45487124669E-01  0.97949965998E-01 -0.71823683202E-01  0.13249074299E+00  0.27053302192E-01 0.  0.
         14    1    1    2    0    0 -0.51180988399E-02 -0.30652790150E-02  0.23342833736E-01  0.24093126780E-01  0.00000000000E+00 0.  1.
     999901    1    3    3    0    0 -0.40369025829E-01 -0.94884686983E-01  0.48480849466E-01  0.88734613023E+00  0.88000000000E+00 0. -1.
        -11    1    4    4    0    0  0.12566089572E-01  0.49652447120E-01 -0.22239300285E-01  0.55840126346E-01  0.51100000000E-03 0.  1.
         11    1    4    4    0    0  0.32921035097E-01  0.48297518879E-01 -0.49584382917E-01  0.76650616644E-01  0.51100000000E-03 0. -1.
</event>
<event>
 8    1  0.1146431E+005  0.1043930E+01  0.7957747E-01            NaN
         13   -1    0    0    0    0  0.00000000000E+00  0.00000000000E+00  0.74505805969E-08  0.10566000000E+00  0.10566000000E+00 0. -1.
     999900   -1    0    0    0    0 -0.00000000000E+00 -0.00000000000E+00 -0.74505805969E-08  0.93827000000E+00  0.93827000000E+00 0. -1.
     999902    2    1    2    0    0  0.14118698509E-02  0.18213246270E-01  0.15306664784E-01  0.10200970459E+01  0.10198185982E+01 0.  0.
     999903    2    3    3    0    0 -0.81720725904E-01  0.95844980764E-01  0.34976990103E-01  0.13255851916E+00  0.21996222080E-01 0.  0.
         14    1    1    2    0    0 -0.14118698509E-02 -0.18213246270E-01 -0.15306664784E-01  0.23832954138E-01  0.00000000000E+00 0.  1.
     999901    1    3    3    0    0  0.83132595755E-01 -0.77631734494E-01 -0.19670325319E-01  0.88753852670E+00  0.88000000000E+00 0. -1.
        -11    1    4    4    0    0 -0.47378691689E-01  0.65226031154E-01  0.31002124007E-01  0.86374581795E-01  0.51100000000E-03 0. -1.
         11    1    4    4    0    0 -0.34342034215E-01  0.30618949610E-01  0.39748660956E-02  0.46183937367E-01  0.51100000000E-03 0.  1.
</event>
<event>
 8    1  0.1146431E+005  0.1043930E+01  0.7957747E-01            NaN
         13   -1    0    0    0    0  0.00000000000E+00  0.00000000000E+00  0.74505805969E-08  0.10566000000E+00  0.10566000000E+00 0.  1.
     999900   -1    0    0    0    0 -0.00000000000E+00 -0.00000000000E+00 -0.74505805969E-08  0.93827000000E+00  0.93827000000E+00 0. -1.
     999902    2    1    2    0    0  0.16154343231E-01  0.87533344545E-02 -0.17569203606E-01  0.10185083442E+01  0.10181910364E+01 0.  0.
     999903    2    3    3    0    0  0.47181663088E-01  0.34610484299E-01  0.11203011602E+00  0.12809985903E+00  0.20852626517E-01 0.  0.
         14    1    1    2    0    0 -0.16154343231E-01 -0.87533344545E-02  0.17569203606E-01  0.25421655820E-01  0.00000000000E+00 0.  1.
     999901    1    3    3    0    0 -0.31027319857E-01 -0.25857149845E-01 -0.12959931963E+00  0.89040848515E+00  0.88000000000E+00 0. -1.
        -11    1    4    4    0    0  0.33019673931E-01  0.31925456317E-01  0.70561631592E-01  0.84194647108E-01  0.51100000000E-03 0.  1.
         11    1    4    4    0    0  0.14161989157E-01  0.26850279820E-02  0.41468484430E-01  0.43905211924E-01  0.51100000000E-03 0. -1.
</event>
<event>
 8    1  0.1146431E+005  0.1043930E+01  0.7957747E-01            NaN
         13   -1    0    0    0    0  0.00000000000E+00  0.00000000000E+00  0.74505805969E-08  0.10566000000E+00  0.10566000000E+00 0.  1.
     999900   -1    0    0    0    0 -0.00000000000E+00 -0.00000000000E+00 -0.74505805969E-08  0.93827000000E+00  0.93827000000E+00 0. -1.
     999902    2    1    2    0    0 -0.22174155944E-01  0.79952238958E-02 -0.49379784195E-02  0.10198468020E+01  0.10195624057E+01 0.  0.
     999903    2    3    3    0    0 -0.50034967032E-01 -0.97608338501E-01 -0.68362812695E-01  0.13082990291E+00  0.20300336607E-01 0.  0.
         14    1    1    2    0    0  0.22174155944E-01 -0.79952238958E-02  0.49379784195E-02  0.24083198040E-01  0.00000000000E+00 0.  1.
     999901    1    3    3    0    0  0.27860811088E-01  0.10560356240E+00  0.63424834275E-01  0.88901689905E+00  0.88000000000E+00 0.  1.
        -11    1    4    4    0    0 -0.79011332154E-02 -0.92625188216E-02 -0.15076445562E-01  0.19385110080E-01  0.51100000000E-03 0.  1.
         11    1    4    4    0    0 -0.42133833817E-01 -0.88345819679E-01 -0.53286367132E-01  0.11144479283E+00  0.51100000000E-03 0. -1.
</event>
<event>
 8    1  0.1146431E+005  0.1043930E+01  0.7957747E-01            NaN
         13   -1    0    0    0    0  0.00000000000E+00  0.00000000000E+00  0.74505805969E-08  0.10566000000E+00  0.10566000000E+00 0. -1.
     999900   -1    0    0    0    0 -0.00000000000E+00 -0.00000000000E+00 -0.74505805969E-08  0.93827000000E+00  0.93827000000E+00 0.  1.
     999902    2    1    2    0    0 -0.69907206142E-02 -0.20865063181E-01  0.74093518865E-02  0.10207110523E+01  0.10204469280E+01 0.  0.
     999903    2    3    3    0    0  0.39345204216E-01 -0.18257533632E-01  0.12291910266E+00  0.13194993724E+00  0.20501158784E-01 0.  0.
         14    1    1    2    0    0  0.69907206142E-02  0.20865063181E-01 -0.74093518865E-02  0.23218947686E-01  0.00000000000E+00 0.  1.
     999901    1    3    3    0    0 -0.46335924830E-01 -0.26075295493E-02 -0.11550975077E+00  0.88876111507E+00  0.88000000000E+00 0.  1.
        -11    1    4    4    0    0  0.26417905852E-01 -0.10079905359E-01  0.50015901908E-01  0.57457478245E-01  0.51100000000E-03 0. -1.
         11    1    4    4    0    0  0.12927298364E-01 -0.81776282727E-02  0.72903200748E-01  0.74492458997E-01  0.51100000000E-03 0.  1.
</event>
<event>
 8    1  0.1146431E+005  0.1043930E+01  0.7957747E-01            NaN
         13   -1    0    0    0    0  0.00000000000E+00  0.00000000000E+00  0.74505805969E-08  0.10566000000E+00  0.10566000000E+00 0. -1.
     999900   -1    0    0    0    0 -0.00000000000E+00 -0.00000000000E+00 -0.74505805969E-08  0.93827000000E+00  0.93827000000E+00 0. -1.
     999902    2    1    2    0    0  0.11824818782E-01 -0.35187861913E-02  0.18787249601E-01  0.10214540363E+01  0.10212067271E+01 0.  0.
     999903    2    3    3    0    0 -0.60144431938E-02 -0.36855191980E-01 -0.12234026628E+00  0.12940777578E+00  0.19615121067E-01 0.  0.
         14    1    1    2    0    0 -0.11824818782E-01  0.35187861913E-02 -0.18787249601E-01  0.22475963674E-01  0.00000000000E+00 0.  1.
     999901    1    3    3    0    0  0.17839261976E-01  0.33336405789E-01  0.14112751588E+00  0.89204626055E+00  0.88000000000E+00 0.  1.
        -11    1    4    4    0    0  0.65850928888E-02 -0.18996338764E-01 -0.52246226928E-01  0.55983512608E-01  0.51100000000E-03 0. -1.
         11    1    4    4    0    0 -0.12599536083E-01 -0.17858853217E-01 -0.70094039356E-01  0.73424263169E-01  0.51100000000E-03 0.  1.
</event>
<event>
 8    1  0.1146431E+005  0.1043930E+01  0.7957747E-01            NaN
         13   -1    0    0    0    0  0.00000000000E+00  0.00000000000E+00  0.74505805969E-08  0.10566000000E+00  0.10566000000E+00 0.  1.
     999900   -1    0    0    0    0 -0.00000000000E+00 -0.00000000000E+00 -0.74505805969E-08  0.93827000000E+00  0.93827000000E+00 0. -1.
     999902    2    1    2    0    0  0.17117944972E-01  0.15929852947E-01 -0.63016068499E-02  0.10197123514E+01  0.10194247324E+01 0.  0.
     999903    2    3    3    0    0 -0.98882771327E-01 -0.30507611203E-01  0.71684743177E-01  0.12747108635E+00  0.20041423217E-01 0.  0.
         14    1    1    2    0    0 -0.17117944972E-01 -0.15929852947E-01  0.63016068499E-02  0.24217648604E-01  0.00000000000E+00 0.  1.
     999901    1    3    3    0    0  0.11600071630E+00  0.46437464151E-01 -0.77986350027E-01  0.89224126505E+00  0.88000000000E+00 0.  1.
        -11    1    4    4    0    0 -0.25365218502E-01 -0.13628828675E-01  0.11656222518E-01  0.31068761241E-01  0.51100000000E-03 0. -1.
         11    1    4    4    0    0 -0.73517552826E-01 -0.16878782529E-01  0.60028520659E-01  0.96402325110E-01  0.51100000000E-03 0.  1.
</event>
<event>
 8    1  0.1146431E+005  0.1043930E+01  0.7957747E-01            NaN
         13   -1    0    0    0    0  0.00000000000E+00  0.00000000000E+00  0.74505805969E-08  0.10566000000E+00  0.10566000000E+00 0. -1.
     999900   -1    0    0    0    0 -0.00000000000E+00 -0.00000000000E+00 -0.74505805969E-08  0.93827000000E+00  0.93827000000E+00 0.  1.
     999902    2    1    2    0    0 -0.14210000034E-01  0.18591673358E-01  0.33270292898E-02  0.10202943586E+01  0.10200205560E+01 0.  0.
     999903    2    3    3    0    0 -0.72411961819E-01  0.53657854133E-01  0.95141218854E-01  0.13291228151E+00  0.22162254521E-01 0.  0.
         14    1    1    2    0    0  0.14210000034E-01 -0.18591673358E-01 -0.33270292898E-02  0.23635641374E-01  0.00000000000E+00 0.  1.
     999901    1    3    3    0    0  0.58201961785E-01 -0.35066180774E-01 -0.91814189564E-01  0.88738207712E+00  0.88000000000E+00 0. -1.
        -11    1    4    4    0    0 -0.32593475407E-02 -0.42723012326E-03  0.10299950705E-01  0.10823861487E-01  0.51100000000E-03 0. -1.
         11    1    4    4    0    0 -0.69152614278E-01  0.54085084256E-01  0.84841268149E-01  0.12208842002E+00  0.51100000000E-03 0.  1.
</event>
<event>
 8    1  0.1146431E+005  0.1043930E+01  0.7957747E-01            NaN
         13   -1    0    0    0    0  0.00000000000E+00  0.00000000000E+00  0.74505805969E-08  0.10566000000E+00  0.10566000000E+00 0.  1.
     999900   -1    0    0    0    0 -0.00000000000E+00 -0.00000000000E+00 -0.74505805969E-08  0.93827000000E+00  0.93827000000E+00 0. -1.
     999902    2    1    2    0    0  0.24286027145E-02 -0.20119136821E-01 -0.39972122563E-02  0.10232743595E+01  0.10230658627E+01 0.  0.
     999903    2    3    3    0    0  0.51209063754E-01 -0.94487321900E-01 -0.80367896734E-01  0.13550037828E+00  0.18738502547E-01 0.  0.
         14    1    1    2    0    0 -0.24286027145E-02  0.20119136821E-01  0.39972122563E-02  0.20655640474E-01  0.00000000000E+00 0.  1.
     999901    1    3    3    0    0 -0.48780461040E-01  0.74368185079E-01  0.76370684478E-01  0.88777398125E+00  0.88000000000E+00 0.  1.
        -11    1    4    4    0    0  0.45850790601E-02 -0.21602926013E-01 -0.11429538882E-01  0.24871767979E-01  0.51100000000E-03 0.  1.
         11    1    4    4    0    0  0.46623984694E-01 -0.72884395887E-01 -0.68938357852E-01  0.11062861030E+00  0.51100000000E-03 0. -1.
</event>
<event>
 8    1  0.1146431E+005  0.1043930E+01  0.7957747E-01            NaN
         13   -1    0    0    0    0  0.00000000000E+00  0.00000000000E+00  0.74505805969E-08  0.10566000000E+00  0.10566000000E+00 0.  1.
     999900   -1    0    0    0    0 -0.00000000000E+00 -0.00000000000E+00 -0.74505805969E-08  0.93827000000E+00  0.93827000000E+00 0.  1.
     999902    2    1    2    0    0 -0.11730589088E-01  0.35364403052E-02 -0.20743617912E-01  0.10198382833E+01  0.10195536833E+01 0.  0.
     999903    2    3    3    0    0  0.74909847681E-01  0.47790918544E-01 -0.94691185710E-01  0.13139398738E+00  0.20062454849E-01 0.  0.
         14    1    1    2    0    0  0.11730589088E-01 -0.35364403052E-02  0.20743617912E-01  0.24091716719E-01  0.00000000000E+00 0.  1.
     999901    1    3    3    0    0 -0.86640436770E-01 -0.44254478239E-01  0.73947567798E-01  0.88844429590E+00  0.88000000000E+00 0. -1.
        -11    1    4    4    0    0  0.10739535018E-01  0.11230382809E-01 -0.27277389321E-01  0.31397073106E-01  0.51100000000E-03 0. -1.
         11    1    4    4    0    0  0.64170312664E-01  0.36560535735E-01 -0.67413796389E-01  0.99996914278E-01  0.51100000000E-03 0.  1.
</event>
<event>
 8    1  0.1146431E+005  0.1043930E+01  0.7957747E-01            NaN
         13   -1    0    0    0    0  0.00000000000E+00  0.00000000000E+00  0.74505805969E-08  0.10566000000E+00  0.10566000000E+00 0. -1.
     999900   -1    0    0    0    0 -0.00000000000E+00 -0.00000000000E+00 -0.74505805969E-08  0.93827000000E+00  0.93827000000E+00 0. -1.
     999902    2    1    2    0    0  0.22414473090E-03 -0.22016717791E-01  0.90710355342E-02  0.10201167728E+01  0.10198387914E+01 0.  0.
     999903    2    3    3    0    0 -0.98956098714E-01  0.72999710680E-01  0.33817974488E-01  0.12911887531E+00  0.20168324966E-01 0.  0.
         14    1    1    2    0    0 -0.22414473090E-03  0.22016717791E-01 -0.90710355342E-02  0.23813227182E-01  0.00000000000E+00 0.  1.
     999901    1    3    3    0    0  0.99180243444E-01 -0.95016428471E-01 -0.24746938954E-01  0.89099789750E+00  0.88000000000E+00 0. -1.
        -11    1    4    4    0    0 -0.45243816172E-01  0.44472599057E-01  0.12443067135E-01  0.64652192611E-01  0.51100000000E-03 0.  1.
         11    1    4    4    0    0 -0.53712282542E-01  0.28527111623E-01  0.21374907353E-01  0.64466682703E-01  0.51100000000E-03 0. -1.
</event>
<event>
 8    1  0.1146431E+005  0.1043930E+01  0.7957747E-01            NaN
         13   -1    0    0    0    0  0.00000000000E+00  0.00000000000E+00  0.74505805969E-08  0.10566000000E+00  0.10566000000E+00 0. -1.
     999900   -1    0    0    0    0 -0.00000000000E+00 -0.00000000000E+00 -0.74505805969E-08  0.93827000000E+00  0.93827000000E+00 0. -1.
     999902    2    1    2    0    0  0.39616009426E-02 -0.18389030612E-01 -0.27015856503E-01  0.10110102911E+01  0.10104741964E+01 0.  0.
     999903    2    3    3    0    0 -0.51557368804E-01 -0.80878861137E-01 -0.78690979870E-01  0.12553999051E+00  0.19195479877E-01 0.  0.
         14    1    1    2    0    0 -0.39616009426E-02  0.18389030612E-01  0.27015856503E-01  0.32919708861E-01  0.00000000000E+00 0. -1.
     999901    1    3    3    0    0  0.55518969747E-01  0.62489830525E-01  0.51675123367E-01  0.88547030063E+00  0.88000000000E+00 0.  1.
        -11    1    4    4    0    0 -0.44121527792E-01 -0.75661064585E-01 -0.64873361694E-01  0.10899596363E+00  0.51100000000E-03 0. -1.
         11    1    4    4    0    0 -0.74358410117E-02 -0.52177965516E-02 -0.13817618176E-01  0.16544026881E-01  0.51100000000E-03 0.  1.
</event>
<event>
 8    1  0.1146431E+005  0.1043930E+01  0.7957747E-01            NaN
         13   -1    0    0    0    0  0.00000000000E+00  0.00000000000E+00  0.74505805969E-08  0.10566000000E+00  0.10566000000E+00 0. -1.
     999900   -1    0    0    0    0 -0.00000000000E+00 -0.00000000000E+00 -0.74505805969E-08  0.93827000000E+00  0.93827000000E+00 0. -1.
     999902    2    1    2    0    0 -0.11036729935E-01  0.73854297356E-02 -0.18657215812E-01  0.10210292209E+01  0.10207723666E+01 0.  0.
     999903    2    3    3    0    0 -0.35063944932E-01  0.12610243744E+00  0.35160186357E-02  0.13245582087E+00  0.20021916296E-01 0.  0.
         14    1    1    2    0    0  0.11036729935E-01 -0.73854297356E-02  0.18657215812E-01  0.22900779067E-01  0.00000000000E+00 0. -1.
     999901    1    3    3    0    0  0.24027214997E-01 -0.11871700770E+00 -0.22173234447E-01  0.88857340007E+00  0.88000000000E+00 0.  1.
        -11    1    4    4    0    0 -0.16800083670E-01  0.76123305765E-01 -0.67934507324E-02  0.78252236937E-01  0.51100000000E-03 0. -1.
         11    1    4    4    0    0 -0.18263861262E-01  0.49979131675E-01  0.10309469368E-01  0.54203583930E-01  0.51100000000E-03 0.  1.
</event>
<event>
 8    1  0.1146431E+005  0.1043930E+01  0.7957747E-01            NaN
         13   -1    0    0    0    0  0.00000000000E+00  0.00000000000E+00  0.74505805969E-08  0.10566000000E+00  0.10566000000E+00 0.  1.
     999900   -1    0    0    0    0 -0.00000000000E+00 -0.00000000000E+00 -0.74505805969E-08  0.93827000000E+00  0.93827000000E+00 0.  1.
     999902    2    1    2    0    0 -0.20972178886E-01  0.51303852215E-02 -0.10227486835E-01  0.10200395285E+01  0.10197597193E+01 0.  0.
     999903    2    3    3    0    0  0.33602589178E-01 -0.10836442521E+00  0.56858286196E-01  0.12854641121E+00  0.20477609087E-01 0.  0.
         14    1    1    2    0    0  0.20972178886E-01 -0.51303852215E-02  0.10227486835E-01  0.23890471463E-01  0.00000000000E+00 0.  1.
     999901    1    3    3    0    0 -0.54574768064E-01  0.11349481043E+00 -0.67085773031E-01  0.89149311733E+00  0.88000000000E+00 0.  1.
        -11    1    4    4    0    0  0.21034432453E-01 -0.75516672987E-01  0.28670059233E-01  0.83471244541E-01  0.51100000000E-03 0. -1.
         11    1    4    4    0    0  0.12568156724E-01 -0.32847752225E-01  0.28188226962E-01  0.45075166666E-01  0.51100000000E-03 0.  1.
</event>
<event>
 8    1  0.1146431E+005  0.1043930E+01  0.7957747E-01            NaN
         13   -1    0    0    0    0  0.00000000000E+00  0.00000000000E+00  0.74505805969E-08  0.10566000000E+00  0.10566000000E+00 0.  1.
     999900   -1    0    0    0    0 -0.00000000000E+00 -0.00000000000E+00 -0.74505805969E-08  0.93827000000E+00  0.93827000000E+00 0. -1.
     999902    2    1    2    0    0  0.74655609128E-02 -0.15741552267E-02  0.22187657526E-01  0.10204671632E+01  0.10201973958E+01 0.  0.
     999903    2    3    3    0    0  0.24172234840E-01  0.28389077285E-01 -0.12099162318E+00  0.12823557068E+00  0.20375280679E-01 0.  0.
         14    1    1    2    0    0 -0.74655609128E-02  0.15741552267E-02 -0.22187657526E-01  0.23462836804E-01  0.00000000000E+00 0. -1.
     999901    1    3    3    0    0 -0.16706673927E-01 -0.29963232512E-01  0.14317928070E+00  0.89223159251E+00  0.88000000000E+00 0.  1.
        -11    1    4    4    0    0  0.15176610763E-02  0.32673202381E-02 -0.43856507703E-01  0.44007193339E-01  0.51100000000E-03 0. -1.
         11    1    4    4    0    0  0.22654573763E-01  0.25121757047E-01 -0.77135115475E-01  0.84228377343E-01  0.51100000000E-03 0.  1.
</event>
<event>
 8    1  0.1333027E+005  0.1043930E+01  0.7957747E-01            NaN
         13   -1    0    0    0    0  0.00000000000E+00  0.00000000000E+00  0.74505805969E-08  0.10566000000E+00  0.10566000000E+00 0. -1.
     999900   -1    0    0    0    0 -0.00000000000E+00 -0.00000000000E+00 -0.74505805969E-08  0.93827000000E+00  0.93827000000E+00 0. -1.
     999902    2    1    2    0    0 -0.13429899847E-02 -0.26348088022E-01  0.80064245030E-02  0.10163595775E+01  0.10159855622E+01 0.  0.
     999903    2    3    3    0    0 -0.80225935050E-01 -0.62563517987E-01 -0.75637357468E-01  0.12814205984E+00  0.18681092493E-01 0.  0.
         14    1    1    2    0    0  0.13429899847E-02  0.26348088022E-01 -0.80064245030E-02  0.27570422518E-01  0.00000000000E+00 0. -1.
     999901    1    3    3    0    0  0.78882945066E-01  0.36215429965E-01  0.83643781971E-01  0.88821751765E+00  0.88000000000E+00 0. -1.
        -11    1    4    4    0    0 -0.41833600505E-01 -0.29569259800E-01 -0.26875199224E-01  0.57852646531E-01  0.51100000000E-03 0.  1.
         11    1    4    4    0    0 -0.38392334545E-01 -0.32994258187E-01 -0.48762158245E-01  0.70289413305E-01  0.51100000000E-03 0. -1.
</event>
<event>
 7    1  0.1146431E+005  0.1043930E+01  0.7957747E-01            NaN
         13   -1    0    0    0    0  0.00000000000E+00  0.00000000000E+00  0.74505805969E-08  0.10566000000E+00  0.10566000000E+00 0. -1.
     999900   -1    0    0    0    0 -0.00000000000E+00 -0.00000000000E+00 -0.74505805969E-08  0.93827000000E+00  0.93827000000E+00 0. -1.
     999903    2    1    2    0    0 -0.30312089357E-01  0.20075845979E-01 -0.10932325191E+00  0.11773704015E+00  0.24260561891E-01 0.  0.
         14    1    1    2    0    0 -0.15404989798E-01 -0.42714994508E-03  0.39060939134E-01  0.41991107794E-01  0.00000000000E+00 0. -1.
     999901    1    1    2    0    0  0.45717079155E-01 -0.19648696034E-01  0.70262312772E-01  0.88420185206E+00  0.88000000000E+00 0.  1.
        -11    1    3    3    0    0 -0.14282423561E-01  0.22999433529E-01 -0.75016732387E-01  0.79754202551E-01  0.51100000000E-03 0.  1.
         11    1    3    3    0    0 -0.16029665796E-01 -0.29235875497E-02 -0.34306519518E-01  0.37982837600E-01  0.51100000000E-03 0. -1.
</event>
<event>
 8    1  0.1146431E+005  0.1043930E+01  0.7957747E-01            NaN
         13   -1    0    0    0    0  0.00000000000E+00  0.00000000000E+00  0.74505805969E-08  0.10566000000E+00  0.10566000000E+00 0. -1.
     999900   -1    0    0    0    0 -0.00000000000E+00 -0.00000000000E+00 -0.74505805969E-08  0.93827000000E+00  0.93827000000E+00 0.  1.
     999902    2    1    2    0    0 -0.17662352547E-01  0.15885453525E-01 -0.94787207403E-03  0.10201559639E+01  0.10198789075E+01 0.  0.
     999903    2    3    3    0    0 -0.44569103712E-01 -0.58574923045E-01  0.10552964522E+00  0.13020889658E+00  0.20010599988E-01 0.  0.
         14    1    1    2    0    0  0.17662352547E-01 -0.15885453525E-01  0.94787207403E-03  0.23774036104E-01  0.00000000000E+00 0. -1.
     999901    1    3    3    0    0  0.26906751165E-01  0.74460376570E-01 -0.10647751730E+00  0.88994706732E+00  0.88000000000E+00 0. -1.
        -11    1    4    4    0    0 -0.10149920535E-01 -0.26938562361E-01  0.49195034178E-01  0.57001048567E-01  0.51100000000E-03 0. -1.
         11    1    4    4    0    0 -0.34419183177E-01 -0.31636360683E-01  0.56334611046E-01  0.73207848012E-01  0.51100000000E-03 0.  1.
</event>
<event>
 8    1  0.1146431E+005  0.1043930E+01  0.7957747E-01            NaN
         13   -1    0    0    0    0  0.00000000000E+00  0.00000000000E+00  0.74505805969E-08  0.10566000000E+00  0.10566000000E+00 0.  1.
     999900   -1    0    0    0    0 -0.00000000000E+00 -0.00000000000E+00 -0.74505805969E-08  0.93827000000E+00  0.93827000000E+00 0. -1.
     999902    2    1    2    0    0 -0.16660171884E-01  0.13983530138E-01  0.73921187773E-02  0.10209573236E+01  0.10206988354E+01 0.  0.
     999903    2    3    3    0    0  0.11138524336E+00  0.27211095646E-01 -0.56387181801E-01  0.12930806740E+00  0.19848069389E-01 0.  0.
         14    1    1    2    0    0  0.16660171884E-01 -0.13983530138E-01 -0.73921187773E-02  0.22972676430E-01  0.00000000000E+00 0.  1.
     999901    1    3    3    0    0 -0.12804541524E+00 -0.13227565508E-01  0.63779300578E-01  0.89164925617E+00  0.88000000000E+00 0.  1.
        -11    1    4    4    0    0  0.62501576843E-01  0.77295540803E-02 -0.38039439581E-01  0.73576172765E-01  0.51100000000E-03 0.  1.
         11    1    4    4    0    0  0.48883666513E-01  0.19481541566E-01 -0.18347742219E-01  0.55731894631E-01  0.51100000000E-03 0. -1.
</event>
<event>
 8    1  0.1146431E+005  0.1043930E+01  0.7957747E-01            NaN
         13   -1    0    0    0    0  0.00000000000E+00  0.00000000000E+00  0.74505805969E-08  0.10566000000E+00  0.10566000000E+00 0.  1.
     999900   -1    0    0    0    0 -0.00000000000E+00 -0.00000000000E+00 -0.74505805969E-08  0.93827000000E+00  0.93827000000E+00 0. -1.
     999902    2    1    2    0    0 -0.22732387584E-01  0.61797361003E-02 -0.76462642156E-03  0.10203602050E+01  0.10200879436E+01 0.  0.
     999903    2    3    3    0    0  0.58110794977E-01 -0.46476589760E-01 -0.10362902707E+00  0.12913105727E+00  0.19972901904E-01 0.  0.
         14    1    1    2    0    0  0.22732387584E-01 -0.61797361003E-02  0.76462642156E-03  0.23569795016E-01  0.00000000000E+00 0. -1.
     999901    1    3    3    0    0 -0.80843182561E-01  0.52656325860E-01  0.10286440065E+00  0.89122914772E+00  0.88000000000E+00 0.  1.
        -11    1    4    4    0    0  0.44014178234E-01 -0.23912581469E-01 -0.73316955397E-01  0.88795813571E-01  0.51100000000E-03 0. -1.
         11    1    4    4    0    0  0.14096616744E-01 -0.22564008292E-01 -0.30312071674E-01  0.40335243696E-01  0.51100000000E-03 0.  1.
</event>
<event>
 8    1  0.1146431E+005  0.1043930E+01  0.7957747E-01            NaN
         13   -1    0    0    0    0  0.00000000000E+00  0.00000000000E+00  0.74505805969E-08  0.10566000000E+00  0.10566000000E+00 0. -1.
     999900   -1    0    0    0    0 -0.00000000000E+00 -0.00000000000E+00 -0.74505805969E-08  0.93827000000E+00  0.93827000000E+00 0. -1.
     999902    2    1    2    0    0 -0.16635042832E-01  0.15816253188E-01 -0.74327582624E-02  0.10198027455E+01  0.10195172952E+01 0.  0.
     999903    2    3    3    0    0 -0.22427268436E-01  0.12070932032E+00  0.44411443621E-01  0.13203930477E+00  0.19704803908E-01 0.  0.
         14    1    1    2    0    0  0.16635042832E-01 -0.15816253188E-01  0.74327582624E-02  0.24127254513E-01  0.00000000000E+00 0. -1.
     999901    1    3    3    0    0  0.57922256039E-02 -0.10489306713E+00 -0.51844201883E-01  0.88776344072E+00  0.88000000000E+00 0. -1.
        -11    1    4    4    0    0 -0.14280874795E-01  0.29707776290E-01  0.12634329010E-01  0.35304146322E-01  0.51100000000E-03 0.  1.
         11    1    4    4    0    0 -0.81463936411E-02  0.91001544031E-01  0.31777114610E-01  0.96735158445E-01  0.51100000000E-03 0. -1.
</event>
<event>
 8    1  0.1146431E+005  0.1043930E+01  0.7957747E-01            NaN
         13   -1    0    0    0    0  0.00000000000E+00  0.00000000000E+00  0.74505805969E-08  0.10566000000E+00  0.10566000000E+00 0. -1.
     999900   -1    0    0    0    0 -0.00000000000E+00 -0.00000000000E+00 -0.74505805969E-08  0.93827000000E+00  0.93827000000E+00 0.  1.
     999902    2    1    2    0    0  0.21970404687E-01  0.15454449461E-02  0.10578504976E-01  0.10194965833E+01  0.10192037537E+01 0.  0.
     999903    2    3    3    0    0 -0.34092390110E-01 -0.11951318084E+00  0.28943186003E-01  0.12925196002E+00  0.20558932259E-01 0.  0.
         14    1    1    2    0    0 -0.21970404687E-01 -0.15454449461E-02 -0.10578504976E-01  0.24433416661E-01  0.00000000000E+00 0. -1.
     999901    1    3    3    0    0  0.56062794797E-01  0.12105862579E+00 -0.18364681027E-01  0.89024462332E+00  0.88000000000E+00 0. -1.
        -11    1    4    4    0    0 -0.31225434260E-01 -0.77264898628E-01  0.15071886617E-01  0.84689522327E-01  0.51100000000E-03 0. -1.
         11    1    4    4    0    0 -0.28669558502E-02 -0.42248282211E-01  0.13871299386E-01  0.44562437695E-01  0.51100000000E-03 0.  1.
</event>
<event>
 8    1  0.1146431E+005  0.1043930E+01  0.7957747E-01            NaN
         13   -1    0    0    0    0  0.00000000000E+00  0.00000000000E+00  0.74505805969E-08  0.10566000000E+00  0.10566000000E+00 0.  1.
     999900   -1    0    0    0    0 -0.00000000000E+00 -0.00000000000E+00 -0.74505805969E-08  0.93827000000E+00  0.93827000000E+00 0.  1.
     999902    2    1    2    0    0 -0.18575318594E-01 -0.10122659683E-01  0.13657529544E-01  0.10187498727E+01  0.10184386404E+01 0.  0.
     999903    2    3    3    0    0  0.11340410152E-01  0.10383037270E+00 -0.69629577925E-01  0.12700047586E+00  0.19274116009E-01 0.  0.
         14    1    1    2    0    0  0.18575318594E-01  0.10122659683E-01 -0.13657529544E-01  0.25180127346E-01  0.00000000000E+00 0. -1.
     999901    1    3    3    0    0 -0.29915728745E-01 -0.11395303239E+00  0.83287107469E-01  0.89174939680E+00  0.88000000000E+00 0. -1.
        -11    1    4    4    0    0 -0.10596119078E-03  0.71849272528E-01 -0.52255411691E-01  0.88843786291E-01  0.51100000000E-03 0.  1.
         11    1    4    4    0    0  0.11446371342E-01  0.31981100176E-01 -0.17374166234E-01  0.38156689567E-01  0.51100000000E-03 0. -1.
</event>
<event>
 8    1  0.1146431E+005  0.1043930E+01  0.7957747E-01            NaN
         13   -1    0    0    0    0  0.00000000000E+00  0.00000000000E+00  0.74505805969E-08  0.10566000000E+00  0.10566000000E+00 0. -1.
     999900   -1    0    0    0    0 -0.00000000000E+00 -0.00000000000E+00 -0.74505805969E-08  0.93827000000E+00  0.93827000000E+00 0. -1.
     999902    2    1    2    0    0 -0.44740063229E-02  0.63448981533E-02  0.21803124429E-01  0.10207858712E+01  0.10205234657E+01 0.  0.
     999903    2    3    3    0    0  0.10862217688E+00  0.41366481677E-01  0.59417642842E-01  0.13206087997E+00  0.19991413669E-01 0.  0.
         14    1    1    2    0    0  0.44740063229E-02 -0.63448981533E-02 -0.21803124429E-01  0.23144128846E-01  0.00000000000E+00 0.  1.
     999901    1    3    3    0    0 -0.11309618320E+00 -0.35021583524E-01 -0.37614518413E-01  0.88872499119E+00  0.88000000000E+00 0. -1.
        -11    1    4    4    0    0  0.76839822713E-01  0.27995351875E-01  0.31304019881E-01  0.87568834998E-01  0.51100000000E-03 0. -1.
         11    1    4    4    0    0  0.31782354164E-01  0.13371129802E-01  0.28113622961E-01  0.44492044968E-01  0.51100000000E-03 0.  1.
</event>
<event>
 8    1  0.1146431E+005  0.1043930E+01  0.7957747E-01            NaN
         13   -1    0    0    0    0  0.00000000000E+00  0.00000000000E+00  0.74505805969E-08  0.10566000000E+00  0.10566000000E+00 0.  1.
     999900   -1    0    0    0    0 -0.00000000000E+00 -0.00000000000E+00 -0.74505805969E-08  0.93827000000E+00  0.93827000000E+00 0.  1.
     999902    2    1    2    0    0  0.18942319695E-01  0.13652454713E-01  0.56331165855E-02  0.10199105704E+01  0.10196276961E+01 0.  0.
     999903    2    3    3    0    0  0.83882410315E-01 -0.92488316006E-01 -0.31965107138E-01  0.13036197421E+00  0.19548117260E-01 0.  0.
         14    1    1    2    0    0 -0.18942319695E-01 -0.13652454713E-01 -0.56331165855E-02  0.24019429585E-01  0.00000000000E+00 0. -1.
     999901    1    3    3    0    0 -0.64940090620E-01  0.10614077072E+00  0.37598223723E-01  0.88954859620E+00  0.88000000000E+00 0. -1.
        -11    1    4    4    0    0  0.29607688953E-01 -0.19674438030E-01 -0.98113497088E-02  0.36881193867E-01  0.51100000000E-03 0.  1.
         11    1    4    4    0    0  0.54274721362E-01 -0.72813877976E-01 -0.22153757429E-01  0.93480780346E-01  0.51100000000E-03 0. -1.
</event>
<event>
 8    1  0.1146431E+005  0.1043930E+01  0.7957747E-01            NaN
         13   -1    0    0    0    0  0.00000000000E+00  0.00000000000E+00  0.74505805969E-08  0.10566000000E+00  0.10566000000E+00 0. -1.
     999900   -1    0    0    0    0 -0.00000000000E+00 -0.00000000000E+00 -0.74505805969E-08  0.93827000000E+00  0.93827000000E+00 0.  1.
     999902    2    1    2    0    0 -0.18073888561E-01  0.15000690642E-01  0.84759454857E-04  0.10204418466E+01  0.10201714899E+01 0.  0.
     999903    2    3    3    0    0 -0.31722714798E-01 -0.15767247480E-02 -0.12577107751E+00  0.13122826544E+00  0.19841295751E-01 0.  0.
         14    1    1    2    0    0  0.18073888561E-01 -0.15000690642E-01 -0.84759454857E-04  0.23488153431E-01  0.00000000000E+00 0. -1.
     999901    1    3    3    0    0  0.13648826238E-01  0.16577415390E-01  0.12585583697E+00  0.88921358113E+00  0.88000000000E+00 0. -1.
        -11    1    4    4    0    0 -0.25847474850E-01 -0.84136985031E-02 -0.10697973513E+00  0.11038028415E+00  0.51100000000E-03 0.  1.
         11    1    4    4    0    0 -0.58752399484E-02  0.68369737551E-02 -0.18791342383E-01  0.20847981296E-01  0.51100000000E-03 0. -1.
</event>
<event>
 8    1  0.1146431E+005  0.1043930E+01  0.7957747E-01            NaN
         13   -1    0    0    0    0  0.00000000000E+00  0.00000000000E+00  0.74505805969E-08  0.10566000000E+00  0.10566000000E+00 0.  1.
     999900   -1    0    0    0    0 -0.00000000000E+00 -0.00000000000E+00 -0.74505805969E-08  0.93827000000E+00  0.93827000000E+00 0. -1.
     999902    2    1    2    0    0  0.54998194605E-02  0.26910283461E-01 -0.48107188655E-02  0.10160453378E+01  0.10156626281E+01 0.  0.
     999903    2    3    3    0    0  0.98356782455E-02 -0.33275602680E-01 -0.12018729357E+00  0.12646515898E+00  0.18559218702E-01 0.  0.
         14    1    1    2    0    0 -0.54998194605E-02 -0.26910283461E-01  0.48107188655E-02  0.27884662200E-01  0.00000000000E+00 0.  1.
     999901    1    3    3    0    0 -0.43358587851E-02  0.60185886141E-01  0.11537657471E+00  0.88958017882E+00  0.88000000000E+00 0.  1.
        -11    1    4    4    0    0  0.97316922634E-02 -0.81107053216E-02 -0.58149854865E-01  0.59516015634E-01  0.51100000000E-03 0.  1.
         11    1    4    4    0    0  0.10398598216E-03 -0.25164897358E-01 -0.62037438707E-01  0.66949143344E-01  0.51100000000E-03 0. -1.
</event>
<event>
 8    1  0.1146431E+005  0.1043930E+01  0.7957747E-01            NaN
         13   -1    0    0    0    0  0.00000000000E+00  0.00000000000E+00  0.74505805969E-08  0.10566000000E+00  0.10566000000E+00 0.  1.
     999900   -1    0    0    0    0 -0.00000000000E+00 -0.00000000000E+00 -0.74505805969E-08  0.93827000000E+00  0.93827000000E+00 0. -1.
     999902    2    1    2    0    0 -0.76243992286E-02 -0.16449873863E-01  0.15098877639E-01  0.10203353837E+01  0.10200625418E+01 0.  0.
     999903    2    3    3    0    0  0.78052338097E-01  0.77219405192E-01 -0.62155676615E-01  0.12787658725E+00  0.20834812470E-01 0.  0.
         14    1    1    2    0    0  0.76243992286E-02  0.16449873863E-01 -0.15098877639E-01  0.23594616328E-01  0.00000000000E+00 0. -1.
     999901    1    3    3    0    0 -0.85676737326E-01 -0.93669279056E-01  0.77254554253E-01  0.89245879642E+00  0.88000000000E+00 0.  1.
        -11    1    4    4    0    0  0.18095293879E-01  0.30781636014E-01 -0.23555141368E-01  0.42779137230E-01  0.51100000000E-03 0.  1.
         11    1    4    4    0    0  0.59957044219E-01  0.46437769179E-01 -0.38600535246E-01  0.85097450021E-01  0.51100000000E-03 0. -1.
</event>
<event>
 8    1  0.1146431E+005  0.1043930E+01  0.7957747E-01            NaN
         13   -1    0    0    0    0  0.00000000000E+00  0.00000000000E+00  0.74505805969E-08  0.10566000000E+00  0.10566000000E+00 0.  1.
     999900   -1    0    0    0    0 -0.00000000000E+00 -0.00000000000E+00 -0.74505805969E-08  0.93827000000E+00  0.93827000000E+00 0.  1.
     999902    2    1    2    0    0  0.13950989147E-02  0.13481640308E-01 -0.19618807092E-01  0.10200846961E+01  0.10198059564E+01 0.  0.
     999903    2    3    3    0    0 -0.28409555486E-01  0.12710542924E+00  0.60176359592E-02  0.13190908844E+00  0.20022554399E-01 0.  0.
         14    1    1    2    0    0 -0.13950989147E-02 -0.13481640308E-01  0.19618807092E-01  0.23845303900E-01  0.00000000000E+00 0.  1.
     999901    1    3    3    0    0  0.29804654401E-01 -0.11362378893E+00 -0.25636443052E-01  0.88817560766E+00  0.88000000000E+00 0.  1.
        -11    1    4    4    0    0 -0.18182099856E-01  0.85981873668E-01  0.13372325618E-01  0.88896296706E-01  0.51100000000E-03 0.  1.
         11    1    4    4    0    0 -0.10227455631E-01  0.41123555571E-01 -0.73546896587E-02  0.43012791730E-01  0.51100000000E-03 0. -1.
</event>
<event>
 7    1  0.1146431E+005  0.1043930E+01  0.7957747E-01            NaN
         13   -1    0    0    0    0  0.00000000000E+00  0.00000000000E+00  0.74505805969E-08  0.10566000000E+00  0.10566000000E+00 0. -1.
     999900   -1    0    0    0    0 -0.00000000000E+00 -0.00000000000E+00 -0.74505805969E-08  0.93827000000E+00  0.93827000000E+00 0. -1.
     999903    2    1    2    0    0 -0.53910730418E-01  0.16590271094E-01  0.42354909927E-01  0.73174623010E-01  0.19467488502E-01 0.  0.
         14    1    1    2    0    0  0.41151205809E-01  0.50605142886E-01  0.51527352091E-01  0.83122621708E-01  0.00000000000E+00 0. -1.
     999901    1    1    2    0    0  0.12759524608E-01 -0.67195413980E-01 -0.93882262018E-01  0.88763275528E+00  0.88000000000E+00 0. -1.
        -11    1    3    3    0    0 -0.27727261977E-02  0.69814446466E-02  0.39582468863E-02  0.85063164375E-02  0.51100000000E-03 0.  1.
         11    1    3    3    0    0 -0.51138004220E-01  0.96088264474E-02  0.38396663041E-01  0.64668306573E-01  0.51100000000E-03 0. -1.
</event>
<event>
 8    1  0.1146431E+005  0.1043930E+01  0.7957747E-01            NaN
         13   -1    0    0    0    0  0.00000000000E+00  0.00000000000E+00  0.74505805969E-08  0.10566000000E+00  0.10566000000E+00 0. -1.
     999900   -1    0    0    0    0 -0.00000000000E+00 -0.00000000000E+00 -0.74505805969E-08  0.93827000000E+00  0.93827000000E+00 0.  1.
     999902    2    1    2    0    0 -0.22965688207E-01 -0.37730462729E-02 -0.36356174784E-02  0.10203741848E+01  0.10201022501E+01 0.  0.
     999903    2    3    3    0    0  0.34757468926E-01 -0.91163558380E-01 -0.84099545198E-01  0.13051829307E+00  0.21057428613E-01 0.  0.
         14    1    1    2    0    0  0.22965688207E-01  0.37730462729E-02  0.36356174784E-02  0.23555815151E-01  0.00000000000E+00 0. -1.
     999901    1    3    3    0    0 -0.57723157133E-01  0.87390512107E-01  0.80463927719E-01  0.88985589178E+00  0.88000000000E+00 0. -1.
        -11    1    4    4    0    0  0.26517593632E-01 -0.84777187928E-01 -0.70681388655E-01  0.11351860723E+00  0.51100000000E-03 0.  1.
         11    1    4    4    0    0  0.82398752942E-02 -0.63863704524E-02 -0.13418156543E-01  0.16999685833E-01  0.51100000000E-03 0. -1.
</event>
<event>
 8    1  0.1146431E+005  0.1043930E+01  0.7957747E-01            NaN
         13   -1    0    0    0    0  0.00000000000E+00  0.00000000000E+00  0.74505805969E-08  0.10566000000E+00  0.10566000000E+00 0.  1.
     999900   -1    0    0    0    0 -0.00000000000E+00 -0.00000000000E+00 -0.74505805969E-08  0.93827000000E+00  0.93827000000E+00 0.  1.
     999902    2    1    2    0    0 -0.22227804206E-01  0.69391088833E-02 -0.17545260643E-02  0.10205782362E+01  0.10203110463E+01 0.  0.
     999903    2    3    3    0    0  0.91504869547E-01 -0.19851166195E-01  0.85834952334E-01  0.12854418041E+00  0.19716929927E-01 0.  0.
         14    1    1    2    0    0  0.22227804206E-01 -0.69391088833E-02  0.17545260643E-02  0.23351763822E-01  0.00000000000E+00 0. -1.
     999901    1    3    3    0    0 -0.11373267375E+00  0.26790275079E-01 -0.87589478399E-01  0.89203405576E+00  0.88000000000E+00 0.  1.
        -11    1    4    4    0    0  0.53977351270E-01 -0.14319109203E-01  0.63321741932E-01  0.84430417864E-01  0.51100000000E-03 0. -1.
         11    1    4    4    0    0  0.37527518276E-01 -0.55320569924E-02  0.22513210403E-01  0.44113762549E-01  0.51100000000E-03 0.  1.
</event>
<event>
 8    1  0.1146431E+005  0.1043930E+01  0.7957747E-01            NaN
         13   -1    0    0    0    0  0.00000000000E+00  0.00000000000E+00  0.74505805969E-08  0.10566000000E+00  0.10566000000E+00 0.  1.
     999900   -1    0    0    0    0 -0.00000000000E+00 -0.00000000000E+00 -0.74505805969E-08  0.93827000000E+00  0.93827000000E+00 0.  1.
     999902    2    1    2    0    0 -0.10511635250E-01 -0.16484916751E-01 -0.14812048205E-01  0.10194015731E+01  0.10191064338E+01 0.  0.
     999903    2    3    3    0    0  0.11778289138E+00  0.81130603271E-02 -0.48775109565E-01  0.12911058941E+00  0.18759044058E-01 0.  0.
         14    1    1    2    0    0  0.10511635250E-01  0.16484916751E-01  0.14812048205E-01  0.24528426935E-01  0.00000000000E+00 0.  1.
     999901    1    3    3    0    0 -0.12829452663E+00 -0.24597977078E-01  0.33963061360E-01  0.89029098366E+00  0.88000000000E+00 0.  1.
        -11    1    4    4    0    0  0.78923637423E-01 -0.34176707319E-02 -0.31590701036E-01  0.85081458205E-01  0.51100000000E-03 0.  1.
         11    1    4    4    0    0  0.38859253961E-01  0.11530731059E-01 -0.17184408529E-01  0.44029131205E-01  0.51100000000E-03 0. -1.
</event>
<event>
 8    1  0.1146431E+005  0.1043930E+01  0.7957747E-01            NaN
         13   -1    0    0    0    0  0.00000000000E+00  0.00000000000E+00  0.74505805969E-08  0.10566000000E+00  0.10566000000E+00 0.  1.
     999900   -1    0    0    0    0 -0.00000000000E+00 -0.00000000000E+00 -0.74505805969E-08  0.93827000000E+00  0.93827000000E+00 0.  1.
     999902    2    1    2    0    0 -0.25744738530E-01 -0.37987046852E-02  0.16374209911E-01  0.10131836755E+01  0.10127170502E+01 0.  0.
     999903    2    3    3    0    0  0.85670265394E-01  0.82763113416E-01 -0.12637723249E-01  0.12147299165E+00  0.20170481799E-01 0.  0.
         14    1    1    2    0    0  0.25744738530E-01  0.37987046852E-02 -0.16374209911E-01  0.30746324487E-01  0.00000000000E+00 0. -1.
     999901    1    3    3    0    0 -0.11141500392E+00 -0.86561818101E-01  0.29011933160E-01  0.89171068386E+00  0.88000000000E+00 0. -1.
        -11    1    4    4    0    0  0.40048182875E-01  0.48378486562E-01 -0.13909996391E-01  0.64327941318E-01  0.51100000000E-03 0.  1.
         11    1    4    4    0    0  0.45622082519E-01  0.34384626854E-01  0.12722731420E-02  0.57145050330E-01  0.51100000000E-03 0. -1.
</event>
<event>
 8    1  0.1146431E+005  0.1043930E+01  0.7957747E-01            NaN
         13   -1    0    0    0    0  0.00000000000E+00  0.00000000000E+00  0.74505805969E-08  0.10566000000E+00  0.10566000000E+00 0. -1.
     999900   -1    0    0    0    0 -0.00000000000E+00 -0.00000000000E+00 -0.74505805969E-08  0.93827000000E+00  0.93827000000E+00 0. -1.
     999902    2    1    2    0    0 -0.20982922122E-02 -0.14482741309E-01 -0.19378887045E-01  0.10196463864E+01  0.10193571795E+01 0.  0.
     999903    2    3    3    0    0 -0.11768572373E+00  0.13096274034E-01  0.47535066428E-01  0.12914173533E+00  0.19913897218E-01 0.  0.
         14    1    1    2    0    0  0.20982922122E-02  0.14482741309E-01  0.19378887045E-01  0.24283613593E-01  0.00000000000E+00 0. -1.
     999901    1    3    3    0    0  0.11558743151E+00 -0.27579015343E-01 -0.66913953473E-01  0.89050465107E+00  0.88000000000E+00 0. -1.
        -11    1    4    4    0    0 -0.35467563097E-01  0.61814722014E-02  0.24244464250E-01  0.43407531586E-01  0.51100000000E-03 0.  1.
         11    1    4    4    0    0 -0.82218160629E-01  0.69148018327E-02  0.23290602178E-01  0.85734203749E-01  0.51100000000E-03 0. -1.
</event>
<event>
 8    1  0.1146431E+005  0.1043930E+01  0.7957747E-01            NaN
         13   -1    0    0    0    0  0.00000000000E+00  0.00000000000E+00  0.74505805969E-08  0.10566000000E+00  0.10566000000E+00 0.  1.
     999900   -1    0    0    0    0 -0.00000000000E+00 -0.00000000000E+00 -0.74505805969E-08  0.93827000000E+00  0.93827000000E+00 0.  1.
     999902    2    1    2    0    0 -0.14279541731E-01  0.61349608395E-02 -0.15619642906E-01  0.10218955656E+01  0.10216579812E+01 0.  0.
     999903    2    3    3    0    0  0.83103116749E-01 -0.45893948606E-01  0.85414056833E-01  0.12926003071E+00  0.20005296870E-01 0.  0.
         14    1    1    2    0    0  0.14279541731E-01 -0.61349608395E-02  0.15619642906E-01  0.22034434440E-01  0.00000000000E+00 0.  1.
     999901    1    3    3    0    0 -0.97382658481E-01  0.52028909446E-01 -0.10103369974E+00  0.89263553485E+00  0.88000000000E+00 0.  1.
        -11    1    4    4    0    0  0.56424053644E-01 -0.30170312518E-01  0.44471699813E-01  0.77922492211E-01  0.51100000000E-03 0.  1.
         11    1    4    4    0    0  0.26679063105E-01 -0.15723636088E-01  0.40942357020E-01  0.51337538501E-01  0.51100000000E-03 0. -1.
</event>
<event>
 8    1  0.1146431E+005  0.1043930E+01  0.7957747E-01            NaN
         13   -1    0    0    0    0  0.00000000000E+00  0.00000000000E+00  0.74505805969E-08  0.10566000000E+00  0.10566000000E+00 0.  1.
     999900   -1    0    0    0    0 -0.00000000000E+00 -0.00000000000E+00 -0.74505805969E-08  0.93827000000E+00  0.93827000000E+00 0.  1.
     999902    2    1    2    0    0 -0.10901140714E-01 -0.49230926678E-02 -0.20734158843E-01  0.10199930609E+01  0.10197121492E+01 0.  0.
     999903    2    3    3    0    0 -0.85428066449E-01 -0.97404231536E-01 -0.15864864182E-01  0.13200053068E+00  0.19669959991E-01 0.  0.
         14    1    1    2    0    0  0.10901140714E-01  0.49230926678E-02  0.20734158843E-01  0.23936939094E-01  0.00000000000E+00 0.  1.
     999901    1    3    3    0    0  0.74526925735E-01  0.92481138868E-01 -0.48692946604E-02  0.88799253023E+00  0.88000000000E+00 0. -1.
        -11    1    4    4    0    0 -0.33083893672E-01 -0.47728743416E-01 -0.14334493915E-01  0.59819025446E-01  0.51100000000E-03 0.  1.
         11    1    4    4    0    0 -0.52344172777E-01 -0.49675488120E-01 -0.15303702672E-02  0.72181505234E-01  0.51100000000E-03 0. -1.
</event>
<event>
 8    1  0.1146431E+005  0.1043930E+01  0.7957747E-01            NaN
         13   -1    0    0    0    0  0.00000000000E+00  0.00000000000E+00  0.74505805969E-08  0.10566000000E+00  0.10566000000E+00 0. -1.
     999900   -1    0    0    0    0 -0.00000000000E+00 -0.00000000000E+00 -0.74505805969E-08  0.93827000000E+00  0.93827000000E+00 0.  1.
     999902    2    1    2    0    0 -0.23578454602E-03  0.23035093860E-01 -0.65247306621E-02  0.10199875011E+01  0.10197064573E+01 0.  0.
     999903    2    3    3    0    0  0.82785737718E-01  0.30290425635E-01 -0.95547828383E-01  0.13157862849E+00  0.20311565974E-01 0.  0.
         14    1    1    2    0    0  0.23578454602E-03 -0.23035093860E-01  0.65247306621E-02  0.23942498902E-01  0.00000000000E+00 0. -1.
     999901    1    3    3    0    0 -0.83021522264E-01 -0.72553317752E-02  0.89023097721E-01  0.88840887261E+00  0.88000000000E+00 0. -1.
        -11    1    4    4    0    0  0.40484907759E-01  0.51464451185E-02 -0.36930322082E-01  0.55042015441E-01  0.51100000000E-03 0. -1.
         11    1    4    4    0    0  0.42300829959E-01  0.25143980516E-01 -0.58617506300E-01  0.76536613051E-01  0.51100000000E-03 0.  1.
</event>
<event>
 8    1  0.1146431E+005  0.1043930E+01  0.7957747E-01            NaN
         13   -1    0    0    0    0  0.00000000000E+00  0.00000000000E+00  0.74505805969E-08  0.10566000000E+00  0.10566000000E+00 0.  1.
     999900   -1    0    0    0    0 -0.00000000000E+00 -0.00000000000E+00 -0.74505805969E-08  0.93827000000E+00  0.93827000000E+00 0. -1.
     999902    2    1    2    0    0  0.92613459682E-02  0.20164312242E-01 -0.77083747931E-03  0.10217271577E+01  0.10214858876E+01 0.  0.
     999903    2    3    3    0    0  0.57956437904E-01  0.11014713185E+00 -0.47182713602E-01  0.13458445097E+00  0.19885337060E-01 0.  0.
         14    1    1    2    0    0 -0.92613459682E-02 -0.20164312242E-01  0.77083747931E-03  0.22202842335E-01  0.00000000000E+00 0. -1.
     999901    1    3    3    0    0 -0.48695091936E-01 -0.89982819608E-01  0.46411876123E-01  0.88714270670E+00  0.88000000000E+00 0.  1.
        -11    1    4    4    0    0  0.13353982047E-01  0.13787546620E-01 -0.12368112881E-01  0.22839803317E-01  0.51100000000E-03 0. -1.
         11    1    4    4    0    0  0.44602455857E-01  0.96359585229E-01 -0.34814600721E-01  0.11174464765E+00  0.51100000000E-03 0.  1.
</event>
<event>
 8    1  0.1146431E+005  0.1043930E+01  0.7957747E-01            NaN
         13   -1    0    0    0    0  0.00000000000E+00  0.00000000000E+00  0.74505805969E-08  0.10566000000E+00  0.10566000000E+00 0. -1.
     999900   -1    0    0    0    0 -0.00000000000E+00 -0.00000000000E+00 -0.74505805969E-08  0.93827000000E+00  0.93827000000E+00 0. -1.
     999902    2    1    2    0    0 -0.10360472411E-01  0.50566711115E-02  0.21083094022E-01  0.10199007228E+01  0.10196176137E+01 0.  0.
     999903    2    3    3    0    0  0.21538708085E-01 -0.82566078020E-01 -0.92831794297E-01  0.12767210538E+00  0.20033753382E-01 0.  0.
         14    1    1    2    0    0  0.10360472411E-01 -0.50566711115E-02 -0.21083094022E-01  0.24029277244E-01  0.00000000000E+00 0.  1.
     999901    1    3    3    0    0 -0.31899180496E-01  0.87622749132E-01  0.11391488832E+00  0.89222861737E+00  0.88000000000E+00 0.  1.
        -11    1    4    4    0    0  0.81902507258E-02 -0.27568198860E-01 -0.45804441412E-01  0.54086909409E-01  0.51100000000E-03 0.  1.
         11    1    4    4    0    0  0.13348457359E-01 -0.54997879160E-01 -0.47027352884E-01  0.73585195972E-01  0.51100000000E-03 0. -1.
</event>
<event>
 8    1  0.1146431E+005  0.1043930E+01  0.7957747E-01            NaN
         13   -1    0    0    0    0  0.00000000000E+00  0.00000000000E+00  0.74505805969E-08  0.10566000000E+00  0.10566000000E+00 0. -1.
     999900   -1    0    0    0    0 -0.00000000000E+00 -0.00000000000E+00 -0.74505805969E-08  0.93827000000E+00  0.93827000000E+00 0. -1.
     999902    2    1    2    0    0  0.60932502830E-02 -0.23481739375E-01 -0.70986552277E-02  0.10186533173E+01  0.10183396634E+01 0.  0.
     999903    2    3    3    0    0 -0.44850256393E-01 -0.12209598979E+00 -0.52094242937E-02  0.13167892056E+00  0.19829871284E-01 0.  0.
         14    1    1    2    0    0 -0.60932502830E-02  0.23481739375E-01  0.70986552277E-02  0.25276682716E-01  0.00000000000E+00 0. -1.
     999901    1    3    3    0    0  0.50943506676E-01  0.98614250418E-01 -0.18892309340E-02  0.88697439673E+00  0.88000000000E+00 0. -1.
        -11    1    4    4    0    0 -0.32847253225E-01 -0.62150274518E-01 -0.58121196770E-02  0.70538220301E-01  0.51100000000E-03 0.  1.
         11    1    4    4    0    0 -0.12003003168E-01 -0.59945715276E-01  0.60269538331E-03  0.61140700255E-01  0.51100000000E-03 0. -1.
</event>
<event>
 8    1  0.1146431E+005  0.1043930E+01  0.7957747E-01            NaN
         13   -1    0    0    0    0  0.00000000000E+00  0.00000000000E+00  0.74505805969E-08  0.10566000000E+00  0.10566000000E+00 0. -1.
     999900   -1    0    0    0    0 -0.00000000000E+00 -0.00000000000E+00 -0.74505805969E-08  0.93827000000E+00  0.93827000000E+00 0.  1.
     999902    2    1    2    0    0 -0.15552876619E-01  0.15778172983E-01 -0.80442936465E-02  0.10203598202E+01  0.10200875499E+01 0.  0.
     999903    2    3    3    0    0  0.11697238135E+00 -0.40910291311E-01 -0.27710727104E-01  0.12841627124E+00  0.19148482722E-01 0.  0.
         14    1    1    2    0    0  0.15552876619E-01 -0.15778172983E-01  0.80442936465E-02  0.23570179764E-01  0.00000000000E+00 0. -1.
     999901    1    3    3    0    0 -0.13252525797E+00  0.56688464294E-01  0.19666433458E-01  0.89194354899E+00  0.88000000000E+00 0.  1.
        -11    1    4    4    0    0  0.29142477260E-01 -0.17092210598E-02 -0.57270042753E-02  0.29753405124E-01  0.51100000000E-03 0.  1.
         11    1    4    4    0    0  0.87829904087E-01 -0.39201070251E-01 -0.21983722829E-01  0.98662866121E-01  0.51100000000E-03 0. -1.
</event>
<event>
 8    1  0.1146431E+005  0.1043930E+01  0.7957747E-01            NaN
         13   -1    0    0    0    0  0.00000000000E+00  0.00000000000E+00  0.74505805969E-08  0.10566000000E+00  0.10566000000E+00 0.  1.
     999900   -1    0    0    0    0 -0.00000000000E+00 -0.00000000000E+00 -0.74505805969E-08  0.93827000000E+00  0.93827000000E+00 0.  1.
     999902    2    1    2    0    0  0.16052573675E-01 -0.76931172965E-02 -0.18708528249E-01  0.10181060149E+01  0.10177784530E+01 0.  0.
     999903    2    3    3    0    0 -0.38504634482E-01  0.64065308483E-01 -0.10379774323E+00  0.12941825473E+00  0.19701333212E-01 0.  0.
         14    1    1    2    0    0 -0.16052573675E-01  0.76931172965E-02  0.18708528249E-01  0.25823985064E-01  0.00000000000E+00 0.  1.
     999901    1    3    3    0    0  0.54557208157E-01 -0.71758425779E-01  0.85089214982E-01  0.88868776021E+00  0.88000000000E+00 0. -1.
        -11    1    4    4    0    0 -0.62034081818E-02  0.80087832874E-02 -0.27899211915E-01  0.29685855711E-01  0.51100000000E-03 0. -1.
         11    1    4    4    0    0 -0.32301226300E-01  0.56056525195E-01 -0.75898531315E-01  0.99732399020E-01  0.51100000000E-03 0.  1.
</event>
<event>
 8    1  0.1146431E+005  0.1043930E+01  0.7957747E-01            NaN
         13   -1    0    0    0    0  0.00000000000E+00  0.00000000000E+00  0.74505805969E-08  0.10566000000E+00  0.10566000000E+00 0. -1.
     999900   -1    0    0    0    0 -0.00000000000E+00 -0.00000000000E+00 -0.74505805969E-08  0.93827000000E+00  0.93827000000E+00 0. -1.
     999902    2    1    2    0    0 -0.23588511323E-01  0.13360705711E-02 -0.53118075365E-02  0.10197139258E+01  0.10194263447E+01 0.  0.
     999903    2    3    3    0    0 -0.37659348858E-01 -0.11066381318E+00 -0.54656942263E-01  0.13113252560E+00  0.23316342570E-01 0.  0.
         14    1    1    2    0    0  0.23588511323E-01 -0.13360705711E-02  0.53118075365E-02  0.24216074213E-01  0.00000000000E+00 0.  1.
     999901    1    3    3    0    0  0.14070837536E-01  0.11199988375E+00  0.49345134727E-01  0.88858140018E+00  0.88000000000E+00 0.  1.
        -11    1    4    4    0    0 -0.29654355532E-02 -0.29463439605E-01 -0.22355848144E-01  0.37107049851E-01  0.51100000000E-03 0. -1.
         11    1    4    4    0    0 -0.34693913305E-01 -0.81200373571E-01 -0.32301094119E-01  0.94025475754E-01  0.51100000000E-03 0.  1.
</event>
<event>
 8    1  0.1146431E+005  0.1043930E+01  0.7957747E-01            NaN
         13   -1    0    0    0    0  0.00000000000E+00  0.00000000000E+00  0.74505805969E-08  0.10566000000E+00  0.10566000000E+00 0. -1.
     999900   -1    0    0    0    0 -0.00000000000E+00 -0.00000000000E+00 -0.74505805969E-08  0.93827000000E+00  0.93827000000E+00 0. -1.
     999902    2    1    2    0    0  0.13960403520E-01  0.72296683378E-02  0.15930397040E-01  0.10215483441E+01  0.10213031288E+01 0.  0.
     999903    2    3    3    0    0  0.12059062974E+00 -0.35516889549E-01  0.40823073924E-01  0.13373253060E+00  0.20354777099E-01 0.  0.
         14    1    1    2    0    0 -0.13960403520E-01 -0.72296683378E-02 -0.15930397040E-01  0.22381655894E-01  0.00000000000E+00 0.  1.
     999901    1    3    3    0    0 -0.10663022622E+00  0.42746557887E-01 -0.24892676885E-01  0.88781581351E+00  0.88000000000E+00 0. -1.
        -11    1    4    4    0    0  0.10038393275E+00 -0.25738661347E-01  0.40531464046E-01  0.11127656241E+00  0.51100000000E-03 0. -1.
         11    1    4    4    0    0  0.20206696987E-01 -0.97782282020E-02  0.29160987795E-03  0.22455968187E-01  0.51100000000E-03 0.  1.
</event>
<event>
 8    1  0.1146431E+005  0.1043930E+01  0.7957747E-01            NaN
         13   -1    0    0    0    0  0.00000000000E+00  0.00000000000E+00  0.74505805969E-08  0.10566000000E+00  0.10566000000E+00 0.  1.
     999900   -1    0    0    0    0 -0.00000000000E+00 -0.00000000000E+00 -0.74505805969E-08  0.93827000000E+00  0.93827000000E+00 0. -1.
     999902    2    1    2    0    0 -0.20896183646E-01 -0.11555412008E-01 -0.72356239563E-03  0.10200406388E+01  0.10197608559E+01 0.  0.
     999903    2    3    3    0    0  0.91031796860E-01 -0.21950711402E-01  0.85995883603E-01  0.12866182065E+00  0.19747159950E-01 0.  0.
         14    1    1    2    0    0  0.20896183646E-01  0.11555412008E-01  0.72356239563E-03  0.23889361234E-01  0.00000000000E+00 0. -1.
     999901    1    3    3    0    0 -0.11192798051E+00  0.10395299394E-01 -0.86719445998E-01  0.89137881811E+00  0.88000000000E+00 0. -1.
        -11    1    4    4    0    0  0.16537715663E-01 -0.11003481485E-01  0.23767420801E-01  0.30979413433E-01  0.51100000000E-03 0. -1.
         11    1    4    4    0    0  0.74494081197E-01 -0.10947229917E-01  0.62228462802E-01  0.97682407218E-01  0.51100000000E-03 0.  1.
</event>
<event>
 8    1  0.1146431E+005  0.1043930E+01  0.7957747E-01            NaN
         13   -1    0    0    0    0  0.00000000000E+00  0.00000000000E+00  0.74505805969E-08  0.10566000000E+00  0.10566000000E+00 0. -1.
     999900   -1    0    0    0    0 -0.00000000000E+00 -0.00000000000E+00 -0.74505805969E-08  0.93827000000E+00  0.93827000000E+00 0.  1.
     999902    2    1    2    0    0 -0.74496140933E-02  0.18031683920E-01 -0.13880908601E-01  0.10199859402E+01  0.10197048594E+01 0.  0.
     999903    2    3    3    0    0 -0.79407422866E-01  0.95245091565E-01 -0.44267434498E-01  0.13315834845E+00  0.19858845194E-01 0.  0.
         14    1    1    2    0    0  0.74496140933E-02 -0.18031683920E-01  0.13880908601E-01  0.23944059780E-01  0.00000000000E+00 0. -1.
     999901    1    3    3    0    0  0.71957808772E-01 -0.77213407645E-01  0.30386525897E-01  0.88682759177E+00  0.88000000000E+00 0. -1.
        -11    1    4    4    0    0 -0.52410321727E-01  0.73480078414E-01 -0.37924237920E-01  0.97901341615E-01  0.51100000000E-03 0. -1.
         11    1    4    4    0    0 -0.26997101139E-01  0.21765013151E-01 -0.63431965776E-02  0.35257006838E-01  0.51100000000E-03 0.  1.
</event>
<event>
 8    1  0.1146431E+005  0.1043930E+01  0.7957747E-01            NaN
         13   -1    0    0    0    0  0.00000000000E+00  0.00000000000E+00  0.74505805969E-08  0.10566000000E+00  0.10566000000E+00 0.  1.
     999900   -1    0    0    0    0 -0.00000000000E+00 -0.00000000000E+00 -0.74505805969E-08  0.93827000000E+00  0.93827000000E+00 0.  1.
     999902    2    1    2    0    0 -0.14913672861E-01 -0.15994839417E-01  0.73484173017E-02  0.10208594178E+01  0.10205986964E+01 0.  0.
     999903    2    3    3    0    0 -0.46910324780E-01  0.74700142069E-01  0.95147362258E-01  0.13127635808E+00  0.19994295458E-01 0.  0.
         14    1    1    2    0    0  0.14913672861E-01  0.15994839417E-01 -0.73484173017E-02  0.23070582200E-01  0.00000000000E+00 0. -1.
     999901    1    3    3    0    0  0.31996651919E-01 -0.90694981486E-01 -0.87798944956E-01  0.88958305972E+00  0.88000000000E+00 0.  1.
        -11    1    4    4    0    0 -0.20993549142E-01  0.49123102584E-01  0.49006778249E-01  0.72496439557E-01  0.51100000000E-03 0.  1.
         11    1    4    4    0    0 -0.25916775639E-01  0.25577039485E-01  0.46140584008E-01  0.58779918526E-01  0.51100000000E-03 0. -1.
</event>
<event>
 8    1  0.1146431E+005  0.1043930E+01  0.7957747E-01            NaN
         13   -1    0    0    0    0  0.00000000000E+00  0.00000000000E+00  0.74505805969E-08  0.10566000000E+00  0.10566000000E+00 0.  1.
     999900   -1    0    0    0    0 -0.00000000000E+00 -0.00000000000E+00 -0.74505805969E-08  0.93827000000E+00  0.93827000000E+00 0.  1.
     999902    2    1    2    0    0 -0.79336446806E-02  0.40127297454E-02  0.22019835491E-01  0.10201830450E+01  0.10199066268E+01 0.  0.
     999903    2    3    3    0    0  0.46931066891E-01  0.15280767790E-01 -0.11605375197E+00  0.12765773956E+00  0.19798944909E-01 0.  0.
         14    1    1    2    0    0  0.79336446806E-02 -0.40127297454E-02 -0.22019835491E-01  0.23746955025E-01  0.00000000000E+00 0. -1.
     999901    1    3    3    0    0 -0.54864711572E-01 -0.11268038045E-01  0.13807358746E+00  0.89252530542E+00  0.88000000000E+00 0. -1.
        -11    1    4    4    0    0  0.23505275882E-01  0.10725581862E-01 -0.37382987800E-01  0.45445406791E-01  0.51100000000E-03 0. -1.
         11    1    4    4    0    0  0.23425791009E-01  0.45551859280E-02 -0.78670764167E-01  0.82212332766E-01  0.51100000000E-03 0.  1.
</event>
<event>
 8    1  0.1146431E+005  0.1043930E+01  0.7957747E-01            NaN
         13   -1    0    0    0    0  0.00000000000E+00  0.00000000000E+00  0.74505805969E-08  0.10566000000E+00  0.10566000000E+00 0. -1.
     999900   -1    0    0    0    0 -0.00000000000E+00 -0.00000000000E+00 -0.74505805969E-08  0.93827000000E+00  0.93827000000E+00 0. -1.
     999902    2    1    2    0    0  0.19929202041E-01 -0.13051555703E-01 -0.66079292051E-02  0.10192079263E+01  0.10189080508E+01 0.  0.
     999903    2    3    3    0    0  0.10567690749E+00  0.73189732063E-01  0.71845737299E-02  0.13073707035E+00  0.22720427108E-01 0.  0.
         14    1    1    2    0    0 -0.19929202041E-01  0.13051555703E-01  0.66079292051E-02  0.24722073712E-01  0.00000000000E+00 0.  1.
     999901    1    3    3    0    0 -0.85747705454E-01 -0.86241287766E-01 -0.13792502935E-01  0.88847085593E+00  0.88000000000E+00 0. -1.
        -11    1    4    4    0    0  0.65184993658E-01  0.31716442093E-01  0.62892873993E-02  0.72765598700E-01  0.51100000000E-03 0. -1.
         11    1    4    4    0    0  0.40491913837E-01  0.41473289970E-01  0.89528633063E-03  0.57971471654E-01  0.51100000000E-03 0.  1.
</event>
<event>
 8    1  0.1146431E+005  0.1043930E+01  0.7957747E-01            NaN
         13   -1    0    0    0    0  0.00000000000E+00  0.00000000000E+00  0.74505805969E-08  0.10566000000E+00  0.10566000000E+00 0.  1.
     999900   -1    0    0    0    0 -0.00000000000E+00 -0.00000000000E+00 -0.74505805969E-08  0.93827000000E+00  0.93827000000E+00 0.  1.
     999902    2    1    2    0    0 -0.21480529481E-01 -0.61003495294E-02 -0.11121542985E-01  0.10189837352E+01  0.10186783282E+01 0.  0.
     999903    2    3    3    0    0 -0.95212424039E-02  0.12465263427E+00 -0.25921000753E-01  0.12911948075E+00  0.19261587224E-01 0.  0.
         14    1    1    2    0    0  0.21480529481E-01  0.61003495294E-02  0.11121542985E-01  0.24946264841E-01  0.00000000000E+00 0.  1.
     999901    1    3    3    0    0 -0.11959287077E-01 -0.13075298380E+00  0.14799457768E-01  0.88986425441E+00  0.88000000000E+00 0. -1.
        -11    1    4    4    0    0 -0.13236928358E-02  0.29123345578E-01 -0.14486703797E-01  0.32558364952E-01  0.51100000000E-03 0.  1.
         11    1    4    4    0    0 -0.81975495681E-02  0.95529288692E-01 -0.11434296956E-01  0.96561115801E-01  0.51100000000E-03 0. -1.
</event>
<event>
 8    1  0.1146431E+005  0.1043930E+01  0.7957747E-01            NaN
         13   -1    0    0    0    0  0.00000000000E+00  0.00000000000E+00  0.74505805969E-08  0.10566000000E+00  0.10566000000E+00 0. -1.
     999900   -1    0    0    0    0 -0.00000000000E+00 -0.00000000000E+00 -0.74505805969E-08  0.93827000000E+00  0.93827000000E+00 0. -1.
     999902    2    1    2    0    0 -0.21128498908E-01  0.83751080187E-02 -0.46422754412E-02  0.10207328747E+01  0.10204692523E+01 0.  0.
     999903    2    3    3    0    0 -0.76083737285E-01 -0.87861426773E-01 -0.59310487278E-01  0.13209900059E+00  0.20592393287E-01 0.  0.
         14    1    1    2    0    0  0.21128498908E-01 -0.83751080187E-02  0.46422754412E-02  0.23197125290E-01  0.00000000000E+00 0.  1.
     999901    1    3    3    0    0  0.54955238377E-01  0.96236534791E-01  0.54668211837E-01  0.88863387412E+00  0.88000000000E+00 0. -1.
        -11    1    4    4    0    0 -0.72168865634E-01 -0.74137667353E-01 -0.55039476203E-01  0.11719361736E+00  0.51100000000E-03 0.  1.
         11    1    4    4    0    0 -0.39148716508E-02 -0.13723759420E-01 -0.42710110754E-02  0.14905383231E-01  0.51100000000E-03 0. -1.
</event>
<event>
 8    1  0.1146431E+005  0.1043930E+01  0.7957747E-01            NaN
         13   -1    0    0    0    0  0.00000000000E+00  0.00000000000E+00  0.74505805969E-08  0.10566000000E+00  0.10566000000E+00 0.  1.
     999900   -1    0    0    0    0 -0.00000000000E+00 -0.00000000000E+00 -0.74505805969E-08  0.93827000000E+00  0.93827000000E+00 0. -1.
     999902    2    1    2    0    0 -0.27996102602E-03  0.10949368772E-01  0.21517358585E-01  0.10197853572E+01  0.10194994904E+01 0.  0.
     999903    2    3    3    0    0  0.26177399605E-01  0.33960108191E-01 -0.11891349698E+00  0.12796120905E+00  0.19877274923E-01 0.  0.
         14    1    1    2    0    0  0.27996102602E-03 -0.10949368772E-01 -0.21517358585E-01  0.24144642784E-01  0.00000000000E+00 0. -1.
     999901    1    3    3    0    0 -0.26457360632E-01 -0.23010739419E-01  0.14043085557E+00  0.89182414817E+00  0.88000000000E+00 0.  1.
        -11    1    4    4    0    0  0.95368642780E-02  0.26826908949E-01 -0.82807195246E-01  0.87566703316E-01  0.51100000000E-03 0.  1.
         11    1    4    4    0    0  0.16640535327E-01  0.71331992414E-02 -0.36106301735E-01  0.40394505733E-01  0.51100000000E-03 0. -1.
</event>
<event>
 7    1  0.1146431E+005  0.1043930E+01  0.7957747E-01            NaN
         13   -1    0    0    0    0  0.00000000000E+00  0.00000000000E+00  0.74505805969E-08  0.10566000000E+00  0.10566000000E+00 0.  1.
     999900   -1    0    0    0    0 -0.00000000000E+00 -0.00000000000E+00 -0.74505805969E-08  0.93827000000E+00  0.93827000000E+00 0. -1.
     999903    2    1    2    0    0  0.45081225478E-02 -0.42770125333E-01  0.10480619211E+00  0.11505591030E+00  0.20097706374E-01 0.  0.
         14    1    1    2    0    0  0.36712549160E-02 -0.32977651579E-01 -0.25846430795E-01  0.42059976239E-01  0.00000000000E+00 0. -1.
     999901    1    1    2    0    0 -0.81793774638E-02  0.75747776912E-01 -0.78959761313E-01  0.88681411346E+00  0.88000000000E+00 0. -1.
        -11    1    3    3    0    0  0.41401857129E-02 -0.23127043105E-01  0.80156823236E-01  0.83530705089E-01  0.51100000000E-03 0.  1.
         11    1    3    3    0    0  0.36793683490E-03 -0.19643082228E-01  0.24649368872E-01  0.31525205213E-01  0.51100000000E-03 0. -1.
</event>
<event>
 8    1  0.1146431E+005  0.1043930E+01  0.7957747E-01            NaN
         13   -1    0    0    0    0  0.00000000000E+00  0.00000000000E+00  0.74505805969E-08  0.10566000000E+00  0.10566000000E+00 0.  1.
     999900   -1    0    0    0    0 -0.00000000000E+00 -0.00000000000E+00 -0.74505805969E-08  0.93827000000E+00  0.93827000000E+00 0.  1.
     999902    2    1    2    0    0  0.22589487150E-01 -0.33129768205E-02  0.29041368230E-02  0.10209149016E+01  0.10206554470E+01 0.  0.
     999903    2    3    3    0    0  0.13099744251E+00 -0.91741592465E-02  0.19012962684E-01  0.13409691995E+00  0.19390617547E-01 0.  0.
         14    1    1    2    0    0 -0.22589487150E-01  0.33129768205E-02 -0.29041368230E-02  0.23015098431E-01  0.00000000000E+00 0.  1.
     999901    1    3    3    0    0 -0.10840795536E+00  0.58611824259E-02 -0.16108825861E-01  0.88681798161E+00  0.88000000000E+00 0. -1.
        -11    1    4    4    0    0  0.98824953916E-02 -0.59221845647E-02  0.26968336157E-02  0.11843564402E-01  0.51100000000E-03 0.  1.
         11    1    4    4    0    0  0.12111494712E+00 -0.32519746817E-02  0.16316129068E-01  0.12225335555E+00  0.51100000000E-03 0. -1.
</event>
<event>
 8    1  0.1146431E+005  0.1043930E+01  0.7957747E-01            NaN
         13   -1    0    0    0    0  0.00000000000E+00  0.00000000000E+00  0.74505805969E-08  0.10566000000E+00  0.10566000000E+00 0. -1.
     999900   -1    0    0    0    0 -0.00000000000E+00 -0.00000000000E+00 -0.74505805969E-08  0.93827000000E+00  0.93827000000E+00 0. -1.
     999902    2    1    2    0    0 -0.17454259538E-01 -0.81874167669E-02 -0.14221109822E-01  0.10199732695E+01  0.10196918876E+01 0.  0.
     999903    2    3    3    0    0 -0.23749692616E-01  0.46744172474E-01  0.11585096391E+00  0.12869561565E+00  0.19800254767E-01 0.  0.
         14    1    1    2    0    0  0.17454259538E-01  0.81874167669E-02  0.14221109822E-01  0.23956730451E-01  0.00000000000E+00 0.  1.
     999901    1    3    3    0    0  0.62954330772E-02 -0.54931589241E-01 -0.13007207373E+00  0.89127765390E+00  0.88000000000E+00 0. -1.
        -11    1    4    4    0    0 -0.34903107030E-02  0.23618927383E-01  0.65271893530E-01  0.69503361109E-01  0.51100000000E-03 0. -1.
         11    1    4    4    0    0 -0.20259381913E-01  0.23125245092E-01  0.50579070381E-01  0.59192254541E-01  0.51100000000E-03 0.  1.
</event>
<event>
 8    1  0.1146431E+005  0.1043930E+01  0.7957747E-01            NaN
         13   -1    0    0    0    0  0.00000000000E+00  0.00000000000E+00  0.74505805969E-08  0.10566000000E+00  0.10566000000E+00 0. -1.
     999900   -1    0    0    0    0 -0.00000000000E+00 -0.00000000000E+00 -0.74505805969E-08  0.93827000000E+00  0.93827000000E+00 0.  1.
     999902    2    1    2    0    0  0.15237237339E-01 -0.15218157747E-02  0.96237167331E-02  0.10258439488E+01  0.10256845041E+01 0.  0.
     999903    2    3    3    0    0 -0.70510087449E-01  0.98336563314E-01 -0.54838404403E-01  0.13372306872E+00  0.15259632803E-01 0.  0.
         14    1    1    2    0    0 -0.15237237339E-01  0.15218157747E-02 -0.96237167331E-02  0.18086051220E-01  0.00000000000E+00 0.  1.
     999901    1    3    3    0    0  0.85747324787E-01 -0.99858379089E-01  0.64462121136E-01  0.89212088006E+00  0.88000000000E+00 0. -1.
        -11    1    4    4    0    0 -0.16478501962E-01  0.18236404697E-01 -0.17322606139E-01  0.30073930366E-01  0.51100000000E-03 0.  1.
         11    1    4    4    0    0 -0.54031585487E-01  0.80100158617E-01 -0.37515798264E-01  0.10364913835E+00  0.51100000000E-03 0. -1.
</event>
<event>
 8    1  0.1146431E+005  0.1043930E+01  0.7957747E-01            NaN
         13   -1    0    0    0    0  0.00000000000E+00  0.00000000000E+00  0.74505805969E-08  0.10566000000E+00  0.10566000000E+00 0.  1.
     999900   -1    0    0    0    0 -0.00000000000E+00 -0.00000000000E+00 -0.74505805969E-08  0.93827000000E+00  0.93827000000E+00 0. -1.
     999902    2    1    2    0    0  0.71009742724E-02  0.21671800889E-01  0.35867304442E-02  0.10208441726E+01  0.10205831026E+01 0.  0.
     999903    2    3    3    0    0 -0.28236426268E-01  0.12879207563E+00 -0.55772173793E-02  0.13359704637E+00  0.20793531020E-01 0.  0.
         14    1    1    2    0    0 -0.71009742724E-02 -0.21671800889E-01 -0.35867304442E-02  0.23085827355E-01  0.00000000000E+00 0. -1.
     999901    1    3    3    0    0  0.35337400540E-01 -0.10712027474E+00  0.91639478234E-02  0.88724712627E+00  0.88000000000E+00 0.  1.
        -11    1    4    4    0    0 -0.23039236770E-01  0.68456968252E-01  0.37170290073E-02  0.72327314058E-01  0.51100000000E-03 0. -1.
         11    1    4    4    0    0 -0.51971894974E-02  0.60335107378E-01 -0.92942463866E-02  0.61269732314E-01  0.51100000000E-03 0.  1.
</event>
<event>
 8    1  0.1163146E+005  0.1043930E+01  0.7957747E-01            NaN
         13   -1    0    0    0    0  0.00000000000E+00  0.00000000000E+00  0.74505805969E-08  0.10566000000E+00  0.10566000000E+00 0. -1.
     999900   -1    0    0    0    0 -0.00000000000E+00 -0.00000000000E+00 -0.74505805969E-08  0.93827000000E+00  0.93827000000E+00 0.  1.
     999902    2    1    2    0    0 -0.12321499037E-01  0.85075170193E-02 -0.20861638570E-01  0.10182511147E+01  0.10179272703E+01 0.  0.
     999903    2    3    3    0    0 -0.83457835263E-01 -0.95974782713E-01 -0.62363352321E-02  0.12909936797E+00  0.21245840758E-01 0.  0.
         14    1    1    2    0    0  0.12321499037E-01 -0.85075170193E-02  0.20861638570E-01  0.25678885259E-01  0.00000000000E+00 0. -1.
     999901    1    3    3    0    0  0.71136336226E-01  0.10448229973E+00 -0.14625303338E-01  0.88915174677E+00  0.88000000000E+00 0.  1.
        -11    1    4    4    0    0 -0.55915098541E-01 -0.64072437737E-01  0.58743136383E-02  0.85244027381E-01  0.51100000000E-03 0.  1.
         11    1    4    4    0    0 -0.27542736721E-01 -0.31902344976E-01 -0.12110648870E-01  0.43855340588E-01  0.51100000000E-03 0. -1.
</event>
<event>
 8    1  0.1146431E+005  0.1043930E+01  0.7957747E-01            NaN
         13   -1    0    0    0    0  0.00000000000E+00  0.00000000000E+00  0.74505805969E-08  0.10566000000E+00  0.10566000000E+00 0.  1.
     999900   -1    0    0    0    0 -0.00000000000E+00 -0.00000000000E+00 -0.74505805969E-08  0.93827000000E+00  0.93827000000E+00 0. -1.
     999902    2    1    2    0    0  0.59433859541E-02 -0.15821811260E-01  0.15376384381E-01  0.10210807824E+01  0.10208250964E+01 0.  0.
     999903    2    3    3    0    0 -0.48831632001E-01  0.11796284697E+00  0.10034999064E-04  0.12915322814E+00  0.19513961354E-01 0.  0.
         14    1    1    2    0    0 -0.59433859541E-02  0.15821811260E-01 -0.15376384381E-01  0.22849217596E-01  0.00000000000E+00 0. -1.
     999901    1    3    3    0    0  0.54775017955E-01 -0.13378465823E+00  0.15366349381E-01  0.89192755427E+00  0.88000000000E+00 0.  1.
        -11    1    4    4    0    0 -0.44858986976E-01  0.10031452729E+00  0.61018713738E-02  0.11005828934E+00  0.51100000000E-03 0. -1.
         11    1    4    4    0    0 -0.39726450250E-02  0.17648319683E-01 -0.60918363747E-02  0.19094938794E-01  0.51100000000E-03 0.  1.
</event>
<event>
 8    1  0.1146431E+005  0.1043930E+01  0.7957747E-01            NaN
         13   -1    0    0    0    0  0.00000000000E+00  0.00000000000E+00  0.74505805969E-08  0.10566000000E+00  0.10566000000E+00 0. -1.
     999900   -1    0    0    0    0 -0.00000000000E+00 -0.00000000000E+00 -0.74505805969E-08  0.93827000000E+00  0.93827000000E+00 0. -1.
     999902    2    1    2    0    0 -0.10622909840E-02 -0.13192367142E-01 -0.21121958757E-01  0.10190040265E+01  0.10186991224E+01 0.  0.
     999903    2    3    3    0    0 -0.67498696251E-01 -0.77248028990E-01 -0.80993468792E-01  0.13215481639E+00  0.19535135797E-01 0.  0.
         14    1    1    2    0    0  0.10622909840E-02  0.13192367142E-01  0.21121958757E-01  0.24925973496E-01  0.00000000000E+00 0. -1.
     999901    1    3    3    0    0  0.66436405267E-01  0.64055661848E-01  0.59871510035E-01  0.88684921011E+00  0.88000000000E+00 0.  1.
        -11    1    4    4    0    0 -0.74190331338E-02 -0.93916292410E-02 -0.18592442277E-01  0.22117522087E-01  0.51100000000E-03 0. -1.
         11    1    4    4    0    0 -0.60079663117E-01 -0.67856399749E-01 -0.62401026515E-01  0.11003729431E+00  0.51100000000E-03 0.  1.
</event>
<event>
 8    1  0.1146431E+005  0.1043930E+01  0.7957747E-01            NaN
         13   -1    0    0    0    0  0.00000000000E+00  0.00000000000E+00  0.74505805969E-08  0.10566000000E+00  0.10566000000E+00 0. -1.
     999900   -1    0    0    0    0 -0.00000000000E+00 -0.00000000000E+00 -0.74505805969E-08  0.93827000000E+00  0.93827000000E+00 0.  1.
     999902    2    1    2    0    0  0.93014021148E-02 -0.22884075779E-01  0.32262171799E-03  0.10192257273E+01  0.10189262888E+01 0.  0.
     999903    2    3    3    0    0  0.80452085108E-01  0.87819876175E-01 -0.43636267389E-01  0.12835527172E+00  0.19649002450E-01 0.  0.
         14    1    1    2    0    0 -0.93014021148E-02  0.22884075779E-01 -0.32262171799E-03  0.24704272714E-01  0.00000000000E+00 0.  1.
     999901    1    3    3    0    0 -0.71150682993E-01 -0.11070395195E+00  0.43958889107E-01  0.89087045557E+00  0.88000000000E+00 0. -1.
        -11    1    4    4    0    0  0.28271290101E-01  0.20565387246E-01 -0.68823772184E-02  0.35634663373E-01  0.51100000000E-03 0. -1.
         11    1    4    4    0    0  0.52180795007E-01  0.67254488929E-01 -0.36753890170E-01  0.92720608347E-01  0.51100000000E-03 0.  1.
</event>
<event>
 8    1  0.1146431E+005  0.1043930E+01  0.7957747E-01            NaN
         13   -1    0    0    0    0  0.00000000000E+00  0.00000000000E+00  0.74505805969E-08  0.10566000000E+00  0.10566000000E+00 0. -1.
     999900   -1    0    0    0    0 -0.00000000000E+00 -0.00000000000E+00 -0.74505805969E-08  0.93827000000E+00  0.93827000000E+00 0.  1.
     999902    2    1    2    0    0 -0.23481705700E-02  0.19214749652E-01 -0.14207629733E-01  0.10199179769E+01  0.10196352791E+01 0.  0.
     999903    2    3    3    0    0  0.11631857244E-02  0.12655824349E+00  0.32282272639E-01  0.13217011503E+00  0.20210199984E-01 0.  0.
         14    1    1    2    0    0  0.23481705700E-02 -0.19214749652E-01  0.14207629733E-01  0.24012023069E-01  0.00000000000E+00 0. -1.
     999901    1    3    3    0    0 -0.35113562944E-02 -0.10734349384E+00 -0.46489902372E-01  0.88774786190E+00  0.88000000000E+00 0.  1.
        -11    1    4    4    0    0 -0.62961056331E-02  0.71521207089E-01  0.25600390652E-01  0.76227062991E-01  0.51100000000E-03 0. -1.
         11    1    4    4    0    0  0.74592913575E-02  0.55037036400E-01  0.66818819872E-02  0.55943052037E-01  0.51100000000E-03 0.  1.
</event>
<event>
 8    1  0.1146431E+005  0.1043930E+01  0.7957747E-01            NaN
         13   -1    0    0    0    0  0.00000000000E+00  0.00000000000E+00  0.74505805969E-08  0.10566000000E+00  0.10566000000E+00 0. -1.
     999900   -1    0    0    0    0 -0.00000000000E+00 -0.00000000000E+00 -0.74505805969E-08  0.93827000000E+00  0.93827000000E+00 0. -1.
     999902    2    1    2    0    0 -0.15966168225E-01  0.21508006315E-02 -0.16093437929E-01  0.10211584560E+01  0.10209045250E+01 0.  0.
     999903    2    3    3    0    0  0.76865281607E-01  0.71504458252E-01 -0.76547689409E-01  0.13150553244E+00  0.20322333572E-01 0.  0.
         14    1    1    2    0    0  0.15966168225E-01 -0.21508006315E-02  0.16093437929E-01  0.22771543986E-01  0.00000000000E+00 0. -1.
     999901    1    3    3    0    0 -0.92831449832E-01 -0.69353657621E-01  0.60454251480E-01  0.88965292357E+00  0.88000000000E+00 0.  1.
        -11    1    4    4    0    0  0.12824328155E-01  0.23530485412E-01 -0.16674917752E-01  0.31566772712E-01  0.51100000000E-03 0. -1.
         11    1    4    4    0    0  0.64040953452E-01  0.47973972840E-01 -0.59872771657E-01  0.99938759727E-01  0.51100000000E-03 0.  1.
</event>
<event>
 8    1  0.1146431E+005  0.1043930E+01  0.7957747E-01            NaN
         13   -1    0    0    0    0  0.00000000000E+00  0.00000000000E+00  0.74505805969E-08  0.10566000000E+00  0.10566000000E+00 0. -1.
     999900   -1    0    0    0    0 -0.00000000000E+00 -0.00000000000E+00 -0.74505805969E-08  0.93827000000E+00  0.93827000000E+00 0. -1.
     999902    2    1    2    0    0  0.36324741340E-02 -0.18189102557E-01 -0.14448543027E-01  0.10204183281E+01  0.10201474235E+01 0.  0.
     999903    2    3    3    0    0 -0.11753972776E+00  0.45722650753E-01  0.18889282034E-01  0.12919510953E+00  0.20698380548E-01 0.  0.
         14    1    1    2    0    0 -0.36324741340E-02  0.18189102557E-01  0.14448543027E-01  0.23511671905E-01  0.00000000000E+00 0. -1.
     999901    1    3    3    0    0  0.12117220190E+00 -0.63911753309E-01 -0.33337825062E-01  0.89122321856E+00  0.88000000000E+00 0.  1.
        -11    1    4    4    0    0 -0.80280869934E-01  0.40910708878E-01  0.10670531966E-01  0.90734919142E-01  0.51100000000E-03 0.  1.
         11    1    4    4    0    0 -0.37258857829E-01  0.48119418750E-02  0.82187500682E-02  0.38460190392E-01  0.51100000000E-03 0. -1.
</event>
<event>
 8    1  0.1146431E+005  0.1043930E+01  0.7957747E-01            NaN
         13   -1    0    0    0    0  0.00000000000E+00  0.00000000000E+00  0.74505805969E-08  0.10566000000E+00  0.10566000000E+00 0.  1.
     999900   -1    0    0    0    0 -0.00000000000E+00 -0.00000000000E+00 -0.74505805969E-08  0.93827000000E+00  0.93827000000E+00 0. -1.
     999902    2    1    2    0    0 -0.49571835905E-02  0.14313976765E-02 -0.24198967979E-01  0.10191870693E+01  0.10188866814E+01 0.  0.
     999903    2    3    3    0    0  0.36155324654E-01  0.69779328982E-01 -0.10404893175E+00  0.13197926119E+00  0.20395659639E-01 0.  0.
         14    1    1    2    0    0  0.49571835905E-02 -0.14313976765E-02  0.24198967979E-01  0.24742930702E-01  0.00000000000E+00 0.  1.
     999901    1    3    3    0    0 -0.41112508245E-01 -0.68347931306E-01  0.79849963773E-01  0.88720780811E+00  0.88000000000E+00 0. -1.
        -11    1    4    4    0    0  0.77195263929E-02  0.26738298279E-01 -0.50238792644E-01  0.57434528726E-01  0.51100000000E-03 0.  1.
         11    1    4    4    0    0  0.28435798261E-01  0.43041030704E-01 -0.53810139108E-01  0.74544732467E-01  0.51100000000E-03 0. -1.
</event>
<event>
 8    1  0.1146431E+005  0.1043930E+01  0.7957747E-01            NaN
         13   -1    0    0    0    0  0.00000000000E+00  0.00000000000E+00  0.74505805969E-08  0.10566000000E+00  0.10566000000E+00 0.  1.
     999900   -1    0    0    0    0 -0.00000000000E+00 -0.00000000000E+00 -0.74505805969E-08  0.93827000000E+00  0.93827000000E+00 0.  1.
     999902    2    1    2    0    0  0.18980980343E-01 -0.17721428569E-01 -0.18065593730E-01  0.10122962787E+01  0.10118018895E+01 0.  0.
     999903    2    3    3    0    0 -0.32526175057E-01 -0.72567278057E-01 -0.95312568169E-01  0.12571399301E+00  0.19888702326E-01 0.  0.
         14    1    1    2    0    0 -0.18980980343E-01  0.17721428569E-01  0.18065593730E-01  0.31633721282E-01  0.00000000000E+00 0.  1.
     999901    1    3    3    0    0  0.51507155400E-01  0.54845849488E-01  0.77246974440E-01  0.88658228570E+00  0.88000000000E+00 0. -1.
        -11    1    4    4    0    0 -0.16318507372E-01 -0.18859979254E-01 -0.21034075245E-01  0.32629525628E-01  0.51100000000E-03 0. -1.
         11    1    4    4    0    0 -0.16207667685E-01 -0.53707298803E-01 -0.74278492925E-01  0.93084467387E-01  0.51100000000E-03 0.  1.
</event>
<event>
 8    1  0.1146431E+005  0.1043930E+01  0.7957747E-01            NaN
         13   -1    0    0    0    0  0.00000000000E+00  0.00000000000E+00  0.74505805969E-08  0.10566000000E+00  0.10566000000E+00 0. -1.
     999900   -1    0    0    0    0 -0.00000000000E+00 -0.00000000000E+00 -0.74505805969E-08  0.93827000000E+00  0.93827000000E+00 0.  1.
     999902    2    1    2    0    0  0.16020348625E-01 -0.17017731159E-01  0.72441619945E-03  0.10205466828E+01  0.10202787620E+01 0.  0.
     999903    2    3    3    0    0 -0.88796817786E-01 -0.56982540583E-01 -0.72255470573E-01  0.13042877588E+00  0.25669588426E-01 0.  0.
         14    1    1    2    0    0 -0.16020348625E-01  0.17017731159E-01 -0.72441619945E-03  0.23383317187E-01  0.00000000000E+00 0.  1.
     999901    1    3    3    0    0  0.10481716641E+00  0.39964809423E-01  0.72979886773E-01  0.89011790693E+00  0.88000000000E+00 0.  1.
        -11    1    4    4    0    0 -0.46411805189E-01 -0.43213182819E-01 -0.49107679334E-01  0.80207606378E-01  0.51100000000E-03 0.  1.
         11    1    4    4    0    0 -0.42385012596E-01 -0.13769357763E-01 -0.23147791239E-01  0.50221169503E-01  0.51100000000E-03 0. -1.
</event>
<event>
 8    1  0.1146431E+005  0.1043930E+01  0.7957747E-01            NaN
         13   -1    0    0    0    0  0.00000000000E+00  0.00000000000E+00  0.74505805969E-08  0.10566000000E+00  0.10566000000E+00 0. -1.
     999900   -1    0    0    0    0 -0.00000000000E+00 -0.00000000000E+00 -0.74505805969E-08  0.93827000000E+00  0.93827000000E+00 0. -1.
     999902    2    1    2    0    0 -0.64900110828E-02 -0.18744435954E-01 -0.12387398849E-01  0.10205436413E+01  0.10202756500E+01 0.  0.
     999903    2    3    3    0    0 -0.85129613314E-01  0.95312536206E-01 -0.12136617369E-01  0.12970513583E+00  0.18563247500E-01 0.  0.
         14    1    1    2    0    0  0.64900110828E-02  0.18744435954E-01  0.12387398849E-01  0.23386358702E-01  0.00000000000E+00 0.  1.
     999901    1    3    3    0    0  0.78639602232E-01 -0.11405697216E+00 -0.25078148011E-03  0.89083850547E+00  0.88000000000E+00 0.  1.
        -11    1    4    4    0    0 -0.68042565620E-01  0.64676284607E-01 -0.11834351517E-01  0.94620957105E-01  0.51100000000E-03 0.  1.
         11    1    4    4    0    0 -0.17087047695E-01  0.30636251599E-01 -0.30226585197E-03  0.35084178722E-01  0.51100000000E-03 0. -1.
</event>
<event>
 8    1  0.1146431E+005  0.1043930E+01  0.7957747E-01            NaN
         13   -1    0    0    0    0  0.00000000000E+00  0.00000000000E+00  0.74505805969E-08  0.10566000000E+00  0.10566000000E+00 0.  1.
     999900   -1    0    0    0    0 -0.00000000000E+00 -0.00000000000E+00 -0.74505805969E-08  0.93827000000E+00  0.93827000000E+00 0.  1.
     999902    2    1    2    0    0  0.10360417820E-01  0.36200990669E-02 -0.20254705836E-01  0.10208931495E+01  0.10206331986E+01 0.  0.
     999903    2    3    3    0    0 -0.11264609049E+00  0.49951522422E-01 -0.39255320732E-01  0.13092785505E+00  0.20416334780E-01 0.  0.
         14    1    1    2    0    0 -0.10360417820E-01 -0.36200990669E-02  0.20254705836E-01  0.23036850548E-01  0.00000000000E+00 0.  1.
     999901    1    3    3    0    0  0.12300650831E+00 -0.46331423355E-01  0.19000614895E-01  0.88996529440E+00  0.88000000000E+00 0.  1.
        -11    1    4    4    0    0 -0.23669823181E-01  0.23000225602E-02 -0.47326635198E-02  0.24253038123E-01  0.51100000000E-03 0.  1.
         11    1    4    4    0    0 -0.88976267312E-01  0.47651499862E-01 -0.34522657212E-01  0.10667481692E+00  0.51100000000E-03 0. -1.
</event>
<event>
 8    1  0.1146431E+005  0.1043930E+01  0.7957747E-01            NaN
         13   -1    0    0    0    0  0.00000000000E+00  0.00000000000E+00  0.74505805969E-08  0.10566000000E+00  0.10566000000E+00 0.  1.
     999900   -1    0    0    0    0 -0.00000000000E+00 -0.00000000000E+00 -0.74505805969E-08  0.93827000000E+00  0.93827000000E+00 0.  1.
     999902    2    1    2    0    0 -0.14767314940E-01 -0.16971652938E-01  0.83124290848E-02  0.10199465250E+01  0.10196645070E+01 0.  0.
     999903    2    3    3    0    0  0.21856671439E-01 -0.11447942951E+00 -0.57341128546E-01  0.13137493394E+00  0.19700618750E-01 0.  0.
         14    1    1    2    0    0  0.14767314940E-01  0.16971652938E-01 -0.83124290848E-02  0.23983474963E-01  0.00000000000E+00 0. -1.
     999901    1    3    3    0    0 -0.36623986379E-01  0.97507776569E-01  0.65653557631E-01  0.88857159109E+00  0.88000000000E+00 0. -1.
        -11    1    4    4    0    0 -0.16182058357E-02 -0.37766851625E-01 -0.15109109804E-01  0.40712405871E-01  0.51100000000E-03 0.  1.
         11    1    4    4    0    0  0.23474877275E-01 -0.76712577882E-01 -0.42232018743E-01  0.90662528072E-01  0.51100000000E-03 0. -1.
</event>
<event>
 8    1  0.1146431E+005  0.1043930E+01  0.7957747E-01            NaN
         13   -1    0    0    0    0  0.00000000000E+00  0.00000000000E+00  0.74505805969E-08  0.10566000000E+00  0.10566000000E+00 0. -1.
     999900   -1    0    0    0    0 -0.00000000000E+00 -0.00000000000E+00 -0.74505805969E-08  0.93827000000E+00  0.93827000000E+00 0. -1.
     999902    2    1    2    0    0  0.19324032417E-01  0.92043395523E-02  0.12988062123E-01  0.10188934696E+01  0.10185858209E+01 0.  0.
     999903    2    3    3    0    0  0.81981277447E-01 -0.40495399532E-02  0.10161119083E+00  0.13212650214E+00  0.19880891374E-01 0.  0.
         14    1    1    2    0    0 -0.19324032417E-01 -0.92043395523E-02 -0.12988062123E-01  0.25036530374E-01  0.00000000000E+00 0.  1.
     999901    1    3    3    0    0 -0.62657245031E-01  0.13253879506E-01 -0.88623128703E-01  0.88676696748E+00  0.88000000000E+00 0. -1.
        -11    1    4    4    0    0  0.23882849288E-01  0.59027953677E-02  0.21575735572E-01  0.32726242829E-01  0.51100000000E-03 0. -1.
         11    1    4    4    0    0  0.58098428159E-01 -0.99523353209E-02  0.80035455255E-01  0.99400259314E-01  0.51100000000E-03 0.  1.
</event>
<event>
 8    1  0.1146431E+005  0.1043930E+01  0.7957747E-01            NaN
         13   -1    0    0    0    0  0.00000000000E+00  0.00000000000E+00  0.74505805969E-08  0.10566000000E+00  0.10566000000E+00 0.  1.
     999900   -1    0    0    0    0 -0.00000000000E+00 -0.00000000000E+00 -0.74505805969E-08  0.93827000000E+00  0.93827000000E+00 0.  1.
     999902    2    1    2    0    0  0.24549928099E-01  0.62984588351E-02 -0.86754673476E-03  0.10185701461E+01  0.10182543986E+01 0.  0.
     999903    2    3    3    0    0  0.33010097424E-02  0.78900734360E-01  0.10046997905E+00  0.12953027011E+00  0.21157779558E-01 0.  0.
         14    1    1    2    0    0 -0.24549928099E-01 -0.62984588351E-02  0.86754673476E-03  0.25359853917E-01  0.00000000000E+00 0.  1.
     999901    1    3    3    0    0  0.21248918357E-01 -0.72602275525E-01 -0.10133752578E+00  0.88903987598E+00  0.88000000000E+00 0. -1.
        -11    1    4    4    0    0  0.19101849384E-02  0.20117740280E-02  0.11912894860E-01  0.12242312942E-01  0.51100000000E-03 0. -1.
         11    1    4    4    0    0  0.13908248040E-02  0.76888960332E-01  0.88557084190E-01  0.11728795716E+00  0.51100000000E-03 0.  1.
</event>
<event>
 8    1  0.1146431E+005  0.1043930E+01  0.7957747E-01            NaN
         13   -1    0    0    0    0  0.00000000000E+00  0.00000000000E+00  0.74505805969E-08  0.10566000000E+00  0.10566000000E+00 0. -1.
     999900   -1    0    0    0    0 -0.00000000000E+00 -0.00000000000E+00 -0.74505805969E-08  0.93827000000E+00  0.93827000000E+00 0.  1.
     999902    2    1    2    0    0 -0.13658955389E-01  0.88151991525E-02 -0.17561808258E-01  0.10199990178E+01  0.10197182476E+01 0.  0.
     999903    2    3    3    0    0 -0.11885036397E+00  0.16963774510E-01 -0.53561209810E-01  0.13296599216E+00  0.19949265994E-01 0.  0.
         14    1    1    2    0    0  0.13658955389E-01 -0.88151991525E-02  0.17561808258E-01  0.23930982172E-01  0.00000000000E+00 0. -1.
     999901    1    3    3    0    0  0.10519140858E+00 -0.81485753571E-02  0.35999401552E-01  0.88703302567E+00  0.88000000000E+00 0. -1.
        -11    1    4    4    0    0 -0.54074800903E-01  0.60821170979E-02 -0.13642587393E-01  0.56102206310E-01  0.51100000000E-03 0.  1.
         11    1    4    4    0    0 -0.64775563063E-01  0.10881657412E-01 -0.39918622416E-01  0.76863785847E-01  0.51100000000E-03 0. -1.
</event>
<event>
 8    1  0.1146431E+005  0.1043930E+01  0.7957747E-01            NaN
         13   -1    0    0    0    0  0.00000000000E+00  0.00000000000E+00  0.74505805969E-08  0.10566000000E+00  0.10566000000E+00 0.  1.
     999900   -1    0    0    0    0 -0.00000000000E+00 -0.00000000000E+00 -0.74505805969E-08  0.93827000000E+00  0.93827000000E+00 0. -1.
     999902    2    1    2    0    0 -0.14866963513E-01 -0.17411898261E-01 -0.28307841514E-02  0.10208602331E+01  0.10205995304E+01 0.  0.
     999903    2    3    3    0    0 -0.20109449713E-01  0.11506243893E+00 -0.52341654291E-01  0.12955318168E+00  0.20015576187E-01 0.  0.
         14    1    1    2    0    0  0.14866963513E-01  0.17411898261E-01  0.28307841514E-02  0.23069766884E-01  0.00000000000E+00 0. -1.
     999901    1    3    3    0    0  0.52424861994E-02 -0.13247433719E+00  0.49510870140E-01  0.89130705143E+00  0.88000000000E+00 0.  1.
        -11    1    4    4    0    0 -0.13807646568E-01  0.28078072781E-01 -0.13532288126E-01  0.34094181582E-01  0.51100000000E-03 0. -1.
         11    1    4    4    0    0 -0.63018031452E-02  0.86984366147E-01 -0.38809366165E-01  0.95459000099E-01  0.51100000000E-03 0.  1.
</event>
<event>
 8    1  0.1146431E+005  0.1043930E+01  0.7957747E-01            NaN
         13   -1    0    0    0    0  0.00000000000E+00  0.00000000000E+00  0.74505805969E-08  0.10566000000E+00  0.10566000000E+00 0. -1.
     999900   -1    0    0    0    0 -0.00000000000E+00 -0.00000000000E+00 -0.74505805969E-08  0.93827000000E+00  0.93827000000E+00 0. -1.
     999902    2    1    2    0    0 -0.64870698492E-03 -0.67346191004E-02 -0.23197595877E-01  0.10197658867E+01  0.10194795532E+01 0.  0.
     999903    2    3    3    0    0  0.12113312386E-01 -0.46259524431E-01 -0.12257055402E+00  0.13319943571E+00  0.20781554861E-01 0.  0.
         14    1    1    2    0    0  0.64870698492E-03  0.67346191004E-02  0.23197595877E-01  0.24164113260E-01  0.00000000000E+00 0. -1.
     999901    1    3    3    0    0 -0.12762019371E-01  0.39524905331E-01  0.99372958146E-01  0.88656645103E+00  0.88000000000E+00 0.  1.
        -11    1    4    4    0    0  0.20996020618E-02 -0.27673995948E-01 -0.45597823889E-01  0.53382403889E-01  0.51100000000E-03 0.  1.
         11    1    4    4    0    0  0.10013710324E-01 -0.18585528483E-01 -0.76972730134E-01  0.79817031821E-01  0.51100000000E-03 0. -1.
</event>
<event>
 8    1  0.1146431E+005  0.1043930E+01  0.7957747E-01            NaN
         13   -1    0    0    0    0  0.00000000000E+00  0.00000000000E+00  0.74505805969E-08  0.10566000000E+00  0.10566000000E+00 0.  1.
     999900   -1    0    0    0    0 -0.00000000000E+00 -0.00000000000E+00 -0.74505805969E-08  0.93827000000E+00  0.93827000000E+00 0. -1.
     999902    2    1    2    0    0  0.90041824059E-02  0.21590246513E-01 -0.77924793897E-02  0.10192736260E+01  0.10189753617E+01 0.  0.
     999903    2    3    3    0    0  0.16838995605E-01  0.39110705901E-01  0.12078858489E+00  0.12972236781E+00  0.20610952944E-01 0.  0.
         14    1    1    2    0    0 -0.90041824059E-02 -0.21590246513E-01  0.77924793897E-02  0.24656374031E-01  0.00000000000E+00 0.  1.
     999901    1    3    3    0    0 -0.78348131993E-02 -0.17520459388E-01 -0.12858106428E+00  0.88955125816E+00  0.88000000000E+00 0. -1.
        -11    1    4    4    0    0  0.53673076334E-02  0.33557249064E-01  0.96104136898E-01  0.10193705512E+00  0.51100000000E-03 0. -1.
         11    1    4    4    0    0  0.11471687972E-01  0.55534568370E-02  0.24684447996E-01  0.27785312696E-01  0.51100000000E-03 0.  1.
</event>
<event>
 8    1  0.1146431E+005  0.1043930E+01  0.7957747E-01            NaN
         13   -1    0    0    0    0  0.00000000000E+00  0.00000000000E+00  0.74505805969E-08  0.10566000000E+00  0.10566000000E+00 0.  1.
     999900   -1    0    0    0    0 -0.00000000000E+00 -0.00000000000E+00 -0.74505805969E-08  0.93827000000E+00  0.93827000000E+00 0.  1.
     999902    2    1    2    0    0 -0.17869949799E-01 -0.13996592441E-01 -0.48719598318E-02  0.10207141498E+01  0.10204500968E+01 0.  0.
     999903    2    3    3    0    0 -0.38678443250E-01 -0.11978399481E+00  0.38168456999E-01  0.13309010478E+00  0.20295750664E-01 0.  0.
         14    1    1    2    0    0  0.17869949799E-01  0.13996592441E-01  0.48719598318E-02  0.23215850154E-01  0.00000000000E+00 0. -1.
     999901    1    3    3    0    0  0.20808493451E-01  0.10578740237E+00 -0.43040416831E-01  0.88762404507E+00  0.88000000000E+00 0. -1.
        -11    1    4    4    0    0 -0.31463877375E-01 -0.10686065928E+00  0.27225925670E-01  0.11467645020E+00  0.51100000000E-03 0. -1.
         11    1    4    4    0    0 -0.72145658749E-02 -0.12923335537E-01  0.10942531330E-01  0.18413654582E-01  0.51100000000E-03 0.  1.
</event>
<event>
 8    1  0.1146431E+005  0.1043930E+01  0.7957747E-01            NaN
         13   -1    0    0    0    0  0.00000000000E+00  0.00000000000E+00  0.74505805969E-08  0.10566000000E+00  0.10566000000E+00 0.  1.
     999900   -1    0    0    0    0 -0.00000000000E+00 -0.00000000000E+00 -0.74505805969E-08  0.93827000000E+00  0.93827000000E+00 0.  1.
     999902    2    1    2    0    0  0.23167492469E-01  0.37487911870E-02 -0.59480683264E-02  0.10197191417E+01  0.10194316859E+01 0.  0.
     999903    2    3    3    0    0  0.55287768737E-01 -0.11278064285E+00 -0.31290342918E-01  0.13109489489E+00  0.20750304367E-01 0.  0.
         14    1    1    2    0    0 -0.23167492469E-01 -0.37487911870E-02  0.59480683264E-02  0.24210858297E-01  0.00000000000E+00 0.  1.
     999901    1    3    3    0    0 -0.32120276267E-01  0.11652943404E+00  0.25342274591E-01  0.88862424681E+00  0.88000000000E+00 0.  1.
        -11    1    4    4    0    0  0.22458177427E-01 -0.61706657115E-01 -0.24109756864E-01  0.69954433474E-01  0.51100000000E-03 0. -1.
         11    1    4    4    0    0  0.32829591310E-01 -0.51073985739E-01 -0.71805860544E-02  0.61140461414E-01  0.51100000000E-03 0.  1.
</event>
<event>
 8    1  0.1146431E+005  0.1043930E+01  0.7957747E-01            NaN
         13   -1    0    0    0    0  0.00000000000E+00  0.00000000000E+00  0.74505805969E-08  0.10566000000E+00  0.10566000000E+00 0.  1.
     999900   -1    0    0    0    0 -0.00000000000E+00 -0.00000000000E+00 -0.74505805969E-08  0.93827000000E+00  0.93827000000E+00 0. -1.
     999902    2    1    2    0    0  0.20541119591E-02 -0.21759855196E-01 -0.78127014629E-02  0.10207190332E+01  0.10204550925E+01 0.  0.
     999903    2    3    3    0    0 -0.12904099059E+00 -0.60464709135E-02 -0.43287464528E-02  0.13086231763E+00  0.20446786254E-01 0.  0.
         14    1    1    2    0    0 -0.20541119591E-02  0.21759855196E-01  0.78127014629E-02  0.23210966767E-01  0.00000000000E+00 0.  1.
     999901    1    3    3    0    0  0.13109510255E+00 -0.15713384283E-01 -0.34839550100E-02  0.88985671560E+00  0.88000000000E+00 0. -1.
        -11    1    4    4    0    0 -0.95303702692E-01 -0.95732808247E-02 -0.10576489059E-01  0.96366833995E-01  0.51100000000E-03 0. -1.
         11    1    4    4    0    0 -0.33737287895E-01  0.35268099112E-02  0.62477426063E-02  0.34495483637E-01  0.51100000000E-03 0.  1.
</event>
<event>
 8    1  0.1146431E+005  0.1043930E+01  0.7957747E-01            NaN
         13   -1    0    0    0    0  0.00000000000E+00  0.00000000000E+00  0.74505805969E-08  0.10566000000E+00  0.10566000000E+00 0. -1.
     999900   -1    0    0    0    0 -0.00000000000E+00 -0.00000000000E+00 -0.74505805969E-08  0.93827000000E+00  0.93827000000E+00 0. -1.
     999902    2    1    2    0    0 -0.10437394338E-01  0.18720033635E-01 -0.89974046248E-02  0.10206849543E+01  0.10204202290E+01 0.  0.
     999903    2    3    3    0    0 -0.67587922142E-01  0.12059712129E-01 -0.11201656290E+00  0.13280912419E+00  0.19416210447E-01 0.  0.
         14    1    1    2    0    0  0.10437394338E-01 -0.18720033635E-01  0.89974046248E-02  0.23245045705E-01  0.00000000000E+00 0. -1.
     999901    1    3    3    0    0  0.57150527804E-01  0.66603215057E-02  0.10301915828E+00  0.88787583010E+00  0.88000000000E+00 0.  1.
        -11    1    4    4    0    0 -0.15626434077E-01  0.80195746814E-02 -0.41960431591E-01  0.45491075612E-01  0.51100000000E-03 0.  1.
         11    1    4    4    0    0 -0.51961488065E-01  0.40401374476E-02 -0.70056131310E-01  0.87318048579E-01  0.51100000000E-03 0. -1.
</event>
<event>
 8    1  0.1146431E+005  0.1043930E+01  0.7957747E-01            NaN
         13   -1    0    0    0    0  0.00000000000E+00  0.00000000000E+00  0.74505805969E-08  0.10566000000E+00  0.10566000000E+00 0. -1.
     999900   -1    0    0    0    0 -0.00000000000E+00 -0.00000000000E+00 -0.74505805969E-08  0.93827000000E+00  0.93827000000E+00 0. -1.
     999902    2    1    2    0    0  0.18914129111E-01 -0.12772764966E-01 -0.38963675128E-02  0.10207768256E+01  0.10205142126E+01 0.  0.
     999903    2    3    3    0    0  0.19337396515E-01 -0.79790481827E-01  0.10145943541E+00  0.13196222247E+00  0.19482177299E-01 0.  0.
         14    1    1    2    0    0 -0.18914129111E-01  0.12772764966E-01  0.38963675128E-02  0.23153174398E-01  0.00000000000E+00 0.  1.
     999901    1    3    3    0    0 -0.42326740464E-03  0.67017716860E-01 -0.10535580292E+00  0.88881460313E+00  0.88000000000E+00 0. -1.
        -11    1    4    4    0    0  0.22988581474E-01 -0.67888354547E-01  0.82661559647E-01  0.10940977162E+00  0.51100000000E-03 0. -1.
         11    1    4    4    0    0 -0.36511849584E-02 -0.11902127280E-01  0.18797875762E-01  0.22552450854E-01  0.51100000000E-03 0.  1.
</event>
<event>
 8    1  0.1146431E+005  0.1043930E+01  0.7957747E-01            NaN
         13   -1    0    0    0    0  0.00000000000E+00  0.00000000000E+00  0.74505805969E-08  0.10566000000E+00  0.10566000000E+00 0. -1.
     999900   -1    0    0    0    0 -0.00000000000E+00 -0.00000000000E+00 -0.74505805969E-08  0.93827000000E+00  0.93827000000E+00 0.  1.
     999902    2    1    2    0    0 -0.40659027744E-02  0.20209681497E-01  0.57419539472E-02  0.10225306349E+01  0.10223066891E+01 0.  0.
     999903    2    3    3    0    0 -0.11318499074E+00  0.16640739274E-01 -0.64847629959E-01  0.13297872407E+00  0.19757773419E-01 0.  0.
         14    1    1    2    0    0  0.40659027744E-02 -0.20209681497E-01 -0.57419539472E-02  0.21399365100E-01  0.00000000000E+00 0. -1.
     999901    1    3    3    0    0  0.10911908797E+00  0.35689422229E-02  0.70589583906E-01  0.88955191083E+00  0.88000000000E+00 0. -1.
        -11    1    4    4    0    0 -0.34091983034E-01 -0.35520498570E-03 -0.11129072664E-01  0.35867908458E-01  0.51100000000E-03 0.  1.
         11    1    4    4    0    0 -0.79093007709E-01  0.16995944259E-01 -0.53718557294E-01  0.97110815611E-01  0.51100000000E-03 0. -1.
</event>
<event>
 8    1  0.1146431E+005  0.1043930E+01  0.7957747E-01            NaN
         13   -1    0    0    0    0  0.00000000000E+00  0.00000000000E+00  0.74505805969E-08  0.10566000000E+00  0.10566000000E+00 0.  1.
     999900   -1    0    0    0    0 -0.00000000000E+00 -0.00000000000E+00 -0.74505805969E-08  0.93827000000E+00  0.93827000000E+00 0.  1.
     999902    2    1    2    0    0 -0.19354228434E-01 -0.78826843162E-02  0.12224618463E-01  0.10197191725E+01  0.10194317175E+01 0.  0.
     999903    2    3    3    0    0 -0.40288747810E-01 -0.12366233099E+00  0.12856649873E-01  0.13188834396E+00  0.17711197621E-01 0.  0.
         14    1    1    2    0    0  0.19354228434E-01  0.78826843162E-02 -0.12224618463E-01  0.24210827472E-01  0.00000000000E+00 0. -1.
     999901    1    3    3    0    0  0.20934519375E-01  0.11577964668E+00 -0.63203141027E-03  0.88783082856E+00  0.88000000000E+00 0.  1.
        -11    1    4    4    0    0 -0.12285800481E-01 -0.41172998253E-01 -0.40082164991E-02  0.43156501238E-01  0.51100000000E-03 0.  1.
         11    1    4    4    0    0 -0.28002947329E-01 -0.82489332738E-01  0.16864866372E-01  0.88731842725E-01  0.51100000000E-03 0. -1.
</event>
<event>
 8    1  0.1146431E+005  0.1043930E+01  0.7957747E-01            NaN
         13   -1    0    0    0    0  0.00000000000E+00  0.00000000000E+00  0.74505805969E-08  0.10566000000E+00  0.10566000000E+00 0.  1.
     999900   -1    0    0    0    0 -0.00000000000E+00 -0.00000000000E+00 -0.74505805969E-08  0.93827000000E+00  0.93827000000E+00 0.  1.
     999902    2    1    2    0    0  0.22810412388E-01 -0.55976661240E-02 -0.14136907357E-02  0.10204002890E+01  0.10201289636E+01 0.  0.
     999903    2    3    3    0    0  0.33144290739E-01 -0.90900708940E-01  0.87207334493E-01  0.13178502675E+00  0.20017272313E-01 0.  0.
         14    1    1    2    0    0 -0.22810412388E-01  0.55976661240E-02  0.14136907357E-02  0.23529711023E-01  0.00000000000E+00 0.  1.
     999901    1    3    3    0    0 -0.10333878351E-01  0.85303042816E-01 -0.88621025228E-01  0.88861526223E+00  0.88000000000E+00 0.  1.
        -11    1    4    4    0    0  0.19298346208E-01 -0.44169582211E-01  0.30653503499E-01  0.57125095683E-01  0.51100000000E-03 0. -1.
         11    1    4    4    0    0  0.13845944531E-01 -0.46731126729E-01  0.56553830993E-01  0.74659931063E-01  0.51100000000E-03 0.  1.
</event>
<event>
 8    1  0.1146431E+005  0.1043930E+01  0.7957747E-01            NaN
         13   -1    0    0    0    0  0.00000000000E+00  0.00000000000E+00  0.74505805969E-08  0.10566000000E+00  0.10566000000E+00 0.  1.
     999900   -1    0    0    0    0 -0.00000000000E+00 -0.00000000000E+00 -0.74505805969E-08  0.93827000000E+00  0.93827000000E+00 0.  1.
     999902    2    1    2    0    0 -0.20097229405E-01 -0.10329762943E-01  0.69664061292E-02  0.10202839972E+01  0.10200099517E+01 0.  0.
     999903    2    3    3    0    0 -0.61764799765E-01  0.45880986554E-01  0.10542833362E+00  0.13203257678E+00  0.19937712605E-01 0.  0.
         14    1    1    2    0    0  0.20097229405E-01  0.10329762943E-01 -0.69664061292E-02  0.23646002761E-01  0.00000000000E+00 0. -1.
     999901    1    3    3    0    0  0.41667570360E-01 -0.56210749497E-01 -0.98461927494E-01  0.88825142046E+00  0.88000000000E+00 0.  1.
        -11    1    4    4    0    0 -0.48751201526E-01  0.24878637112E-01  0.70798026753E-01  0.89488814652E-01  0.51100000000E-03 0.  1.
         11    1    4    4    0    0 -0.13013598239E-01  0.21002349442E-01  0.34630306870E-01  0.42543762129E-01  0.51100000000E-03 0. -1.
</event>
<event>
 8    1  0.1146431E+005  0.1043930E+01  0.7957747E-01            NaN
         13   -1    0    0    0    0  0.00000000000E+00  0.00000000000E+00  0.74505805969E-08  0.10566000000E+00  0.10566000000E+00 0.  1.
     999900   -1    0    0    0    0 -0.00000000000E+00 -0.00000000000E+00 -0.74505805969E-08  0.93827000000E+00  0.93827000000E+00 0.  1.
     999902    2    1    2    0    0  0.16078137156E-01 -0.16380463437E-01 -0.11307094403E-01  0.10183433539E+01  0.10180218612E+01 0.  0.
     999903    2    3    3    0    0 -0.50860848951E-01 -0.64033606271E-01  0.96615804796E-01  0.12795074268E+00  0.18698933837E-01 0.  0.
         14    1    1    2    0    0 -0.16078137156E-01  0.16380463437E-01  0.11307094403E-01  0.25586646139E-01  0.00000000000E+00 0.  1.
     999901    1    3    3    0    0  0.66938986107E-01  0.47653142834E-01 -0.10792289920E+00  0.89039261119E+00  0.88000000000E+00 0.  1.
        -11    1    4    4    0    0 -0.46727787236E-01 -0.56811280674E-01  0.76274736319E-01  0.10596746781E+00  0.51100000000E-03 0.  1.
         11    1    4    4    0    0 -0.41330617159E-02 -0.72223255973E-02  0.20341068477E-01  0.21983274869E-01  0.51100000000E-03 0. -1.
</event>
<event>
 8    1  0.1146431E+005  0.1043930E+01  0.7957747E-01            NaN
         13   -1    0    0    0    0  0.00000000000E+00  0.00000000000E+00  0.74505805969E-08  0.10566000000E+00  0.10566000000E+00 0.  1.
     999900   -1    0    0    0    0 -0.00000000000E+00 -0.00000000000E+00 -0.74505805969E-08  0.93827000000E+00  0.93827000000E+00 0. -1.
     999902    2    1    2    0    0 -0.44287326258E-02  0.20203340437E-01  0.11769397330E-01  0.10201327869E+01  0.10198551836E+01 0.  0.
     999903    2    3    3    0    0  0.23296480462E-01 -0.12403163447E+00  0.41430380228E-02  0.12792733031E+00  0.20534476507E-01 0.  0.
         14    1    1    2    0    0  0.44287326258E-02 -0.20203340437E-01 -0.11769397330E-01  0.23797213093E-01  0.00000000000E+00 0. -1.
     999901    1    3    3    0    0 -0.27725213088E-01  0.14423497490E+00  0.76263593075E-02  0.89220545660E+00  0.88000000000E+00 0.  1.
        -11    1    4    4    0    0  0.21525489521E-01 -0.67712662375E-01  0.76792219752E-02  0.71467355598E-01  0.51100000000E-03 0. -1.
         11    1    4    4    0    0  0.17709909412E-02 -0.56318972092E-01 -0.35361839524E-02  0.56459974711E-01  0.51100000000E-03 0.  1.
</event>
<event>
 8    1  0.1146431E+005  0.1043930E+01  0.7957747E-01            NaN
         13   -1    0    0    0    0  0.00000000000E+00  0.00000000000E+00  0.74505805969E-08  0.10566000000E+00  0.10566000000E+00 0. -1.
     999900   -1    0    0    0    0 -0.00000000000E+00 -0.00000000000E+00 -0.74505805969E-08  0.93827000000E+00  0.93827000000E+00 0. -1.
     999902    2    1    2    0    0  0.22713826681E-01 -0.35923556618E-02 -0.53819467457E-02  0.10203124580E+01  0.10200390794E+01 0.  0.
     999903    2    3    3    0    0 -0.59708020784E-02  0.11629554852E+00  0.53568571085E-01  0.12976707390E+00  0.20238492459E-01 0.  0.
         14    1    1    2    0    0 -0.22713826681E-01  0.35923556618E-02  0.53819467457E-02  0.23617542050E-01  0.00000000000E+00 0. -1.
     999901    1    3    3    0    0  0.28684628760E-01 -0.11988790419E+00 -0.58950517831E-01  0.89054538405E+00  0.88000000000E+00 0. -1.
        -11    1    4    4    0    0 -0.44013182463E-02  0.14886943707E-01  0.13964322074E-01  0.20886744773E-01  0.51100000000E-03 0. -1.
         11    1    4    4    0    0 -0.15694838321E-02  0.10140860482E+00  0.39604249011E-01  0.10888032913E+00  0.51100000000E-03 0.  1.
</event>
<event>
 8    1  0.1146431E+005  0.1043930E+01  0.7957747E-01            NaN
         13   -1    0    0    0    0  0.00000000000E+00  0.00000000000E+00  0.74505805969E-08  0.10566000000E+00  0.10566000000E+00 0.  1.
     999900   -1    0    0    0    0 -0.00000000000E+00 -0.00000000000E+00 -0.74505805969E-08  0.93827000000E+00  0.93827000000E+00 0. -1.
     999902    2    1    2    0    0 -0.59306773070E-02 -0.22153048370E-01 -0.47457793018E-02  0.10205109286E+01  0.10202421783E+01 0.  0.
     999903    2    3    3    0    0  0.95610971955E-01 -0.61829654691E-01 -0.63286527654E-01  0.13185353742E+00  0.20391336178E-01 0.  0.
         14    1    1    2    0    0  0.59306773070E-02  0.22153048370E-01  0.47457793018E-02  0.23419071429E-01  0.00000000000E+00 0. -1.
     999901    1    3    3    0    0 -0.10154164926E+00  0.39676606321E-01  0.58540748352E-01  0.88865739115E+00  0.88000000000E+00 0.  1.
        -11    1    4    4    0    0  0.47804262111E-01 -0.42936854329E-01 -0.34400308359E-01  0.72886646732E-01  0.51100000000E-03 0.  1.
         11    1    4    4    0    0  0.47806709843E-01 -0.18892800362E-01 -0.28886219295E-01  0.58966890691E-01  0.51100000000E-03 0. -1.
</event>
<event>
 8    1  0.1146431E+005  0.1043930E+01  0.7957747E-01            NaN
         13   -1    0    0    0    0  0.00000000000E+00  0.00000000000E+00  0.74505805969E-08  0.10566000000E+00  0.10566000000E+00 0. -1.
     999900   -1    0    0    0    0 -0.00000000000E+00 -0.00000000000E+00 -0.74505805969E-08  0.93827000000E+00  0.93827000000E+00 0.  1.
     999902    2    1    2    0    0  0.14147096429E-02 -0.25641567519E-01 -0.15490364259E-02  0.10182027595E+01  0.10178776786E+01 0.  0.
     999903    2    3    3    0    0  0.63949059243E-01  0.49513769196E-01 -0.96712828405E-01  0.12768885351E+00  0.20247879259E-01 0.  0.
         14    1    1    2    0    0 -0.14147096429E-02  0.25641567519E-01  0.15490364259E-02  0.25727240467E-01  0.00000000000E+00 0.  1.
     999901    1    3    3    0    0 -0.62534349600E-01 -0.75155336715E-01  0.95163791979E-01  0.89051390602E+00  0.88000000000E+00 0. -1.
        -11    1    4    4    0    0  0.53512149440E-02  0.23959956164E-02 -0.99633949970E-03  0.59690962272E-02  0.51100000000E-03 0. -1.
         11    1    4    4    0    0  0.58597844299E-01  0.47117773580E-01 -0.95716488905E-01  0.12171975728E+00  0.51100000000E-03 0.  1.
</event>
<event>
 8    1  0.1146431E+005  0.1043930E+01  0.7957747E-01            NaN
         13   -1    0    0    0    0  0.00000000000E+00  0.00000000000E+00  0.74505805969E-08  0.10566000000E+00  0.10566000000E+00 0.  1.
     999900   -1    0    0    0    0 -0.00000000000E+00 -0.00000000000E+00 -0.74505805969E-08  0.93827000000E+00  0.93827000000E+00 0.  1.
     999902    2    1    2    0    0  0.15991951000E-01  0.17283282671E-01 -0.54039572947E-02  0.10197710035E+01  0.10194847927E+01 0.  0.
     999903    2    3    3    0    0  0.12554695496E-01  0.11338691172E+00  0.62943166498E-01  0.13189767270E+00  0.20516864442E-01 0.  0.
         14    1    1    2    0    0 -0.15991951000E-01 -0.17283282671E-01  0.54039572947E-02  0.24158996484E-01  0.00000000000E+00 0. -1.
     999901    1    3    3    0    0  0.34372555044E-02 -0.96103629049E-01 -0.68347123793E-01  0.88787333082E+00  0.88000000000E+00 0.  1.
        -11    1    4    4    0    0 -0.49792073914E-02  0.17553242786E-01  0.13059389005E-01  0.22443653908E-01  0.51100000000E-03 0. -1.
         11    1    4    4    0    0  0.17533902887E-01  0.95833668934E-01  0.49883777493E-01  0.10945401879E+00  0.51100000000E-03 0.  1.
</event>
<event>
 8    1  0.1146431E+005  0.1043930E+01  0.7957747E-01            NaN
         13   -1    0    0    0    0  0.00000000000E+00  0.00000000000E+00  0.74505805969E-08  0.10566000000E+00  0.10566000000E+00 0.  1.
     999900   -1    0    0    0    0 -0.00000000000E+00 -0.00000000000E+00 -0.74505805969E-08  0.93827000000E+00  0.93827000000E+00 0.  1.
     999902    2    1    2    0    0 -0.19939128747E-01 -0.87048139383E-02  0.86344196598E-02  0.10205228250E+01  0.10202543508E+01 0.  0.
     999903    2    3    3    0    0  0.41219710573E-01  0.12028567118E+00  0.11516471615E-01  0.12901440934E+00  0.18557517872E-01 0.  0.
         14    1    1    2    0    0  0.19939128747E-01  0.87048139383E-02 -0.86344196598E-02  0.23407175049E-01  0.00000000000E+00 0. -1.
     999901    1    3    3    0    0 -0.61158839321E-01 -0.12899048511E+00 -0.28820519555E-02  0.89150841561E+00  0.88000000000E+00 0.  1.
        -11    1    4    4    0    0  0.18063647357E-01  0.61120867652E-01  0.14657195074E-01  0.65399925893E-01  0.51100000000E-03 0. -1.
         11    1    4    4    0    0  0.23156063216E-01  0.59164803524E-01 -0.31407234592E-02  0.63614483450E-01  0.51100000000E-03 0.  1.
</event>
<event>
 8    1  0.1146431E+005  0.1043930E+01  0.7957747E-01            NaN
         13   -1    0    0    0    0  0.00000000000E+00  0.00000000000E+00  0.74505805969E-08  0.10566000000E+00  0.10566000000E+00 0.  1.
     999900   -1    0    0    0    0 -0.00000000000E+00 -0.00000000000E+00 -0.74505805969E-08  0.93827000000E+00  0.93827000000E+00 0.  1.
     999902    2    1    2    0    0  0.14777850973E-01 -0.17817527324E-01 -0.47523295763E-02  0.10202987961E+01  0.10200250975E+01 0.  0.
     999903    2    3    3    0    0  0.40652550660E-01 -0.12506356635E+00  0.77641579391E-02  0.13332197828E+00  0.20516876974E-01 0.  0.
         14    1    1    2    0    0 -0.14777850973E-01  0.17817527324E-01  0.47523295763E-02  0.23631203857E-01  0.00000000000E+00 0.  1.
     999901    1    3    3    0    0 -0.25874699687E-01  0.10724603902E+00 -0.12516487515E-01  0.88697681787E+00  0.88000000000E+00 0. -1.
        -11    1    4    4    0    0  0.20720084035E-04 -0.17973138325E-01  0.53363200092E-02  0.18755574180E-01  0.51100000000E-03 0.  1.
         11    1    4    4    0    0  0.40631830576E-01 -0.10709042802E+00  0.24278379299E-02  0.11456640410E+00  0.51100000000E-03 0. -1.
</event>
<event>
 8    1  0.1146431E+005  0.1043930E+01  0.7957747E-01            NaN
         13   -1    0    0    0    0  0.00000000000E+00  0.00000000000E+00  0.74505805969E-08  0.10566000000E+00  0.10566000000E+00 0. -1.
     999900   -1    0    0    0    0 -0.00000000000E+00 -0.00000000000E+00 -0.74505805969E-08  0.93827000000E+00  0.93827000000E+00 0. -1.
     999902    2    1    2    0    0 -0.35924188621E-02  0.74209047069E-02 -0.20147291987E-01  0.10221610158E+01  0.10219291822E+01 0.  0.
     999903    2    3    3    0    0  0.88813845913E-01  0.95091928860E-01  0.11542428356E-01  0.13242545695E+00  0.21746260305E-01 0.  0.
         14    1    1    2    0    0  0.35924188621E-02 -0.74209047069E-02  0.20147291987E-01  0.21768984229E-01  0.00000000000E+00 0. -1.
     999901    1    3    3    0    0 -0.92406264775E-01 -0.87671024153E-01 -0.31689720343E-01  0.88973555882E+00  0.88000000000E+00 0. -1.
        -11    1    4    4    0    0  0.45263336865E-01  0.63511013677E-01  0.97350219185E-02  0.78596757536E-01  0.51100000000E-03 0.  1.
         11    1    4    4    0    0  0.43550509047E-01  0.31580915183E-01  0.18074064375E-02  0.53828699419E-01  0.51100000000E-03 0. -1.
</event>
<event>
 8    1  0.1146431E+005  0.1043930E+01  0.7957747E-01            NaN
         13   -1    0    0    0    0  0.00000000000E+00  0.00000000000E+00  0.74505805969E-08  0.10566000000E+00  0.10566000000E+00 0.  1.
     999900   -1    0    0    0    0 -0.00000000000E+00 -0.00000000000E+00 -0.74505805969E-08  0.93827000000E+00  0.93827000000E+00 0.  1.
     999902    2    1    2    0    0 -0.22682326554E-02 -0.22829081451E-01  0.74644856575E-02  0.10198046941E+01  0.10195192905E+01 0.  0.
     999903    2    3    3    0    0 -0.10653052040E+00 -0.51754117813E-01 -0.52491816671E-01  0.13115288344E+00  0.20455990091E-01 0.  0.
         14    1    1    2    0    0  0.22682326554E-02  0.22829081451E-01 -0.74644856575E-02  0.24125305914E-01  0.00000000000E+00 0. -1.
     999901    1    3    3    0    0  0.10426228774E+00  0.28925036362E-01  0.59956302328E-01  0.88865181065E+00  0.88000000000E+00 0. -1.
        -11    1    4    4    0    0 -0.18164870582E-01 -0.24617933517E-02 -0.32575767434E-02  0.18625140993E-01  0.51100000000E-03 0. -1.
         11    1    4    4    0    0 -0.88365649816E-01 -0.49292324462E-01 -0.49234239927E-01  0.11252774245E+00  0.51100000000E-03 0.  1.
</event>
<event>
 8    1  0.1146431E+005  0.1043930E+01  0.7957747E-01            NaN
         13   -1    0    0    0    0  0.00000000000E+00  0.00000000000E+00  0.74505805969E-08  0.10566000000E+00  0.10566000000E+00 0. -1.
     999900   -1    0    0    0    0 -0.00000000000E+00 -0.00000000000E+00 -0.74505805969E-08  0.93827000000E+00  0.93827000000E+00 0.  1.
     999902    2    1    2    0    0  0.10631870279E-01 -0.10869751164E-01 -0.17702481413E-01  0.10205940620E+01  0.10203272383E+01 0.  0.
     999903    2    3    3    0    0 -0.65531591499E-01  0.41778577508E-01 -0.10413952935E+00  0.13152483930E+00  0.20344600224E-01 0.  0.
         14    1    1    2    0    0 -0.10631870279E-01  0.10869751164E-01  0.17702481413E-01  0.23335938039E-01  0.00000000000E+00 0. -1.
     999901    1    3    3    0    0  0.76163461779E-01 -0.52648328672E-01  0.86437047933E-01  0.88906922266E+00  0.88000000000E+00 0. -1.
        -11    1    4    4    0    0 -0.48194901160E-01  0.20325982886E-01 -0.61465206942E-01  0.80710141020E-01  0.51100000000E-03 0. -1.
         11    1    4    4    0    0 -0.17336690340E-01  0.21452594623E-01 -0.42674322403E-01  0.50814698283E-01  0.51100000000E-03 0.  1.
</event>
<event>
 8    1  0.1146431E+005  0.1043930E+01  0.7957747E-01            NaN
         13   -1    0    0    0    0  0.00000000000E+00  0.00000000000E+00  0.74505805969E-08  0.10566000000E+00  0.10566000000E+00 0.  1.
     999900   -1    0    0    0    0 -0.00000000000E+00 -0.00000000000E+00 -0.74505805969E-08  0.93827000000E+00  0.93827000000E+00 0. -1.
     999902    2    1    2    0    0 -0.22623440984E-01 -0.59593117345E-03  0.46290959523E-02  0.10208301354E+01  0.10205687442E+01 0.  0.
     999903    2    3    3    0    0 -0.69712035720E-01 -0.41002473514E-01 -0.10259901625E+00  0.13215252654E+00  0.19918869836E-01 0.  0.
         14    1    1    2    0    0  0.22623440984E-01  0.59593117345E-03 -0.46290959523E-02  0.23099864616E-01  0.00000000000E+00 0.  1.
     999901    1    3    3    0    0  0.47088594736E-01  0.40406542340E-01  0.10722811221E+00  0.88867760885E+00  0.88000000000E+00 0.  1.
        -11    1    4    4    0    0 -0.48976452408E-01 -0.23477737208E-01 -0.80661090699E-01  0.97243867203E-01  0.51100000000E-03 0.  1.
         11    1    4    4    0    0 -0.20735583312E-01 -0.17524736306E-01 -0.21937925555E-01  0.34908659334E-01  0.51100000000E-03 0. -1.
</event>
<event>
 8    1  0.1146431E+005  0.1043930E+01  0.7957747E-01            NaN
         13   -1    0    0    0    0  0.00000000000E+00  0.00000000000E+00  0.74505805969E-08  0.10566000000E+00  0.10566000000E+00 0.  1.
     999900   -1    0    0    0    0 -0.00000000000E+00 -0.00000000000E+00 -0.74505805969E-08  0.93827000000E+00  0.93827000000E+00 0. -1.
     999902    2    1    2    0    0 -0.44806229632E-02 -0.21171340082E-01  0.81204811783E-02  0.10208162846E+01  0.10205545763E+01 0.  0.
     999903    2    3    3    0    0  0.62402004762E-01  0.54851833302E-01  0.98502534540E-01  0.13041091384E+00  0.20038046898E-01 0.  0.
         14    1    1    2    0    0  0.44806229632E-02  0.21171340082E-01 -0.81204811783E-02  0.23113715356E-01  0.00000000000E+00 0. -1.
     999901    1    3    3    0    0 -0.66882627725E-01 -0.76023173383E-01 -0.90382053362E-01  0.89040537080E+00  0.88000000000E+00 0.  1.
        -11    1    4    4    0    0  0.41830307693E-01  0.28937590176E-01  0.71240365406E-01  0.87536332749E-01  0.51100000000E-03 0. -1.
         11    1    4    4    0    0  0.20571697068E-01  0.25914243125E-01  0.27262169134E-01  0.42874581093E-01  0.51100000000E-03 0.  1.
</event>
<event>
 8    1  0.1146431E+005  0.1043930E+01  0.7957747E-01            NaN
         13   -1    0    0    0    0  0.00000000000E+00  0.00000000000E+00  0.74505805969E-08  0.10566000000E+00  0.10566000000E+00 0.  1.
     999900   -1    0    0    0    0 -0.00000000000E+00 -0.00000000000E+00 -0.74505805969E-08  0.93827000000E+00  0.93827000000E+00 0. -1.
     999902    2    1    2    0    0  0.15413720603E-01  0.12258028794E-01 -0.12790914883E-01  0.10204470369E+01  0.10201768011E+01 0.  0.
     999903    2    3    3    0    0  0.34365686098E-01 -0.12318283866E+00 -0.12107799687E-01  0.12988324231E+00  0.19184517184E-01 0.  0.
         14    1    1    2    0    0 -0.15413720603E-01 -0.12258028794E-01  0.12790914883E-01  0.23482963107E-01  0.00000000000E+00 0.  1.
     999901    1    3    3    0    0 -0.18951965495E-01  0.13544086745E+00 -0.68311519589E-03  0.89056379458E+00  0.88000000000E+00 0.  1.
        -11    1    4    4    0    0  0.24773461304E-02 -0.44558740642E-02 -0.43184057615E-02  0.67008810500E-02  0.51100000000E-03 0. -1.
         11    1    4    4    0    0  0.31888339967E-01 -0.11872696459E+00 -0.77893939259E-02  0.12318236126E+00  0.51100000000E-03 0.  1.
</event>
<event>
 8    1  0.1146431E+005  0.1043930E+01  0.7957747E-01            NaN
         13   -1    0    0    0    0  0.00000000000E+00  0.00000000000E+00  0.74505805969E-08  0.10566000000E+00  0.10566000000E+00 0.  1.
     999900   -1    0    0    0    0 -0.00000000000E+00 -0.00000000000E+00 -0.74505805969E-08  0.93827000000E+00  0.93827000000E+00 0. -1.
     999902    2    1    2    0    0  0.21491148127E-02  0.11174451122E-01 -0.21592607095E-01  0.10195224656E+01  0.10192302636E+01 0.  0.
     999903    2    3    3    0    0  0.85308344564E-01 -0.45556971606E-01 -0.86481615873E-01  0.13140958133E+00  0.20891550138E-01 0.  0.
         14    1    1    2    0    0 -0.21491148127E-02 -0.11174451122E-01  0.21592607095E-01  0.24407534360E-01  0.00000000000E+00 0.  1.
     999901    1    3    3    0    0 -0.83159229751E-01  0.56731422728E-01  0.64889008777E-01  0.88811288431E+00  0.88000000000E+00 0. -1.
        -11    1    4    4    0    0  0.48975865269E-01 -0.37033155676E-01 -0.49535170594E-01  0.78892865615E-01  0.51100000000E-03 0. -1.
         11    1    4    4    0    0  0.36332479295E-01 -0.85238159294E-02 -0.36946445278E-01  0.52516715714E-01  0.51100000000E-03 0.  1.
</event>
<event>
 8    1  0.1146431E+005  0.1043930E+01  0.7957747E-01            NaN
         13   -1    0    0    0    0  0.00000000000E+00  0.00000000000E+00  0.74505805969E-08  0.10566000000E+00  0.10566000000E+00 0. -1.
     999900   -1    0    0    0    0 -0.00000000000E+00 -0.00000000000E+00 -0.74505805969E-08  0.93827000000E+00  0.93827000000E+00 0.  1.
     999902    2    1    2    0    0 -0.18833881786E-02 -0.22893307920E-01 -0.15318912853E-01  0.10163198607E+01  0.10159447522E+01 0.  0.
     999903    2    3    3    0    0 -0.43299776364E-01  0.10068475780E+00 -0.58253128429E-01  0.12568514191E+00  0.19774651364E-01 0.  0.
         14    1    1    2    0    0  0.18833881786E-02  0.22893307920E-01  0.15318912853E-01  0.27610139253E-01  0.00000000000E+00 0. -1.
     999901    1    3    3    0    0  0.41416388185E-01 -0.12357806573E+00  0.42934215576E-01  0.89063471884E+00  0.88000000000E+00 0. -1.
        -11    1    4    4    0    0 -0.33580885753E-01  0.89999672800E-01 -0.45015877339E-01  0.10608632016E+00  0.51100000000E-03 0. -1.
         11    1    4    4    0    0 -0.97188906114E-02  0.10685085005E-01 -0.13237251091E-01  0.19598821743E-01  0.51100000000E-03 0.  1.
</event>
<event>
 8    1  0.1146431E+005  0.1043930E+01  0.7957747E-01            NaN
         13   -1    0    0    0    0  0.00000000000E+00  0.00000000000E+00  0.74505805969E-08  0.10566000000E+00  0.10566000000E+00 0. -1.
     999900   -1    0    0    0    0 -0.00000000000E+00 -0.00000000000E+00 -0.74505805969E-08  0.93827000000E+00  0.93827000000E+00 0.  1.
     999902    2    1    2    0    0  0.90418517623E-03 -0.23275742369E-01  0.23138571841E-02  0.10205220597E+01  0.10202535678E+01 0.  0.
     999903    2    3    3    0    0 -0.12369385680E+00 -0.25598132503E-01 -0.28771728898E-01  0.13119850822E+00  0.20731656468E-01 0.  0.
         14    1    1    2    0    0 -0.90418517623E-03  0.23275742369E-01 -0.23138571841E-02  0.23407940293E-01  0.00000000000E+00 0.  1.
     999901    1    3    3    0    0  0.12459804197E+00  0.23223901338E-02  0.31085586082E-01  0.88932355148E+00  0.88000000000E+00 0. -1.
        -11    1    4    4    0    0 -0.10087600522E-01  0.25966635307E-02  0.82317012577E-03  0.10461408884E-01  0.51100000000E-03 0.  1.
         11    1    4    4    0    0 -0.11360625627E+00 -0.28194796034E-01 -0.29594899024E-01  0.12073709934E+00  0.51100000000E-03 0. -1.
</event>
<event>
 8    1  0.1146431E+005  0.1043930E+01  0.7957747E-01            NaN
         13   -1    0    0    0    0  0.00000000000E+00  0.00000000000E+00  0.74505805969E-08  0.10566000000E+00  0.10566000000E+00 0.  1.
     999900   -1    0    0    0    0 -0.00000000000E+00 -0.00000000000E+00 -0.74505805969E-08  0.93827000000E+00  0.93827000000E+00 0.  1.
     999902    2    1    2    0    0  0.11886253896E-02  0.27093528600E-02  0.23249943910E-01  0.10204925659E+01  0.10202233892E+01 0.  0.
     999903    2    3    3    0    0  0.87231701484E-01  0.87218582418E-01 -0.36116786437E-01  0.13028493314E+00  0.21290624210E-01 0.  0.
         14    1    1    2    0    0 -0.11886253896E-02 -0.27093528600E-02 -0.23249943910E-01  0.23437434055E-01  0.00000000000E+00 0. -1.
     999901    1    3    3    0    0 -0.86043076094E-01 -0.84509229558E-01  0.59366730347E-01  0.89020763280E+00  0.88000000000E+00 0. -1.
        -11    1    4    4    0    0  0.40447828924E-01  0.25958907721E-01 -0.12438059929E-01  0.49647338403E-01  0.51100000000E-03 0. -1.
         11    1    4    4    0    0  0.46783872560E-01  0.61259674697E-01 -0.23678726508E-01  0.80637594741E-01  0.51100000000E-03 0.  1.
</event>
<event>
 8    1  0.1146431E+005  0.1043930E+01  0.7957747E-01            NaN
         13   -1    0    0    0    0  0.00000000000E+00  0.00000000000E+00  0.74505805969E-08  0.10566000000E+00  0.10566000000E+00 0.  1.
     999900   -1    0    0    0    0 -0.00000000000E+00 -0.00000000000E+00 -0.74505805969E-08  0.93827000000E+00  0.93827000000E+00 0.  1.
     999902    2    1    2    0    0  0.17520480009E-01 -0.53119492893E-02 -0.24996848453E-02  0.10254521092E+01  0.10252856167E+01 0.  0.
     999903    2    3    3    0    0  0.41623146671E-01  0.69452635822E-01 -0.10718826847E+00  0.13577217725E+00  0.19713047877E-01 0.  0.
         14    1    1    2    0    0 -0.17520480009E-01  0.53119492893E-02  0.24996848453E-02  0.18477890825E-01  0.00000000000E+00 0.  1.
     999901    1    3    3    0    0 -0.24102666661E-01 -0.74764585111E-01  0.10468858362E+00  0.88967993192E+00  0.88000000000E+00 0. -1.
        -11    1    4    4    0    0  0.32975729217E-01  0.57081093228E-01 -0.72795345903E-01  0.98209334728E-01  0.51100000000E-03 0. -1.
         11    1    4    4    0    0  0.86474174534E-02  0.12371542594E-01 -0.34392922566E-01  0.37562842523E-01  0.51100000000E-03 0.  1.
</event>
<event>
 8    1  0.1146431E+005  0.1043930E+01  0.7957747E-01            NaN
         13   -1    0    0    0    0  0.00000000000E+00  0.00000000000E+00  0.74505805969E-08  0.10566000000E+00  0.10566000000E+00 0.  1.
     999900   -1    0    0    0    0 -0.00000000000E+00 -0.00000000000E+00 -0.74505805969E-08  0.93827000000E+00  0.93827000000E+00 0.  1.
     999902    2    1    2    0    0  0.22598798409E-01  0.11985901532E-01  0.36210400658E-02  0.10180943762E+01  0.10177665152E+01 0.  0.
     999903    2    3    3    0    0  0.74329048061E-01  0.75304293575E-01  0.75178089427E-01  0.13141199294E+00  0.20538323748E-01 0.  0.
         14    1    1    2    0    0 -0.22598798409E-01 -0.11985901532E-01 -0.36210400658E-02  0.25835623782E-01  0.00000000000E+00 0.  1.
     999901    1    3    3    0    0 -0.51730249652E-01 -0.63318392043E-01 -0.71557049361E-01  0.88668238328E+00  0.88000000000E+00 0.  1.
        -11    1    4    4    0    0  0.45716381397E-01  0.38817984788E-01  0.31659055459E-01  0.67818731812E-01  0.51100000000E-03 0. -1.
         11    1    4    4    0    0  0.28612666664E-01  0.36486308787E-01  0.43519033968E-01  0.63593261129E-01  0.51100000000E-03 0.  1.
</event>
<event>
 7    1  0.1146431E+005  0.1043930E+01  0.7957747E-01            NaN
         13   -1    0    0    0    0  0.00000000000E+00  0.00000000000E+00  0.74505805969E-08  0.10566000000E+00  0.10566000000E+00 0. -1.
     999900   -1    0    0    0    0 -0.00000000000E+00 -0.00000000000E+00 -0.74505805969E-08  0.93827000000E+00  0.93827000000E+00 0.  1.
     999903    2    1    2    0    0 -0.56665482914E-01 -0.11663904301E-01  0.97769581163E-01  0.11541910381E+00  0.20387616496E-01 0.  0.
         14    1    1    2    0    0  0.46325605925E-02  0.29282436930E-01 -0.33090699559E-01  0.44428775895E-01  0.00000000000E+00 0.  1.
     999901    1    1    2    0    0  0.52032922321E-01 -0.17618532629E-01 -0.64678881604E-01  0.88408212029E+00  0.88000000000E+00 0.  1.
        -11    1    3    3    0    0 -0.99451396515E-02 -0.98015513591E-02  0.16165536143E-01  0.21367308944E-01  0.51100000000E-03 0.  1.
         11    1    3    3    0    0 -0.46720343262E-01 -0.18623529421E-02  0.81604045021E-01  0.94051794867E-01  0.51100000000E-03 0. -1.
</event>
<event>
 8    1  0.1146431E+005  0.1043930E+01  0.7957747E-01            NaN
         13   -1    0    0    0    0  0.00000000000E+00  0.00000000000E+00  0.74505805969E-08  0.10566000000E+00  0.10566000000E+00 0.  1.
     999900   -1    0    0    0    0 -0.00000000000E+00 -0.00000000000E+00 -0.74505805969E-08  0.93827000000E+00  0.93827000000E+00 0. -1.
     999902    2    1    2    0    0 -0.23540180105E-01 -0.21610540553E-02 -0.21622045530E-02  0.10201921534E+01  0.10199159497E+01 0.  0.
     999903    2    3    3    0    0 -0.82317959465E-01 -0.93184213901E-01 -0.41460703965E-01  0.13267628589E+00  0.20602492417E-01 0.  0.
         14    1    1    2    0    0  0.23540180105E-01  0.21610540553E-02  0.21622045530E-02  0.23737846628E-01  0.00000000000E+00 0.  1.
     999901    1    3    3    0    0  0.58777779361E-01  0.91023159846E-01  0.39298499412E-01  0.88751586748E+00  0.88000000000E+00 0.  1.
        -11    1    4    4    0    0 -0.10445051234E-01 -0.21839225591E-01 -0.32311960492E-02  0.24428520598E-01  0.51100000000E-03 0. -1.
         11    1    4    4    0    0 -0.71872908231E-01 -0.71344988310E-01 -0.38229507916E-01  0.10824776529E+00  0.51100000000E-03 0.  1.
</event>
<event>
 7    1  0.1146431E+005  0.1043930E+01  0.7957747E-01            NaN
         13   -1    0    0    0    0  0.00000000000E+00  0.00000000000E+00  0.74505805969E-08  0.10566000000E+00  0.10566000000E+00 0.  1.
     999900   -1    0    0    0    0 -0.00000000000E+00 -0.00000000000E+00 -0.74505805969E-08  0.93827000000E+00  0.93827000000E+00 0.  1.
     999903    2    1    2    0    0 -0.67842261760E-01 -0.71090417682E-01  0.31057510311E-01  0.10477042500E+00  0.18864067434E-01 0.  0.
         14    1    1    2    0    0  0.36413448021E-01 -0.56376216203E-02  0.37542637631E-01  0.52603912541E-01  0.00000000000E+00 0.  1.
     999901    1    1    2    0    0  0.31428813739E-01  0.76728039302E-01 -0.68600147942E-01  0.88655566246E+00  0.88000000000E+00 0.  1.
        -11    1    3    3    0    0 -0.44993024414E-01 -0.38969194016E-01  0.10977839211E-01  0.60528872473E-01  0.51100000000E-03 0.  1.
         11    1    3    3    0    0 -0.22849237346E-01 -0.32121223666E-01  0.20079671100E-01  0.44241552523E-01  0.51100000000E-03 0. -1.
</event>
<event>
 8    1  0.1146431E+005  0.1043930E+01  0.7957747E-01            NaN
         13   -1    0    0    0    0  0.00000000000E+00  0.00000000000E+00  0.74505805969E-08  0.10566000000E+00  0.10566000000E+00 0.  1.
     999900   -1    0    0    0    0 -0.00000000000E+00 -0.00000000000E+00 -0.74505805969E-08  0.93827000000E+00  0.93827000000E+00 0.  1.
     999902    2    1    2    0    0  0.79957351038E-02 -0.16175199277E-02  0.22027274973E-01  0.10204406621E+01  0.10201702779E+01 0.  0.
     999903    2    3    3    0    0 -0.12906418498E-01  0.35504701435E-01  0.12621178252E+00  0.13327135983E+00  0.20116705524E-01 0.  0.
         14    1    1    2    0    0 -0.79957351038E-02  0.16175199277E-02 -0.22027274973E-01  0.23489337864E-01  0.00000000000E+00 0. -1.
     999901    1    3    3    0    0  0.20902153602E-01 -0.37122221363E-01 -0.10418450755E+00  0.88716930231E+00  0.88000000000E+00 0.  1.
        -11    1    4    4    0    0 -0.17549043236E-01  0.23186338030E-01  0.76446091783E-01  0.81791449796E-01  0.51100000000E-03 0.  1.
         11    1    4    4    0    0  0.46426247384E-02  0.12318363405E-01  0.49765690736E-01  0.51479910032E-01  0.51100000000E-03 0. -1.
</event>
<event>
 8    1  0.1146431E+005  0.1043930E+01  0.7957747E-01            NaN
         13   -1    0    0    0    0  0.00000000000E+00  0.00000000000E+00  0.74505805969E-08  0.10566000000E+00  0.10566000000E+00 0.  1.
     999900   -1    0    0    0    0 -0.00000000000E+00 -0.00000000000E+00 -0.74505805969E-08  0.93827000000E+00  0.93827000000E+00 0. -1.
     999902    2    1    2    0    0  0.11427347415E-01  0.17620179178E-01  0.11679078859E-01  0.10198996886E+01  0.10196165549E+01 0.  0.
     999903    2    3    3    0    0 -0.81597471417E-01 -0.16992136739E-01  0.97982469288E-01  0.13012448972E+00  0.19619849257E-01 0.  0.
         14    1    1    2    0    0 -0.11427347415E-01 -0.17620179178E-01 -0.11679078859E-01  0.24030311405E-01  0.00000000000E+00 0. -1.
     999901    1    3    3    0    0  0.93024818832E-01  0.34612315918E-01 -0.86303390429E-01  0.88977519887E+00  0.88000000000E+00 0. -1.
        -11    1    4    4    0    0 -0.31023846254E-01 -0.15653840694E-01  0.45114398812E-01  0.56948150682E-01  0.51100000000E-03 0. -1.
         11    1    4    4    0    0 -0.50573625163E-01 -0.13382960453E-02  0.52868070476E-01  0.73176339040E-01  0.51100000000E-03 0.  1.
</event>
<event>
 8    1  0.1146431E+005  0.1043930E+01  0.7957747E-01            NaN
         13   -1    0    0    0    0  0.00000000000E+00  0.00000000000E+00  0.74505805969E-08  0.10566000000E+00  0.10566000000E+00 0. -1.
     999900   -1    0    0    0    0 -0.00000000000E+00 -0.00000000000E+00 -0.74505805969E-08  0.93827000000E+00  0.93827000000E+00 0. -1.
     999902    2    1    2    0    0 -0.17978936549E-01  0.12658608743E-01 -0.10788060024E-01  0.10194378630E+01  0.10191436070E+01 0.  0.
     999903    2    3    3    0    0 -0.12274249621E+00 -0.62076906217E-02  0.42560846865E-01  0.13141903070E+00  0.18848876507E-01 0.  0.
         14    1    1    2    0    0  0.17978936549E-01 -0.12658608743E-01  0.10788060024E-01  0.24492136980E-01  0.00000000000E+00 0.  1.
     999901    1    3    3    0    0  0.10476355966E+00  0.18866299365E-01 -0.53348906889E-01  0.88801883232E+00  0.88000000000E+00 0.  1.
        -11    1    4    4    0    0 -0.29826106638E-01  0.16006482347E-02  0.18433140475E-01  0.35102713580E-01  0.51100000000E-03 0.  1.
         11    1    4    4    0    0 -0.92916389575E-01 -0.78083388564E-02  0.24127706390E-01  0.96316317122E-01  0.51100000000E-03 0. -1.
</event>
<event>
 8    1  0.1146431E+005  0.1043930E+01  0.7957747E-01            NaN
         13   -1    0    0    0    0  0.00000000000E+00  0.00000000000E+00  0.74505805969E-08  0.10566000000E+00  0.10566000000E+00 0.  1.
     999900   -1    0    0    0    0 -0.00000000000E+00 -0.00000000000E+00 -0.74505805969E-08  0.93827000000E+00  0.93827000000E+00 0. -1.
     999902    2    1    2    0    0  0.13343742879E-01 -0.85316443037E-03  0.13535070375E-01  0.10249041888E+01  0.10247275807E+01 0.  0.
     999903    2    3    3    0    0 -0.56095509903E-01 -0.10787598547E+00 -0.51003253192E-01  0.13336569308E+00  0.20028524221E-01 0.  0.
         14    1    1    2    0    0 -0.13343742879E-01  0.85316443037E-03 -0.13535070375E-01  0.19025811247E-01  0.00000000000E+00 0. -1.
     999901    1    3    3    0    0  0.69439252783E-01  0.10702282104E+00  0.64538323566E-01  0.89153849567E+00  0.88000000000E+00 0.  1.
        -11    1    4    4    0    0 -0.45368929084E-01 -0.78435151498E-01 -0.29247423001E-01  0.95215994402E-01  0.51100000000E-03 0. -1.
         11    1    4    4    0    0 -0.10726580819E-01 -0.29440833975E-01 -0.21755830191E-01  0.38149698682E-01  0.51100000000E-03 0.  1.
</event>
<event>
 8    1  0.1146431E+005  0.1043930E+01  0.7957747E-01            NaN
         13   -1    0    0    0    0  0.00000000000E+00  0.00000000000E+00  0.74505805969E-08  0.10566000000E+00  0.10566000000E+00 0. -1.
     999900   -1    0    0    0    0 -0.00000000000E+00 -0.00000000000E+00 -0.74505805969E-08  0.93827000000E+00  0.93827000000E+00 0.  1.
     999902    2    1    2    0    0 -0.18226541180E-01  0.35329092245E-02  0.14598297769E-01  0.10203122408E+01  0.10200388572E+01 0.  0.
     999903    2    3    3    0    0  0.81866684144E-01  0.94488598019E-01  0.28535900124E-01  0.12987086272E+00  0.20540064709E-01 0.  0.
         14    1    1    2    0    0  0.18226541180E-01 -0.35329092245E-02 -0.14598297769E-01  0.23617759181E-01  0.00000000000E+00 0. -1.
     999901    1    3    3    0    0 -0.10009322532E+00 -0.90955688795E-01 -0.13937602355E-01  0.89044137810E+00  0.88000000000E+00 0.  1.
        -11    1    4    4    0    0  0.25753424849E-01  0.17047724562E-01  0.99038339045E-02  0.32437799728E-01  0.51100000000E-03 0.  1.
         11    1    4    4    0    0  0.56113259295E-01  0.77440873458E-01  0.18632066219E-01  0.97433062988E-01  0.51100000000E-03 0. -1.
</event>
<event>
 8    1  0.1146431E+005  0.1043930E+01  0.7957747E-01            NaN
         13   -1    0    0    0    0  0.00000000000E+00  0.00000000000E+00  0.74505805969E-08  0.10566000000E+00  0.10566000000E+00 0. -1.
     999900   -1    0    0    0    0 -0.00000000000E+00 -0.00000000000E+00 -0.74505805969E-08  0.93827000000E+00  0.93827000000E+00 0. -1.
     999902    2    1    2    0    0 -0.70740883675E-02  0.62459355050E-03  0.22351305024E-01  0.10204776296E+01  0.10202081056E+01 0.  0.
     999903    2    3    3    0    0  0.11456795622E+00 -0.57542078396E-01  0.17641963504E-02  0.12996992168E+00  0.21264072388E-01 0.  0.
         14    1    1    2    0    0  0.70740883675E-02 -0.62459355050E-03 -0.22351305024E-01  0.23452370447E-01  0.00000000000E+00 0.  1.
     999901    1    3    3    0    0 -0.12164204459E+00  0.58166671947E-01  0.20587108673E-01  0.89050770787E+00  0.88000000000E+00 0.  1.
        -11    1    4    4    0    0  0.53613070112E-01 -0.38738415421E-01  0.20559891419E-02  0.66177899094E-01  0.51100000000E-03 0. -1.
         11    1    4    4    0    0  0.60954886107E-01 -0.18803662975E-01 -0.29179279149E-03  0.63792022586E-01  0.51100000000E-03 0.  1.
</event>
<event>
 8    1  0.1146431E+005  0.1043930E+01  0.7957747E-01            NaN
         13   -1    0    0    0    0  0.00000000000E+00  0.00000000000E+00  0.74505805969E-08  0.10566000000E+00  0.10566000000E+00 0.  1.
     999900   -1    0    0    0    0 -0.00000000000E+00 -0.00000000000E+00 -0.74505805969E-08  0.93827000000E+00  0.93827000000E+00 0. -1.
     999902    2    1    2    0    0  0.81854906461E-03  0.14364855598E-01 -0.19035686655E-01  0.10200683893E+01  0.10197892637E+01 0.  0.
     999903    2    3    3    0    0  0.12765999205E-01 -0.12105694036E+00 -0.39333941658E-01  0.12939795443E+00  0.19465818777E-01 0.  0.
         14    1    1    2    0    0 -0.81854906461E-03 -0.14364855598E-01  0.19035686655E-01  0.23861610703E-01  0.00000000000E+00 0. -1.
     999901    1    3    3    0    0 -0.11947450140E-01  0.13542179596E+00  0.20298255004E-01  0.89067043486E+00  0.88000000000E+00 0. -1.
        -11    1    4    4    0    0 -0.50091510141E-02 -0.18804745772E-01 -0.70811281839E-02  0.20715056234E-01  0.51100000000E-03 0. -1.
         11    1    4    4    0    0  0.17775150219E-01 -0.10225219459E+00 -0.32252813474E-01  0.10868289820E+00  0.51100000000E-03 0.  1.
</event>
<event>
 8    1  0.1146431E+005  0.1043930E+01  0.7957747E-01            NaN
         13   -1    0    0    0    0  0.00000000000E+00  0.00000000000E+00  0.74505805969E-08  0.10566000000E+00  0.10566000000E+00 0.  1.
     999900   -1    0    0    0    0 -0.00000000000E+00 -0.00000000000E+00 -0.74505805969E-08  0.93827000000E+00  0.93827000000E+00 0.  1.
     999902    2    1    2    0    0  0.20871606191E-01  0.62231374723E-02  0.74627655688E-02  0.10209073100E+01  0.10206476823E+01 0.  0.
     999903    2    3    3    0    0  0.60163112716E-01 -0.10695114883E+00 -0.42677602015E-01  0.13137580520E+00  0.19495540820E-01 0.  0.
         14    1    1    2    0    0 -0.20871606191E-01 -0.62231374723E-02 -0.74627655688E-02  0.23022690002E-01  0.00000000000E+00 0. -1.
     999901    1    3    3    0    0 -0.39291506525E-01  0.11317428630E+00  0.50140367584E-01  0.88953150480E+00  0.88000000000E+00 0. -1.
        -11    1    4    4    0    0  0.16464323095E-01 -0.24880805895E-01 -0.19180321963E-01  0.35472162446E-01  0.51100000000E-03 0.  1.
         11    1    4    4    0    0  0.43698789620E-01 -0.82070342930E-01 -0.23497280052E-01  0.95903642756E-01  0.51100000000E-03 0. -1.
</event>
<event>
 8    1  0.1146431E+005  0.1043930E+01  0.7957747E-01            NaN
         13   -1    0    0    0    0  0.00000000000E+00  0.00000000000E+00  0.74505805969E-08  0.10566000000E+00  0.10566000000E+00 0.  1.
     999900   -1    0    0    0    0 -0.00000000000E+00 -0.00000000000E+00 -0.74505805969E-08  0.93827000000E+00  0.93827000000E+00 0.  1.
     999902    2    1    2    0    0 -0.69022064597E-02 -0.20383247298E-01  0.60427355366E-02  0.10215775532E+01  0.10213329846E+01 0.  0.
     999903    2    3    3    0    0 -0.37890673421E-01  0.53676608529E-01 -0.11052986748E+00  0.13026710275E+00  0.20875464542E-01 0.  0.
         14    1    1    2    0    0  0.69022064597E-02  0.20383247298E-01 -0.60427355366E-02  0.22352446783E-01  0.00000000000E+00 0.  1.
     999901    1    3    3    0    0  0.30988466961E-01 -0.74059855827E-01  0.11657260302E+00  0.89131045046E+00  0.88000000000E+00 0.  1.
        -11    1    4    4    0    0 -0.29628648137E-01  0.38121777873E-01 -0.61646642910E-01  0.78305149522E-01  0.51100000000E-03 0. -1.
         11    1    4    4    0    0 -0.82620252836E-02  0.15554830657E-01 -0.48883224569E-01  0.51961953233E-01  0.51100000000E-03 0.  1.
</event>
<event>
 8    1  0.1146431E+005  0.1043930E+01  0.7957747E-01            NaN
         13   -1    0    0    0    0  0.00000000000E+00  0.00000000000E+00  0.74505805969E-08  0.10566000000E+00  0.10566000000E+00 0. -1.
     999900   -1    0    0    0    0 -0.00000000000E+00 -0.00000000000E+00 -0.74505805969E-08  0.93827000000E+00  0.93827000000E+00 0. -1.
     999902    2    1    2    0    0  0.20058021769E-01 -0.35422180580E-02 -0.99338191146E-02  0.10212683075E+01  0.10210168478E+01 0.  0.
     999903    2    3    3    0    0 -0.66340830572E-01  0.26074907256E-01  0.10573901247E+00  0.12901153963E+00  0.19550754720E-01 0.  0.
         14    1    1    2    0    0 -0.20058021769E-01  0.35422180580E-02  0.99338191146E-02  0.22661692529E-01  0.00000000000E+00 0.  1.
     999901    1    3    3    0    0  0.86398852341E-01 -0.29617125315E-01 -0.11567283158E+00  0.89225676784E+00  0.88000000000E+00 0. -1.
        -11    1    4    4    0    0 -0.27349282668E-01  0.15354325298E-01  0.61727452116E-01  0.69240725253E-01  0.51100000000E-03 0. -1.
         11    1    4    4    0    0 -0.38991547904E-01  0.10720581958E-01  0.44011560351E-01  0.59770814375E-01  0.51100000000E-03 0.  1.
</event>
<event>
 8    1  0.1146431E+005  0.1043930E+01  0.7957747E-01            NaN
         13   -1    0    0    0    0  0.00000000000E+00  0.00000000000E+00  0.74505805969E-08  0.10566000000E+00  0.10566000000E+00 0. -1.
     999900   -1    0    0    0    0 -0.00000000000E+00 -0.00000000000E+00 -0.74505805969E-08  0.93827000000E+00  0.93827000000E+00 0.  1.
     999902    2    1    2    0    0  0.18016138493E-01 -0.11526144507E-01  0.10160734178E-01  0.10202514491E+01  0.10199766397E+01 0.  0.
     999903    2    3    3    0    0  0.14529145441E-02  0.12628255803E+00  0.23245451868E-01  0.12927625937E+00  0.14919945755E-01 0.  0.
         14    1    1    2    0    0 -0.18016138493E-01  0.11526144507E-01 -0.10160734178E-01  0.23678550894E-01  0.00000000000E+00 0.  1.
     999901    1    3    3    0    0  0.16563223949E-01 -0.13780870254E+00 -0.13084717690E-01  0.89097518973E+00  0.88000000000E+00 0.  1.
        -11    1    4    4    0    0 -0.65306135504E-02  0.42757347452E-01  0.84779777100E-02  0.44079211670E-01  0.51100000000E-03 0.  1.
         11    1    4    4    0    0  0.79835280945E-02  0.83525210580E-01  0.14767474158E-01  0.85197047703E-01  0.51100000000E-03 0. -1.
</event>
<event>
 8    1  0.1204680E+005  0.1043930E+01  0.7957747E-01            NaN
         13   -1    0    0    0    0  0.00000000000E+00  0.00000000000E+00  0.74505805969E-08  0.10566000000E+00  0.10566000000E+00 0.  1.
     999900   -1    0    0    0    0 -0.00000000000E+00 -0.00000000000E+00 -0.74505805969E-08  0.93827000000E+00  0.93827000000E+00 0.  1.
     999902    2    1    2    0    0 -0.21130194409E-01  0.24219710222E-02  0.85545942953E-02  0.10210055122E+01  0.10207481196E+01 0.  0.
     999903    2    3    3    0    0  0.34904164169E-01  0.10519730590E+00 -0.65005733263E-01  0.13021162994E+00  0.21084339465E-01 0.  0.
         14    1    1    2    0    0  0.21130194409E-01 -0.24219710222E-02 -0.85545942953E-02  0.22924487845E-01  0.00000000000E+00 0. -1.
     999901    1    3    3    0    0 -0.56034358578E-01 -0.10277533487E+00  0.73560327558E-01  0.89079388221E+00  0.88000000000E+00 0. -1.
        -11    1    4    4    0    0  0.16714036015E-01  0.45490491405E-01 -0.16625080593E-01  0.51238640048E-01  0.51100000000E-03 0.  1.
         11    1    4    4    0    0  0.18190128154E-01  0.59706814491E-01 -0.48380652671E-01  0.78972989893E-01  0.51100000000E-03 0. -1.
</event>
<event>
 8    1  0.1146431E+005  0.1043930E+01  0.7957747E-01            NaN
         13   -1    0    0    0    0  0.00000000000E+00  0.00000000000E+00  0.74505805969E-08  0.10566000000E+00  0.10566000000E+00 0.  1.
     999900   -1    0    0    0    0 -0.00000000000E+00 -0.00000000000E+00 -0.74505805969E-08  0.93827000000E+00  0.93827000000E+00 0. -1.
     999902    2    1    2    0    0 -0.14262680836E-01  0.18218151350E-01  0.12065001352E-01  0.10178361432E+01  0.10175016094E+01 0.  0.
     999903    2    3    3    0    0 -0.55311307184E-01 -0.34797128768E-01  0.11053811399E+00  0.12980879931E+00  0.19012334397E-01 0.  0.
         14    1    1    2    0    0  0.14262680836E-01 -0.18218151350E-01 -0.12065001352E-01  0.26093856765E-01  0.00000000000E+00 0.  1.
     999901    1    3    3    0    0  0.41048626348E-01  0.53015280118E-01 -0.98473112642E-01  0.88802734393E+00  0.88000000000E+00 0. -1.
        -11    1    4    4    0    0 -0.28463765696E-01 -0.72452541442E-02  0.52923567958E-01  0.60529702061E-01  0.51100000000E-03 0. -1.
         11    1    4    4    0    0 -0.26847541488E-01 -0.27551874624E-01  0.57614546036E-01  0.69279097246E-01  0.51100000000E-03 0.  1.
</event>
<event>
 8    1  0.1146431E+005  0.1043930E+01  0.7957747E-01            NaN
         13   -1    0    0    0    0  0.00000000000E+00  0.00000000000E+00  0.74505805969E-08  0.10566000000E+00  0.10566000000E+00 0.  1.
     999900   -1    0    0    0    0 -0.00000000000E+00 -0.00000000000E+00 -0.74505805969E-08  0.93827000000E+00  0.93827000000E+00 0. -1.
     999902    2    1    2    0    0  0.13563017589E-01  0.18208319237E-01 -0.50974481749E-02  0.10206602275E+01  0.10203949322E+01 0.  0.
     999903    2    3    3    0    0  0.12991049103E+00 -0.37062715288E-02  0.15663754545E-01  0.13248906638E+00  0.20433486580E-01 0.  0.
         14    1    1    2    0    0 -0.13563017589E-01 -0.18208319237E-01  0.50974481749E-02  0.23269772527E-01  0.00000000000E+00 0. -1.
     999901    1    3    3    0    0 -0.11634747344E+00  0.21914590766E-01 -0.20761202719E-01  0.88817116110E+00  0.88000000000E+00 0.  1.
        -11    1    4    4    0    0  0.61757006863E-01 -0.11892706022E-01  0.86667366663E-02  0.63488091786E-01  0.51100000000E-03 0. -1.
         11    1    4    4    0    0  0.68153484170E-01  0.81864344934E-02  0.69970178782E-02  0.69000974590E-01  0.51100000000E-03 0.  1.
</event>
<event>
 8    1  0.1146431E+005  0.1043930E+01  0.7957747E-01            NaN
         13   -1    0    0    0    0  0.00000000000E+00  0.00000000000E+00  0.74505805969E-08  0.10566000000E+00  0.10566000000E+00 0. -1.
     999900   -1    0    0    0    0 -0.00000000000E+00 -0.00000000000E+00 -0.74505805969E-08  0.93827000000E+00  0.93827000000E+00 0.  1.
     999902    2    1    2    0    0  0.19126017957E-01 -0.13323163323E-01  0.52020577449E-02  0.10200475242E+01  0.10197679045E+01 0.  0.
     999903    2    3    3    0    0  0.10831650345E+00  0.43234464553E-01 -0.57121911605E-01  0.13154429682E+00  0.20959613446E-01 0.  0.
         14    1    1    2    0    0 -0.19126017957E-01  0.13323163323E-01 -0.52020577449E-02  0.23882475763E-01  0.00000000000E+00 0.  1.
     999901    1    3    3    0    0 -0.89190485494E-01 -0.56557627876E-01  0.62323969349E-01  0.88850322742E+00  0.88000000000E+00 0. -1.
        -11    1    4    4    0    0  0.67799056432E-01  0.26518116001E-01 -0.24181249549E-01  0.76713209293E-01  0.51100000000E-03 0. -1.
         11    1    4    4    0    0  0.40517447018E-01  0.16716348552E-01 -0.32940662055E-01  0.54831087527E-01  0.51100000000E-03 0.  1.
</event>
<event>
 8    1  0.1146431E+005  0.1043930E+01  0.7957747E-01            NaN
         13   -1    0    0    0    0  0.00000000000E+00  0.00000000000E+00  0.74505805969E-08  0.10566000000E+00  0.10566000000E+00 0. -1.
     999900   -1    0    0    0    0 -0.00000000000E+00 -0.00000000000E+00 -0.74505805969E-08  0.93827000000E+00  0.93827000000E+00 0. -1.
     999902    2    1    2    0    0 -0.22195078814E-01 -0.61073544577E-02 -0.81377020224E-02  0.10195139500E+01  0.10192215416E+01 0.  0.
     999903    2    3    3    0    0 -0.21827764450E-01  0.12598398535E+00 -0.67249585900E-02  0.12965426850E+00  0.20410497440E-01 0.  0.
         14    1    1    2    0    0  0.22195078814E-01  0.61073544577E-02  0.81377020224E-02  0.24416049972E-01  0.00000000000E+00 0. -1.
     999901    1    3    3    0    0 -0.36731436387E-03 -0.13209133981E+00 -0.14127434325E-02  0.88985968153E+00  0.88000000000E+00 0. -1.
        -11    1    4    4    0    0 -0.19727810277E-01  0.60346750865E-01  0.12153128517E-02  0.63503188460E-01  0.51100000000E-03 0. -1.
         11    1    4    4    0    0 -0.20999541726E-02  0.65637234485E-01 -0.79402714417E-02  0.66151080036E-01  0.51100000000E-03 0.  1.
</event>
<event>
 8    1  0.1146431E+005  0.1043930E+01  0.7957747E-01            NaN
         13   -1    0    0    0    0  0.00000000000E+00  0.00000000000E+00  0.74505805969E-08  0.10566000000E+00  0.10566000000E+00 0.  1.
     999900   -1    0    0    0    0 -0.00000000000E+00 -0.00000000000E+00 -0.74505805969E-08  0.93827000000E+00  0.93827000000E+00 0. -1.
     999902    2    1    2    0    0 -0.16248488637E-01 -0.16457889869E-01  0.58917846863E-02  0.10200639436E+01  0.10197847127E+01 0.  0.
     999903    2    3    3    0    0 -0.87978091044E-01  0.76138266532E-01 -0.57528005875E-01  0.13004076755E+00  0.79968513615E-02 0.  0.
         14    1    1    2    0    0  0.16248488637E-01  0.16457889869E-01 -0.58917846863E-02  0.23866056413E-01  0.00000000000E+00 0. -1.
     999901    1    3    3    0    0  0.71729602407E-01 -0.92596156401E-01  0.63419790561E-01  0.89002317603E+00  0.88000000000E+00 0.  1.
        -11    1    4    4    0    0 -0.73753254805E-01  0.62332320107E-01 -0.50711233018E-01  0.10907222836E+00  0.51100000000E-03 0.  1.
         11    1    4    4    0    0 -0.14224836239E-01  0.13805946424E-01 -0.68167728567E-02  0.20968539193E-01  0.51100000000E-03 0. -1.
</event>
<event>
 8    1  0.1146431E+005  0.1043930E+01  0.7957747E-01            NaN
         13   -1    0    0    0    0  0.00000000000E+00  0.00000000000E+00  0.74505805969E-08  0.10566000000E+00  0.10566000000E+00 0. -1.
     999900   -1    0    0    0    0 -0.00000000000E+00 -0.00000000000E+00 -0.74505805969E-08  0.93827000000E+00  0.93827000000E+00 0.  1.
     999902    2    1    2    0    0  0.98969962747E-02 -0.98609373004E-04 -0.21607607491E-01  0.10201634487E+01  0.10198865687E+01 0.  0.
     999903    2    3    3    0    0  0.24072618607E-02 -0.10628775740E+00  0.70137387329E-01  0.12901285798E+00  0.20547071318E-01 0.  0.
         14    1    1    2    0    0 -0.98969962747E-02  0.98609373004E-04  0.21607607491E-01  0.23766551297E-01  0.00000000000E+00 0. -1.
     999901    1    3    3    0    0  0.74897344140E-02  0.10618914802E+00 -0.91744994820E-01  0.89115059073E+00  0.88000000000E+00 0. -1.
        -11    1    4    4    0    0  0.18827836551E-02 -0.36453567189E-01  0.12905449742E-01  0.38719751925E-01  0.51100000000E-03 0.  1.
         11    1    4    4    0    0  0.52447820560E-03 -0.69834190207E-01  0.57231937587E-01  0.90293106051E-01  0.51100000000E-03 0. -1.
</event>
<event>
 8    1  0.1146431E+005  0.1043930E+01  0.7957747E-01            NaN
         13   -1    0    0    0    0  0.00000000000E+00  0.00000000000E+00  0.74505805969E-08  0.10566000000E+00  0.10566000000E+00 0.  1.
     999900   -1    0    0    0    0 -0.00000000000E+00 -0.00000000000E+00 -0.74505805969E-08  0.93827000000E+00  0.93827000000E+00 0. -1.
     999902    2    1    2    0    0  0.34861541029E-03  0.15383628953E-01 -0.22409713844E-01  0.10167459450E+01  0.10163824791E+01 0.  0.
     999903    2    3    3    0    0  0.58928953993E-01  0.11205811588E+00  0.16465550432E-01  0.12866436165E+00  0.15929866732E-01 0.  0.
         14    1    1    2    0    0 -0.34861541029E-03 -0.15383628953E-01  0.22409713844E-01  0.27184055015E-01  0.00000000000E+00 0.  1.
     999901    1    3    3    0    0 -0.58580338582E-01 -0.96674486925E-01 -0.38875264277E-01  0.88808158334E+00  0.88000000000E+00 0.  1.
        -11    1    4    4    0    0  0.14136980415E-01  0.41542226467E-01  0.89321125695E-02  0.44784534730E-01  0.51100000000E-03 0.  1.
         11    1    4    4    0    0  0.44791973578E-01  0.70515889412E-01  0.75334378627E-02  0.83879826917E-01  0.51100000000E-03 0. -1.
</event>
<event>
 8    1  0.1146431E+005  0.1043930E+01  0.7957747E-01            NaN
         13   -1    0    0    0    0  0.00000000000E+00  0.00000000000E+00  0.74505805969E-08  0.10566000000E+00  0.10566000000E+00 0. -1.
     999900   -1    0    0    0    0 -0.00000000000E+00 -0.00000000000E+00 -0.74505805969E-08  0.93827000000E+00  0.93827000000E+00 0.  1.
     999902    2    1    2    0    0  0.12704765571E-01  0.12056600899E-01  0.17531137991E-01  0.10191486866E+01  0.10188473546E+01 0.  0.
     999903    2    3    3    0    0  0.71438926082E-01  0.43198805475E-02  0.10953263996E+00  0.13237146837E+00  0.20065515051E-01 0.  0.
         14    1    1    2    0    0 -0.12704765571E-01 -0.12056600899E-01 -0.17531137991E-01  0.24781313378E-01  0.00000000000E+00 0.  1.
     999901    1    3    3    0    0 -0.58734160511E-01  0.77367203516E-02 -0.92001501964E-01  0.88677721826E+00  0.88000000000E+00 0.  1.
        -11    1    4    4    0    0  0.22936704821E-01 -0.53237403101E-02  0.24369220242E-01  0.33890332768E-01  0.51100000000E-03 0.  1.
         11    1    4    4    0    0  0.48502221262E-01  0.96436208576E-02  0.85163419713E-01  0.98481135599E-01  0.51100000000E-03 0. -1.
</event>
<event>
 8    1  0.1146431E+005  0.1043930E+01  0.7957747E-01            NaN
         13   -1    0    0    0    0  0.00000000000E+00  0.00000000000E+00  0.74505805969E-08  0.10566000000E+00  0.10566000000E+00 0. -1.
     999900   -1    0    0    0    0 -0.00000000000E+00 -0.00000000000E+00 -0.74505805969E-08  0.93827000000E+00  0.93827000000E+00 0.  1.
     999902    2    1    2    0    0  0.12231164499E-01 -0.15251454214E-01 -0.12206326695E-01  0.10208821660E+01  0.10206219644E+01 0.  0.
     999903    2    3    3    0    0  0.12103098741E+00  0.19234021412E-01 -0.48310626246E-01  0.13277734677E+00  0.16657122047E-01 0.  0.
         14    1    1    2    0    0 -0.12231164499E-01  0.15251454214E-01  0.12206326695E-01  0.23047833998E-01  0.00000000000E+00 0. -1.
     999901    1    3    3    0    0 -0.10879982291E+00 -0.34485475625E-01  0.36104299551E-01  0.88810481923E+00  0.88000000000E+00 0. -1.
        -11    1    4    4    0    0  0.89061756005E-01  0.17495424670E-01 -0.42545113869E-01  0.10024187799E+00  0.51100000000E-03 0. -1.
         11    1    4    4    0    0  0.31969231403E-01  0.17385967413E-02 -0.57655123767E-02  0.32535468785E-01  0.51100000000E-03 0.  1.
</event>
<event>
 8    1  0.1146431E+005  0.1043930E+01  0.7957747E-01            NaN
         13   -1    0    0    0    0  0.00000000000E+00  0.00000000000E+00  0.74505805969E-08  0.10566000000E+00  0.10566000000E+00 0. -1.
     999900   -1    0    0    0    0 -0.00000000000E+00 -0.00000000000E+00 -0.74505805969E-08  0.93827000000E+00  0.93827000000E+00 0. -1.
     999902    2    1    2    0    0 -0.77244496409E-02  0.18361313680E-01 -0.11502480964E-01  0.10209275647E+01  0.10206683988E+01 0.  0.
     999903    2    3    3    0    0  0.17751600914E-03 -0.11538148531E-01  0.12771395134E+00  0.12944697940E+00  0.17677859767E-01 0.  0.
         14    1    1    2    0    0  0.77244496409E-02 -0.18361313680E-01  0.11502480964E-01  0.23002435320E-01  0.00000000000E+00 0. -1.
     999901    1    3    3    0    0 -0.79019656501E-02  0.29899462212E-01 -0.13921643231E+00  0.89148058528E+00  0.88000000000E+00 0. -1.
        -11    1    4    4    0    0 -0.58796095717E-02 -0.50601452530E-02  0.21502489038E-01  0.22864667820E-01  0.51100000000E-03 0. -1.
         11    1    4    4    0    0  0.60571255808E-02 -0.64780032781E-02  0.10621146230E+00  0.10658231158E+00  0.51100000000E-03 0.  1.
</event>
<event>
 8    1  0.1146431E+005  0.1043930E+01  0.7957747E-01            NaN
         13   -1    0    0    0    0  0.00000000000E+00  0.00000000000E+00  0.74505805969E-08  0.10566000000E+00  0.10566000000E+00 0. -1.
     999900   -1    0    0    0    0 -0.00000000000E+00 -0.00000000000E+00 -0.74505805969E-08  0.93827000000E+00  0.93827000000E+00 0.  1.
     999902    2    1    2    0    0 -0.13794641831E-01  0.82851921314E-02  0.19839272837E-01  0.10183852687E+01  0.10180648418E+01 0.  0.
     999903    2    3    3    0    0  0.28682440521E-01  0.83113222811E-01  0.95164876114E-01  0.13098598807E+00  0.19247992754E-01 0.  0.
         14    1    1    2    0    0  0.13794641831E-01 -0.82851921314E-02 -0.19839272837E-01  0.25544731328E-01  0.00000000000E+00 0.  1.
     999901    1    3    3    0    0 -0.42477082352E-01 -0.74828030679E-01 -0.75325603277E-01  0.88739928060E+00  0.88000000000E+00 0.  1.
        -11    1    4    4    0    0  0.96618088922E-02  0.39160489564E-01  0.56555473753E-01  0.69467094558E-01  0.51100000000E-03 0.  1.
         11    1    4    4    0    0  0.19020631629E-01  0.43952733247E-01  0.38609402362E-01  0.61518893514E-01  0.51100000000E-03 0. -1.
</event>
<event>
 8    1  0.1146431E+005  0.1043930E+01  0.7957747E-01            NaN
         13   -1    0    0    0    0  0.00000000000E+00  0.00000000000E+00  0.74505805969E-08  0.10566000000E+00  0.10566000000E+00 0.  1.
     999900   -1    0    0    0    0 -0.00000000000E+00 -0.00000000000E+00 -0.74505805969E-08  0.93827000000E+00  0.93827000000E+00 0.  1.
     999902    2    1    2    0    0 -0.17742816218E-01 -0.12309782980E-01 -0.84871113322E-02  0.10207272126E+01  0.10204634600E+01 0.  0.
     999903    2    3    3    0    0  0.12535332214E-01  0.12641065230E+00 -0.13222757267E-01  0.12933361167E+00  0.20385147257E-01 0.  0.
         14    1    1    2    0    0  0.17742816218E-01  0.12309782980E-01  0.84871113322E-02  0.23202787400E-01  0.00000000000E+00 0.  1.
     999901    1    3    3    0    0 -0.30278148432E-01 -0.13872043528E+00  0.47356459352E-02  0.89139360093E+00  0.88000000000E+00 0.  1.
        -11    1    4    4    0    0 -0.19456246621E-02  0.33152782184E-02 -0.31202424658E-02  0.49773043946E-02  0.51100000000E-03 0.  1.
         11    1    4    4    0    0  0.14480956876E-01  0.12309537408E+00 -0.10102514802E-01  0.12435630728E+00  0.51100000000E-03 0. -1.
</event>
<event>
 7    1  0.1146431E+005  0.1043930E+01  0.7957747E-01            NaN
         13   -1    0    0    0    0  0.00000000000E+00  0.00000000000E+00  0.74505805969E-08  0.10566000000E+00  0.10566000000E+00 0. -1.
     999900   -1    0    0    0    0 -0.00000000000E+00 -0.00000000000E+00 -0.74505805969E-08  0.93827000000E+00  0.93827000000E+00 0.  1.
     999902    2    1    2    0    0 -0.17247375089E-01 -0.18377746223E-01  0.15765329124E-02  0.10186772980E+01  0.10183642464E+01 0.  0.
         14    1    1    2    0    0  0.17247375089E-01  0.18377746223E-01 -0.15765329124E-02  0.25252702028E-01  0.00000000000E+00 0. -1.
     999901    1    3    3    0    0  0.92638070163E-02 -0.12804287411E+00  0.47274501464E-01  0.89057042070E+00  0.88000000000E+00 0. -1.
        -11    1    3    3    0    0  0.10492083861E-01  0.30806719213E-01 -0.13492034478E-01  0.35233987679E-01  0.51100000000E-03 0. -1.
         11    1    3    3    0    0 -0.37003265967E-01  0.78858408678E-01 -0.32205934074E-01  0.92872889596E-01  0.51100000000E-03 0.  1.
</event>
<event>
 8    1  0.1146431E+005  0.1043930E+01  0.7957747E-01            NaN
         13   -1    0    0    0    0  0.00000000000E+00  0.00000000000E+00  0.74505805969E-08  0.10566000000E+00  0.10566000000E+00 0.  1.
     999900   -1    0    0    0    0 -0.00000000000E+00 -0.00000000000E+00 -0.74505805969E-08  0.93827000000E+00  0.93827000000E+00 0.  1.
     999902    2    1    2    0    0 -0.57761877525E-02  0.96917099169E-02 -0.21362229346E-01  0.10197713902E+01  0.10194851886E+01 0.  0.
     999903    2    3    3    0    0  0.49166341287E-01 -0.11683800962E+00  0.54632618797E-02  0.12862153835E+00  0.21099840989E-01 0.  0.
         14    1    1    2    0    0  0.57761877525E-02 -0.96917099169E-02  0.21362229346E-01  0.24158609825E-01  0.00000000000E+00 0.  1.
     999901    1    3    3    0    0 -0.54942529039E-01  0.12652971954E+00 -0.26825491226E-01  0.89114985182E+00  0.88000000000E+00 0.  1.
        -11    1    4    4    0    0  0.63414772885E-02 -0.40143313973E-01  0.27468502776E-02  0.40737038410E-01  0.51100000000E-03 0. -1.
         11    1    4    4    0    0  0.42824863998E-01 -0.76694695649E-01  0.27164116021E-02  0.87884499942E-01  0.51100000000E-03 0.  1.
</event>
<event>
 8    1  0.1210291E+005  0.1043930E+01  0.7957747E-01            NaN
         13   -1    0    0    0    0  0.00000000000E+00  0.00000000000E+00  0.74505805969E-08  0.10566000000E+00  0.10566000000E+00 0.  1.
     999900   -1    0    0    0    0 -0.00000000000E+00 -0.00000000000E+00 -0.74505805969E-08  0.93827000000E+00  0.93827000000E+00 0.  1.
     999902    2    1    2    0    0 -0.30688066796E-02 -0.14364193448E-02 -0.24591870628E-01  0.10191057986E+01  0.10188034098E+01 0.  0.
     999903    2    3    3    0    0  0.12002206506E+00  0.33675159550E-01 -0.29645662509E-01  0.12983096677E+00  0.20926111828E-01 0.  0.
         14    1    1    2    0    0  0.30688066796E-02  0.14364193448E-02  0.24591870628E-01  0.24824201417E-01  0.00000000000E+00 0.  1.
     999901    1    3    3    0    0 -0.12309087174E+00 -0.35111578895E-01  0.50537918807E-02  0.88927483181E+00  0.88000000000E+00 0. -1.
        -11    1    4    4    0    0  0.55983805117E-01  0.23011999947E-01 -0.63808083301E-02  0.60866365201E-01  0.51100000000E-03 0.  1.
         11    1    4    4    0    0  0.64038259942E-01  0.10663159604E-01 -0.23264854179E-01  0.68964601572E-01  0.51100000000E-03 0. -1.
</event>
<event>
 8    1  0.1146431E+005  0.1043930E+01  0.7957747E-01            NaN
         13   -1    0    0    0    0  0.00000000000E+00  0.00000000000E+00  0.74505805969E-08  0.10566000000E+00  0.10566000000E+00 0.  1.
     999900   -1    0    0    0    0 -0.00000000000E+00 -0.00000000000E+00 -0.74505805969E-08  0.93827000000E+00  0.93827000000E+00 0. -1.
     999902    2    1    2    0    0  0.76399673731E-02  0.56573092664E-02 -0.21102048258E-01  0.10207854393E+01  0.10205230239E+01 0.  0.
     999903    2    3    3    0    0  0.85348771929E-01  0.15112898005E-01  0.94499173050E-01  0.12977942987E+00  0.19994853184E-01 0.  0.
         14    1    1    2    0    0 -0.76399673731E-02 -0.56573092664E-02  0.21102048258E-01  0.23144560707E-01  0.00000000000E+00 0.  1.
     999901    1    3    3    0    0 -0.77708804556E-01 -0.94555887385E-02 -0.11560122131E+00  0.89100600943E+00  0.88000000000E+00 0. -1.
        -11    1    4    4    0    0  0.19992719297E-01  0.29173527014E-02  0.35693829938E-01  0.41018659026E-01  0.51100000000E-03 0. -1.
         11    1    4    4    0    0  0.65356052632E-01  0.12195545303E-01  0.58805343112E-01  0.88760770842E-01  0.51100000000E-03 0.  1.
</event>
<event>
 8    1  0.1146431E+005  0.1043930E+01  0.7957747E-01            NaN
         13   -1    0    0    0    0  0.00000000000E+00  0.00000000000E+00  0.74505805969E-08  0.10566000000E+00  0.10566000000E+00 0.  1.
     999900   -1    0    0    0    0 -0.00000000000E+00 -0.00000000000E+00 -0.74505805969E-08  0.93827000000E+00  0.93827000000E+00 0.  1.
     999902    2    1    2    0    0 -0.87927073447E-02 -0.29401686819E-01  0.22542561153E-01  0.10058519492E+01  0.10051309396E+01 0.  0.
     999903    2    3    3    0    0 -0.20227590417E-01 -0.75283230379E-01 -0.86187945413E-01  0.11790026376E+00  0.19884417788E-01 0.  0.
         14    1    1    2    0    0  0.87927073447E-02  0.29401686819E-01 -0.22542561153E-01  0.38078050811E-01  0.00000000000E+00 0.  1.
     999901    1    3    3    0    0  0.11434883072E-01  0.45881543560E-01  0.10873050657E+00  0.88795168542E+00  0.88000000000E+00 0. -1.
        -11    1    4    4    0    0 -0.82642965141E-02 -0.23717536965E-01 -0.42020027089E-01  0.48956755960E-01  0.51100000000E-03 0. -1.
         11    1    4    4    0    0 -0.11963293903E-01 -0.51565693414E-01 -0.44167918323E-01  0.68943507804E-01  0.51100000000E-03 0.  1.
</event>
<event>
 8    1  0.1146431E+005  0.1043930E+01  0.7957747E-01            NaN
         13   -1    0    0    0    0  0.00000000000E+00  0.00000000000E+00  0.74505805969E-08  0.10566000000E+00  0.10566000000E+00 0.  1.
     999900   -1    0    0    0    0 -0.00000000000E+00 -0.00000000000E+00 -0.74505805969E-08  0.93827000000E+00  0.93827000000E+00 0.  1.
     999902    2    1    2    0    0  0.15557920567E-01 -0.17960734995E-01 -0.25072330071E-02  0.10200360026E+01  0.10197561098E+01 0.  0.
     999903    2    3    3    0    0 -0.27668611544E-01 -0.12495572029E+00 -0.27122685213E-01  0.13216079716E+00  0.18744389960E-01 0.  0.
         14    1    1    2    0    0 -0.15557920567E-01  0.17960734995E-01  0.25072330071E-02  0.23893997390E-01  0.00000000000E+00 0. -1.
     999901    1    3    3    0    0  0.43226532111E-01  0.10699498530E+00  0.24615452206E-01  0.88787520545E+00  0.88000000000E+00 0. -1.
        -11    1    4    4    0    0  0.70117591382E-03 -0.75935458665E-03 -0.20035149672E-02  0.23115925839E-02  0.51100000000E-03 0. -1.
         11    1    4    4    0    0 -0.28369787458E-01 -0.12419636571E+00 -0.25119170246E-01  0.12984920458E+00  0.51100000000E-03 0.  1.
</event>
<event>
 8    1  0.1146431E+005  0.1043930E+01  0.7957747E-01            NaN
         13   -1    0    0    0    0  0.00000000000E+00  0.00000000000E+00  0.74505805969E-08  0.10566000000E+00  0.10566000000E+00 0. -1.
     999900   -1    0    0    0    0 -0.00000000000E+00 -0.00000000000E+00 -0.74505805969E-08  0.93827000000E+00  0.93827000000E+00 0. -1.
     999902    2    1    2    0    0  0.20084167149E-01  0.88566166519E-02 -0.88433962054E-02  0.10202652776E+01  0.10199907929E+01 0.  0.
     999903    2    3    3    0    0 -0.52075213424E-01 -0.10751590357E+00 -0.44098583653E-01  0.12897830481E+00  0.20474878702E-01 0.  0.
         14    1    1    2    0    0 -0.20084167149E-01 -0.88566166519E-02  0.88433962054E-02  0.23664722374E-01  0.00000000000E+00 0.  1.
     999901    1    3    3    0    0  0.72159380573E-01  0.11637252022E+00  0.35255187447E-01  0.89128697282E+00  0.88000000000E+00 0. -1.
        -11    1    4    4    0    0 -0.78802539948E-02 -0.29750106940E-01 -0.43128228441E-02  0.31081004293E-01  0.51100000000E-03 0. -1.
         11    1    4    4    0    0 -0.44194959429E-01 -0.77765796631E-01 -0.39785760808E-01  0.97897300518E-01  0.51100000000E-03 0.  1.
</event>
<event>
 8    1  0.1146431E+005  0.1043930E+01  0.7957747E-01            NaN
         13   -1    0    0    0    0  0.00000000000E+00  0.00000000000E+00  0.74505805969E-08  0.10566000000E+00  0.10566000000E+00 0. -1.
     999900   -1    0    0    0    0 -0.00000000000E+00 -0.00000000000E+00 -0.74505805969E-08  0.93827000000E+00  0.93827000000E+00 0.  1.
     999902    2    1    2    0    0 -0.17326226349E-01 -0.15778536334E-01 -0.22299078569E-02  0.10203899741E+01  0.10201184081E+01 0.  0.
     999903    2    3    3    0    0 -0.98491485709E-01  0.62920765141E-01  0.56058471720E-01  0.13124492716E+00  0.20568986616E-01 0.  0.
         14    1    1    2    0    0  0.17326226349E-01  0.15778536334E-01  0.22299078569E-02  0.23540025858E-01  0.00000000000E+00 0.  1.
     999901    1    3    3    0    0  0.81165259360E-01 -0.78699301475E-01 -0.58288379577E-01  0.88914504698E+00  0.88000000000E+00 0. -1.
        -11    1    4    4    0    0 -0.20113426138E-01  0.11534976744E-01  0.25713317313E-02  0.23334062385E-01  0.51100000000E-03 0. -1.
         11    1    4    4    0    0 -0.78378059571E-01  0.51385788398E-01  0.53487139989E-01  0.10791086478E+00  0.51100000000E-03 0.  1.
</event>
<event>
 8    1  0.1146431E+005  0.1043930E+01  0.7957747E-01            NaN
         13   -1    0    0    0    0  0.00000000000E+00  0.00000000000E+00  0.74505805969E-08  0.10566000000E+00  0.10566000000E+00 0. -1.
     999900   -1    0    0    0    0 -0.00000000000E+00 -0.00000000000E+00 -0.74505805969E-08  0.93827000000E+00  0.93827000000E+00 0.  1.
     999902    2    1    2    0    0 -0.23508470957E-01 -0.37715317720E-02  0.61521200638E-02  0.10193389195E+01  0.10190422521E+01 0.  0.
     999903    2    3    3    0    0 -0.40845338770E-01 -0.43589416847E-01  0.11580680141E+00  0.13147058462E+00  0.17461970315E-01 0.  0.
         14    1    1    2    0    0  0.23508470957E-01  0.37715317720E-02 -0.61521200638E-02  0.24591080495E-01  0.00000000000E+00 0.  1.
     999901    1    3    3    0    0  0.17336867813E-01  0.39817885075E-01 -0.10965468134E+00  0.88786833489E+00  0.88000000000E+00 0.  1.
        -11    1    4    4    0    0 -0.23881110043E-02 -0.10801503928E-01  0.14384253820E-01  0.18153331381E-01  0.51100000000E-03 0. -1.
         11    1    4    4    0    0 -0.38457227766E-01 -0.32787912919E-01  0.10142254759E+00  0.11331725323E+00  0.51100000000E-03 0.  1.
</event>
<event>
 8    1  0.1146431E+005  0.1043930E+01  0.7957747E-01            NaN
         13   -1    0    0    0    0  0.00000000000E+00  0.00000000000E+00  0.74505805969E-08  0.10566000000E+00  0.10566000000E+00 0.  1.
     999900   -1    0    0    0    0 -0.00000000000E+00 -0.00000000000E+00 -0.74505805969E-08  0.93827000000E+00  0.93827000000E+00 0.  1.
     999902    2    1    2    0    0 -0.16333156240E-02 -0.22776853577E-01 -0.67030110893E-02  0.10201311946E+01  0.10198535538E+01 0.  0.
     999903    2    3    3    0    0  0.10193764997E+00  0.52673717951E-02 -0.79169521163E-01  0.13065673263E+00  0.19604566151E-01 0.  0.
         14    1    1    2    0    0  0.16333156240E-02  0.22776853577E-01  0.67030110893E-02  0.23798805358E-01  0.00000000000E+00 0.  1.
     999901    1    3    3    0    0 -0.10357096559E+00 -0.28044225372E-01  0.72466510074E-01  0.88947446201E+00  0.88000000000E+00 0. -1.
        -11    1    4    4    0    0  0.38349928106E-01  0.38445824575E-02 -0.18495558161E-01  0.42753299203E-01  0.51100000000E-03 0. -1.
         11    1    4    4    0    0  0.63587721860E-01  0.14227893376E-02 -0.60673963002E-01  0.87903433427E-01  0.51100000000E-03 0.  1.
</event>
<event>
 8    1  0.1146431E+005  0.1043930E+01  0.7957747E-01            NaN
         13   -1    0    0    0    0  0.00000000000E+00  0.00000000000E+00  0.74505805969E-08  0.10566000000E+00  0.10566000000E+00 0.  1.
     999900   -1    0    0    0    0 -0.00000000000E+00 -0.00000000000E+00 -0.74505805969E-08  0.93827000000E+00  0.93827000000E+00 0.  1.
     999902    2    1    2    0    0 -0.17990614297E-01  0.79539719926E-02  0.13376495022E-01  0.10201422197E+01  0.10198648390E+01 0.  0.
     999903    2    3    3    0    0  0.52980728861E-01  0.42485005349E-01  0.11053220448E+00  0.13128421320E+00  0.20155473178E-01 0.  0.
         14    1    1    2    0    0  0.17990614297E-01 -0.79539719926E-02 -0.13376495022E-01  0.23787780315E-01  0.00000000000E+00 0. -1.
     999901    1    3    3    0    0 -0.70971343158E-01 -0.34531033357E-01 -0.97155709453E-01  0.88885800649E+00  0.88000000000E+00 0. -1.
        -11    1    4    4    0    0  0.46641461806E-01  0.41956467348E-01  0.89456057794E-01  0.10926307020E+00  0.51100000000E-03 0. -1.
         11    1    4    4    0    0  0.63392670546E-02  0.52853800106E-03  0.21076146681E-01  0.22021143002E-01  0.51100000000E-03 0.  1.
</event>
<event>
 8    1  0.1146431E+005  0.1043930E+01  0.7957747E-01            NaN
         13   -1    0    0    0    0  0.00000000000E+00  0.00000000000E+00  0.74505805969E-08  0.10566000000E+00  0.10566000000E+00 0.  1.
     999900   -1    0    0    0    0 -0.00000000000E+00 -0.00000000000E+00 -0.74505805969E-08  0.93827000000E+00  0.93827000000E+00 0. -1.
     999902    2    1    2    0    0  0.40959129397E-02 -0.16278474748E-01 -0.17760233451E-01  0.10194925055E+01  0.10191995770E+01 0.  0.
     999903    2    3    3    0    0 -0.35431949563E-01  0.63990382956E-01  0.10177653107E+00  0.12691501339E+00  0.19969130821E-01 0.  0.
         14    1    1    2    0    0 -0.40959129397E-02  0.16278474748E-01  0.17760233451E-01  0.24437494453E-01  0.00000000000E+00 0.  1.
     999901    1    3    3    0    0  0.39527862503E-01 -0.80268857704E-01 -0.11953676452E+00  0.89257749216E+00  0.88000000000E+00 0. -1.
        -11    1    4    4    0    0 -0.14918655436E-01  0.45062965913E-01  0.57380506735E-01  0.74471611042E-01  0.51100000000E-03 0.  1.
         11    1    4    4    0    0 -0.20513294127E-01  0.18927417042E-01  0.44396024338E-01  0.52443402349E-01  0.51100000000E-03 0. -1.
</event>
<event>
 8    1  0.1146431E+005  0.1043930E+01  0.7957747E-01            NaN
         13   -1    0    0    0    0  0.00000000000E+00  0.00000000000E+00  0.74505805969E-08  0.10566000000E+00  0.10566000000E+00 0. -1.
     999900   -1    0    0    0    0 -0.00000000000E+00 -0.00000000000E+00 -0.74505805969E-08  0.93827000000E+00  0.93827000000E+00 0.  1.
     999902    2    1    2    0    0 -0.11779153754E-01 -0.14963335289E-01  0.14080758504E-01  0.10202463004E+01  0.10199713701E+01 0.  0.
     999903    2    3    3    0    0  0.64876628510E-01 -0.20149753897E-01  0.11111173089E+00  0.13158550039E+00  0.18813231068E-01 0.  0.
         14    1    1    2    0    0  0.11779153754E-01  0.14963335289E-01 -0.14080758504E-01  0.23683699588E-01  0.00000000000E+00 0.  1.
     999901    1    3    3    0    0 -0.76655782265E-01  0.51864186082E-02 -0.97030972384E-01  0.88866080002E+00  0.88000000000E+00 0.  1.
        -11    1    4    4    0    0  0.29189772906E-01 -0.11180087642E-01  0.68408839510E-01  0.75213480481E-01  0.51100000000E-03 0. -1.
         11    1    4    4    0    0  0.35686855604E-01 -0.89696662553E-02  0.42702891378E-01  0.56372019909E-01  0.51100000000E-03 0.  1.
</event>
<event>
 8    1  0.1146431E+005  0.1043930E+01  0.7957747E-01            NaN
         13   -1    0    0    0    0  0.00000000000E+00  0.00000000000E+00  0.74505805969E-08  0.10566000000E+00  0.10566000000E+00 0.  1.
     999900   -1    0    0    0    0 -0.00000000000E+00 -0.00000000000E+00 -0.74505805969E-08  0.93827000000E+00  0.93827000000E+00 0. -1.
     999902    2    1    2    0    0  0.10726146570E-02 -0.15588092745E-01  0.18173111165E-01  0.10199633334E+01  0.10196817152E+01 0.  0.
     999903    2    3    3    0    0 -0.56744537748E-01  0.10747925068E+00  0.39463075065E-01  0.12926604663E+00  0.19510116027E-01 0.  0.
         14    1    1    2    0    0 -0.10726146570E-02  0.15588092745E-01 -0.18173111165E-01  0.23966666582E-01  0.00000000000E+00 0. -1.
     999901    1    3    3    0    0  0.57817152405E-01 -0.12306734342E+00 -0.21289963900E-01  0.89069728679E+00  0.88000000000E+00 0. -1.
        -11    1    4    4    0    0 -0.29936848727E-01  0.40007158765E-01  0.10284629887E-01  0.51017863510E-01  0.51100000000E-03 0.  1.
         11    1    4    4    0    0 -0.26807689021E-01  0.67472091911E-01  0.29178445178E-01  0.78248183120E-01  0.51100000000E-03 0. -1.
</event>
<event>
 8    1  0.1146431E+005  0.1043930E+01  0.7957747E-01            NaN
         13   -1    0    0    0    0  0.00000000000E+00  0.00000000000E+00  0.74505805969E-08  0.10566000000E+00  0.10566000000E+00 0.  1.
     999900   -1    0    0    0    0 -0.00000000000E+00 -0.00000000000E+00 -0.74505805969E-08  0.93827000000E+00  0.93827000000E+00 0.  1.
     999902    2    1    2    0    0 -0.16091375510E-01 -0.10194922826E-01 -0.13956217780E-01  0.10203154953E+01  0.10200421879E+01 0.  0.
     999903    2    3    3    0    0  0.16540052622E-01 -0.12677488691E+00 -0.27142667537E-01  0.13192955407E+00  0.17978808222E-01 0.  0.
         14    1    1    2    0    0  0.16091375510E-01  0.10194922826E-01  0.13956217780E-01  0.23614504694E-01  0.00000000000E+00 0. -1.
     999901    1    3    3    0    0 -0.32631428131E-01  0.11657996408E+00  0.13186449757E-01  0.88838594124E+00  0.88000000000E+00 0. -1.
        -11    1    4    4    0    0  0.13220174871E-01 -0.11067246764E+00 -0.29535713664E-01  0.11530736151E+00  0.51100000000E-03 0.  1.
         11    1    4    4    0    0  0.33198777507E-02 -0.16102419272E-01  0.23930461275E-02  0.16622192559E-01  0.51100000000E-03 0. -1.
</event>
<event>
 8    1  0.1146431E+005  0.1043930E+01  0.7957747E-01            NaN
         13   -1    0    0    0    0  0.00000000000E+00  0.00000000000E+00  0.74505805969E-08  0.10566000000E+00  0.10566000000E+00 0. -1.
     999900   -1    0    0    0    0 -0.00000000000E+00 -0.00000000000E+00 -0.74505805969E-08  0.93827000000E+00  0.93827000000E+00 0. -1.
     999902    2    1    2    0    0  0.12004068590E-01 -0.18062851889E-01 -0.95393579661E-02  0.10202368864E+01  0.10199617350E+01 0.  0.
     999903    2    3    3    0    0 -0.98850387328E-01  0.36640834601E-01  0.70011902888E-01  0.12804318165E+00  0.19479219342E-01 0.  0.
         14    1    1    2    0    0 -0.12004068590E-01  0.18062851889E-01  0.95393579661E-02  0.23693113588E-01  0.00000000000E+00 0. -1.
     999901    1    3    3    0    0  0.11085445592E+00 -0.54703686490E-01 -0.79551260854E-01  0.89219370476E+00  0.88000000000E+00 0. -1.
        -11    1    4    4    0    0 -0.65319872889E-01  0.29612999915E-01  0.38060531779E-01  0.81194093125E-01  0.51100000000E-03 0.  1.
         11    1    4    4    0    0 -0.33530514439E-01  0.70278346859E-02  0.31951371109E-01  0.46849088525E-01  0.51100000000E-03 0. -1.
</event>
<event>
 8    1  0.1146431E+005  0.1043930E+01  0.7957747E-01            NaN
         13   -1    0    0    0    0  0.00000000000E+00  0.00000000000E+00  0.74505805969E-08  0.10566000000E+00  0.10566000000E+00 0.  1.
     999900   -1    0    0    0    0 -0.00000000000E+00 -0.00000000000E+00 -0.74505805969E-08  0.93827000000E+00  0.93827000000E+00 0. -1.
     999902    2    1    2    0    0 -0.22510792001E-02 -0.23510480727E-01 -0.21019842040E-02  0.10202186441E+01  0.10199430638E+01 0.  0.
     999903    2    3    3    0    0 -0.51923867643E-01  0.91471600461E-01 -0.71284374429E-01  0.12866131670E+00  0.20226978391E-01 0.  0.
         14    1    1    2    0    0  0.22510792001E-02  0.23510480727E-01  0.21019842040E-02  0.23711355912E-01  0.00000000000E+00 0.  1.
     999901    1    3    3    0    0  0.49672788443E-01 -0.11498208119E+00  0.69182390225E-01  0.89155732739E+00  0.88000000000E+00 0.  1.
        -11    1    4    4    0    0 -0.49928444197E-02  0.22452396941E-01 -0.21426146773E-01  0.31438503627E-01  0.51100000000E-03 0. -1.
         11    1    4    4    0    0 -0.46931023223E-01  0.69019203521E-01 -0.49858227655E-01  0.97222813070E-01  0.51100000000E-03 0.  1.
</event>
<event>
 8    1  0.1146431E+005  0.1043930E+01  0.7957747E-01            NaN
         13   -1    0    0    0    0  0.00000000000E+00  0.00000000000E+00  0.74505805969E-08  0.10566000000E+00  0.10566000000E+00 0. -1.
     999900   -1    0    0    0    0 -0.00000000000E+00 -0.00000000000E+00 -0.74505805969E-08  0.93827000000E+00  0.93827000000E+00 0.  1.
     999902    2    1    2    0    0 -0.18328563100E-01  0.16979015501E-01 -0.10235275188E-01  0.10169302954E+01  0.10165718084E+01 0.  0.
     999903    2    3    3    0    0  0.83722299112E-01  0.45720308069E-01 -0.82249226721E-01  0.12764606093E+00  0.20707767555E-01 0.  0.
         14    1    1    2    0    0  0.18328563100E-01 -0.16979015501E-01  0.10235275188E-01  0.26999704644E-01  0.00000000000E+00 0.  1.
     999901    1    3    3    0    0 -0.10205086221E+00 -0.28741292568E-01  0.72013951532E-01  0.88928423442E+00  0.88000000000E+00 0. -1.
        -11    1    4    4    0    0  0.40201112840E-01  0.26756250490E-01 -0.53810526382E-01  0.72303943768E-01  0.51100000000E-03 0. -1.
         11    1    4    4    0    0  0.43521186273E-01  0.18964057579E-01 -0.28438700338E-01  0.55342117166E-01  0.51100000000E-03 0.  1.
</event>
<event>
 8    1  0.1146431E+005  0.1043930E+01  0.7957747E-01            NaN
         13   -1    0    0    0    0  0.00000000000E+00  0.00000000000E+00  0.74505805969E-08  0.10566000000E+00  0.10566000000E+00 0. -1.
     999900   -1    0    0    0    0 -0.00000000000E+00 -0.00000000000E+00 -0.74505805969E-08  0.93827000000E+00  0.93827000000E+00 0. -1.
     999902    2    1    2    0    0  0.22424932704E-01  0.70340106507E-02 -0.26313921431E-02  0.10202809168E+01  0.10200067990E+01 0.  0.
     999903    2    3    3    0    0  0.13171731548E+00 -0.61737103626E-02  0.39581860509E-02  0.13339722014E+00  0.19788511982E-01 0.  0.
         14    1    1    2    0    0 -0.22424932704E-01 -0.70340106507E-02  0.26313921431E-02  0.23649083221E-01  0.00000000000E+00 0.  1.
     999901    1    3    3    0    0 -0.10929238278E+00  0.13207721013E-01 -0.65895781940E-02  0.88688369664E+00  0.88000000000E+00 0. -1.
        -11    1    4    4    0    0  0.44398015688E-01  0.72468225492E-02  0.18200395428E-02  0.45025258456E-01  0.51100000000E-03 0. -1.
         11    1    4    4    0    0  0.87319299792E-01 -0.13420532912E-01  0.21381465081E-02  0.88371961681E-01  0.51100000000E-03 0.  1.
</event>
<event>
 8    1  0.1146431E+005  0.1043930E+01  0.7957747E-01            NaN
         13   -1    0    0    0    0  0.00000000000E+00  0.00000000000E+00  0.74505805969E-08  0.10566000000E+00  0.10566000000E+00 0.  1.
     999900   -1    0    0    0    0 -0.00000000000E+00 -0.00000000000E+00 -0.74505805969E-08  0.93827000000E+00  0.93827000000E+00 0.  1.
     999902    2    1    2    0    0  0.75551546365E-02  0.81941213141E-02  0.22800002183E-01  0.10185515823E+01  0.10182353666E+01 0.  0.
     999903    2    3    3    0    0  0.12260822551E+00 -0.26791716955E-01 -0.19994203804E-01  0.12934262931E+00  0.24066044794E-01 0.  0.
         14    1    1    2    0    0 -0.75551546365E-02 -0.81941213141E-02 -0.22800002183E-01  0.25378417706E-01  0.00000000000E+00 0. -1.
     999901    1    3    3    0    0 -0.11505307087E+00  0.34985838269E-01  0.42794205987E-01  0.88920895298E+00  0.88000000000E+00 0. -1.
        -11    1    4    4    0    0  0.62260740900E-01 -0.22086435514E-01 -0.16252856470E-02  0.66084137019E-01  0.51100000000E-03 0. -1.
         11    1    4    4    0    0  0.60347484608E-01 -0.47052814411E-02 -0.18368918157E-01  0.63258492293E-01  0.51100000000E-03 0.  1.
</event>
<event>
 8    1  0.1146431E+005  0.1043930E+01  0.7957747E-01            NaN
         13   -1    0    0    0    0  0.00000000000E+00  0.00000000000E+00  0.74505805969E-08  0.10566000000E+00  0.10566000000E+00 0.  1.
     999900   -1    0    0    0    0 -0.00000000000E+00 -0.00000000000E+00 -0.74505805969E-08  0.93827000000E+00  0.93827000000E+00 0. -1.
     999902    2    1    2    0    0 -0.11940406185E-02  0.21155733411E-01 -0.85721474162E-02  0.10210723426E+01  0.10208164656E+01 0.  0.
     999903    2    3    3    0    0 -0.40788550814E-01 -0.24955033940E-01 -0.12111095541E+00  0.13182608236E+00  0.20586230166E-01 0.  0.
         14    1    1    2    0    0  0.11940406185E-02 -0.21155733411E-01  0.85721474162E-02  0.22857657370E-01  0.00000000000E+00 0.  1.
     999901    1    3    3    0    0  0.39594510195E-01  0.46110767350E-01  0.11253880800E+00  0.88924626027E+00  0.88000000000E+00 0.  1.
        -11    1    4    4    0    0 -0.21456134572E-01 -0.24611574143E-01 -0.72894372172E-01  0.79874563585E-01  0.51100000000E-03 0. -1.
         11    1    4    4    0    0 -0.19332416242E-01 -0.34345979625E-03 -0.48216583240E-01  0.51951518772E-01  0.51100000000E-03 0.  1.
</event>
<event>
 8    1  0.1146431E+005  0.1043930E+01  0.7957747E-01            NaN
         13   -1    0    0    0    0  0.00000000000E+00  0.00000000000E+00  0.74505805969E-08  0.10566000000E+00  0.10566000000E+00 0. -1.
     999900   -1    0    0    0    0 -0.00000000000E+00 -0.00000000000E+00 -0.74505805969E-08  0.93827000000E+00  0.93827000000E+00 0.  1.
     999902    2    1    2    0    0  0.18563600785E-01  0.12425259968E-01 -0.60270360294E-02  0.10207930269E+01  0.10205307856E+01 0.  0.
     999903    2    3    3    0    0  0.97965343053E-01 -0.49328140481E-01 -0.71882377970E-01  0.13261790614E+00  0.19747376594E-01 0.  0.
         14    1    1    2    0    0 -0.18563600785E-01 -0.12425259968E-01  0.60270360294E-02  0.23136973067E-01  0.00000000000E+00 0. -1.
     999901    1    3    3    0    0 -0.79401742267E-01  0.61753400449E-01  0.65855341941E-01  0.88817512080E+00  0.88000000000E+00 0. -1.
        -11    1    4    4    0    0  0.36809348078E-01 -0.28590111801E-01 -0.34606260201E-01  0.58053225274E-01  0.51100000000E-03 0. -1.
         11    1    4    4    0    0  0.61155994975E-01 -0.20738028680E-01 -0.37276117770E-01  0.74564680861E-01  0.51100000000E-03 0.  1.
</event>
<event>
 8    1  0.1146431E+005  0.1043930E+01  0.7957747E-01            NaN
         13   -1    0    0    0    0  0.00000000000E+00  0.00000000000E+00  0.74505805969E-08  0.10566000000E+00  0.10566000000E+00 0. -1.
     999900   -1    0    0    0    0 -0.00000000000E+00 -0.00000000000E+00 -0.74505805969E-08  0.93827000000E+00  0.93827000000E+00 0. -1.
     999902    2    1    2    0    0 -0.10153038218E-02 -0.10878640918E-01  0.19954267714E-01  0.10211803084E+01  0.10209268699E+01 0.  0.
     999903    2    3    3    0    0  0.10646795042E+00 -0.73529521972E-02  0.76246015026E-01  0.13284825262E+00  0.21111917110E-01 0.  0.
         14    1    1    2    0    0  0.10153038218E-02  0.10878640918E-01 -0.19954267714E-01  0.22749691648E-01  0.00000000000E+00 0.  1.
     999901    1    3    3    0    0 -0.10748325424E+00 -0.35256887206E-02 -0.56291747312E-01  0.88833205573E+00  0.88000000000E+00 0. -1.
        -11    1    4    4    0    0  0.63084031294E-01 -0.14714203365E-01  0.45917598933E-01  0.79402706489E-01  0.51100000000E-03 0.  1.
         11    1    4    4    0    0  0.43383919128E-01  0.73612511680E-02  0.30328416093E-01  0.53445546133E-01  0.51100000000E-03 0. -1.
</event>
<event>
 8    1  0.1146431E+005  0.1043930E+01  0.7957747E-01            NaN
         13   -1    0    0    0    0  0.00000000000E+00  0.00000000000E+00  0.74505805969E-08  0.10566000000E+00  0.10566000000E+00 0.  1.
     999900   -1    0    0    0    0 -0.00000000000E+00 -0.00000000000E+00 -0.74505805969E-08  0.93827000000E+00  0.93827000000E+00 0. -1.
     999902    2    1    2    0    0  0.14342961813E-01 -0.18221416128E-01 -0.33206811608E-02  0.10205042133E+01  0.10202353071E+01 0.  0.
     999903    2    3    3    0    0  0.42191475160E-01  0.44056337103E-01  0.11327735059E+00  0.13019575032E+00  0.19952288836E-01 0.  0.
         14    1    1    2    0    0 -0.14342961813E-01  0.18221416128E-01  0.33206811608E-02  0.23425786702E-01  0.00000000000E+00 0. -1.
     999901    1    3    3    0    0 -0.27848513347E-01 -0.62277753230E-01 -0.11659803175E+00  0.89030846298E+00  0.88000000000E+00 0. -1.
        -11    1    4    4    0    0  0.16163463187E-01  0.28446571580E-01  0.70709255693E-01  0.77913573519E-01  0.51100000000E-03 0. -1.
         11    1    4    4    0    0  0.26028011973E-01  0.15609765523E-01  0.42568094896E-01  0.52282176800E-01  0.51100000000E-03 0.  1.
</event>
<event>
 8    1  0.1146431E+005  0.1043930E+01  0.7957747E-01            NaN
         13   -1    0    0    0    0  0.00000000000E+00  0.00000000000E+00  0.74505805969E-08  0.10566000000E+00  0.10566000000E+00 0.  1.
     999900   -1    0    0    0    0 -0.00000000000E+00 -0.00000000000E+00 -0.74505805969E-08  0.93827000000E+00  0.93827000000E+00 0.  1.
     999902    2    1    2    0    0 -0.14750436795E-01 -0.18418800048E-01  0.15498178197E-02  0.10202819659E+01  0.10200078727E+01 0.  0.
     999903    2    3    3    0    0 -0.13047545006E+00 -0.88460338982E-02  0.79218036220E-02  0.13263084146E+00  0.20641941480E-01 0.  0.
         14    1    1    2    0    0  0.14750436795E-01  0.18418800048E-01 -0.15498178197E-02  0.23648034086E-01  0.00000000000E+00 0.  1.
     999901    1    3    3    0    0  0.11572501327E+00 -0.95727661497E-02 -0.63719858023E-02  0.88765112446E+00  0.88000000000E+00 0. -1.
        -11    1    4    4    0    0 -0.43979110819E-01 -0.36727689317E-02 -0.70495123884E-02  0.44694610033E-01  0.51100000000E-03 0.  1.
         11    1    4    4    0    0 -0.86496339244E-01 -0.51732649665E-02  0.14971316010E-01  0.87936231424E-01  0.51100000000E-03 0. -1.
</event>
<event>
 8    1  0.1146431E+005  0.1043930E+01  0.7957747E-01            NaN
         13   -1    0    0    0    0  0.00000000000E+00  0.00000000000E+00  0.74505805969E-08  0.10566000000E+00  0.10566000000E+00 0.  1.
     999900   -1    0    0    0    0 -0.00000000000E+00 -0.00000000000E+00 -0.74505805969E-08  0.93827000000E+00  0.93827000000E+00 0. -1.
     999902    2    1    2    0    0 -0.14146242115E-01  0.10734949020E-01  0.15546276334E-01  0.10203282627E+01  0.10200552542E+01 0.  0.
     999903    2    3    3    0    0  0.60061724458E-01 -0.18347266397E-02 -0.11130346778E+00  0.12805270176E+00  0.19956340384E-01 0.  0.
         14    1    1    2    0    0  0.14146242115E-01 -0.10734949020E-01 -0.15546276334E-01  0.23601737315E-01  0.00000000000E+00 0. -1.
     999901    1    3    3    0    0 -0.74207966574E-01  0.12569675660E-01  0.12684974411E+00  0.89227556093E+00  0.88000000000E+00 0. -1.
        -11    1    4    4    0    0  0.51185859028E-01 -0.64887363980E-02 -0.10227664919E+00  0.11455509572E+00  0.51100000000E-03 0. -1.
         11    1    4    4    0    0  0.88758654305E-02  0.46540097582E-02 -0.90268185824E-02  0.13497606036E-01  0.51100000000E-03 0.  1.
</event>
<event>
 8    1  0.1146431E+005  0.1043930E+01  0.7957747E-01            NaN
         13   -1    0    0    0    0  0.00000000000E+00  0.00000000000E+00  0.74505805969E-08  0.10566000000E+00  0.10566000000E+00 0. -1.
     999900   -1    0    0    0    0 -0.00000000000E+00 -0.00000000000E+00 -0.74505805969E-08  0.93827000000E+00  0.93827000000E+00 0.  1.
     999902    2    1    2    0    0  0.61536330192E-02 -0.12680535255E-01  0.18664192929E-01  0.10205416424E+01  0.10202736048E+01 0.  0.
     999903    2    3    3    0    0  0.12640679965E+00 -0.25747857452E-01  0.19711875264E-01  0.13226652925E+00  0.21546358712E-01 0.  0.
         14    1    1    2    0    0 -0.61536330192E-02  0.12680535255E-01 -0.18664192929E-01  0.23388357603E-01  0.00000000000E+00 0.  1.
     999901    1    3    3    0    0 -0.12025316663E+00  0.13067322197E-01 -0.10476823348E-02  0.88827511314E+00  0.88000000000E+00 0.  1.
        -11    1    4    4    0    0  0.27869390789E-01 -0.93187480081E-02  0.13015150007E-01  0.32143385916E-01  0.51100000000E-03 0. -1.
         11    1    4    4    0    0  0.98537408858E-01 -0.16429109444E-01  0.66967252563E-02  0.10012314334E+00  0.51100000000E-03 0.  1.
</event>
<event>
 8    1  0.1146431E+005  0.1043930E+01  0.7957747E-01            NaN
         13   -1    0    0    0    0  0.00000000000E+00  0.00000000000E+00  0.74505805969E-08  0.10566000000E+00  0.10566000000E+00 0. -1.
     999900   -1    0    0    0    0 -0.00000000000E+00 -0.00000000000E+00 -0.74505805969E-08  0.93827000000E+00  0.93827000000E+00 0.  1.
     999902    2    1    2    0    0  0.93836148272E-02  0.11874988359E-01  0.14436010486E-01  0.10230143127E+01  0.10228004781E+01 0.  0.
     999903    2    3    3    0    0 -0.83263135257E-01  0.83303432321E-01 -0.57288446017E-01  0.13237979701E+00  0.19241441736E-01 0.  0.
         14    1    1    2    0    0 -0.93836148272E-02 -0.11874988359E-01 -0.14436010486E-01  0.20915687283E-01  0.00000000000E+00 0.  1.
     999901    1    3    3    0    0  0.92646750085E-01 -0.71428443962E-01  0.71724456503E-01  0.89063451571E+00  0.88000000000E+00 0. -1.
        -11    1    4    4    0    0 -0.43797112050E-01  0.30628334285E-01 -0.23367345637E-01  0.58331602482E-01  0.51100000000E-03 0. -1.
         11    1    4    4    0    0 -0.39466023207E-01  0.52675098036E-01 -0.33921100380E-01  0.74048194528E-01  0.51100000000E-03 0.  1.
</event>
<event>
 8    1  0.1146431E+005  0.1043930E+01  0.7957747E-01            NaN
         13   -1    0    0    0    0  0.00000000000E+00  0.00000000000E+00  0.74505805969E-08  0.10566000000E+00  0.10566000000E+00 0. -1.
     999900   -1    0    0    0    0 -0.00000000000E+00 -0.00000000000E+00 -0.74505805969E-08  0.93827000000E+00  0.93827000000E+00 0.  1.
     999902    2    1    2    0    0 -0.81515367555E-02 -0.13870726543E-01 -0.19614484337E-01  0.10185612672E+01  0.10182452958E+01 0.  0.
     999903    2    3    3    0    0  0.24230205670E-01  0.70334267563E-01 -0.10456131655E+00  0.12987964676E+00  0.20040999554E-01 0.  0.
         14    1    1    2    0    0  0.81515367555E-02  0.13870726543E-01  0.19614484337E-01  0.25368732765E-01  0.00000000000E+00 0. -1.
     999901    1    3    3    0    0 -0.32381742426E-01 -0.84204994106E-01  0.84946832208E-01  0.88868162048E+00  0.88000000000E+00 0.  1.
        -11    1    4    4    0    0  0.87531055629E-02  0.18045306364E-01 -0.44151796213E-01  0.48496310877E-01  0.51100000000E-03 0. -1.
         11    1    4    4    0    0  0.15477100108E-01  0.52288961199E-01 -0.60409520332E-01  0.81383335879E-01  0.51100000000E-03 0.  1.
</event>
<event>
 8    1  0.1146431E+005  0.1043930E+01  0.7957747E-01            NaN
         13   -1    0    0    0    0  0.00000000000E+00  0.00000000000E+00  0.74505805969E-08  0.10566000000E+00  0.10566000000E+00 0. -1.
     999900   -1    0    0    0    0 -0.00000000000E+00 -0.00000000000E+00 -0.74505805969E-08  0.93827000000E+00  0.93827000000E+00 0.  1.
     999902    2    1    2    0    0 -0.52823716633E-02 -0.17043748171E-01  0.66579249895E-02  0.10248847705E+01  0.10247077984E+01 0.  0.
     999903    2    3    3    0    0  0.10194678967E+00 -0.28274184621E-01  0.82018155460E-01  0.13510761856E+00  0.18289705551E-01 0.  0.
         14    1    1    2    0    0  0.52823716633E-02  0.17043748171E-01 -0.66579249895E-02  0.19045229515E-01  0.00000000000E+00 0. -1.
     999901    1    3    3    0    0 -0.10722916133E+00  0.11230436450E-01 -0.75360230471E-01  0.88977715192E+00  0.88000000000E+00 0. -1.
        -11    1    4    4    0    0  0.65145385892E-01 -0.26526651492E-01  0.57465006135E-01  0.90829910236E-01  0.51100000000E-03 0.  1.
         11    1    4    4    0    0  0.36801403777E-01 -0.17475331297E-02  0.24553149325E-01  0.44277708328E-01  0.51100000000E-03 0. -1.
</event>
<event>
 8    1  0.1146431E+005  0.1043930E+01  0.7957747E-01            NaN
         13   -1    0    0    0    0  0.00000000000E+00  0.00000000000E+00  0.74505805969E-08  0.10566000000E+00  0.10566000000E+00 0.  1.
     999900   -1    0    0    0    0 -0.00000000000E+00 -0.00000000000E+00 -0.74505805969E-08  0.93827000000E+00  0.93827000000E+00 0.  1.
     999902    2    1    2    0    0 -0.22265612378E-01 -0.87294752135E-02 -0.49900668431E-02  0.10194992407E+01  0.10192064756E+01 0.  0.
     999903    2    3    3    0    0  0.56532766661E-04 -0.38015695966E-01  0.12228637031E+00  0.12958056334E+00  0.19798224602E-01 0.  0.
         14    1    1    2    0    0  0.22265612378E-01  0.87294752135E-02  0.49900668431E-02  0.24430759284E-01  0.00000000000E+00 0. -1.
     999901    1    3    3    0    0 -0.22322145145E-01  0.29286220752E-01 -0.12727643715E+00  0.88991867738E+00  0.88000000000E+00 0.  1.
        -11    1    4    4    0    0 -0.17818738201E-02 -0.63267340760E-02  0.52504031453E-01  0.52916321473E-01  0.51100000000E-03 0. -1.
         11    1    4    4    0    0  0.18384065867E-02 -0.31688961890E-01  0.69782338852E-01  0.76664241868E-01  0.51100000000E-03 0.  1.
</event>
<event>
 7    1  0.1146431E+005  0.1043930E+01  0.7957747E-01            NaN
         13   -1    0    0    0    0  0.00000000000E+00  0.00000000000E+00  0.74505805969E-08  0.10566000000E+00  0.10566000000E+00 0. -1.
     999900   -1    0    0    0    0 -0.00000000000E+00 -0.00000000000E+00 -0.74505805969E-08  0.93827000000E+00  0.93827000000E+00 0. -1.
     999903    2    1    2    0    0  0.31541150560E-01 -0.94550183353E-01  0.42326290473E-01  0.11006990285E+00  0.19730364837E-01 0.  0.
         14    1    1    2    0    0  0.52116571043E-02 -0.17111599659E-01  0.38418691150E-01  0.42378815962E-01  0.00000000000E+00 0. -1.
     999901    1    1    2    0    0 -0.36752807665E-01  0.11166178301E+00 -0.80744981624E-01  0.89148128119E+00  0.88000000000E+00 0. -1.
        -11    1    3    3    0    0  0.29087469395E-01 -0.77273789429E-01  0.41937097068E-01  0.92608318417E-01  0.51100000000E-03 0. -1.
         11    1    3    3    0    0  0.24536811655E-02 -0.17276393924E-01  0.38919340539E-03  0.17461584430E-01  0.51100000000E-03 0.  1.
</event>
<event>
 8    1  0.1146431E+005  0.1043930E+01  0.7957747E-01            NaN
         13   -1    0    0    0    0  0.00000000000E+00  0.00000000000E+00  0.74505805969E-08  0.10566000000E+00  0.10566000000E+00 0. -1.
     999900   -1    0    0    0    0 -0.00000000000E+00 -0.00000000000E+00 -0.74505805969E-08  0.93827000000E+00  0.93827000000E+00 0.  1.
     999902    2    1    2    0    0  0.19552270604E-01  0.12250139582E-01 -0.65359330841E-02  0.10199492655E+01  0.10196673127E+01 0.  0.
     999903    2    3    3    0    0  0.44239454735E-01  0.12263657239E+00  0.12634801257E-01  0.13250228756E+00  0.20008992044E-01 0.  0.
         14    1    1    2    0    0 -0.19552270604E-01 -0.12250139582E-01  0.65359330841E-02  0.23980734493E-01  0.00000000000E+00 0. -1.
     999901    1    3    3    0    0 -0.24687184131E-01 -0.11038643281E+00 -0.19170734342E-01  0.88744697795E+00  0.88000000000E+00 0. -1.
        -11    1    4    4    0    0  0.34688435510E-01  0.10297658624E+00  0.32553383245E-02  0.10871211165E+00  0.51100000000E-03 0. -1.
         11    1    4    4    0    0  0.95510192247E-02  0.19659986154E-01  0.93794629329E-02  0.23790175907E-01  0.51100000000E-03 0.  1.
</event>
<event>
 8    1  0.1146431E+005  0.1043930E+01  0.7957747E-01            NaN
         13   -1    0    0    0    0  0.00000000000E+00  0.00000000000E+00  0.74505805969E-08  0.10566000000E+00  0.10566000000E+00 0.  1.
     999900   -1    0    0    0    0 -0.00000000000E+00 -0.00000000000E+00 -0.74505805969E-08  0.93827000000E+00  0.93827000000E+00 0.  1.
     999902    2    1    2    0    0 -0.47839771420E-02  0.24406718725E-01 -0.33827345506E-03  0.10190565446E+01  0.10187529397E+01 0.  0.
     999903    2    3    3    0    0  0.57312052230E-02 -0.58665238094E-01  0.11188055996E+00  0.12798719505E+00  0.19723223064E-01 0.  0.
         14    1    1    2    0    0  0.47839771420E-02 -0.24406718725E-01  0.33827345506E-03  0.24873455432E-01  0.00000000000E+00 0.  1.
     999901    1    3    3    0    0 -0.10515182365E-01  0.83071956819E-01 -0.11221883341E+00  0.89106934951E+00  0.88000000000E+00 0.  1.
        -11    1    4    4    0    0  0.12307395652E-01 -0.30594592598E-01  0.52978749860E-01  0.62406010462E-01  0.51100000000E-03 0. -1.
         11    1    4    4    0    0 -0.65761904291E-02 -0.28070645496E-01  0.58901810095E-01  0.65581184593E-01  0.51100000000E-03 0.  1.
</event>
<event>
 8    1  0.1146431E+005  0.1043930E+01  0.7957747E-01            NaN
         13   -1    0    0    0    0  0.00000000000E+00  0.00000000000E+00  0.74505805969E-08  0.10566000000E+00  0.10566000000E+00 0.  1.
     999900   -1    0    0    0    0 -0.00000000000E+00 -0.00000000000E+00 -0.74505805969E-08  0.93827000000E+00  0.93827000000E+00 0. -1.
     999902    2    1    2    0    0  0.87678632987E-02 -0.36998164481E-02 -0.21545489339E-01  0.10203763977E+01  0.10201045147E+01 0.  0.
     999903    2    3    3    0    0  0.30199557444E-01 -0.10426457610E+00  0.67894003081E-01  0.12988663856E+00  0.21859280008E-01 0.  0.
         14    1    1    2    0    0 -0.87678632987E-02  0.36998164481E-02  0.21545489339E-01  0.23553602260E-01  0.00000000000E+00 0.  1.
     999901    1    3    3    0    0 -0.21431694145E-01  0.10056475966E+00 -0.89439492420E-01  0.89048975918E+00  0.88000000000E+00 0.  1.
        -11    1    4    4    0    0  0.23725084329E-01 -0.51940072802E-01  0.43529462677E-01  0.71803384537E-01  0.51100000000E-03 0. -1.
         11    1    4    4    0    0  0.64744731146E-02 -0.52324503301E-01  0.24364540404E-01  0.58083254023E-01  0.51100000000E-03 0.  1.
</event>
<event>
 8    1  0.1146431E+005  0.1043930E+01  0.7957747E-01            NaN
         13   -1    0    0    0    0  0.00000000000E+00  0.00000000000E+00  0.74505805969E-08  0.10566000000E+00  0.10566000000E+00 0.  1.
     999900   -1    0    0    0    0 -0.00000000000E+00 -0.00000000000E+00 -0.74505805969E-08  0.93827000000E+00  0.93827000000E+00 0. -1.
     999902    2    1    2    0    0  0.70979700772E-03  0.16225756747E-01  0.16914580678E-01  0.10204804364E+01  0.10202109777E+01 0.  0.
     999903    2    3    3    0    0  0.84733497765E-01  0.22402502532E-01  0.97074764222E-01  0.13282972271E+00  0.23207490676E-01 0.  0.
         14    1    1    2    0    0 -0.70979700772E-03 -0.16225756747E-01 -0.16914580678E-01  0.23449563606E-01  0.00000000000E+00 0. -1.
     999901    1    3    3    0    0 -0.84023700757E-01 -0.61767457852E-02 -0.80160183544E-01  0.88765071368E+00  0.88000000000E+00 0. -1.
        -11    1    4    4    0    0  0.23411914225E-01 -0.42410118668E-02  0.26124465591E-01  0.35339110526E-01  0.51100000000E-03 0.  1.
         11    1    4    4    0    0  0.61321583539E-01  0.26643514399E-01  0.70950298630E-01  0.97490612184E-01  0.51100000000E-03 0. -1.
</event>
<event>
 8    1  0.1146431E+005  0.1043930E+01  0.7957747E-01            NaN
         13   -1    0    0    0    0  0.00000000000E+00  0.00000000000E+00  0.74505805969E-08  0.10566000000E+00  0.10566000000E+00 0. -1.
     999900   -1    0    0    0    0 -0.00000000000E+00 -0.00000000000E+00 -0.74505805969E-08  0.93827000000E+00  0.93827000000E+00 0.  1.
     999902    2    1    2    0    0 -0.80793951880E-02  0.23142462714E-01  0.23023085885E-02  0.10193098694E+01  0.10190124921E+01 0.  0.
     999903    2    3    3    0    0 -0.37268866410E-01  0.66372366688E-01  0.10501006341E+00  0.13180227351E+00  0.23462020823E-01 0.  0.
         14    1    1    2    0    0  0.80793951880E-02 -0.23142462714E-01 -0.23023085885E-02  0.24620130624E-01  0.00000000000E+00 0. -1.
     999901    1    3    3    0    0  0.29189471222E-01 -0.43229903974E-01 -0.10270775482E+00  0.88750759587E+00  0.88000000000E+00 0.  1.
        -11    1    4    4    0    0 -0.69184232792E-02  0.17530948384E-01  0.44481479187E-01  0.48312129363E-01  0.51100000000E-03 0. -1.
         11    1    4    4    0    0 -0.30350443131E-01  0.48841418304E-01  0.60528584221E-01  0.83490144143E-01  0.51100000000E-03 0.  1.
</event>
<event>
 8    1  0.1146431E+005  0.1043930E+01  0.7957747E-01            NaN
         13   -1    0    0    0    0  0.00000000000E+00  0.00000000000E+00  0.74505805969E-08  0.10566000000E+00  0.10566000000E+00 0. -1.
     999900   -1    0    0    0    0 -0.00000000000E+00 -0.00000000000E+00 -0.74505805969E-08  0.93827000000E+00  0.93827000000E+00 0. -1.
     999902    2    1    2    0    0  0.20411236278E-01 -0.11022220815E-01  0.22808132807E-02  0.10206209883E+01  0.10203547872E+01 0.  0.
     999903    2    3    3    0    0  0.21965474479E-01 -0.89212126197E-03 -0.12753366084E+00  0.13103859622E+00  0.20566990628E-01 0.  0.
         14    1    1    2    0    0 -0.20411236278E-01  0.11022220815E-01 -0.22808132807E-02  0.23309011719E-01  0.00000000000E+00 0. -1.
     999901    1    3    3    0    0 -0.15542382008E-02 -0.10130099553E-01  0.12981447412E+00  0.88958239206E+00  0.88000000000E+00 0.  1.
        -11    1    4    4    0    0  0.56159001446E-02 -0.63034855426E-03 -0.88938634812E-01  0.89119456669E-01  0.51100000000E-03 0. -1.
         11    1    4    4    0    0  0.16349574335E-01 -0.26177270771E-03 -0.38595026025E-01  0.41919139551E-01  0.51100000000E-03 0.  1.
</event>
<event>
 8    1  0.1146431E+005  0.1043930E+01  0.7957747E-01            NaN
         13   -1    0    0    0    0  0.00000000000E+00  0.00000000000E+00  0.74505805969E-08  0.10566000000E+00  0.10566000000E+00 0.  1.
     999900   -1    0    0    0    0 -0.00000000000E+00 -0.00000000000E+00 -0.74505805969E-08  0.93827000000E+00  0.93827000000E+00 0.  1.
     999902    2    1    2    0    0 -0.18768412141E-01  0.61072962963E-02  0.19674786473E-01  0.10160615665E+01  0.10156793083E+01 0.  0.
     999903    2    3    3    0    0  0.22508900950E-01  0.63343678225E-01 -0.10313650732E+00  0.12473534460E+00  0.20067258340E-01 0.  0.
         14    1    1    2    0    0  0.18768412141E-01 -0.61072962963E-02 -0.19674786473E-01  0.27868433488E-01  0.00000000000E+00 0.  1.
     999901    1    3    3    0    0 -0.41277313090E-01 -0.57236381928E-01  0.12281129379E+00  0.89132622192E+00  0.88000000000E+00 0. -1.
        -11    1    4    4    0    0  0.15667453853E-01  0.19530301490E-01 -0.28703679090E-01  0.38092835295E-01  0.51100000000E-03 0. -1.
         11    1    4    4    0    0  0.68414470964E-02  0.43813376735E-01 -0.74432828226E-01  0.86642509301E-01  0.51100000000E-03 0.  1.
</event>
<event>
 8    1  0.1146431E+005  0.1043930E+01  0.7957747E-01            NaN
         13   -1    0    0    0    0  0.00000000000E+00  0.00000000000E+00  0.74505805969E-08  0.10566000000E+00  0.10566000000E+00 0. -1.
     999900   -1    0    0    0    0 -0.00000000000E+00 -0.00000000000E+00 -0.74505805969E-08  0.93827000000E+00  0.93827000000E+00 0.  1.
     999902    2    1    2    0    0 -0.21021027849E-01  0.98431690292E-02  0.27837581438E-02  0.10205522136E+01  0.10202844210E+01 0.  0.
     999903    2    3    3    0    0  0.75510767795E-02 -0.12275052807E+00 -0.34901206721E-01  0.12936333896E+00  0.19800715475E-01 0.  0.
         14    1    1    2    0    0  0.21021027849E-01 -0.98431690292E-02 -0.27837581438E-02  0.23377786418E-01  0.00000000000E+00 0.  1.
     999901    1    3    3    0    0 -0.28572104629E-01  0.13259369710E+00  0.37684964865E-01  0.89118887462E+00  0.88000000000E+00 0. -1.
        -11    1    4    4    0    0  0.14332598216E-01 -0.86776014209E-01 -0.24353820659E-01  0.91262641400E-01  0.51100000000E-03 0. -1.
         11    1    4    4    0    0 -0.67815214364E-02 -0.35974513864E-01 -0.10547386062E-01  0.38100697559E-01  0.51100000000E-03 0.  1.
</event>
<event>
 8    1  0.1146431E+005  0.1043930E+01  0.7957747E-01            NaN
         13   -1    0    0    0    0  0.00000000000E+00  0.00000000000E+00  0.74505805969E-08  0.10566000000E+00  0.10566000000E+00 0.  1.
     999900   -1    0    0    0    0 -0.00000000000E+00 -0.00000000000E+00 -0.74505805969E-08  0.93827000000E+00  0.93827000000E+00 0.  1.
     999902    2    1    2    0    0  0.53302053130E-02  0.22133169772E-01  0.67668532729E-02  0.10201796611E+01  0.10199031632E+01 0.  0.
     999903    2    3    3    0    0  0.79880278112E-01 -0.47001465622E-01  0.89533794360E-01  0.13046752921E+00  0.20383307960E-01 0.  0.
         14    1    1    2    0    0 -0.53302053130E-02 -0.22133169772E-01 -0.67668532729E-02  0.23750338862E-01  0.00000000000E+00 0.  1.
     999901    1    3    3    0    0 -0.74550072799E-01  0.69134635395E-01 -0.82766941087E-01  0.88971213193E+00  0.88000000000E+00 0.  1.
        -11    1    4    4    0    0  0.32396709292E-01 -0.28180629496E-01  0.32153335775E-01  0.53645062906E-01  0.51100000000E-03 0.  1.
         11    1    4    4    0    0  0.47483568820E-01 -0.18820836127E-01  0.57380458585E-01  0.76822466303E-01  0.51100000000E-03 0. -1.
</event>
<event>
 8    1  0.1146431E+005  0.1043930E+01  0.7957747E-01            NaN
         13   -1    0    0    0    0  0.00000000000E+00  0.00000000000E+00  0.74505805969E-08  0.10566000000E+00  0.10566000000E+00 0.  1.
     999900   -1    0    0    0    0 -0.00000000000E+00 -0.00000000000E+00 -0.74505805969E-08  0.93827000000E+00  0.93827000000E+00 0.  1.
     999902    2    1    2    0    0  0.18373055961E-01  0.12437288160E-01 -0.45033066831E-02  0.10212907621E+01  0.10210398061E+01 0.  0.
     999903    2    3    3    0    0  0.44942029541E-01  0.44454830265E-02 -0.12331220974E+00  0.13287344193E+00  0.20246040657E-01 0.  0.
         14    1    1    2    0    0 -0.18373055961E-01 -0.12437288160E-01  0.45033066831E-02  0.22639237912E-01  0.00000000000E+00 0.  1.
     999901    1    3    3    0    0 -0.26568973579E-01  0.79918051336E-02  0.11880890305E+00  0.88841732015E+00  0.88000000000E+00 0. -1.
        -11    1    4    4    0    0  0.93602167190E-02  0.89397901409E-03 -0.54657948517E-01  0.55463188806E-01  0.51100000000E-03 0.  1.
         11    1    4    4    0    0  0.35581812822E-01  0.35515040124E-02 -0.68654261221E-01  0.77410253127E-01  0.51100000000E-03 0. -1.
</event>
<event>
 8    1  0.1146431E+005  0.1043930E+01  0.7957747E-01            NaN
         13   -1    0    0    0    0  0.00000000000E+00  0.00000000000E+00  0.74505805969E-08  0.10566000000E+00  0.10566000000E+00 0. -1.
     999900   -1    0    0    0    0 -0.00000000000E+00 -0.00000000000E+00 -0.74505805969E-08  0.93827000000E+00  0.93827000000E+00 0. -1.
     999902    2    1    2    0    0 -0.15175091340E-01  0.16959752059E-01  0.61251601568E-02  0.10203623490E+01  0.10200901377E+01 0.  0.
     999903    2    3    3    0    0 -0.16685814356E-01  0.94080045074E-01  0.91462827792E-01  0.13287581986E+00  0.12691073757E-01 0.  0.
         14    1    1    2    0    0  0.15175091340E-01 -0.16959752059E-01 -0.61251601568E-02  0.23567651008E-01  0.00000000000E+00 0. -1.
     999901    1    3    3    0    0  0.15107230159E-02 -0.77120293016E-01 -0.85337667635E-01  0.88748652914E+00  0.88000000000E+00 0. -1.
        -11    1    4    4    0    0 -0.39562026889E-02  0.19779874589E-01  0.26872208368E-01  0.33604637805E-01  0.51100000000E-03 0.  1.
         11    1    4    4    0    0 -0.12729611667E-01  0.74300170485E-01  0.64590619424E-01  0.99271182052E-01  0.51100000000E-03 0. -1.
</event>
<event>
 8    1  0.1146431E+005  0.1043930E+01  0.7957747E-01            NaN
         13   -1    0    0    0    0  0.00000000000E+00  0.00000000000E+00  0.74505805969E-08  0.10566000000E+00  0.10566000000E+00 0. -1.
     999900   -1    0    0    0    0 -0.00000000000E+00 -0.00000000000E+00 -0.74505805969E-08  0.93827000000E+00  0.93827000000E+00 0. -1.
     999902    2    1    2    0    0  0.33917026205E-02  0.23265826296E-01 -0.39025946936E-02  0.10200965662E+01  0.10198181072E+01 0.  0.
     999903    2    3    3    0    0  0.11533967213E-01 -0.95857297607E-01  0.81164875446E-01  0.12796816202E+00  0.21597675354E-01 0.  0.
         14    1    1    2    0    0 -0.33917026205E-02 -0.23265826296E-01  0.39025946936E-02  0.23833433769E-01  0.00000000000E+00 0. -1.
     999901    1    3    3    0    0 -0.81422645930E-02  0.11912312390E+00 -0.85067470140E-01  0.89212840421E+00  0.88000000000E+00 0.  1.
        -11    1    4    4    0    0  0.16215507517E-01 -0.76573135275E-01  0.57751701751E-01  0.97272338853E-01  0.51100000000E-03 0.  1.
         11    1    4    4    0    0 -0.46815403038E-02 -0.19284162332E-01  0.23413173696E-01  0.30695823168E-01  0.51100000000E-03 0. -1.
</event>
<event>
 8    1  0.1146431E+005  0.1043930E+01  0.7957747E-01            NaN
         13   -1    0    0    0    0  0.00000000000E+00  0.00000000000E+00  0.74505805969E-08  0.10566000000E+00  0.10566000000E+00 0.  1.
     999900   -1    0    0    0    0 -0.00000000000E+00 -0.00000000000E+00 -0.74505805969E-08  0.93827000000E+00  0.93827000000E+00 0. -1.
     999902    2    1    2    0    0  0.17176491705E-02  0.22956246080E-01  0.46462790287E-02  0.10204453782E+01  0.10201751038E+01 0.  0.
     999903    2    3    3    0    0 -0.21045315496E-02  0.47290275557E-01  0.12197470782E+00  0.13231660698E+00  0.19724500444E-01 0.  0.
         14    1    1    2    0    0 -0.17176491705E-02 -0.22956246080E-01 -0.46462790287E-02  0.23484621810E-01  0.00000000000E+00 0. -1.
     999901    1    3    3    0    0  0.38221807202E-02 -0.24334029477E-01 -0.11732842879E+00  0.88812877121E+00  0.88000000000E+00 0. -1.
        -11    1    4    4    0    0  0.87823490575E-02  0.22763236404E-01  0.60655355223E-01  0.65380637996E-01  0.51100000000E-03 0. -1.
         11    1    4    4    0    0 -0.10886880607E-01  0.24527039152E-01  0.61319352600E-01  0.66935968979E-01  0.51100000000E-03 0.  1.
</event>
<event>
 8    1  0.1146431E+005  0.1043930E+01  0.7957747E-01            NaN
         13   -1    0    0    0    0  0.00000000000E+00  0.00000000000E+00  0.74505805969E-08  0.10566000000E+00  0.10566000000E+00 0.  1.
     999900   -1    0    0    0    0 -0.00000000000E+00 -0.00000000000E+00 -0.74505805969E-08  0.93827000000E+00  0.93827000000E+00 0.  1.
     999902    2    1    2    0    0  0.56942161830E-03  0.20624206972E-01  0.12776811923E-01  0.10196621390E+01  0.10193733117E+01 0.  0.
     999903    2    3    3    0    0 -0.24129566516E-01 -0.99312269700E-01 -0.72756498327E-01  0.12707559104E+00  0.20236968553E-01 0.  0.
         14    1    1    2    0    0 -0.56942161830E-03 -0.20624206972E-01 -0.12776811923E-01  0.24267860992E-01  0.00000000000E+00 0. -1.
     999901    1    3    3    0    0  0.24698988134E-01  0.11993647667E+00  0.85533310249E-01  0.89258654797E+00  0.88000000000E+00 0.  1.
        -11    1    4    4    0    0 -0.10667603640E-01 -0.63769737310E-01 -0.55994635660E-01  0.85533838378E-01  0.51100000000E-03 0. -1.
         11    1    4    4    0    0 -0.13461962875E-01 -0.35542532391E-01 -0.16761862666E-01  0.41541752662E-01  0.51100000000E-03 0.  1.
</event>
<event>
 8    1  0.1146431E+005  0.1043930E+01  0.7957747E-01            NaN
         13   -1    0    0    0    0  0.00000000000E+00  0.00000000000E+00  0.74505805969E-08  0.10566000000E+00  0.10566000000E+00 0. -1.
     999900   -1    0    0    0    0 -0.00000000000E+00 -0.00000000000E+00 -0.74505805969E-08  0.93827000000E+00  0.93827000000E+00 0. -1.
     999902    2    1    2    0    0  0.13105960519E-01 -0.20258572584E-01  0.30279708766E-03  0.10197997772E+01  0.10195142559E+01 0.  0.
     999903    2    3    3    0    0  0.91082386968E-01  0.43599110042E-01  0.80020866358E-01  0.13046682650E+00  0.20527302584E-01 0.  0.
         14    1    1    2    0    0 -0.13105960519E-01  0.20258572584E-01 -0.30279708766E-03  0.24130222757E-01  0.00000000000E+00 0.  1.
     999901    1    3    3    0    0 -0.77976426450E-01 -0.63857682626E-01 -0.79718069271E-01  0.88933295074E+00  0.88000000000E+00 0. -1.
        -11    1    4    4    0    0  0.34227048156E-01  0.26400225742E-01  0.27985158989E-01  0.51496533761E-01  0.51100000000E-03 0. -1.
         11    1    4    4    0    0  0.56855338812E-01  0.17198884300E-01  0.52035707369E-01  0.78970292737E-01  0.51100000000E-03 0.  1.
</event>
<event>
 8    1  0.1146431E+005  0.1043930E+01  0.7957747E-01            NaN
         13   -1    0    0    0    0  0.00000000000E+00  0.00000000000E+00  0.74505805969E-08  0.10566000000E+00  0.10566000000E+00 0.  1.
     999900   -1    0    0    0    0 -0.00000000000E+00 -0.00000000000E+00 -0.74505805969E-08  0.93827000000E+00  0.93827000000E+00 0.  1.
     999902    2    1    2    0    0 -0.22377084006E-01  0.11006526665E-01 -0.17124949610E-03  0.10189919398E+01  0.10186867363E+01 0.  0.
     999903    2    3    3    0    0 -0.59176958879E-01  0.87521301530E-01 -0.75893719869E-01  0.13166864246E+00  0.20368701690E-01 0.  0.
         14    1    1    2    0    0  0.22377084006E-01 -0.11006526665E-01  0.17124949610E-03  0.24938060153E-01  0.00000000000E+00 0. -1.
     999901    1    3    3    0    0  0.36799874873E-01 -0.76514774865E-01  0.75722470373E-01  0.88732329739E+00  0.88000000000E+00 0. -1.
        -11    1    4    4    0    0 -0.15858018414E-01  0.32787762947E-01 -0.16380144733E-01  0.39938507853E-01  0.51100000000E-03 0.  1.
         11    1    4    4    0    0 -0.43318940465E-01  0.54733538583E-01 -0.59513575136E-01  0.91730134608E-01  0.51100000000E-03 0. -1.
</event>
<event>
 8    1  0.1146431E+005  0.1043930E+01  0.7957747E-01            NaN
         13   -1    0    0    0    0  0.00000000000E+00  0.00000000000E+00  0.74505805969E-08  0.10566000000E+00  0.10566000000E+00 0.  1.
     999900   -1    0    0    0    0 -0.00000000000E+00 -0.00000000000E+00 -0.74505805969E-08  0.93827000000E+00  0.93827000000E+00 0.  1.
     999902    2    1    2    0    0  0.11316059044E-01 -0.22129387743E-02  0.21546198718E-01  0.10194925499E+01  0.10191996224E+01 0.  0.
     999903    2    3    3    0    0 -0.10037590397E-01 -0.11285599621E+00  0.63223568458E-01  0.13132878813E+00  0.20317526437E-01 0.  0.
         14    1    1    2    0    0 -0.11316059044E-01  0.22129387743E-02 -0.21546198718E-01  0.24437450143E-01  0.00000000000E+00 0. -1.
     999901    1    3    3    0    0  0.21353649441E-01  0.11064305744E+00 -0.41677369740E-01  0.88816376173E+00  0.88000000000E+00 0.  1.
        -11    1    4    4    0    0 -0.13256543579E-01 -0.82277830678E-01  0.38179495027E-01  0.91669582361E-01  0.51100000000E-03 0.  1.
         11    1    4    4    0    0  0.32189531812E-02 -0.30578165532E-01  0.25044073431E-01  0.39659205765E-01  0.51100000000E-03 0. -1.
</event>
<event>
 8    1  0.1146431E+005  0.1043930E+01  0.7957747E-01            NaN
         13   -1    0    0    0    0  0.00000000000E+00  0.00000000000E+00  0.74505805969E-08  0.10566000000E+00  0.10566000000E+00 0.  1.
     999900   -1    0    0    0    0 -0.00000000000E+00 -0.00000000000E+00 -0.74505805969E-08  0.93827000000E+00  0.93827000000E+00 0. -1.
     999902    2    1    2    0    0 -0.13045469999E-01  0.19156056225E-01  0.70747008401E-02  0.10196979929E+01  0.10194100286E+01 0.  0.
     999903    2    3    3    0    0 -0.10435480735E+00  0.79635900920E-01 -0.21295326535E-02  0.13286095902E+00  0.20388648548E-01 0.  0.
         14    1    1    2    0    0  0.13045469999E-01 -0.19156056225E-01 -0.70747008401E-02  0.24232007130E-01  0.00000000000E+00 0. -1.
     999901    1    3    3    0    0  0.91309337347E-01 -0.60479844695E-01  0.92042334935E-02  0.88683703385E+00  0.88000000000E+00 0.  1.
        -11    1    4    4    0    0 -0.62477552394E-01  0.35458527785E-01 -0.40808746414E-02  0.71956003256E-01  0.51100000000E-03 0.  1.
         11    1    4    4    0    0 -0.41877254952E-01  0.44177373135E-01  0.19513419879E-02  0.60904955759E-01  0.51100000000E-03 0. -1.
</event>
<event>
 8    1  0.1146431E+005  0.1043930E+01  0.7957747E-01            NaN
         13   -1    0    0    0    0  0.00000000000E+00  0.00000000000E+00  0.74505805969E-08  0.10566000000E+00  0.10566000000E+00 0. -1.
     999900   -1    0    0    0    0 -0.00000000000E+00 -0.00000000000E+00 -0.74505805969E-08  0.93827000000E+00  0.93827000000E+00 0. -1.
     999902    2    1    2    0    0  0.75725879933E-02  0.21769539253E-01  0.57517377984E-02  0.10201741709E+01  0.10198975437E+01 0.  0.
     999903    2    3    3    0    0 -0.34539447725E-01  0.47811289816E-01  0.11568088186E+00  0.13195347027E+00  0.23468255249E-01 0.  0.
         14    1    1    2    0    0 -0.75725879933E-02 -0.21769539253E-01 -0.57517377984E-02  0.23755829093E-01  0.00000000000E+00 0.  1.
     999901    1    3    3    0    0  0.42112035718E-01 -0.26041750563E-01 -0.10992914407E+00  0.88822070064E+00  0.88000000000E+00 0. -1.
        -11    1    4    4    0    0 -0.25908301528E-01  0.32010386186E-01  0.99710142619E-01  0.10788085360E+00  0.51100000000E-03 0.  1.
         11    1    4    4    0    0 -0.86311461967E-02  0.15800903631E-01  0.15970739245E-01  0.24072616668E-01  0.51100000000E-03 0. -1.
</event>
<event>
 8    1  0.1146431E+005  0.1043930E+01  0.7957747E-01            NaN
         13   -1    0    0    0    0  0.00000000000E+00  0.00000000000E+00  0.74505805969E-08  0.10566000000E+00  0.10566000000E+00 0.  1.
     999900   -1    0    0    0    0 -0.00000000000E+00 -0.00000000000E+00 -0.74505805969E-08  0.93827000000E+00  0.93827000000E+00 0.  1.
     999902    2    1    2    0    0  0.55948148443E-03 -0.10234032837E-01  0.20955221676E-01  0.10206025534E+01  0.10203359262E+01 0.  0.
     999903    2    3    3    0    0  0.86441176416E-01  0.43013697714E-01  0.88301791887E-01  0.13226334635E+00  0.19342470510E-01 0.  0.
         14    1    1    2    0    0 -0.55948148443E-03  0.10234032837E-01 -0.20955221676E-01  0.23327446563E-01  0.00000000000E+00 0. -1.
     999901    1    3    3    0    0 -0.85881694932E-01 -0.53247730551E-01 -0.67346570211E-01  0.88833920709E+00  0.88000000000E+00 0.  1.
        -11    1    4    4    0    0  0.35915949731E-01  0.14747721533E-01  0.47910807600E-01  0.61669744133E-01  0.51100000000E-03 0.  1.
         11    1    4    4    0    0  0.50525226685E-01  0.28265976181E-01  0.40390984287E-01  0.70593602215E-01  0.51100000000E-03 0. -1.
</event>
<event>
 8    1  0.1146431E+005  0.1043930E+01  0.7957747E-01            NaN
         13   -1    0    0    0    0  0.00000000000E+00  0.00000000000E+00  0.74505805969E-08  0.10566000000E+00  0.10566000000E+00 0.  1.
     999900   -1    0    0    0    0 -0.00000000000E+00 -0.00000000000E+00 -0.74505805969E-08  0.93827000000E+00  0.93827000000E+00 0. -1.
     999902    2    1    2    0    0  0.19434957248E-01  0.10309722319E-01  0.81616005182E-02  0.10204647137E+01  0.10201948894E+01 0.  0.
     999903    2    3    3    0    0  0.69142174276E-01  0.10560443939E+00 -0.36750378327E-01  0.13278854733E+00  0.18688769678E-01 0.  0.
         14    1    1    2    0    0 -0.19434957248E-01 -0.10309722319E-01 -0.81616005182E-02  0.23465286288E-01  0.00000000000E+00 0.  1.
     999901    1    3    3    0    0 -0.49707217027E-01 -0.95294717068E-01  0.44911978845E-01  0.88767616639E+00  0.88000000000E+00 0.  1.
        -11    1    4    4    0    0  0.14013755753E-01  0.26965263905E-01 -0.13196761585E-02  0.30422252939E-01  0.51100000000E-03 0. -1.
         11    1    4    4    0    0  0.55128418523E-01  0.78639175483E-01 -0.35430702168E-01  0.10236629439E+00  0.51100000000E-03 0.  1.
</event>
<event>
 8    1  0.1146431E+005  0.1043930E+01  0.7957747E-01            NaN
         13   -1    0    0    0    0  0.00000000000E+00  0.00000000000E+00  0.74505805969E-08  0.10566000000E+00  0.10566000000E+00 0.  1.
     999900   -1    0    0    0    0 -0.00000000000E+00 -0.00000000000E+00 -0.74505805969E-08  0.93827000000E+00  0.93827000000E+00 0. -1.
     999902    2    1    2    0    0 -0.97063950800E-02 -0.15608438953E-01 -0.14833980281E-01  0.10203104225E+01  0.10200369963E+01 0.  0.
     999903    2    3    3    0    0 -0.10400497864E+00  0.39563382203E-01  0.62126302773E-01  0.13022107982E+00  0.26749866189E-01 0.  0.
         14    1    1    2    0    0  0.97063950800E-02  0.15608438953E-01  0.14833980281E-01  0.23619577536E-01  0.00000000000E+00 0.  1.
     999901    1    3    3    0    0  0.94298583561E-01 -0.55171821157E-01 -0.76960283054E-01  0.89008934264E+00  0.88000000000E+00 0. -1.
        -11    1    4    4    0    0 -0.86920922925E-01  0.42103062183E-01  0.57214473870E-01  0.11225716827E+00  0.51100000000E-03 0. -1.
         11    1    4    4    0    0 -0.17084055716E-01 -0.25396799794E-02  0.49118289025E-02  0.17963911553E-01  0.51100000000E-03 0.  1.
</event>
<event>
 8    1  0.1146431E+005  0.1043930E+01  0.7957747E-01            NaN
         13   -1    0    0    0    0  0.00000000000E+00  0.00000000000E+00  0.74505805969E-08  0.10566000000E+00  0.10566000000E+00 0.  1.
     999900   -1    0    0    0    0 -0.00000000000E+00 -0.00000000000E+00 -0.74505805969E-08  0.93827000000E+00  0.93827000000E+00 0.  1.
     999902    2    1    2    0    0  0.49787161378E-02  0.22410148987E-02 -0.21942357797E-01  0.10213185686E+01  0.10210682356E+01 0.  0.
     999903    2    3    3    0    0 -0.82050280076E-01 -0.99414078751E-01  0.87602344394E-02  0.13067248101E+00  0.19574168496E-01 0.  0.
         14    1    1    2    0    0 -0.49787161378E-02 -0.22410148987E-02  0.21942357797E-01  0.22611431353E-01  0.00000000000E+00 0.  1.
     999901    1    3    3    0    0  0.87028996214E-01  0.10165509365E+00 -0.30702592236E-01  0.89064608763E+00  0.88000000000E+00 0.  1.
        -11    1    4    4    0    0 -0.16521298269E-01 -0.30049698256E-01 -0.34574103140E-02  0.34469587593E-01  0.51100000000E-03 0.  1.
         11    1    4    4    0    0 -0.65528981807E-01 -0.69364380495E-01  0.12217644753E-01  0.96202893420E-01  0.51100000000E-03 0. -1.
</event>
<event>
 8    1  0.1146431E+005  0.1043930E+01  0.7957747E-01            NaN
         13   -1    0    0    0    0  0.00000000000E+00  0.00000000000E+00  0.74505805969E-08  0.10566000000E+00  0.10566000000E+00 0. -1.
     999900   -1    0    0    0    0 -0.00000000000E+00 -0.00000000000E+00 -0.74505805969E-08  0.93827000000E+00  0.93827000000E+00 0.  1.
     999902    2    1    2    0    0 -0.57165910823E-02 -0.17080390099E-01 -0.60554077299E-02  0.10249277080E+01  0.10247515404E+01 0.  0.
     999903    2    3    3    0    0 -0.10013775323E-03 -0.73347724294E-01 -0.11372508064E+00  0.13656386590E+00  0.18341123631E-01 0.  0.
         14    1    1    2    0    0  0.57165910823E-02  0.17080390099E-01  0.60554077299E-02  0.19002292028E-01  0.00000000000E+00 0. -1.
     999901    1    3    3    0    0 -0.56164533291E-02  0.56267334195E-01  0.10766967291E+00  0.88836384208E+00  0.88000000000E+00 0.  1.
        -11    1    4    4    0    0  0.63687378379E-02 -0.63396862189E-01 -0.95100346023E-01  0.11447296577E+00  0.51100000000E-03 0.  1.
         11    1    4    4    0    0 -0.64688755912E-02 -0.99508621051E-02 -0.18624734612E-01  0.22090900127E-01  0.51100000000E-03 0. -1.
</event>
<event>
 8    1  0.1146431E+005  0.1043930E+01  0.7957747E-01            NaN
         13   -1    0    0    0    0  0.00000000000E+00  0.00000000000E+00  0.74505805969E-08  0.10566000000E+00  0.10566000000E+00 0. -1.
     999900   -1    0    0    0    0 -0.00000000000E+00 -0.00000000000E+00 -0.74505805969E-08  0.93827000000E+00  0.93827000000E+00 0. -1.
     999902    2    1    2    0    0  0.13576677912E-01 -0.12656549026E-01 -0.13124041942E-01  0.10211977565E+01  0.10209447111E+01 0.  0.
     999903    2    3    3    0    0  0.66997029081E-01 -0.11336392984E+00 -0.13540939015E-01  0.13384445357E+00  0.19773675121E-01 0.  0.
         14    1    1    2    0    0 -0.13576677912E-01  0.12656549026E-01  0.13124041942E-01  0.22732243472E-01  0.00000000000E+00 0. -1.
     999901    1    3    3    0    0 -0.53420351169E-01  0.10070738081E+00  0.41689707221E-03  0.88735330296E+00  0.88000000000E+00 0.  1.
        -11    1    4    4    0    0  0.30169519238E-01 -0.56305101039E-01 -0.16116371192E-01  0.65882189061E-01  0.51100000000E-03 0.  1.
         11    1    4    4    0    0  0.36827509844E-01 -0.57058828799E-01  0.25754321774E-02  0.67962264508E-01  0.51100000000E-03 0. -1.
</event>
<event>
 8    1  0.1146431E+005  0.1043930E+01  0.7957747E-01            NaN
         13   -1    0    0    0    0  0.00000000000E+00  0.00000000000E+00  0.74505805969E-08  0.10566000000E+00  0.10566000000E+00 0. -1.
     999900   -1    0    0    0    0 -0.00000000000E+00 -0.00000000000E+00 -0.74505805969E-08  0.93827000000E+00  0.93827000000E+00 0. -1.
     999902    2    1    2    0    0  0.51179981143E-02 -0.12739855517E-01 -0.21762179764E-01  0.10181988848E+01  0.10178737047E+01 0.  0.
     999903    2    3    3    0    0 -0.10384372251E-02 -0.20646574450E-01 -0.12850245212E+00  0.13169231195E+00  0.20065528546E-01 0.  0.
         14    1    1    2    0    0 -0.51179981143E-02  0.12739855517E-01  0.21762179764E-01  0.25731115238E-01  0.00000000000E+00 0. -1.
     999901    1    3    3    0    0  0.61564353394E-02  0.79067189333E-02  0.10674027236E+00  0.88650657281E+00  0.88000000000E+00 0.  1.
        -11    1    4    4    0    0  0.19658071546E-02 -0.23680891683E-01 -0.11748993700E+00  0.11986991051E+00  0.51100000000E-03 0. -1.
         11    1    4    4    0    0 -0.30042443796E-02  0.30343172335E-02 -0.11012515123E-01  0.11822401435E-01  0.51100000000E-03 0.  1.
</event>
<event>
 8    1  0.1146431E+005  0.1043930E+01  0.7957747E-01            NaN
         13   -1    0    0    0    0  0.00000000000E+00  0.00000000000E+00  0.74505805969E-08  0.10566000000E+00  0.10566000000E+00 0. -1.
     999900   -1    0    0    0    0 -0.00000000000E+00 -0.00000000000E+00 -0.74505805969E-08  0.93827000000E+00  0.93827000000E+00 0.  1.
     999902    2    1    2    0    0  0.28543224663E-02  0.10924287155E-01 -0.20851341103E-01  0.10202178590E+01  0.10199422602E+01 0.  0.
     999903    2    3    3    0    0  0.59238079193E-01 -0.93587077800E-01 -0.65914125858E-01  0.13109896478E+00  0.23970302909E-01 0.  0.
         14    1    1    2    0    0 -0.28543224663E-02 -0.10924287155E-01  0.20851341103E-01  0.23712141033E-01  0.00000000000E+00 0. -1.
     999901    1    3    3    0    0 -0.56383756727E-01  0.10451136496E+00  0.45062784755E-01  0.88911889419E+00  0.88000000000E+00 0. -1.
        -11    1    4    4    0    0  0.44636058655E-01 -0.52206498504E-01 -0.32773813840E-01  0.76107031298E-01  0.51100000000E-03 0. -1.
         11    1    4    4    0    0  0.14602020538E-01 -0.41380579296E-01 -0.33140312018E-01  0.54991933484E-01  0.51100000000E-03 0.  1.
</event>
<event>
 8    1  0.1146431E+005  0.1043930E+01  0.7957747E-01            NaN
         13   -1    0    0    0    0  0.00000000000E+00  0.00000000000E+00  0.74505805969E-08  0.10566000000E+00  0.10566000000E+00 0. -1.
     999900   -1    0    0    0    0 -0.00000000000E+00 -0.00000000000E+00 -0.74505805969E-08  0.93827000000E+00  0.93827000000E+00 0. -1.
     999902    2    1    2    0    0 -0.22905961817E-01  0.58519919366E-02 -0.36342642699E-02  0.10200106193E+01  0.10197301244E+01 0.  0.
     999903    2    3    3    0    0 -0.10484031920E+00  0.27482582969E-02  0.78802084654E-01  0.13236281543E+00  0.17638052883E-01 0.  0.
         14    1    1    2    0    0  0.22905961817E-01 -0.58519919366E-02  0.36342642699E-02  0.23919380703E-01  0.00000000000E+00 0. -1.
     999901    1    3    3    0    0  0.81934357384E-01  0.31037336397E-02 -0.82436348924E-01  0.88764780386E+00  0.88000000000E+00 0. -1.
        -11    1    4    4    0    0 -0.13075799663E-01  0.61197720153E-02  0.12459701329E-01  0.19077039198E-01  0.51100000000E-03 0. -1.
         11    1    4    4    0    0 -0.91764519538E-01 -0.33715137185E-02  0.66342383325E-01  0.11328577623E+00  0.51100000000E-03 0.  1.
</event>
<event>
 8    1  0.1146431E+005  0.1043930E+01  0.7957747E-01            NaN
         13   -1    0    0    0    0  0.00000000000E+00  0.00000000000E+00  0.74505805969E-08  0.10566000000E+00  0.10566000000E+00 0.  1.
     999900   -1    0    0    0    0 -0.00000000000E+00 -0.00000000000E+00 -0.74505805969E-08  0.93827000000E+00  0.93827000000E+00 0.  1.
     999902    2    1    2    0    0 -0.15229102778E-01 -0.23334930455E-01  0.12933878245E-01  0.10132098151E+01  0.10127439952E+01 0.  0.
     999903    2    3    3    0    0  0.99382129019E-01 -0.28751239988E-03 -0.67308785772E-01  0.12185926511E+00  0.21031348471E-01 0.  0.
         14    1    1    2    0    0  0.15229102778E-01  0.23334930455E-01 -0.12933878245E-01  0.30720184850E-01  0.00000000000E+00 0.  1.
     999901    1    3    3    0    0 -0.11461123180E+00 -0.23047418055E-01  0.80242664018E-01  0.89135055004E+00  0.88000000000E+00 0. -1.
        -11    1    4    4    0    0  0.33386707113E-01 -0.57168352400E-02 -0.13250328118E-01  0.36375633785E-01  0.51100000000E-03 0. -1.
         11    1    4    4    0    0  0.65995421906E-01  0.54293228401E-02 -0.54058457654E-01  0.85483631322E-01  0.51100000000E-03 0.  1.
</event>
<event>
 8    1  0.1146431E+005  0.1043930E+01  0.7957747E-01            NaN
         13   -1    0    0    0    0  0.00000000000E+00  0.00000000000E+00  0.74505805969E-08  0.10566000000E+00  0.10566000000E+00 0. -1.
     999900   -1    0    0    0    0 -0.00000000000E+00 -0.00000000000E+00 -0.74505805969E-08  0.93827000000E+00  0.93827000000E+00 0.  1.
     999902    2    1    2    0    0 -0.29786059621E-02 -0.15670506252E-01  0.16961096477E-01  0.10206466228E+01  0.10203810136E+01 0.  0.
     999903    2    3    3    0    0 -0.12686959027E+00  0.18455144189E-01 -0.16608749796E-01  0.13068006693E+00  0.19103508557E-01 0.  0.
         14    1    1    2    0    0  0.29786059621E-02  0.15670506252E-01 -0.16961096477E-01  0.23283377190E-01  0.00000000000E+00 0.  1.
     999901    1    3    3    0    0  0.12389098431E+00 -0.34125650441E-01  0.33569846273E-01  0.88996655588E+00  0.88000000000E+00 0.  1.
        -11    1    4    4    0    0 -0.64775715745E-01  0.29238114405E-02 -0.12564069073E-02  0.64855853266E-01  0.51100000000E-03 0.  1.
         11    1    4    4    0    0 -0.62093874528E-01  0.15531332748E-01 -0.15352342889E-01  0.65824213660E-01  0.51100000000E-03 0. -1.
</event>
<event>
 8    1  0.1146431E+005  0.1043930E+01  0.7957747E-01            NaN
         13   -1    0    0    0    0  0.00000000000E+00  0.00000000000E+00  0.74505805969E-08  0.10566000000E+00  0.10566000000E+00 0. -1.
     999900   -1    0    0    0    0 -0.00000000000E+00 -0.00000000000E+00 -0.74505805969E-08  0.93827000000E+00  0.93827000000E+00 0.  1.
     999902    2    1    2    0    0 -0.10954924258E-01 -0.15812797969E-01  0.13154149532E-01  0.10206257816E+01  0.10203596912E+01 0.  0.
     999903    2    3    3    0    0  0.15542980110E-02 -0.12098961941E+00 -0.49058221547E-01  0.13209383309E+00  0.20029173518E-01 0.  0.
         14    1    1    2    0    0  0.10954924258E-01  0.15812797969E-01 -0.13154149532E-01  0.23304218395E-01  0.00000000000E+00 0.  1.
     999901    1    3    3    0    0 -0.12509222269E-01  0.10517682144E+00  0.62212371079E-01  0.88853194851E+00  0.88000000000E+00 0. -1.
        -11    1    4    4    0    0  0.85357890095E-02 -0.56554349955E-01 -0.29710491365E-01  0.64453305664E-01  0.51100000000E-03 0. -1.
         11    1    4    4    0    0 -0.69814909985E-02 -0.64435269458E-01 -0.19347730182E-01  0.67640527429E-01  0.51100000000E-03 0.  1.
</event>
<event>
 8    1  0.1146431E+005  0.1043930E+01  0.7957747E-01            NaN
         13   -1    0    0    0    0  0.00000000000E+00  0.00000000000E+00  0.74505805969E-08  0.10566000000E+00  0.10566000000E+00 0. -1.
     999900   -1    0    0    0    0 -0.00000000000E+00 -0.00000000000E+00 -0.74505805969E-08  0.93827000000E+00  0.93827000000E+00 0. -1.
     999902    2    1    2    0    0 -0.13601397470E-01 -0.15097435633E-01  0.12487975301E-01  0.10200787924E+01  0.10197999130E+01 0.  0.
     999903    2    3    3    0    0 -0.78090510987E-01 -0.41386839902E-01 -0.93105878728E-01  0.13103433878E+00  0.26273463094E-01 0.  0.
         14    1    1    2    0    0  0.13601397470E-01  0.15097435633E-01 -0.12487975301E-01  0.23851207578E-01  0.00000000000E+00 0.  1.
     999901    1    3    3    0    0  0.64489113516E-01  0.26289404269E-01  0.10559385403E+00  0.88904445364E+00  0.88000000000E+00 0.  1.
        -11    1    4    4    0    0 -0.56159015175E-01 -0.16347447182E-01 -0.53208872480E-01  0.79072873012E-01  0.51100000000E-03 0. -1.
         11    1    4    4    0    0 -0.21931495812E-01 -0.25039392721E-01 -0.39897006249E-01  0.51961465770E-01  0.51100000000E-03 0.  1.
</event>
<event>
 8    1  0.1146431E+005  0.1043930E+01  0.7957747E-01            NaN
         13   -1    0    0    0    0  0.00000000000E+00  0.00000000000E+00  0.74505805969E-08  0.10566000000E+00  0.10566000000E+00 0. -1.
     999900   -1    0    0    0    0 -0.00000000000E+00 -0.00000000000E+00 -0.74505805969E-08  0.93827000000E+00  0.93827000000E+00 0.  1.
     999902    2    1    2    0    0  0.45204733430E-02 -0.20786924652E-01 -0.10251155632E-01  0.10203160823E+01  0.10200427887E+01 0.  0.
     999903    2    3    3    0    0 -0.65207604570E-01  0.71410987541E-01 -0.83624869237E-01  0.12972854497E+00  0.22018532866E-01 0.  0.
         14    1    1    2    0    0 -0.45204733430E-02  0.20786924652E-01  0.10251155632E-01  0.23613917666E-01  0.00000000000E+00 0. -1.
     999901    1    3    3    0    0  0.69728077913E-01 -0.92197912193E-01  0.73373713605E-01  0.89058753737E+00  0.88000000000E+00 0. -1.
        -11    1    4    4    0    0 -0.51858902225E-01  0.41780086659E-01 -0.58596716646E-01  0.88706018420E-01  0.51100000000E-03 0.  1.
         11    1    4    4    0    0 -0.13348702345E-01  0.29630900881E-01 -0.25028152592E-01  0.41022526549E-01  0.51100000000E-03 0. -1.
</event>
<event>
 8    1  0.1146431E+005  0.1043930E+01  0.7957747E-01            NaN
         13   -1    0    0    0    0  0.00000000000E+00  0.00000000000E+00  0.74505805969E-08  0.10566000000E+00  0.10566000000E+00 0.  1.
     999900   -1    0    0    0    0 -0.00000000000E+00 -0.00000000000E+00 -0.74505805969E-08  0.93827000000E+00  0.93827000000E+00 0.  1.
     999902    2    1    2    0    0  0.20060288885E-01  0.97584860485E-02 -0.77649527988E-02  0.10203092944E+01  0.10200358418E+01 0.  0.
     999903    2    3    3    0    0 -0.61046263156E-01  0.57436934470E-02  0.11133272071E+00  0.12858139468E+00  0.19456723703E-01 0.  0.
         14    1    1    2    0    0 -0.20060288885E-01 -0.97584860485E-02  0.77649527988E-02  0.23620705579E-01  0.00000000000E+00 0.  1.
     999901    1    3    3    0    0  0.81106552041E-01  0.40147926015E-02 -0.11909767351E+00  0.89172789974E+00  0.88000000000E+00 0.  1.
        -11    1    4    4    0    0 -0.39307790500E-01  0.12850540881E-01  0.68303622387E-01  0.79849137422E-01  0.51100000000E-03 0. -1.
         11    1    4    4    0    0 -0.21738472656E-01 -0.71068474336E-02  0.43029098322E-01  0.48732257256E-01  0.51100000000E-03 0.  1.
</event>
<event>
 8    1  0.1146431E+005  0.1043930E+01  0.7957747E-01            NaN
         13   -1    0    0    0    0  0.00000000000E+00  0.00000000000E+00  0.74505805969E-08  0.10566000000E+00  0.10566000000E+00 0. -1.
     999900   -1    0    0    0    0 -0.00000000000E+00 -0.00000000000E+00 -0.74505805969E-08  0.93827000000E+00  0.93827000000E+00 0. -1.
     999902    2    1    2    0    0 -0.20151405128E-01 -0.11440361470E-02 -0.13817319373E-01  0.10194697003E+01  0.10191762181E+01 0.  0.
     999903    2    3    3    0    0 -0.49198005916E-01  0.11943549993E+00  0.31228365604E-02  0.13061082599E+00  0.19082801899E-01 0.  0.
         14    1    1    2    0    0  0.20151405128E-01  0.11440361470E-02  0.13817319373E-01  0.24460299711E-01  0.00000000000E+00 0. -1.
     999901    1    3    3    0    0  0.29046600789E-01 -0.12057953607E+00 -0.16940155933E-01  0.88885887430E+00  0.88000000000E+00 0.  1.
        -11    1    4    4    0    0 -0.12836010041E-01  0.15181183889E-01  0.35157361133E-02  0.20195371239E-01  0.51100000000E-03 0. -1.
         11    1    4    4    0    0 -0.36361995875E-01  0.10425431604E+00 -0.39289955294E-03  0.11041545475E+00  0.51100000000E-03 0.  1.
</event>
<event>
 8    1  0.1146431E+005  0.1043930E+01  0.7957747E-01            NaN
         13   -1    0    0    0    0  0.00000000000E+00  0.00000000000E+00  0.74505805969E-08  0.10566000000E+00  0.10566000000E+00 0. -1.
     999900   -1    0    0    0    0 -0.00000000000E+00 -0.00000000000E+00 -0.74505805969E-08  0.93827000000E+00  0.93827000000E+00 0. -1.
     999902    2    1    2    0    0  0.49507370697E-02 -0.21739146576E-01  0.67152291548E-02  0.10206449277E+01  0.10203792794E+01 0.  0.
     999903    2    3    3    0    0  0.69282901134E-02  0.12150152728E+00  0.36559916348E-01  0.12856168787E+00  0.19515577582E-01 0.  0.
         14    1    1    2    0    0 -0.49507370697E-02  0.21739146576E-01 -0.67152291548E-02  0.23285072343E-01  0.00000000000E+00 0. -1.
     999901    1    3    3    0    0 -0.19775530437E-02 -0.14324067386E+00 -0.29844687193E-01  0.89208323979E+00  0.88000000000E+00 0. -1.
        -11    1    4    4    0    0  0.72338468782E-02  0.15232448561E-01  0.69221441823E-02  0.18235493712E-01  0.51100000000E-03 0. -1.
         11    1    4    4    0    0 -0.30555676478E-03  0.10626907872E+00  0.29637772166E-01  0.11032619415E+00  0.51100000000E-03 0.  1.
</event>
<event>
 8    1  0.1146431E+005  0.1043930E+01  0.7957747E-01            NaN
         13   -1    0    0    0    0  0.00000000000E+00  0.00000000000E+00  0.74505805969E-08  0.10566000000E+00  0.10566000000E+00 0. -1.
     999900   -1    0    0    0    0 -0.00000000000E+00 -0.00000000000E+00 -0.74505805969E-08  0.93827000000E+00  0.93827000000E+00 0. -1.
     999902    2    1    2    0    0 -0.23044798364E-01 -0.24274028914E-02  0.39475876305E-02  0.10204238633E+01  0.10201530877E+01 0.  0.
     999903    2    3    3    0    0  0.62758457294E-01  0.97536465624E-01 -0.52371294906E-01  0.12883719320E+00  0.20106808151E-01 0.  0.
         14    1    1    2    0    0  0.23044798364E-01  0.24274028914E-02 -0.39475876305E-02  0.23506136742E-01  0.00000000000E+00 0. -1.
     999901    1    3    3    0    0 -0.85803255658E-01 -0.99963868515E-01  0.56318882536E-01  0.89158667006E+00  0.88000000000E+00 0.  1.
        -11    1    4    4    0    0  0.24401765211E-01  0.56211865910E-01 -0.29075991099E-01  0.67829893070E-01  0.51100000000E-03 0.  1.
         11    1    4    4    0    0  0.38356692083E-01  0.41324599714E-01 -0.23295303806E-01  0.61007300133E-01  0.51100000000E-03 0. -1.
</event>
<event>
 8    1  0.1146431E+005  0.1043930E+01  0.7957747E-01            NaN
         13   -1    0    0    0    0  0.00000000000E+00  0.00000000000E+00  0.74505805969E-08  0.10566000000E+00  0.10566000000E+00 0. -1.
     999900   -1    0    0    0    0 -0.00000000000E+00 -0.00000000000E+00 -0.74505805969E-08  0.93827000000E+00  0.93827000000E+00 0.  1.
     999902    2    1    2    0    0 -0.21552401790E-01  0.19351002707E-01  0.20977619026E-01  0.10081665014E+01  0.10075319681E+01 0.  0.
     999903    2    3    3    0    0  0.38293261987E-01  0.76114254279E-01 -0.79843331176E-01  0.11857758841E+00  0.20638152093E-01 0.  0.
         14    1    1    2    0    0  0.21552401790E-01 -0.19351002707E-01 -0.20977619026E-01  0.35763498552E-01  0.00000000000E+00 0.  1.
     999901    1    3    3    0    0 -0.59845663777E-01 -0.56763251572E-01  0.10082095020E+00  0.88958891304E+00  0.88000000000E+00 0. -1.
        -11    1    4    4    0    0  0.25506531589E-01  0.30156816652E-01 -0.42255897244E-01  0.57843225335E-01  0.51100000000E-03 0.  1.
         11    1    4    4    0    0  0.12786730398E-01  0.45957437627E-01 -0.37587433932E-01  0.60734363075E-01  0.51100000000E-03 0. -1.
</event>
<event>
 8    1  0.1146431E+005  0.1043930E+01  0.7957747E-01            NaN
         13   -1    0    0    0    0  0.00000000000E+00  0.00000000000E+00  0.74505805969E-08  0.10566000000E+00  0.10566000000E+00 0.  1.
     999900   -1    0    0    0    0 -0.00000000000E+00 -0.00000000000E+00 -0.74505805969E-08  0.93827000000E+00  0.93827000000E+00 0. -1.
     999902    2    1    2    0    0 -0.16113385631E-02 -0.21932013094E-01  0.99920609342E-02  0.10197752718E+01  0.10194891633E+01 0.  0.
     999903    2    3    3    0    0 -0.10931774009E+00 -0.77248433149E-02  0.68895645762E-01  0.13114028216E+00  0.21002906833E-01 0.  0.
         14    1    1    2    0    0  0.16113385631E-02  0.21932013094E-01 -0.99920609342E-02  0.24154728150E-01  0.00000000000E+00 0. -1.
     999901    1    3    3    0    0  0.10770640153E+00 -0.14207169779E-01 -0.58903584828E-01  0.88863498969E+00  0.88000000000E+00 0. -1.
        -11    1    4    4    0    0 -0.85821260861E-01 -0.12880177276E-01  0.59918299666E-01  0.10545924112E+00  0.51100000000E-03 0.  1.
         11    1    4    4    0    0 -0.23496479232E-01  0.51553339609E-02  0.89773460960E-02  0.25681041032E-01  0.51100000000E-03 0. -1.
</event>
<event>
 8    1  0.1146431E+005  0.1043930E+01  0.7957747E-01            NaN
         13   -1    0    0    0    0  0.00000000000E+00  0.00000000000E+00  0.74505805969E-08  0.10566000000E+00  0.10566000000E+00 0.  1.
     999900   -1    0    0    0    0 -0.00000000000E+00 -0.00000000000E+00 -0.74505805969E-08  0.93827000000E+00  0.93827000000E+00 0.  1.
     999902    2    1    2    0    0 -0.61195484712E-02  0.26557897622E-02  0.27341496442E-01  0.10157864480E+01  0.10153964981E+01 0.  0.
     999903    2    3    3    0    0 -0.90060400542E-01  0.95705916242E-02 -0.83500420649E-01  0.12484323334E+00  0.20274138489E-01 0.  0.
         14    1    1    2    0    0  0.61195484712E-02 -0.26557897622E-02 -0.27341496442E-01  0.28143552023E-01  0.00000000000E+00 0. -1.
     999901    1    3    3    0    0  0.83940852071E-01 -0.69148018620E-02  0.11084191709E+00  0.89094321464E+00  0.88000000000E+00 0.  1.
        -11    1    4    4    0    0 -0.72834727551E-01  0.17704394612E-02 -0.58181773058E-01  0.93238467547E-01  0.51100000000E-03 0. -1.
         11    1    4    4    0    0 -0.17225672991E-01  0.78001521630E-02 -0.25318647591E-01  0.31604765789E-01  0.51100000000E-03 0.  1.
</event>
<event>
 8    1  0.1146431E+005  0.1043930E+01  0.7957747E-01            NaN
         13   -1    0    0    0    0  0.00000000000E+00  0.00000000000E+00  0.74505805969E-08  0.10566000000E+00  0.10566000000E+00 0.  1.
     999900   -1    0    0    0    0 -0.00000000000E+00 -0.00000000000E+00 -0.74505805969E-08  0.93827000000E+00  0.93827000000E+00 0.  1.
     999902    2    1    2    0    0  0.23739990155E-01 -0.26081257134E-02 -0.26035962523E-03  0.10200457533E+01  0.10197660916E+01 0.  0.
     999903    2    3    3    0    0 -0.67816439608E-01 -0.19127778008E-01 -0.10555686683E+00  0.12889883324E+00  0.22532547608E-01 0.  0.
         14    1    1    2    0    0 -0.23739990155E-01  0.26081257134E-02  0.26035962523E-03  0.23884246679E-01  0.00000000000E+00 0.  1.
     999901    1    3    3    0    0  0.91556429763E-01  0.16519652294E-01  0.10529650721E+00  0.89114692008E+00  0.88000000000E+00 0. -1.
        -11    1    4    4    0    0 -0.18925640367E-01 -0.36789911763E-02 -0.13557740797E-01  0.23575162691E-01  0.51100000000E-03 0.  1.
         11    1    4    4    0    0 -0.48890799240E-01 -0.15448786832E-01 -0.91999126037E-01  0.10532367055E+00  0.51100000000E-03 0. -1.
</event>
<event>
 8    1  0.1146431E+005  0.1043930E+01  0.7957747E-01            NaN
         13   -1    0    0    0    0  0.00000000000E+00  0.00000000000E+00  0.74505805969E-08  0.10566000000E+00  0.10566000000E+00 0. -1.
     999900   -1    0    0    0    0 -0.00000000000E+00 -0.00000000000E+00 -0.74505805969E-08  0.93827000000E+00  0.93827000000E+00 0. -1.
     999902    2    1    2    0    0 -0.11891785615E-02 -0.61535517817E-02 -0.24586542279E-01  0.10185572113E+01  0.10182411376E+01 0.  0.
     999903    2    3    3    0    0  0.77261046705E-01 -0.10182737584E+00  0.74931171927E-03  0.12954100000E+00  0.21029156041E-01 0.  0.
         14    1    1    2    0    0  0.11891785615E-02  0.61535517817E-02  0.24586542279E-01  0.25372788700E-01  0.00000000000E+00 0. -1.
     999901    1    3    3    0    0 -0.78450225267E-01  0.95673824062E-01 -0.25335853998E-01  0.88901621130E+00  0.88000000000E+00 0. -1.
        -11    1    4    4    0    0  0.78345540811E-02 -0.27465848798E-02 -0.18805850351E-02  0.85277011689E-02  0.51100000000E-03 0.  1.
         11    1    4    4    0    0  0.69426492624E-01 -0.99080790964E-01  0.26298967543E-02  0.12101329883E+00  0.51100000000E-03 0. -1.
</event>
<event>
 8    1  0.1146431E+005  0.1043930E+01  0.7957747E-01            NaN
         13   -1    0    0    0    0  0.00000000000E+00  0.00000000000E+00  0.74505805969E-08  0.10566000000E+00  0.10566000000E+00 0.  1.
     999900   -1    0    0    0    0 -0.00000000000E+00 -0.00000000000E+00 -0.74505805969E-08  0.93827000000E+00  0.93827000000E+00 0.  1.
     999902    2    1    2    0    0  0.35464507993E-02  0.11283210818E-01 -0.19815176461E-01  0.10208534019E+01  0.10205925430E+01 0.  0.
     999903    2    3    3    0    0 -0.12566625933E+00 -0.27214280097E-01 -0.12208634219E-01  0.13055241871E+00  0.19033063471E-01 0.  0.
         14    1    1    2    0    0 -0.35464507993E-02 -0.11283210818E-01  0.19815176461E-01  0.23076598055E-01  0.00000000000E+00 0.  1.
     999901    1    3    3    0    0  0.12921271013E+00  0.38497490915E-01 -0.76065422421E-02  0.89030098324E+00  0.88000000000E+00 0. -1.
        -11    1    4    4    0    0 -0.28390953802E-01  0.12622844441E-02  0.29434420344E-03  0.28425118809E-01  0.51100000000E-03 0. -1.
         11    1    4    4    0    0 -0.97275305532E-01 -0.28476564541E-01 -0.12502978422E-01  0.10212729990E+00  0.51100000000E-03 0.  1.
</event>
<event>
 8    1  0.1146431E+005  0.1043930E+01  0.7957747E-01            NaN
         13   -1    0    0    0    0  0.00000000000E+00  0.00000000000E+00  0.74505805969E-08  0.10566000000E+00  0.10566000000E+00 0.  1.
     999900   -1    0    0    0    0 -0.00000000000E+00 -0.00000000000E+00 -0.74505805969E-08  0.93827000000E+00  0.93827000000E+00 0. -1.
     999902    2    1    2    0    0  0.51225398369E-02 -0.20690530594E-01 -0.10127700407E-01  0.10203310851E+01  0.10200581426E+01 0.  0.
     999903    2    3    3    0    0 -0.10804720248E+00  0.65322767533E-02  0.67603369007E-01  0.12926958833E+00  0.20580144836E-01 0.  0.
         14    1    1    2    0    0 -0.51225398369E-02  0.20690530594E-01  0.10127700407E-01  0.23598914937E-01  0.00000000000E+00 0. -1.
     999901    1    3    3    0    0  0.11316974232E+00 -0.27222807348E-01 -0.77731069414E-01  0.89106149674E+00  0.88000000000E+00 0.  1.
        -11    1    4    4    0    0 -0.24098356404E-01  0.22042027670E-02  0.56791471709E-02  0.24861679847E-01  0.51100000000E-03 0.  1.
         11    1    4    4    0    0 -0.83948846076E-01  0.43280739862E-02  0.61924221836E-01  0.10440790848E+00  0.51100000000E-03 0. -1.
</event>
<event>
 8    1  0.1146431E+005  0.1043930E+01  0.7957747E-01            NaN
         13   -1    0    0    0    0  0.00000000000E+00  0.00000000000E+00  0.74505805969E-08  0.10566000000E+00  0.10566000000E+00 0.  1.
     999900   -1    0    0    0    0 -0.00000000000E+00 -0.00000000000E+00 -0.74505805969E-08  0.93827000000E+00  0.93827000000E+00 0.  1.
     999902    2    1    2    0    0 -0.22383157932E-01  0.65859426889E-03 -0.68235657297E-02  0.10205205883E+01  0.10202520623E+01 0.  0.
     999903    2    3    3    0    0  0.88036610278E-02 -0.12481803372E+00 -0.32647900979E-01  0.13069819137E+00  0.18949559329E-01 0.  0.
         14    1    1    2    0    0  0.22383157932E-01 -0.65859426889E-03  0.68235657297E-02  0.23409411669E-01  0.00000000000E+00 0. -1.
     999901    1    3    3    0    0 -0.31186818960E-01  0.12547662799E+00  0.25824335249E-01  0.88982239696E+00  0.88000000000E+00 0. -1.
        -11    1    4    4    0    0  0.18840080341E-02 -0.89785061553E-01 -0.30784845923E-01  0.94936160781E-01  0.51100000000E-03 0. -1.
         11    1    4    4    0    0  0.69196529938E-02 -0.35032972168E-01 -0.18630550559E-02  0.35762030586E-01  0.51100000000E-03 0.  1.
</event>
<event>
 8    1  0.1146431E+005  0.1043930E+01  0.7957747E-01            NaN
         13   -1    0    0    0    0  0.00000000000E+00  0.00000000000E+00  0.74505805969E-08  0.10566000000E+00  0.10566000000E+00 0. -1.
     999900   -1    0    0    0    0 -0.00000000000E+00 -0.00000000000E+00 -0.74505805969E-08  0.93827000000E+00  0.93827000000E+00 0.  1.
     999902    2    1    2    0    0  0.80179124724E-02  0.14650057202E-01  0.14925500046E-01  0.10215317490E+01  0.10212861659E+01 0.  0.
     999903    2    3    3    0    0  0.87220255821E-01 -0.31396045472E-01 -0.89462315152E-01  0.13063889869E+00  0.21677899389E-01 0.  0.
         14    1    1    2    0    0 -0.80179124724E-02 -0.14650057202E-01 -0.14925500046E-01  0.22398251004E-01  0.00000000000E+00 0.  1.
     999901    1    3    3    0    0 -0.79202343348E-01  0.46046102674E-01  0.10438781520E+00  0.89089285031E+00  0.88000000000E+00 0. -1.
        -11    1    4    4    0    0  0.20845994827E-01 -0.82561237306E-02 -0.10025751167E-01  0.24566153277E-01  0.51100000000E-03 0. -1.
         11    1    4    4    0    0  0.66374260994E-01 -0.23139921742E-01 -0.79436563986E-01  0.10607274541E+00  0.51100000000E-03 0.  1.
</event>
<event>
 8    1  0.1146431E+005  0.1043930E+01  0.7957747E-01            NaN
         13   -1    0    0    0    0  0.00000000000E+00  0.00000000000E+00  0.74505805969E-08  0.10566000000E+00  0.10566000000E+00 0.  1.
     999900   -1    0    0    0    0 -0.00000000000E+00 -0.00000000000E+00 -0.74505805969E-08  0.93827000000E+00  0.93827000000E+00 0.  1.
     999902    2    1    2    0    0  0.13144000307E-02 -0.10465794948E-01 -0.20321376523E-01  0.10210341738E+01  0.10207774318E+01 0.  0.
     999903    2    3    3    0    0  0.63756380819E-01 -0.11204273158E+00  0.20817784708E-01  0.13204075115E+00  0.19568597523E-01 0.  0.
         14    1    1    2    0    0 -0.13144000307E-02  0.10465794948E-01  0.20321376523E-01  0.22895826151E-01  0.00000000000E+00 0.  1.
     999901    1    3    3    0    0 -0.62441980788E-01  0.10157693663E+00 -0.41139161232E-01  0.88899342270E+00  0.88000000000E+00 0.  1.
        -11    1    4    4    0    0  0.54479687842E-01 -0.10501456326E+00  0.15800534451E-01  0.11935666255E+00  0.51100000000E-03 0. -1.
         11    1    4    4    0    0  0.92766929768E-02 -0.70281683130E-02  0.50172502577E-02  0.12684088598E-01  0.51100000000E-03 0.  1.
</event>
<event>
 8    1  0.1146431E+005  0.1043930E+01  0.7957747E-01            NaN
         13   -1    0    0    0    0  0.00000000000E+00  0.00000000000E+00  0.74505805969E-08  0.10566000000E+00  0.10566000000E+00 0.  1.
     999900   -1    0    0    0    0 -0.00000000000E+00 -0.00000000000E+00 -0.74505805969E-08  0.93827000000E+00  0.93827000000E+00 0. -1.
     999902    2    1    2    0    0 -0.69199148715E-02  0.21559282419E-01 -0.57657112655E-02  0.10205648271E+01  0.10202973267E+01 0.  0.
     999903    2    3    3    0    0  0.38315072222E-01  0.12575458326E+00  0.64531702055E-02  0.13317981150E+00  0.20321388139E-01 0.  0.
         14    1    1    2    0    0  0.69199148715E-02 -0.21559282419E-01  0.57657112655E-02  0.23365172942E-01  0.00000000000E+00 0. -1.
     999901    1    3    3    0    0 -0.45234987094E-01 -0.10419530084E+00 -0.12218881471E-01  0.88738501556E+00  0.88000000000E+00 0.  1.
        -11    1    4    4    0    0  0.35820886265E-01  0.94892638140E-01 -0.54865499351E-03  0.10143131079E+00  0.51100000000E-03 0.  1.
         11    1    4    4    0    0  0.24941859575E-02  0.30861945116E-01  0.70018251990E-02  0.31748500705E-01  0.51100000000E-03 0. -1.
</event>
<event>
 8    1  0.1146431E+005  0.1043930E+01  0.7957747E-01            NaN
         13   -1    0    0    0    0  0.00000000000E+00  0.00000000000E+00  0.74505805969E-08  0.10566000000E+00  0.10566000000E+00 0.  1.
     999900   -1    0    0    0    0 -0.00000000000E+00 -0.00000000000E+00 -0.74505805969E-08  0.93827000000E+00  0.93827000000E+00 0.  1.
     999902    2    1    2    0    0  0.12533626247E-01  0.14593878760E-01 -0.13727679376E-01  0.10202969243E+01  0.10200231819E+01 0.  0.
     999903    2    3    3    0    0  0.12670683894E+00 -0.16838526116E-02 -0.33201391654E-01  0.13255838597E+00  0.20296179150E-01 0.  0.
         14    1    1    2    0    0 -0.12533626247E-01 -0.14593878760E-01  0.13727679376E-01  0.23633075661E-01  0.00000000000E+00 0.  1.
     999901    1    3    3    0    0 -0.11417321270E+00  0.16277731371E-01  0.19473712279E-01  0.88773853837E+00  0.88000000000E+00 0. -1.
        -11    1    4    4    0    0  0.50492180436E-01  0.23876077059E-02 -0.35487378295E-02  0.50675591925E-01  0.51100000000E-03 0.  1.
         11    1    4    4    0    0  0.76214658509E-01 -0.40714603175E-02 -0.29652653825E-01  0.81882794045E-01  0.51100000000E-03 0. -1.
</event>
<event>
 8    1  0.1146431E+005  0.1043930E+01  0.7957747E-01            NaN
         13   -1    0    0    0    0  0.00000000000E+00  0.00000000000E+00  0.74505805969E-08  0.10566000000E+00  0.10566000000E+00 0.  1.
     999900   -1    0    0    0    0 -0.00000000000E+00 -0.00000000000E+00 -0.74505805969E-08  0.93827000000E+00  0.93827000000E+00 0. -1.
     999902    2    1    2    0    0 -0.18284950768E-01  0.12911476485E-01 -0.10552584361E-01  0.10191832288E+01  0.10188827465E+01 0.  0.
     999903    2    3    3    0    0  0.54671642156E-01 -0.81941885709E-02 -0.11533989563E+00  0.12971794325E+00  0.21617587630E-01 0.  0.
         14    1    1    2    0    0  0.18284950768E-01 -0.12911476485E-01  0.10552584361E-01  0.24746771230E-01  0.00000000000E+00 0.  1.
     999901    1    3    3    0    0 -0.72956592924E-01  0.21105665056E-01  0.10478731126E+00  0.88946528552E+00  0.88000000000E+00 0.  1.
        -11    1    4    4    0    0  0.10739799613E-01  0.52002201161E-02 -0.37290292927E-01  0.39156259431E-01  0.51100000000E-03 0.  1.
         11    1    4    4    0    0  0.43931842543E-01 -0.13394408687E-01 -0.78049602698E-01  0.90561683816E-01  0.51100000000E-03 0. -1.
</event>
<event>
 8    1  0.1146431E+005  0.1043930E+01  0.7957747E-01            NaN
         13   -1    0    0    0    0  0.00000000000E+00  0.00000000000E+00  0.74505805969E-08  0.10566000000E+00  0.10566000000E+00 0. -1.
     999900   -1    0    0    0    0 -0.00000000000E+00 -0.00000000000E+00 -0.74505805969E-08  0.93827000000E+00  0.93827000000E+00 0. -1.
     999902    2    1    2    0    0 -0.52674925818E-02 -0.10239106587E-01  0.18656457684E-01  0.10220062869E+01  0.10217711100E+01 0.  0.
     999903    2    3    3    0    0  0.19679315609E-01 -0.12997744513E+00  0.11986509285E-01  0.13352212771E+00  0.20076615223E-01 0.  0.
         14    1    1    2    0    0  0.52674925818E-02  0.10239106587E-01 -0.18656457684E-01  0.21923713078E-01  0.00000000000E+00 0.  1.
     999901    1    3    3    0    0 -0.24946808191E-01  0.11973833854E+00  0.66699483995E-02  0.88848415921E+00  0.88000000000E+00 0.  1.
        -11    1    4    4    0    0  0.11031221125E-01 -0.30380216723E-01  0.87853730362E-02  0.33497601526E-01  0.51100000000E-03 0. -1.
         11    1    4    4    0    0  0.86480944847E-02 -0.99597228406E-01  0.32011362485E-02  0.10002452619E+00  0.51100000000E-03 0.  1.
</event>
<event>
 8    1  0.1146431E+005  0.1043930E+01  0.7957747E-01            NaN
         13   -1    0    0    0    0  0.00000000000E+00  0.00000000000E+00  0.74505805969E-08  0.10566000000E+00  0.10566000000E+00 0.  1.
     999900   -1    0    0    0    0 -0.00000000000E+00 -0.00000000000E+00 -0.74505805969E-08  0.93827000000E+00  0.93827000000E+00 0. -1.
     999902    2    1    2    0    0  0.13133550479E-01  0.14226946960E-01  0.13378955546E-01  0.10203950766E+01  0.10201236296E+01 0.  0.
     999903    2    3    3    0    0  0.51058868512E-01 -0.11732089586E+00  0.95388740193E-02  0.12980094293E+00  0.19649275049E-01 0.  0.
         14    1    1    2    0    0 -0.13133550479E-01 -0.14226946960E-01 -0.13378955546E-01  0.23534923401E-01  0.00000000000E+00 0. -1.
     999901    1    3    3    0    0 -0.37925318033E-01  0.13154784282E+00  0.38400815265E-02  0.89059413367E+00  0.88000000000E+00 0. -1.
        -11    1    4    4    0    0  0.20008183217E-01 -0.34676685721E-01 -0.49167752508E-02  0.40339010004E-01  0.51100000000E-03 0.  1.
         11    1    4    4    0    0  0.31050685294E-01 -0.82644210136E-01  0.14455649270E-01  0.89461932927E-01  0.51100000000E-03 0. -1.
</event>
<event>
 8    1  0.1146431E+005  0.1043930E+01  0.7957747E-01            NaN
         13   -1    0    0    0    0  0.00000000000E+00  0.00000000000E+00  0.74505805969E-08  0.10566000000E+00  0.10566000000E+00 0. -1.
     999900   -1    0    0    0    0 -0.00000000000E+00 -0.00000000000E+00 -0.74505805969E-08  0.93827000000E+00  0.93827000000E+00 0.  1.
     999902    2    1    2    0    0 -0.18962629187E-01  0.76450282062E-02 -0.11561312241E-01  0.10204418817E+01  0.10201715259E+01 0.  0.
     999903    2    3    3    0    0  0.21747864843E-03 -0.12330413935E+00  0.34128711125E-01  0.12937334376E+00  0.19202475749E-01 0.  0.
         14    1    1    2    0    0  0.18962629187E-01 -0.76450282062E-02  0.11561312241E-01  0.23488118330E-01  0.00000000000E+00 0. -1.
     999901    1    3    3    0    0 -0.19180107835E-01  0.13094916755E+00 -0.45690023366E-01  0.89106853791E+00  0.88000000000E+00 0.  1.
        -11    1    4    4    0    0  0.11858467295E-02 -0.23663013823E-01  0.14587999599E-01  0.27828318472E-01  0.51100000000E-03 0. -1.
         11    1    4    4    0    0 -0.96836808109E-03 -0.99641125525E-01  0.19540711526E-01  0.10154502529E+00  0.51100000000E-03 0.  1.
</event>
<event>
 8    1  0.1146431E+005  0.1043930E+01  0.7957747E-01            NaN
         13   -1    0    0    0    0  0.00000000000E+00  0.00000000000E+00  0.74505805969E-08  0.10566000000E+00  0.10566000000E+00 0.  1.
     999900   -1    0    0    0    0 -0.00000000000E+00 -0.00000000000E+00 -0.74505805969E-08  0.93827000000E+00  0.93827000000E+00 0.  1.
     999902    2    1    2    0    0 -0.61613835243E-02 -0.20071088562E-01 -0.94649169440E-02  0.10208996744E+01  0.10206398725E+01 0.  0.
     999903    2    3    3    0    0 -0.25774737662E-01  0.12346953741E+00  0.16290079357E-01  0.12868225990E+00  0.19613606435E-01 0.  0.
         14    1    1    2    0    0  0.61613835243E-02  0.20071088562E-01  0.94649169440E-02  0.23030325568E-01  0.00000000000E+00 0.  1.
     999901    1    3    3    0    0  0.19613354138E-01 -0.14354062597E+00 -0.25754996301E-01  0.89221741453E+00  0.88000000000E+00 0.  1.
        -11    1    4    4    0    0 -0.27988371787E-01  0.11179396705E+00  0.18076039971E-01  0.11665437997E+00  0.51100000000E-03 0.  1.
         11    1    4    4    0    0  0.22136341255E-02  0.11675570357E-01 -0.17859606139E-02  0.12027879926E-01  0.51100000000E-03 0. -1.
</event>
<event>
 8    1  0.1146431E+005  0.1043930E+01  0.7957747E-01            NaN
         13   -1    0    0    0    0  0.00000000000E+00  0.00000000000E+00  0.74505805969E-08  0.10566000000E+00  0.10566000000E+00 0.  1.
     999900   -1    0    0    0    0 -0.00000000000E+00 -0.00000000000E+00 -0.74505805969E-08  0.93827000000E+00  0.93827000000E+00 0.  1.
     999902    2    1    2    0    0  0.10157057225E-01  0.20969286334E-01 -0.98133515123E-02  0.10186480173E+01  0.10183342303E+01 0.  0.
     999903    2    3    3    0    0 -0.48281018759E-01 -0.25121511147E-01 -0.11548277368E+00  0.12920695849E+00  0.19900251532E-01 0.  0.
         14    1    1    2    0    0 -0.10157057225E-01 -0.20969286334E-01  0.98133515123E-02  0.25281982690E-01  0.00000000000E+00 0.  1.
     999901    1    3    3    0    0  0.58438075983E-01  0.46090797481E-01  0.10566942216E+00  0.88944105882E+00  0.88000000000E+00 0. -1.
        -11    1    4    4    0    0 -0.41060470278E-01 -0.11985236247E-01 -0.89728164784E-01  0.99403283567E-01  0.51100000000E-03 0.  1.
         11    1    4    4    0    0 -0.72205484806E-02 -0.13136274900E-01 -0.25754608892E-01  0.29803674921E-01  0.51100000000E-03 0. -1.
</event>
<event>
 8    1  0.1146431E+005  0.1043930E+01  0.7957747E-01            NaN
         13   -1    0    0    0    0  0.00000000000E+00  0.00000000000E+00  0.74505805969E-08  0.10566000000E+00  0.10566000000E+00 0.  1.
     999900   -1    0    0    0    0 -0.00000000000E+00 -0.00000000000E+00 -0.74505805969E-08  0.93827000000E+00  0.93827000000E+00 0.  1.
     999902    2    1    2    0    0  0.95827533241E-02 -0.10372720458E-01  0.19697204151E-01  0.10196936153E+01  0.10194055458E+01 0.  0.
     999903    2    3    3    0    0 -0.10062931056E+00 -0.67529924518E-01  0.46848906345E-01  0.13056434467E+00  0.12871644183E-01 0.  0.
         14    1    1    2    0    0 -0.95827533241E-02  0.10372720458E-01 -0.19697204151E-01  0.24236384680E-01  0.00000000000E+00 0. -1.
     999901    1    3    3    0    0  0.11021206388E+00  0.57157204061E-01 -0.27151702193E-01  0.88912927065E+00  0.88000000000E+00 0. -1.
        -11    1    4    4    0    0 -0.74713244202E-01 -0.56123290583E-01  0.38209139960E-01  0.10095589187E+00  0.51100000000E-03 0.  1.
         11    1    4    4    0    0 -0.25916066355E-01 -0.11406633935E-01  0.86397663841E-02  0.29608452800E-01  0.51100000000E-03 0. -1.
</event>
<event>
 8    1  0.1146431E+005  0.1043930E+01  0.7957747E-01            NaN
         13   -1    0    0    0    0  0.00000000000E+00  0.00000000000E+00  0.74505805969E-08  0.10566000000E+00  0.10566000000E+00 0. -1.
     999900   -1    0    0    0    0 -0.00000000000E+00 -0.00000000000E+00 -0.74505805969E-08  0.93827000000E+00  0.93827000000E+00 0.  1.
     999902    2    1    2    0    0 -0.22543082930E-02  0.21097151758E-01 -0.12812269212E-01  0.10191444001E+01  0.10188429626E+01 0.  0.
     999903    2    3    3    0    0  0.46677087924E-03 -0.91875475982E-01 -0.88054120350E-01  0.12873350900E+00  0.19428516860E-01 0.  0.
         14    1    1    2    0    0  0.22543082930E-02 -0.21097151758E-01  0.12812269212E-01  0.24785599863E-01  0.00000000000E+00 0. -1.
     999901    1    3    3    0    0 -0.27210791723E-02  0.11297262774E+00  0.75241851137E-01  0.89041089114E+00  0.88000000000E+00 0.  1.
        -11    1    4    4    0    0 -0.68629456931E-02 -0.57096877748E-01 -0.45820000939E-01  0.73531537990E-01  0.51100000000E-03 0.  1.
         11    1    4    4    0    0  0.73297165724E-02 -0.34778598234E-01 -0.42234119411E-01  0.55201971012E-01  0.51100000000E-03 0. -1.
</event>
<event>
 8    1  0.1146431E+005  0.1043930E+01  0.7957747E-01            NaN
         13   -1    0    0    0    0  0.00000000000E+00  0.00000000000E+00  0.74505805969E-08  0.10566000000E+00  0.10566000000E+00 0. -1.
     999900   -1    0    0    0    0 -0.00000000000E+00 -0.00000000000E+00 -0.74505805969E-08  0.93827000000E+00  0.93827000000E+00 0.  1.
     999902    2    1    2    0    0 -0.73530639883E-03  0.76586540571E-02  0.22753993407E-01  0.10199104273E+01  0.10196275496E+01 0.  0.
     999903    2    3    3    0    0 -0.71938631659E-01  0.30963634854E-01 -0.98799574908E-01  0.12840142249E+00  0.24323977628E-01 0.  0.
         14    1    1    2    0    0  0.73530639883E-03 -0.76586540571E-02 -0.22753993407E-01  0.24019572715E-01  0.00000000000E+00 0. -1.
     999901    1    3    3    0    0  0.71203325260E-01 -0.23304980796E-01  0.12155356831E+00  0.89150900479E+00  0.88000000000E+00 0. -1.
        -11    1    4    4    0    0 -0.20544840638E-01  0.98866168189E-02 -0.13180779606E-01  0.26340648074E-01  0.51100000000E-03 0. -1.
         11    1    4    4    0    0 -0.51393791021E-01  0.21077018035E-01 -0.85618795302E-01  0.10206077442E+00  0.51100000000E-03 0.  1.
</event>
<event>
 8    1  0.1146431E+005  0.1043930E+01  0.7957747E-01            NaN
         13   -1    0    0    0    0  0.00000000000E+00  0.00000000000E+00  0.74505805969E-08  0.10566000000E+00  0.10566000000E+00 0. -1.
     999900   -1    0    0    0    0 -0.00000000000E+00 -0.00000000000E+00 -0.74505805969E-08  0.93827000000E+00  0.93827000000E+00 0.  1.
     999902    2    1    2    0    0  0.10865861225E-01 -0.32494838785E-02 -0.30755240770E-02  0.10321790454E+01  0.10321121532E+01 0.  0.
     999903    2    3    3    0    0 -0.13194137042E+00  0.31025291384E-01  0.26631937625E-01  0.13951382321E+00  0.19589610264E-01 0.  0.
         14    1    1    2    0    0 -0.10865861225E-01  0.32494838785E-02  0.30755240770E-02  0.11750954599E-01  0.00000000000E+00 0.  1.
     999901    1    3    3    0    0  0.14280723165E+00 -0.34274775263E-01 -0.29707461702E-01  0.89266522219E+00  0.88000000000E+00 0.  1.
        -11    1    4    4    0    0 -0.18242350819E-01  0.23333015966E-02  0.10392053601E-01  0.21130157567E-01  0.51100000000E-03 0. -1.
         11    1    4    4    0    0 -0.11369901960E+00  0.28691989787E-01  0.16239884024E-01  0.11838366564E+00  0.51100000000E-03 0.  1.
</event>
<event>
 8    1  0.1146431E+005  0.1043930E+01  0.7957747E-01            NaN
         13   -1    0    0    0    0  0.00000000000E+00  0.00000000000E+00  0.74505805969E-08  0.10566000000E+00  0.10566000000E+00 0. -1.
     999900   -1    0    0    0    0 -0.00000000000E+00 -0.00000000000E+00 -0.74505805969E-08  0.93827000000E+00  0.93827000000E+00 0. -1.
     999902    2    1    2    0    0  0.20020264587E-01  0.52767370985E-02  0.12043372433E-01  0.10199780112E+01  0.10196967419E+01 0.  0.
     999903    2    3    3    0    0  0.28333694322E-01 -0.99545668035E-01  0.78217027732E-01  0.13125094263E+00  0.19919042529E-01 0.  0.
         14    1    1    2    0    0 -0.20020264587E-01 -0.52767370985E-02 -0.12043372433E-01  0.23951988813E-01  0.00000000000E+00 0.  1.
     999901    1    3    3    0    0 -0.83134297352E-02  0.10482240513E+00 -0.66173655299E-01  0.88872706856E+00  0.88000000000E+00 0. -1.
        -11    1    4    4    0    0  0.88286857125E-02 -0.54972493726E-01  0.32412512180E-01  0.64426336422E-01  0.51100000000E-03 0.  1.
         11    1    4    4    0    0  0.19505008610E-01 -0.44573174309E-01  0.45804515552E-01  0.66824606207E-01  0.51100000000E-03 0. -1.
</event>
<event>
 8    1  0.1146431E+005  0.1043930E+01  0.7957747E-01            NaN
         13   -1    0    0    0    0  0.00000000000E+00  0.00000000000E+00  0.74505805969E-08  0.10566000000E+00  0.10566000000E+00 0. -1.
     999900   -1    0    0    0    0 -0.00000000000E+00 -0.00000000000E+00 -0.74505805969E-08  0.93827000000E+00  0.93827000000E+00 0.  1.
     999902    2    1    2    0    0 -0.63165589087E-02 -0.16134897664E-01 -0.11541297714E-01  0.10231108888E+01  0.10228990446E+01 0.  0.
     999903    2    3    3    0    0 -0.64525384528E-01 -0.34147258163E-01  0.10901998242E+00  0.13280322579E+00  0.20537276482E-01 0.  0.
         14    1    1    2    0    0  0.63165589087E-02  0.16134897664E-01  0.11541297714E-01  0.20819111220E-01  0.00000000000E+00 0. -1.
     999901    1    3    3    0    0  0.58208825619E-01  0.18012360499E-01 -0.12056128013E+00  0.89030766299E+00  0.88000000000E+00 0.  1.
        -11    1    4    4    0    0 -0.64886679499E-01 -0.34746645001E-01  0.10230452307E+00  0.12603208749E+00  0.51100000000E-03 0. -1.
         11    1    4    4    0    0  0.36129497090E-03  0.59938683849E-03  0.67154593481E-02  0.67711383012E-02  0.51100000000E-03 0.  1.
</event>
<event>
 8    1  0.1146431E+005  0.1043930E+01  0.7957747E-01            NaN
         13   -1    0    0    0    0  0.00000000000E+00  0.00000000000E+00  0.74505805969E-08  0.10566000000E+00  0.10566000000E+00 0.  1.
     999900   -1    0    0    0    0 -0.00000000000E+00 -0.00000000000E+00 -0.74505805969E-08  0.93827000000E+00  0.93827000000E+00 0. -1.
     999902    2    1    2    0    0 -0.14393799437E-02  0.15398863853E-01 -0.22944391164E-01  0.10162597649E+01  0.10158829991E+01 0.  0.
     999903    2    3    3    0    0  0.86230536367E-01  0.92460945757E-01  0.35980220872E-02  0.12815556024E+00  0.20643884464E-01 0.  0.
         14    1    1    2    0    0  0.14393799437E-02 -0.15398863853E-01  0.22944391164E-01  0.27670235064E-01  0.00000000000E+00 0.  1.
     999901    1    3    3    0    0 -0.87669916311E-01 -0.77062081904E-01 -0.26542413252E-01  0.88810420469E+00  0.88000000000E+00 0. -1.
        -11    1    4    4    0    0  0.12258835858E-01  0.17856969054E-01 -0.64748621528E-02  0.22612725649E-01  0.51100000000E-03 0.  1.
         11    1    4    4    0    0  0.73971700509E-01  0.74603976702E-01  0.10072884240E-01  0.10554283459E+00  0.51100000000E-03 0. -1.
</event>
<event>
 8    1  0.1146431E+005  0.1043930E+01  0.7957747E-01            NaN
         13   -1    0    0    0    0  0.00000000000E+00  0.00000000000E+00  0.74505805969E-08  0.10566000000E+00  0.10566000000E+00 0. -1.
     999900   -1    0    0    0    0 -0.00000000000E+00 -0.00000000000E+00 -0.74505805969E-08  0.93827000000E+00  0.93827000000E+00 0.  1.
     999902    2    1    2    0    0 -0.11155805137E-01  0.12735927260E-01  0.16592968214E-01  0.10202238315E+01  0.10199483732E+01 0.  0.
     999903    2    3    3    0    0 -0.72638540195E-01  0.10059501815E+00 -0.39861672246E-01  0.13191843750E+00  0.20440304301E-01 0.  0.
         14    1    1    2    0    0  0.11155805137E-01 -0.12735927260E-01 -0.16592968214E-01  0.23706168513E-01  0.00000000000E+00 0.  1.
     999901    1    3    3    0    0  0.61482735057E-01 -0.87859090887E-01  0.56454640460E-01  0.88830539399E+00  0.88000000000E+00 0.  1.
        -11    1    4    4    0    0 -0.44223284554E-01  0.62874055950E-01 -0.34924182172E-01  0.84432253491E-01  0.51100000000E-03 0.  1.
         11    1    4    4    0    0 -0.28415255640E-01  0.37720962197E-01 -0.49374900745E-02  0.47486184006E-01  0.51100000000E-03 0. -1.
</event>
<event>
 8    1  0.1146431E+005  0.1043930E+01  0.7957747E-01            NaN
         13   -1    0    0    0    0  0.00000000000E+00  0.00000000000E+00  0.74505805969E-08  0.10566000000E+00  0.10566000000E+00 0. -1.
     999900   -1    0    0    0    0 -0.00000000000E+00 -0.00000000000E+00 -0.74505805969E-08  0.93827000000E+00  0.93827000000E+00 0. -1.
     999902    2    1    2    0    0 -0.81847065893E-02 -0.62216817647E-02 -0.20442261065E-01  0.10210480249E+01  0.10207915970E+01 0.  0.
     999903    2    3    3    0    0  0.18127439777E-01  0.74000442277E-01  0.10166022698E+00  0.12861487011E+00  0.20057754921E-01 0.  0.
         14    1    1    2    0    0  0.81847065893E-02  0.62216817647E-02  0.20442261065E-01  0.22881975077E-01  0.00000000000E+00 0. -1.
     999901    1    3    3    0    0 -0.26312146366E-01 -0.80222124042E-01 -0.12210248805E+00  0.89243315482E+00  0.88000000000E+00 0. -1.
        -11    1    4    4    0    0 -0.41256734109E-02  0.17869701242E-01  0.21707343979E-01  0.28422127070E-01  0.51100000000E-03 0. -1.
         11    1    4    4    0    0  0.22253113188E-01  0.56130741035E-01  0.79952883001E-01  0.10019274304E+00  0.51100000000E-03 0.  1.
</event>
<event>
 8    1  0.1146431E+005  0.1043930E+01  0.7957747E-01            NaN
         13   -1    0    0    0    0  0.00000000000E+00  0.00000000000E+00  0.74505805969E-08  0.10566000000E+00  0.10566000000E+00 0. -1.
     999900   -1    0    0    0    0 -0.00000000000E+00 -0.00000000000E+00 -0.74505805969E-08  0.93827000000E+00  0.93827000000E+00 0. -1.
     999902    2    1    2    0    0  0.16494563754E-01  0.16544843933E-01 -0.15776006364E-02  0.10205143788E+01  0.10202457086E+01 0.  0.
     999903    2    3    3    0    0  0.12392317631E+00  0.42890013922E-01 -0.15513129989E-01  0.13348045959E+00  0.19490227577E-01 0.  0.
         14    1    1    2    0    0 -0.16494563754E-01 -0.16544843933E-01  0.15776006364E-02  0.23415621238E-01  0.00000000000E+00 0. -1.
     999901    1    3    3    0    0 -0.10742861255E+00 -0.26345169989E-01  0.13935529352E-01  0.88703391917E+00  0.88000000000E+00 0.  1.
        -11    1    4    4    0    0  0.73917102252E-01  0.18470535804E-01 -0.15870801331E-01  0.77827001446E-01  0.51100000000E-03 0.  1.
         11    1    4    4    0    0  0.50006074054E-01  0.24419478119E-01  0.35767134252E-03  0.55653458147E-01  0.51100000000E-03 0. -1.
</event>
<event>
 8    1  0.1146431E+005  0.1043930E+01  0.7957747E-01            NaN
         13   -1    0    0    0    0  0.00000000000E+00  0.00000000000E+00  0.74505805969E-08  0.10566000000E+00  0.10566000000E+00 0.  1.
     999900   -1    0    0    0    0 -0.00000000000E+00 -0.00000000000E+00 -0.74505805969E-08  0.93827000000E+00  0.93827000000E+00 0.  1.
     999902    2    1    2    0    0 -0.12188624489E-01  0.20969633138E-01 -0.15757831298E-01  0.10150060077E+01  0.10145938096E+01 0.  0.
     999903    2    3    3    0    0  0.52727709017E-01  0.35224087262E-01 -0.10890825977E+00  0.12759723939E+00  0.19977458137E-01 0.  0.
         14    1    1    2    0    0  0.12188624489E-01 -0.20969633138E-01  0.15757831298E-01  0.28923992257E-01  0.00000000000E+00 0. -1.
     999901    1    3    3    0    0 -0.64916333506E-01 -0.14254454124E-01  0.93150428470E-01  0.88740876835E+00  0.88000000000E+00 0. -1.
        -11    1    4    4    0    0  0.34465747775E-01  0.17854345322E-01 -0.82006198401E-01  0.90730056287E-01  0.51100000000E-03 0.  1.
         11    1    4    4    0    0  0.18261961242E-01  0.17369741940E-01 -0.26902061367E-01  0.36867183107E-01  0.51100000000E-03 0. -1.
</event>
<event>
 8    1  0.1146431E+005  0.1043930E+01  0.7957747E-01            NaN
         13   -1    0    0    0    0  0.00000000000E+00  0.00000000000E+00  0.74505805969E-08  0.10566000000E+00  0.10566000000E+00 0. -1.
     999900   -1    0    0    0    0 -0.00000000000E+00 -0.00000000000E+00 -0.74505805969E-08  0.93827000000E+00  0.93827000000E+00 0.  1.
     999902    2    1    2    0    0  0.19390675776E-02  0.20217066019E-01 -0.12734969723E-01  0.10199577411E+01  0.10196759900E+01 0.  0.
     999903    2    3    3    0    0 -0.12271296605E+00 -0.12854010818E-01  0.32838618129E-01  0.12939119251E+00  0.20976373101E-01 0.  0.
         14    1    1    2    0    0 -0.19390675776E-02 -0.20217066019E-01  0.12734969723E-01  0.23972258870E-01  0.00000000000E+00 0. -1.
     999901    1    3    3    0    0  0.12465203362E+00  0.33071076837E-01 -0.45573587852E-01  0.89056654862E+00  0.88000000000E+00 0.  1.
        -11    1    4    4    0    0 -0.10708057536E+00 -0.17908015854E-01  0.30626480728E-01  0.11280597986E+00  0.51100000000E-03 0. -1.
         11    1    4    4    0    0 -0.15632390692E-01  0.50540050365E-02  0.22121374007E-02  0.16585212647E-01  0.51100000000E-03 0.  1.
</event>
<event>
 8    1  0.1146431E+005  0.1043930E+01  0.7957747E-01            NaN
         13   -1    0    0    0    0  0.00000000000E+00  0.00000000000E+00  0.74505805969E-08  0.10566000000E+00  0.10566000000E+00 0.  1.
     999900   -1    0    0    0    0 -0.00000000000E+00 -0.00000000000E+00 -0.74505805969E-08  0.93827000000E+00  0.93827000000E+00 0.  1.
     999902    2    1    2    0    0  0.12657222561E-01  0.12700682737E-01 -0.15837026009E-01  0.10200067055E+01  0.10197261178E+01 0.  0.
     999903    2    3    3    0    0 -0.77819814449E-01 -0.95818354816E-01  0.27118471232E-01  0.12770202076E+00  0.18311580602E-01 0.  0.
         14    1    1    2    0    0 -0.12657222561E-01 -0.12700682737E-01  0.15837026009E-01  0.23923294458E-01  0.00000000000E+00 0. -1.
     999901    1    3    3    0    0  0.90477037010E-01  0.10851903755E+00 -0.42955497241E-01  0.89230468478E+00  0.88000000000E+00 0. -1.
        -11    1    4    4    0    0 -0.19050317468E-01 -0.37038592128E-01  0.99632377155E-02  0.42828718510E-01  0.51100000000E-03 0. -1.
         11    1    4    4    0    0 -0.58769496981E-01 -0.58779762688E-01  0.17155233516E-01  0.84873302251E-01  0.51100000000E-03 0.  1.
</event>
<event>
 8    1  0.1146431E+005  0.1043930E+01  0.7957747E-01            NaN
         13   -1    0    0    0    0  0.00000000000E+00  0.00000000000E+00  0.74505805969E-08  0.10566000000E+00  0.10566000000E+00 0.  1.
     999900   -1    0    0    0    0 -0.00000000000E+00 -0.00000000000E+00 -0.74505805969E-08  0.93827000000E+00  0.93827000000E+00 0.  1.
     999902    2    1    2    0    0  0.10529258024E-02  0.10929796331E-01  0.20597349333E-01  0.10205886226E+01  0.10203216731E+01 0.  0.
     999903    2    3    3    0    0 -0.36240266062E-01  0.27142985386E-01  0.12409208928E+00  0.13359098399E+00  0.19940056241E-01 0.  0.
         14    1    1    2    0    0 -0.10529258024E-02 -0.10929796331E-01 -0.20597349333E-01  0.23341377425E-01  0.00000000000E+00 0. -1.
     999901    1    3    3    0    0  0.37293191864E-01 -0.16213189056E-01 -0.10349473994E+00  0.88699763858E+00  0.88000000000E+00 0.  1.
        -11    1    4    4    0    0 -0.19776708635E-01  0.24446796071E-01  0.65345422696E-01  0.72519303850E-01  0.51100000000E-03 0.  1.
         11    1    4    4    0    0 -0.16463557427E-01  0.26961893151E-02  0.58746666580E-01  0.61071680141E-01  0.51100000000E-03 0. -1.
</event>
<event>
 8    1  0.1146431E+005  0.1043930E+01  0.7957747E-01            NaN
         13   -1    0    0    0    0  0.00000000000E+00  0.00000000000E+00  0.74505805969E-08  0.10566000000E+00  0.10566000000E+00 0. -1.
     999900   -1    0    0    0    0 -0.00000000000E+00 -0.00000000000E+00 -0.74505805969E-08  0.93827000000E+00  0.93827000000E+00 0.  1.
     999902    2    1    2    0    0  0.11905232883E-01  0.16730161106E-01  0.11813822612E-01  0.10202403553E+01  0.10199652854E+01 0.  0.
     999903    2    3    3    0    0 -0.25743710437E-01  0.11647044334E+00 -0.51534912936E-01  0.13154545315E+00  0.20500151079E-01 0.  0.
         14    1    1    2    0    0 -0.11905232883E-01 -0.16730161106E-01 -0.11813822612E-01  0.23689644686E-01  0.00000000000E+00 0.  1.
     999901    1    3    3    0    0  0.37648943319E-01 -0.99740282236E-01  0.63348735548E-01  0.88869490216E+00  0.88000000000E+00 0.  1.
        -11    1    4    4    0    0 -0.77711365086E-02  0.69876025065E-01 -0.37417804574E-01  0.79645481113E-01  0.51100000000E-03 0. -1.
         11    1    4    4    0    0 -0.17972573928E-01  0.46594418277E-01 -0.14117108362E-01  0.51899972039E-01  0.51100000000E-03 0.  1.
</event>
<event>
 8    1  0.1146431E+005  0.1043930E+01  0.7957747E-01            NaN
         13   -1    0    0    0    0  0.00000000000E+00  0.00000000000E+00  0.74505805969E-08  0.10566000000E+00  0.10566000000E+00 0.  1.
     999900   -1    0    0    0    0 -0.00000000000E+00 -0.00000000000E+00 -0.74505805969E-08  0.93827000000E+00  0.93827000000E+00 0.  1.
     999902    2    1    2    0    0 -0.48241150170E-02 -0.14509894780E-01 -0.17381742949E-01  0.10207797490E+01  0.10205172031E+01 0.  0.
     999903    2    3    3    0    0 -0.48158560078E-01 -0.36542804868E-01  0.11314462941E+00  0.12982494819E+00  0.19954611289E-01 0.  0.
         14    1    1    2    0    0  0.48241150170E-02  0.14509894780E-01  0.17381742949E-01  0.23150250974E-01  0.00000000000E+00 0.  1.
     999901    1    3    3    0    0  0.43334445061E-01  0.22032910088E-01 -0.13052637236E+00  0.89095480084E+00  0.88000000000E+00 0.  1.
        -11    1    4    4    0    0 -0.46098707867E-01 -0.27861203970E-01  0.88435569718E-01  0.10354925720E+00  0.51100000000E-03 0.  1.
         11    1    4    4    0    0 -0.20598522105E-02 -0.86816008978E-02  0.24709059690E-01  0.26275690991E-01  0.51100000000E-03 0. -1.
</event>
<event>
 8    1  0.1146431E+005  0.1043930E+01  0.7957747E-01            NaN
         13   -1    0    0    0    0  0.00000000000E+00  0.00000000000E+00  0.74505805969E-08  0.10566000000E+00  0.10566000000E+00 0. -1.
     999900   -1    0    0    0    0 -0.00000000000E+00 -0.00000000000E+00 -0.74505805969E-08  0.93827000000E+00  0.93827000000E+00 0.  1.
     999902    2    1    2    0    0  0.62454843162E-02  0.20630737302E-01  0.12261803731E-01  0.10191311043E+01  0.10188293393E+01 0.  0.
     999903    2    3    3    0    0  0.35627447931E-02  0.11380162135E+00 -0.62306007217E-01  0.13107233985E+00  0.18287087435E-01 0.  0.
         14    1    1    2    0    0 -0.62454843162E-02 -0.20630737302E-01 -0.12261803731E-01  0.24798895675E-01  0.00000000000E+00 0.  1.
     999901    1    3    3    0    0  0.26827395230E-02 -0.93170884048E-01  0.74567810949E-01  0.88805876447E+00  0.88000000000E+00 0. -1.
        -11    1    4    4    0    0 -0.38363514471E-02  0.58768586325E-01 -0.40178956086E-01  0.71295679843E-01  0.51100000000E-03 0. -1.
         11    1    4    4    0    0  0.73990962402E-02  0.55033035025E-01 -0.22127051131E-01  0.59776660010E-01  0.51100000000E-03 0.  1.
</event>
<event>
 8    1  0.1146431E+005  0.1043930E+01  0.7957747E-01            NaN
         13   -1    0    0    0    0  0.00000000000E+00  0.00000000000E+00  0.74505805969E-08  0.10566000000E+00  0.10566000000E+00 0.  1.
     999900   -1    0    0    0    0 -0.00000000000E+00 -0.00000000000E+00 -0.74505805969E-08  0.93827000000E+00  0.93827000000E+00 0. -1.
     999902    2    1    2    0    0 -0.54787686097E-02 -0.20641826139E-01  0.84016723513E-02  0.10209802725E+01  0.10207223065E+01 0.  0.
     999903    2    3    3    0    0 -0.55215114099E-01  0.95403037540E-01 -0.63954342535E-01  0.12902987744E+00  0.20201557992E-01 0.  0.
         14    1    1    2    0    0  0.54787686097E-02  0.20641826139E-01 -0.84016723513E-02  0.22949727453E-01  0.00000000000E+00 0. -1.
     999901    1    3    3    0    0  0.49736345489E-01 -0.11604486368E+00  0.72356014886E-01  0.89195039511E+00  0.88000000000E+00 0.  1.
        -11    1    4    4    0    0 -0.21387487582E-01  0.31066465475E-01 -0.32642132831E-01  0.49883061844E-01  0.51100000000E-03 0. -1.
         11    1    4    4    0    0 -0.33827626517E-01  0.64336572065E-01 -0.31312209704E-01  0.79146815592E-01  0.51100000000E-03 0.  1.
</event>
<event>
 8    1  0.1146431E+005  0.1043930E+01  0.7957747E-01            NaN
         13   -1    0    0    0    0  0.00000000000E+00  0.00000000000E+00  0.74505805969E-08  0.10566000000E+00  0.10566000000E+00 0.  1.
     999900   -1    0    0    0    0 -0.00000000000E+00 -0.00000000000E+00 -0.74505805969E-08  0.93827000000E+00  0.93827000000E+00 0. -1.
     999902    2    1    2    0    0 -0.14288636783E-02  0.22928637114E-01  0.79894480625E-03  0.10209429958E+01  0.10206841814E+01 0.  0.
     999903    2    3    3    0    0  0.89546795271E-01 -0.86958620326E-01 -0.41517356671E-02  0.12944073042E+00  0.34018165578E-01 0.  0.
         14    1    1    2    0    0  0.14288636783E-02 -0.22928637114E-01 -0.79894480625E-03  0.22987004244E-01  0.00000000000E+00 0. -1.
     999901    1    3    3    0    0 -0.90975658949E-01  0.10988725744E+00  0.49506804733E-02  0.89150226534E+00  0.88000000000E+00 0. -1.
        -11    1    4    4    0    0  0.74065076439E-01 -0.50177785895E-01 -0.26229876201E-02  0.89501882272E-01  0.51100000000E-03 0.  1.
         11    1    4    4    0    0  0.15481718832E-01 -0.36780834431E-01 -0.15287480469E-02  0.39938848144E-01  0.51100000000E-03 0. -1.
</event>
<event>
 8    1  0.1146431E+005  0.1043930E+01  0.7957747E-01            NaN
         13   -1    0    0    0    0  0.00000000000E+00  0.00000000000E+00  0.74505805969E-08  0.10566000000E+00  0.10566000000E+00 0. -1.
     999900   -1    0    0    0    0 -0.00000000000E+00 -0.00000000000E+00 -0.74505805969E-08  0.93827000000E+00  0.93827000000E+00 0. -1.
     999902    2    1    2    0    0  0.19988984517E-01  0.22948900319E-02  0.74949616195E-02  0.10224590785E+01  0.10222336165E+01 0.  0.
     999903    2    3    3    0    0 -0.78589555605E-01 -0.51133561669E-01 -0.88088285714E-01  0.13020996235E+00  0.20102955891E-01 0.  0.
         14    1    1    2    0    0 -0.19988984517E-01 -0.22948900319E-02 -0.74949616195E-02  0.21470921544E-01  0.00000000000E+00 0. -1.
     999901    1    3    3    0    0  0.98578540122E-01  0.53428451701E-01  0.95583247333E-01  0.89224911611E+00  0.88000000000E+00 0.  1.
        -11    1    4    4    0    0 -0.65704577656E-01 -0.39181340632E-01 -0.60672488588E-01  0.97640570314E-01  0.51100000000E-03 0.  1.
         11    1    4    4    0    0 -0.12884977949E-01 -0.11952221037E-01 -0.27415797126E-01  0.32569392035E-01  0.51100000000E-03 0. -1.
</event>
<event>
 8    1  0.1146431E+005  0.1043930E+01  0.7957747E-01            NaN
         13   -1    0    0    0    0  0.00000000000E+00  0.00000000000E+00  0.74505805969E-08  0.10566000000E+00  0.10566000000E+00 0.  1.
     999900   -1    0    0    0    0 -0.00000000000E+00 -0.00000000000E+00 -0.74505805969E-08  0.93827000000E+00  0.93827000000E+00 0. -1.
     999902    2    1    2    0    0 -0.23074951627E-01  0.23213440239E-01  0.44800249302E-02  0.10108938407E+01  0.10103538832E+01 0.  0.
     999903    2    3    3    0    0  0.99043840604E-01  0.46315963310E-01  0.47814938154E-01  0.12110474167E+00  0.20621331788E-01 0.  0.
         14    1    1    2    0    0  0.23074951627E-01 -0.23213440239E-01 -0.44800249302E-02  0.33036159337E-01  0.00000000000E+00 0.  1.
     999901    1    3    3    0    0 -0.12211879223E+00 -0.23102523071E-01 -0.43334913224E-01  0.88978909900E+00  0.88000000000E+00 0. -1.
        -11    1    4    4    0    0  0.38678250600E-01  0.83305786561E-02  0.21855315333E-01  0.45203114268E-01  0.51100000000E-03 0.  1.
         11    1    4    4    0    0  0.60365590004E-01  0.37985384654E-01  0.25959622821E-01  0.75901627399E-01  0.51100000000E-03 0. -1.
</event>
<event>
 8    1  0.1146431E+005  0.1043930E+01  0.7957747E-01            NaN
         13   -1    0    0    0    0  0.00000000000E+00  0.00000000000E+00  0.74505805969E-08  0.10566000000E+00  0.10566000000E+00 0.  1.
     999900   -1    0    0    0    0 -0.00000000000E+00 -0.00000000000E+00 -0.74505805969E-08  0.93827000000E+00  0.93827000000E+00 0.  1.
     999902    2    1    2    0    0  0.53169171727E-02 -0.23300898059E-01  0.21612407684E-02  0.10199326581E+01  0.10196503099E+01 0.  0.
     999903    2    3    3    0    0  0.32366727837E-01 -0.12769311176E+00  0.42550253192E-02  0.13334717968E+00  0.20254116291E-01 0.  0.
         14    1    1    2    0    0 -0.53169171727E-02  0.23300898059E-01 -0.21612407684E-02  0.23997341941E-01  0.00000000000E+00 0.  1.
     999901    1    3    3    0    0 -0.27049810664E-01  0.10439221370E+00 -0.20937845508E-02  0.88658547838E+00  0.88000000000E+00 0.  1.
        -11    1    4    4    0    0  0.10949416866E-01 -0.58834212002E-01 -0.73804532740E-02  0.60299970507E-01  0.51100000000E-03 0. -1.
         11    1    4    4    0    0  0.21417310971E-01 -0.68858899757E-01  0.11635478593E-01  0.73047209174E-01  0.51100000000E-03 0.  1.
</event>
<event>
 8    1  0.1146431E+005  0.1043930E+01  0.7957747E-01            NaN
         13   -1    0    0    0    0  0.00000000000E+00  0.00000000000E+00  0.74505805969E-08  0.10566000000E+00  0.10566000000E+00 0. -1.
     999900   -1    0    0    0    0 -0.00000000000E+00 -0.00000000000E+00 -0.74505805969E-08  0.93827000000E+00  0.93827000000E+00 0.  1.
     999902    2    1    2    0    0 -0.17651778304E-01 -0.69148126797E-02  0.15709310833E-01  0.10193092291E+01  0.10190118362E+01 0.  0.
     999903    2    3    3    0    0  0.40422789701E-01  0.33520520438E-01  0.11774247816E+00  0.13059192939E+00  0.20816667352E-01 0.  0.
         14    1    1    2    0    0  0.17651778304E-01  0.69148126797E-02 -0.15709310833E-01  0.24620770877E-01  0.00000000000E+00 0. -1.
     999901    1    3    3    0    0 -0.58074568005E-01 -0.40435333117E-01 -0.10203316733E+00  0.88871729974E+00  0.88000000000E+00 0.  1.
        -11    1    4    4    0    0  0.25657045236E-01  0.31848742500E-01  0.94871072694E-01  0.10331218672E+00  0.51100000000E-03 0. -1.
         11    1    4    4    0    0  0.14765744465E-01  0.16717779379E-02  0.22871405469E-01  0.27279742671E-01  0.51100000000E-03 0.  1.
</event>
<event>
 8    1  0.1146431E+005  0.1043930E+01  0.7957747E-01            NaN
         13   -1    0    0    0    0  0.00000000000E+00  0.00000000000E+00  0.74505805969E-08  0.10566000000E+00  0.10566000000E+00 0. -1.
     999900   -1    0    0    0    0 -0.00000000000E+00 -0.00000000000E+00 -0.74505805969E-08  0.93827000000E+00  0.93827000000E+00 0. -1.
     999902    2    1    2    0    0 -0.76010986460E-02 -0.12913070096E-01 -0.17349901369E-01  0.10210052719E+01  0.10207478739E+01 0.  0.
     999903    2    3    3    0    0  0.14991227327E-01  0.10583656678E+00  0.68697481343E-01  0.12858382355E+00  0.19706343412E-01 0.  0.
         14    1    1    2    0    0  0.76010986460E-02  0.12913070096E-01  0.17349901369E-01  0.22924728077E-01  0.00000000000E+00 0. -1.
     999901    1    3    3    0    0 -0.22592325973E-01 -0.11874963687E+00 -0.86047382712E-01  0.89242144838E+00  0.88000000000E+00 0.  1.
        -11    1    4    4    0    0  0.10245703199E-01  0.18019592287E-01  0.12338853068E-01  0.24128583801E-01  0.51100000000E-03 0. -1.
         11    1    4    4    0    0  0.47455241276E-02  0.87816974491E-01  0.56358628276E-01  0.10445523974E+00  0.51100000000E-03 0.  1.
</event>
<event>
 8    1  0.1146431E+005  0.1043930E+01  0.7957747E-01            NaN
         13   -1    0    0    0    0  0.00000000000E+00  0.00000000000E+00  0.74505805969E-08  0.10566000000E+00  0.10566000000E+00 0.  1.
     999900   -1    0    0    0    0 -0.00000000000E+00 -0.00000000000E+00 -0.74505805969E-08  0.93827000000E+00  0.93827000000E+00 0.  1.
     999902    2    1    2    0    0  0.95303982684E-02  0.21329864481E-01 -0.54997747054E-02  0.10199291848E+01  0.10196467539E+01 0.  0.
     999903    2    3    3    0    0  0.71466553647E-01  0.24840498160E-01 -0.10629923187E+00  0.13200523394E+00  0.20033383438E-01 0.  0.
         14    1    1    2    0    0 -0.95303982684E-02 -0.21329864481E-01  0.54997747054E-02  0.24000815231E-01  0.00000000000E+00 0.  1.
     999901    1    3    3    0    0 -0.61936155379E-01 -0.35106336791E-02  0.10079945717E+00  0.88792395083E+00  0.88000000000E+00 0.  1.
        -11    1    4    4    0    0  0.51060821284E-01  0.77781096939E-02 -0.69092704721E-01  0.86265690904E-01  0.51100000000E-03 0. -1.
         11    1    4    4    0    0  0.20405732364E-01  0.17062388467E-01 -0.37206527150E-01  0.45739543035E-01  0.51100000000E-03 0.  1.
</event>
<event>
 8    1  0.1146431E+005  0.1043930E+01  0.7957747E-01            NaN
         13   -1    0    0    0    0  0.00000000000E+00  0.00000000000E+00  0.74505805969E-08  0.10566000000E+00  0.10566000000E+00 0. -1.
     999900   -1    0    0    0    0 -0.00000000000E+00 -0.00000000000E+00 -0.74505805969E-08  0.93827000000E+00  0.93827000000E+00 0.  1.
     999902    2    1    2    0    0  0.22161970457E-01  0.76005772606E-03 -0.28606712312E-02  0.10215712419E+01  0.10213265336E+01 0.  0.
     999903    2    3    3    0    0 -0.67425093885E-01  0.29609998279E-01  0.10468299491E+00  0.13004232973E+00  0.23012666401E-01 0.  0.
         14    1    1    2    0    0 -0.22161970457E-01 -0.76005772606E-03  0.28606712312E-02  0.22358758064E-01  0.00000000000E+00 0.  1.
     999901    1    3    3    0    0  0.89587064342E-01 -0.28849940553E-01 -0.10754366614E+00  0.89152891220E+00  0.88000000000E+00 0.  1.
        -11    1    4    4    0    0 -0.11091021135E-01 -0.36876970440E-02  0.16714374085E-01  0.20401992093E-01  0.51100000000E-03 0. -1.
         11    1    4    4    0    0 -0.56334072750E-01  0.33297695323E-01  0.87968620827E-01  0.10964033764E+00  0.51100000000E-03 0.  1.
</event>
<event>
 8    1  0.1146431E+005  0.1043930E+01  0.7957747E-01            NaN
         13   -1    0    0    0    0  0.00000000000E+00  0.00000000000E+00  0.74505805969E-08  0.10566000000E+00  0.10566000000E+00 0. -1.
     999900   -1    0    0    0    0 -0.00000000000E+00 -0.00000000000E+00 -0.74505805969E-08  0.93827000000E+00  0.93827000000E+00 0. -1.
     999902    2    1    2    0    0 -0.19487387614E-01  0.17505456313E-02 -0.13220229701E-01  0.10203165047E+01  0.10200432210E+01 0.  0.
     999903    2    3    3    0    0  0.92022806368E-01  0.83345500830E-01  0.27125993516E-01  0.12862144597E+00  0.19823910763E-01 0.  0.
         14    1    1    2    0    0  0.19487387614E-01 -0.17505456313E-02  0.13220229701E-01  0.23613495281E-01  0.00000000000E+00 0. -1.
     999901    1    3    3    0    0 -0.11151019398E+00 -0.81594955199E-01 -0.40346223217E-01  0.89169505875E+00  0.88000000000E+00 0. -1.
        -11    1    4    4    0    0  0.18791587707E-01  0.85617355582E-02  0.83552727045E-02  0.22282252743E-01  0.51100000000E-03 0.  1.
         11    1    4    4    0    0  0.73231218661E-01  0.74783765272E-01  0.18770720811E-01  0.10633919322E+00  0.51100000000E-03 0. -1.
</event>
<event>
 7    1  0.1146431E+005  0.1043930E+01  0.7957747E-01            NaN
         13   -1    0    0    0    0  0.00000000000E+00  0.00000000000E+00  0.74505805969E-08  0.10566000000E+00  0.10566000000E+00 0. -1.
     999900   -1    0    0    0    0 -0.00000000000E+00 -0.00000000000E+00 -0.74505805969E-08  0.93827000000E+00  0.93827000000E+00 0. -1.
     999902    2    1    2    0    0  0.37677560146E-02  0.14565645243E-01  0.11491983457E-01  0.10249980247E+01  0.10248231705E+01 0.  0.
         14    1    1    2    0    0 -0.37677560146E-02 -0.14565645243E-01 -0.11491983457E-01  0.18931975345E-01  0.00000000000E+00 0.  1.
     999901    1    3    3    0    0  0.47330955306E-01 -0.99076008970E-01  0.58652745340E-01  0.88876117119E+00  0.88000000000E+00 0.  1.
        -11    1    3    3    0    0 -0.18778241109E-02  0.53135067024E-01 -0.28928740061E-01  0.60530939969E-01  0.51100000000E-03 0.  1.
         11    1    3    3    0    0 -0.41685375180E-01  0.60506587188E-01 -0.18232021823E-01  0.75705913493E-01  0.51100000000E-03 0. -1.
</event>
<event>
 8    1  0.1146431E+005  0.1043930E+01  0.7957747E-01            NaN
         13   -1    0    0    0    0  0.00000000000E+00  0.00000000000E+00  0.74505805969E-08  0.10566000000E+00  0.10566000000E+00 0.  1.
     999900   -1    0    0    0    0 -0.00000000000E+00 -0.00000000000E+00 -0.74505805969E-08  0.93827000000E+00  0.93827000000E+00 0.  1.
     999902    2    1    2    0    0  0.22947921403E-02 -0.17316407947E-01 -0.16111364344E-01  0.10201665803E+01  0.10198897742E+01 0.  0.
     999903    2    3    3    0    0  0.80908325927E-01 -0.94842280241E-02 -0.10278927767E+00  0.13238592529E+00  0.18008048941E-01 0.  0.
         14    1    1    2    0    0 -0.22947921403E-02  0.17316407947E-01  0.16111364344E-01  0.23763419707E-01  0.00000000000E+00 0. -1.
     999901    1    3    3    0    0 -0.78613533787E-01 -0.78321799232E-02  0.86677913321E-01  0.88778065500E+00  0.88000000000E+00 0. -1.
        -11    1    4    4    0    0  0.42455758238E-01  0.15055095214E-02 -0.62857212213E-01  0.75868624705E-01  0.51100000000E-03 0. -1.
         11    1    4    4    0    0  0.38452567690E-01 -0.10989737545E-01 -0.39932065453E-01  0.56517300586E-01  0.51100000000E-03 0.  1.
</event>
<event>
 8    1  0.1146431E+005  0.1043930E+01  0.7957747E-01            NaN
         13   -1    0    0    0    0  0.00000000000E+00  0.00000000000E+00  0.74505805969E-08  0.10566000000E+00  0.10566000000E+00 0. -1.
     999900   -1    0    0    0    0 -0.00000000000E+00 -0.00000000000E+00 -0.74505805969E-08  0.93827000000E+00  0.93827000000E+00 0.  1.
     999902    2    1    2    0    0  0.19690787676E-01 -0.27042770048E-02 -0.13399716898E-01  0.10199593378E+01  0.10196776246E+01 0.  0.
     999903    2    3    3    0    0  0.99476897632E-02  0.11507902666E+00  0.54600050704E-01  0.12945846583E+00  0.20885160511E-01 0.  0.
         14    1    1    2    0    0 -0.19690787676E-01  0.27042770048E-02  0.13399716898E-01  0.23970662201E-01  0.00000000000E+00 0.  1.
     999901    1    3    3    0    0  0.97430979127E-02 -0.11778330367E+00 -0.67999767602E-01  0.89050087197E+00  0.88000000000E+00 0. -1.
        -11    1    4    4    0    0 -0.40756084544E-02  0.59284978618E-01  0.33224849136E-01  0.68084293307E-01  0.51100000000E-03 0. -1.
         11    1    4    4    0    0  0.14023298218E-01  0.55794048044E-01  0.21375201569E-01  0.61374172525E-01  0.51100000000E-03 0.  1.
</event>
<event>
 8    1  0.1146431E+005  0.1043930E+01  0.7957747E-01            NaN
         13   -1    0    0    0    0  0.00000000000E+00  0.00000000000E+00  0.74505805969E-08  0.10566000000E+00  0.10566000000E+00 0. -1.
     999900   -1    0    0    0    0 -0.00000000000E+00 -0.00000000000E+00 -0.74505805969E-08  0.93827000000E+00  0.93827000000E+00 0.  1.
     999902    2    1    2    0    0  0.43177221135E-03  0.15389835356E-01 -0.17903234234E-01  0.10203173073E+01  0.10200440424E+01 0.  0.
     999903    2    3    3    0    0  0.44635372839E-01  0.47990400978E-01  0.10980413992E+00  0.12940433256E+00  0.19827683816E-01 0.  0.
         14    1    1    2    0    0 -0.43177221135E-03 -0.15389835356E-01  0.17903234234E-01  0.23612692679E-01  0.00000000000E+00 0. -1.
     999901    1    3    3    0    0 -0.44203600628E-01 -0.32600565622E-01 -0.12770737416E+00  0.89091297476E+00  0.88000000000E+00 0.  1.
        -11    1    4    4    0    0  0.24762234910E-01  0.35734131079E-01  0.84107172253E-01  0.94680377835E-01  0.51100000000E-03 0.  1.
         11    1    4    4    0    0  0.19873137929E-01  0.12256269899E-01  0.25696967672E-01  0.34723954722E-01  0.51100000000E-03 0. -1.
</event>
<event>
 8    1  0.1146431E+005  0.1043930E+01  0.7957747E-01            NaN
         13   -1    0    0    0    0  0.00000000000E+00  0.00000000000E+00  0.74505805969E-08  0.10566000000E+00  0.10566000000E+00 0.  1.
     999900   -1    0    0    0    0 -0.00000000000E+00 -0.00000000000E+00 -0.74505805969E-08  0.93827000000E+00  0.93827000000E+00 0.  1.
     999902    2    1    2    0    0  0.77660776393E-02 -0.23560124285E-02  0.22193579012E-01  0.10202991366E+01  0.10200254460E+01 0.  0.
     999903    2    3    3    0    0 -0.41869553959E-01  0.99035448514E-01  0.72905114109E-01  0.13163970572E+00  0.21278553685E-01 0.  0.
         14    1    1    2    0    0 -0.77660776393E-02  0.23560124285E-02 -0.22193579012E-01  0.23630863416E-01  0.00000000000E+00 0. -1.
     999901    1    3    3    0    0  0.49635631598E-01 -0.10139146094E+00 -0.50711535097E-01  0.88865943087E+00  0.88000000000E+00 0.  1.
        -11    1    4    4    0    0 -0.94170904683E-02  0.94578609479E-02  0.36306840797E-02  0.13841087908E-01  0.51100000000E-03 0.  1.
         11    1    4    4    0    0 -0.32452463491E-01  0.89577587566E-01  0.69274430029E-01  0.11779861781E+00  0.51100000000E-03 0. -1.
</event>
<event>
 8    1  0.1146431E+005  0.1043930E+01  0.7957747E-01            NaN
         13   -1    0    0    0    0  0.00000000000E+00  0.00000000000E+00  0.74505805969E-08  0.10566000000E+00  0.10566000000E+00 0.  1.
     999900   -1    0    0    0    0 -0.00000000000E+00 -0.00000000000E+00 -0.74505805969E-08  0.93827000000E+00  0.93827000000E+00 0.  1.
     999902    2    1    2    0    0  0.82733619723E-02 -0.18096331242E-01  0.12986445116E-01  0.10201692450E+01  0.10198925016E+01 0.  0.
     999903    2    3    3    0    0 -0.11283667354E+00 -0.54965974316E-01 -0.27802336651E-01  0.13017444948E+00  0.20470567814E-01 0.  0.
         14    1    1    2    0    0 -0.82733619723E-02  0.18096331242E-01 -0.12986445116E-01  0.23760755028E-01  0.00000000000E+00 0. -1.
     999901    1    3    3    0    0  0.12111003551E+00  0.36869643075E-01  0.40788781767E-01  0.88999479549E+00  0.88000000000E+00 0. -1.
        -11    1    4    4    0    0 -0.40862035008E-01 -0.15606781656E-01 -0.18918569581E-01  0.47659741235E-01  0.51100000000E-03 0.  1.
         11    1    4    4    0    0 -0.71974638532E-01 -0.39359192660E-01 -0.88837670702E-02  0.82514708247E-01  0.51100000000E-03 0. -1.
</event>
<event>
 8    1  0.1146431E+005  0.1043930E+01  0.7957747E-01            NaN
         13   -1    0    0    0    0  0.00000000000E+00  0.00000000000E+00  0.74505805969E-08  0.10566000000E+00  0.10566000000E+00 0.  1.
     999900   -1    0    0    0    0 -0.00000000000E+00 -0.00000000000E+00 -0.74505805969E-08  0.93827000000E+00  0.93827000000E+00 0. -1.
     999902    2    1    2    0    0 -0.18429917800E-01 -0.32920896752E-02  0.12144248402E-01  0.10216144786E+01  0.10213707263E+01 0.  0.
     999903    2    3    3    0    0  0.39082071705E-01 -0.73325328555E-02  0.12492777845E+00  0.13254525818E+00  0.19496698921E-01 0.  0.
         14    1    1    2    0    0  0.18429917800E-01  0.32920896752E-02 -0.12144248402E-01  0.22315521365E-01  0.00000000000E+00 0. -1.
     999901    1    3    3    0    0 -0.57511989506E-01  0.40404431802E-02 -0.11278353005E+00  0.88906922046E+00  0.88000000000E+00 0. -1.
        -11    1    4    4    0    0  0.31948357824E-01  0.21570750796E-02  0.82931442641E-01  0.88900145332E-01  0.51100000000E-03 0. -1.
         11    1    4    4    0    0  0.71337138816E-02 -0.94896079351E-02  0.41996335811E-01  0.43645112843E-01  0.51100000000E-03 0.  1.
</event>
<event>
 8    1  0.1146431E+005  0.1043930E+01  0.7957747E-01            NaN
         13   -1    0    0    0    0  0.00000000000E+00  0.00000000000E+00  0.74505805969E-08  0.10566000000E+00  0.10566000000E+00 0.  1.
     999900   -1    0    0    0    0 -0.00000000000E+00 -0.00000000000E+00 -0.74505805969E-08  0.93827000000E+00  0.93827000000E+00 0.  1.
     999902    2    1    2    0    0  0.92104349082E-02 -0.38158908105E-02  0.21293766527E-01  0.10204179259E+01  0.10201470119E+01 0.  0.
     999903    2    3    3    0    0 -0.48364180324E-01 -0.80947896373E-01 -0.85573672832E-01  0.12874263067E+00  0.18977766017E-01 0.  0.
         14    1    1    2    0    0 -0.92104349082E-02  0.38158908105E-02 -0.21293766527E-01  0.23512074064E-01  0.00000000000E+00 0. -1.
     999901    1    3    3    0    0  0.57574615233E-01  0.77132005562E-01  0.10686743936E+00  0.89167529527E+00  0.88000000000E+00 0. -1.
        -11    1    4    4    0    0 -0.76568326432E-02 -0.17371106137E-01 -0.27852342324E-01  0.33710480691E-01  0.51100000000E-03 0. -1.
         11    1    4    4    0    0 -0.40707347681E-01 -0.63576790236E-01 -0.57721330509E-01  0.95032149974E-01  0.51100000000E-03 0.  1.
</event>
<event>
 8    1  0.1146431E+005  0.1043930E+01  0.7957747E-01            NaN
         13   -1    0    0    0    0  0.00000000000E+00  0.00000000000E+00  0.74505805969E-08  0.10566000000E+00  0.10566000000E+00 0. -1.
     999900   -1    0    0    0    0 -0.00000000000E+00 -0.00000000000E+00 -0.74505805969E-08  0.93827000000E+00  0.93827000000E+00 0. -1.
     999902    2    1    2    0    0 -0.21394370088E-01  0.43668925454E-02 -0.13130269687E-01  0.10184507378E+01  0.10181319720E+01 0.  0.
     999903    2    3    3    0    0  0.50734530337E-01  0.11680452054E+00 -0.54691444554E-02  0.12833642415E+00  0.14934444608E-01 0.  0.
         14    1    1    2    0    0  0.21394370088E-01 -0.43668925454E-02  0.13130269687E-01  0.25479262235E-01  0.00000000000E+00 0. -1.
     999901    1    3    3    0    0 -0.72128900426E-01 -0.11243762799E+00 -0.76611252320E-02  0.89011431362E+00  0.88000000000E+00 0.  1.
        -11    1    4    4    0    0  0.47735322734E-01  0.99024930044E-01 -0.18937282922E-02  0.10994746534E+00  0.51100000000E-03 0. -1.
         11    1    4    4    0    0  0.29992076034E-02  0.17779590492E-01 -0.35754161632E-02  0.18388958809E-01  0.51100000000E-03 0.  1.
</event>
<event>
 8    1  0.1146431E+005  0.1043930E+01  0.7957747E-01            NaN
         13   -1    0    0    0    0  0.00000000000E+00  0.00000000000E+00  0.74505805969E-08  0.10566000000E+00  0.10566000000E+00 0.  1.
     999900   -1    0    0    0    0 -0.00000000000E+00 -0.00000000000E+00 -0.74505805969E-08  0.93827000000E+00  0.93827000000E+00 0.  1.
     999902    2    1    2    0    0  0.72233623372E-03 -0.61240850740E-02  0.22232611603E-01  0.10208580429E+01  0.10205972901E+01 0.  0.
     999903    2    3    3    0    0  0.12514865732E+00  0.31709092693E-01  0.78999476003E-02  0.13118468483E+00  0.21894277187E-01 0.  0.
         14    1    1    2    0    0 -0.72233623372E-03  0.61240850740E-02 -0.22232611603E-01  0.23071957141E-01  0.00000000000E+00 0. -1.
     999901    1    3    3    0    0 -0.12442632109E+00 -0.37833177767E-01  0.14332664003E-01  0.88967335802E+00  0.88000000000E+00 0.  1.
        -11    1    4    4    0    0  0.10906452241E+00  0.26348229932E-01  0.14184308416E-01  0.11309622008E+00  0.51100000000E-03 0.  1.
         11    1    4    4    0    0  0.16084134914E-01  0.53608627608E-02 -0.62843608158E-02  0.18088464759E-01  0.51100000000E-03 0. -1.
</event>
<event>
 8    1  0.1146431E+005  0.1043930E+01  0.7957747E-01            NaN
         13   -1    0    0    0    0  0.00000000000E+00  0.00000000000E+00  0.74505805969E-08  0.10566000000E+00  0.10566000000E+00 0. -1.
     999900   -1    0    0    0    0 -0.00000000000E+00 -0.00000000000E+00 -0.74505805969E-08  0.93827000000E+00  0.93827000000E+00 0. -1.
     999902    2    1    2    0    0 -0.64922681131E-02 -0.13438078106E-01 -0.18570465406E-01  0.10201057755E+01  0.10198275342E+01 0.  0.
     999903    2    3    3    0    0  0.12188248455E-01  0.11276541292E+00 -0.59934731435E-01  0.12994439385E+00  0.20707044949E-01 0.  0.
         14    1    1    2    0    0  0.64922681131E-02  0.13438078106E-01  0.18570465406E-01  0.23824224517E-01  0.00000000000E+00 0. -1.
     999901    1    3    3    0    0 -0.18680516568E-01 -0.12620349102E+00  0.41364266029E-01  0.89016138163E+00  0.88000000000E+00 0. -1.
        -11    1    4    4    0    0  0.14899064272E-01  0.65969676376E-01 -0.42778959166E-01  0.80026750438E-01  0.51100000000E-03 0. -1.
         11    1    4    4    0    0 -0.27108158175E-02  0.46795736541E-01 -0.17155772269E-01  0.49917643414E-01  0.51100000000E-03 0.  1.
</event>
<event>
 8    1  0.1146431E+005  0.1043930E+01  0.7957747E-01            NaN
         13   -1    0    0    0    0  0.00000000000E+00  0.00000000000E+00  0.74505805969E-08  0.10566000000E+00  0.10566000000E+00 0.  1.
     999900   -1    0    0    0    0 -0.00000000000E+00 -0.00000000000E+00 -0.74505805969E-08  0.93827000000E+00  0.93827000000E+00 0. -1.
     999902    2    1    2    0    0 -0.14653935178E-01 -0.97782711867E-02  0.14078341553E-01  0.10213789001E+01  0.10211299161E+01 0.  0.
     999903    2    3    3    0    0  0.40113297853E-01 -0.15199796833E-01  0.12409547651E+00  0.13282242319E+00  0.20049895882E-01 0.  0.
         14    1    1    2    0    0  0.14653935178E-01  0.97782711867E-02 -0.14078341553E-01  0.22551099850E-01  0.00000000000E+00 0. -1.
     999901    1    3    3    0    0 -0.54767233031E-01  0.54215256462E-02 -0.11001713496E+00  0.88855647695E+00  0.88000000000E+00 0. -1.
        -11    1    4    4    0    0  0.73825794176E-02 -0.58685725611E-02  0.54916121257E-01  0.55722384350E-01  0.51100000000E-03 0. -1.
         11    1    4    4    0    0  0.32730718436E-01 -0.93312242718E-02  0.69179355252E-01  0.77100038845E-01  0.51100000000E-03 0.  1.
</event>
<event>
 8    1  0.1146431E+005  0.1043930E+01  0.7957747E-01            NaN
         13   -1    0    0    0    0  0.00000000000E+00  0.00000000000E+00  0.74505805969E-08  0.10566000000E+00  0.10566000000E+00 0.  1.
     999900   -1    0    0    0    0 -0.00000000000E+00 -0.00000000000E+00 -0.74505805969E-08  0.93827000000E+00  0.93827000000E+00 0.  1.
     999902    2    1    2    0    0 -0.18339916154E-01 -0.13222448583E-01  0.10978846434E-01  0.10187959446E+01  0.10184858644E+01 0.  0.
     999903    2    3    3    0    0  0.10321525885E+00 -0.66314279436E-01 -0.31016245924E-01  0.12786497599E+00  0.18343152838E-01 0.  0.
         14    1    1    2    0    0  0.18339916154E-01  0.13222448583E-01 -0.10978846434E-01  0.25134055385E-01  0.00000000000E+00 0. -1.
     999901    1    3    3    0    0 -0.12155517501E+00  0.53091830853E-01  0.41995092358E-01  0.89093096863E+00  0.88000000000E+00 0. -1.
        -11    1    4    4    0    0  0.20776851583E-02 -0.29075534134E-02  0.18438048660E-02  0.40535638459E-02  0.51100000000E-03 0.  1.
         11    1    4    4    0    0  0.10113757370E+00 -0.63406726022E-01 -0.32860050790E-01  0.12381141214E+00  0.51100000000E-03 0. -1.
</event>
<event>
 8    1  0.1146431E+005  0.1043930E+01  0.7957747E-01            NaN
         13   -1    0    0    0    0  0.00000000000E+00  0.00000000000E+00  0.74505805969E-08  0.10566000000E+00  0.10566000000E+00 0. -1.
     999900   -1    0    0    0    0 -0.00000000000E+00 -0.00000000000E+00 -0.74505805969E-08  0.93827000000E+00  0.93827000000E+00 0. -1.
     999902    2    1    2    0    0  0.13723655657E-01  0.13036993013E-01  0.15265453429E-01  0.10196125992E+01  0.10193225773E+01 0.  0.
     999903    2    3    3    0    0  0.87223440876E-01 -0.88859856534E-01 -0.29755685659E-01  0.12954962993E+00  0.19841951606E-01 0.  0.
         14    1    1    2    0    0 -0.13723655657E-01 -0.13036993013E-01 -0.15265453429E-01  0.24317400762E-01  0.00000000000E+00 0. -1.
     999901    1    3    3    0    0 -0.73499785219E-01  0.10189684955E+00  0.45021139088E-01  0.89006296931E+00  0.88000000000E+00 0.  1.
        -11    1    4    4    0    0  0.49789797805E-02 -0.13973860560E-01 -0.29300962918E-02  0.15129626694E-01  0.51100000000E-03 0.  1.
         11    1    4    4    0    0  0.82244461096E-01 -0.74885995974E-01 -0.26825589367E-01  0.11442000323E+00  0.51100000000E-03 0. -1.
</event>
<event>
 8    1  0.1146431E+005  0.1043930E+01  0.7957747E-01            NaN
         13   -1    0    0    0    0  0.00000000000E+00  0.00000000000E+00  0.74505805969E-08  0.10566000000E+00  0.10566000000E+00 0. -1.
     999900   -1    0    0    0    0 -0.00000000000E+00 -0.00000000000E+00 -0.74505805969E-08  0.93827000000E+00  0.93827000000E+00 0.  1.
     999902    2    1    2    0    0  0.95364282287E-02 -0.14804574948E-01 -0.17985129651E-01  0.10187589096E+01  0.10184479035E+01 0.  0.
     999903    2    3    3    0    0 -0.94532283310E-01  0.82434773875E-01  0.20996665228E-02  0.12708117258E+00  0.20331534456E-01 0.  0.
         14    1    1    2    0    0 -0.95364282287E-02  0.14804574948E-01  0.17985129651E-01  0.25171090388E-01  0.00000000000E+00 0. -1.
     999901    1    3    3    0    0  0.10406871154E+00 -0.97239348823E-01 -0.20084796174E-01  0.89167773703E+00  0.88000000000E+00 0. -1.
        -11    1    4    4    0    0 -0.61126212192E-01  0.41082182567E-01  0.51548580451E-02  0.73830841956E-01  0.51100000000E-03 0. -1.
         11    1    4    4    0    0 -0.33406071117E-01  0.41352591308E-01 -0.30551915223E-02  0.53250330624E-01  0.51100000000E-03 0.  1.
</event>
<event>
 8    1  0.1146431E+005  0.1043930E+01  0.7957747E-01            NaN
         13   -1    0    0    0    0  0.00000000000E+00  0.00000000000E+00  0.74505805969E-08  0.10566000000E+00  0.10566000000E+00 0.  1.
     999900   -1    0    0    0    0 -0.00000000000E+00 -0.00000000000E+00 -0.74505805969E-08  0.93827000000E+00  0.93827000000E+00 0. -1.
     999902    2    1    2    0    0 -0.26071287710E-02 -0.17218368045E-01  0.18507895879E-01  0.10185171779E+01  0.10182000933E+01 0.  0.
     999903    2    3    3    0    0  0.86151931400E-01 -0.13033603639E-01  0.95368895383E-01  0.13070903629E+00  0.19939805756E-01 0.  0.
         14    1    1    2    0    0  0.26071287710E-02  0.17218368045E-01 -0.18507895879E-01  0.25412822127E-01  0.00000000000E+00 0. -1.
     999901    1    3    3    0    0 -0.88759060171E-01 -0.41847644056E-02 -0.76860999504E-01  0.88780814158E+00  0.88000000000E+00 0.  1.
        -11    1    4    4    0    0  0.18673567630E-01 -0.11290505575E-01  0.21372608194E-01  0.30548766688E-01  0.51100000000E-03 0.  1.
         11    1    4    4    0    0  0.67478363770E-01 -0.17430980641E-02  0.73996287190E-01  0.10016026960E+00  0.51100000000E-03 0. -1.
</event>
<event>
 8    1  0.1146431E+005  0.1043930E+01  0.7957747E-01            NaN
         13   -1    0    0    0    0  0.00000000000E+00  0.00000000000E+00  0.74505805969E-08  0.10566000000E+00  0.10566000000E+00 0. -1.
     999900   -1    0    0    0    0 -0.00000000000E+00 -0.00000000000E+00 -0.74505805969E-08  0.93827000000E+00  0.93827000000E+00 0. -1.
     999902    2    1    2    0    0  0.36192644764E-02  0.23788204839E-01 -0.28758346088E-02  0.10196967957E+01  0.10194088027E+01 0.  0.
     999903    2    3    3    0    0 -0.36098718007E-03 -0.63312885190E-01 -0.11046523105E+00  0.12886689023E+00  0.19886085230E-01 0.  0.
         14    1    1    2    0    0 -0.36192644764E-02 -0.23788204839E-01  0.28758346088E-02  0.24233204277E-01  0.00000000000E+00 0. -1.
     999901    1    3    3    0    0  0.39802516565E-02  0.87101090029E-01  0.10758939644E+00  0.89082990549E+00  0.88000000000E+00 0. -1.
        -11    1    4    4    0    0 -0.79611096846E-02 -0.50710924406E-01 -0.90697446442E-01  0.10421739314E+00  0.51100000000E-03 0. -1.
         11    1    4    4    0    0  0.76001225045E-02 -0.12601960783E-01 -0.19767784605E-01  0.24649497091E-01  0.51100000000E-03 0.  1.
</event>
<event>
 8    1  0.1146431E+005  0.1043930E+01  0.7957747E-01            NaN
         13   -1    0    0    0    0  0.00000000000E+00  0.00000000000E+00  0.74505805969E-08  0.10566000000E+00  0.10566000000E+00 0.  1.
     999900   -1    0    0    0    0 -0.00000000000E+00 -0.00000000000E+00 -0.74505805969E-08  0.93827000000E+00  0.93827000000E+00 0.  1.
     999902    2    1    2    0    0  0.16393102774E-01 -0.40128572132E-02  0.17388909461E-01  0.10196975628E+01  0.10194095882E+01 0.  0.
     999903    2    3    3    0    0 -0.74479865827E-02  0.55195515257E-01  0.11730348754E+00  0.13174657774E+00  0.22249385334E-01 0.  0.
         14    1    1    2    0    0 -0.16393102774E-01  0.40128572132E-02 -0.17388909461E-01  0.24232437224E-01  0.00000000000E+00 0. -1.
     999901    1    3    3    0    0  0.23841089356E-01 -0.59208372471E-01 -0.99914578082E-01  0.88795098504E+00  0.88000000000E+00 0.  1.
        -11    1    4    4    0    0  0.33473930881E-02  0.40810704082E-01  0.91958799417E-01  0.10066479285E+00  0.51100000000E-03 0.  1.
         11    1    4    4    0    0 -0.10795379671E-01  0.14384811175E-01  0.25344688127E-01  0.31081784892E-01  0.51100000000E-03 0. -1.
</event>
<event>
 8    1  0.1146431E+005  0.1043930E+01  0.7957747E-01            NaN
         13   -1    0    0    0    0  0.00000000000E+00  0.00000000000E+00  0.74505805969E-08  0.10566000000E+00  0.10566000000E+00 0. -1.
     999900   -1    0    0    0    0 -0.00000000000E+00 -0.00000000000E+00 -0.74505805969E-08  0.93827000000E+00  0.93827000000E+00 0. -1.
     999902    2    1    2    0    0  0.95834308740E-02  0.35683122456E-02 -0.21663378060E-01  0.10199742711E+01  0.10196929129E+01 0.  0.
     999903    2    3    3    0    0 -0.24124253314E-02  0.10227127381E+00  0.76121176306E-01  0.12899279300E+00  0.19480090389E-01 0.  0.
         14    1    1    2    0    0 -0.95834308740E-02 -0.35683122456E-02  0.21663378060E-01  0.23955728930E-01  0.00000000000E+00 0. -1.
     999901    1    3    3    0    0  0.11995856205E-01 -0.98702961564E-01 -0.97784554366E-01  0.89098147807E+00  0.88000000000E+00 0. -1.
        -11    1    4    4    0    0 -0.30658891253E-02  0.73878721091E-02  0.12150377085E-01  0.14555861869E-01  0.51100000000E-03 0. -1.
         11    1    4    4    0    0  0.65346379388E-03  0.94883401701E-01  0.63970799221E-01  0.11443693113E+00  0.51100000000E-03 0.  1.
</event>
<event>
 8    1  0.1146431E+005  0.1043930E+01  0.7957747E-01            NaN
         13   -1    0    0    0    0  0.00000000000E+00  0.00000000000E+00  0.74505805969E-08  0.10566000000E+00  0.10566000000E+00 0.  1.
     999900   -1    0    0    0    0 -0.00000000000E+00 -0.00000000000E+00 -0.74505805969E-08  0.93827000000E+00  0.93827000000E+00 0.  1.
     999902    2    1    2    0    0 -0.18008178028E-01 -0.93555342054E-02 -0.14599848742E-01  0.10189304784E+01  0.10186237499E+01 0.  0.
     999903    2    3    3    0    0  0.86627223832E-02  0.83877684146E-01 -0.96439529806E-01  0.12982896378E+00  0.21082416130E-01 0.  0.
         14    1    1    2    0    0  0.18008178028E-01  0.93555342054E-02  0.14599848742E-01  0.24999521584E-01  0.00000000000E+00 0.  1.
     999901    1    3    3    0    0 -0.26670900411E-01 -0.93233218352E-01  0.81839681065E-01  0.88910151464E+00  0.88000000000E+00 0. -1.
        -11    1    4    4    0    0  0.58778882765E-02  0.27624154006E-01 -0.18882860917E-01  0.33977448588E-01  0.51100000000E-03 0. -1.
         11    1    4    4    0    0  0.27848341067E-02  0.56253530140E-01 -0.77556668889E-01  0.95851515191E-01  0.51100000000E-03 0.  1.
</event>
<event>
 8    1  0.1146431E+005  0.1043930E+01  0.7957747E-01            NaN
         13   -1    0    0    0    0  0.00000000000E+00  0.00000000000E+00  0.74505805969E-08  0.10566000000E+00  0.10566000000E+00 0.  1.
     999900   -1    0    0    0    0 -0.00000000000E+00 -0.00000000000E+00 -0.74505805969E-08  0.93827000000E+00  0.93827000000E+00 0. -1.
     999902    2    1    2    0    0 -0.18186042248E-01 -0.65544949125E-02 -0.13616807499E-01  0.10202844722E+01  0.10200104379E+01 0.  0.
     999903    2    3    3    0    0 -0.42147701056E-02 -0.12343739483E+00 -0.41961676432E-01  0.13199384394E+00  0.20175178337E-01 0.  0.
         14    1    1    2    0    0  0.18186042248E-01  0.65544949125E-02  0.13616807499E-01  0.23645527752E-01  0.00000000000E+00 0.  1.
     999901    1    3    3    0    0 -0.13971272143E-01  0.11688289992E+00  0.28344868933E-01  0.88829062830E+00  0.88000000000E+00 0.  1.
        -11    1    4    4    0    0 -0.83453067664E-02 -0.34934937353E-01 -0.18166460660E-01  0.40253886854E-01  0.51100000000E-03 0. -1.
         11    1    4    4    0    0  0.41305366608E-02 -0.88502457475E-01 -0.23795215772E-01  0.91739957090E-01  0.51100000000E-03 0.  1.
</event>
<event>
 8    1  0.1146431E+005  0.1043930E+01  0.7957747E-01            NaN
         13   -1    0    0    0    0  0.00000000000E+00  0.00000000000E+00  0.74505805969E-08  0.10566000000E+00  0.10566000000E+00 0.  1.
     999900   -1    0    0    0    0 -0.00000000000E+00 -0.00000000000E+00 -0.74505805969E-08  0.93827000000E+00  0.93827000000E+00 0.  1.
     999902    2    1    2    0    0  0.11418697611E-01 -0.20896783203E-01  0.18327813499E-02  0.10200465059E+01  0.10197668620E+01 0.  0.
     999903    2    3    3    0    0 -0.80461471657E-01  0.96675804241E-01  0.58745131563E-02  0.12747627649E+00  0.19885462408E-01 0.  0.
         14    1    1    2    0    0 -0.11418697611E-01  0.20896783203E-01 -0.18327813499E-02  0.23883494109E-01  0.00000000000E+00 0.  1.
     999901    1    3    3    0    0  0.91880169268E-01 -0.11757258744E+00 -0.40417318065E-02  0.89257022940E+00  0.88000000000E+00 0. -1.
        -11    1    4    4    0    0 -0.38407104745E-01  0.42929047124E-01 -0.69938797545E-02  0.58027443997E-01  0.51100000000E-03 0. -1.
         11    1    4    4    0    0 -0.42054366912E-01  0.53746757118E-01  0.12868392911E-01  0.69448832490E-01  0.51100000000E-03 0.  1.
</event>
<event>
 8    1  0.1146431E+005  0.1043930E+01  0.7957747E-01            NaN
         13   -1    0    0    0    0  0.00000000000E+00  0.00000000000E+00  0.74505805969E-08  0.10566000000E+00  0.10566000000E+00 0. -1.
     999900   -1    0    0    0    0 -0.00000000000E+00 -0.00000000000E+00 -0.74505805969E-08  0.93827000000E+00  0.93827000000E+00 0.  1.
     999902    2    1    2    0    0  0.13475823475E-01 -0.19145545115E-01 -0.21974859144E-02  0.10204145017E+01  0.10201435079E+01 0.  0.
     999903    2    3    3    0    0 -0.35946326045E-01 -0.12247985737E+00  0.31938080037E-01  0.13233468219E+00  0.14105790905E-01 0.  0.
         14    1    1    2    0    0 -0.13475823475E-01  0.19145545115E-01  0.21974859144E-02  0.23515498303E-01  0.00000000000E+00 0.  1.
     999901    1    3    3    0    0  0.49422149520E-01  0.10333431225E+00 -0.34135565951E-01  0.88807981951E+00  0.88000000000E+00 0.  1.
        -11    1    4    4    0    0 -0.24064111464E-01 -0.80123017351E-01  0.14001008064E-01  0.84823750907E-01  0.51100000000E-03 0.  1.
         11    1    4    4    0    0 -0.11882214581E-01 -0.42356840017E-01  0.17937071972E-01  0.47510931284E-01  0.51100000000E-03 0. -1.
</event>
<event>
 8    1  0.1146431E+005  0.1043930E+01  0.7957747E-01            NaN
         13   -1    0    0    0    0  0.00000000000E+00  0.00000000000E+00  0.74505805969E-08  0.10566000000E+00  0.10566000000E+00 0.  1.
     999900   -1    0    0    0    0 -0.00000000000E+00 -0.00000000000E+00 -0.74505805969E-08  0.93827000000E+00  0.93827000000E+00 0.  1.
     999902    2    1    2    0    0  0.20343574729E-01 -0.85879087594E-02  0.62437209953E-02  0.10209822929E+01  0.10207243728E+01 0.  0.
     999903    2    3    3    0    0  0.10437880762E+00 -0.12121782913E-01  0.80634914207E-01  0.13384732105E+00  0.19267663668E-01 0.  0.
         14    1    1    2    0    0 -0.20343574729E-01  0.85879087594E-02 -0.62437209953E-02  0.22947707108E-01  0.00000000000E+00 0.  1.
     999901    1    3    3    0    0 -0.84035232888E-01  0.35338741534E-02 -0.74391193212E-01  0.88713497184E+00  0.88000000000E+00 0.  1.
        -11    1    4    4    0    0  0.12410319649E-01 -0.76488631260E-02  0.13689592935E-01  0.20004679869E-01  0.51100000000E-03 0. -1.
         11    1    4    4    0    0  0.91968487969E-01 -0.44729197868E-02  0.66945321272E-01  0.11384264118E+00  0.51100000000E-03 0.  1.
</event>
<event>
 7    1  0.1146431E+005  0.1043930E+01  0.7957747E-01            NaN
         13   -1    0    0    0    0  0.00000000000E+00  0.00000000000E+00  0.74505805969E-08  0.10566000000E+00  0.10566000000E+00 0.  1.
     999900   -1    0    0    0    0 -0.00000000000E+00 -0.00000000000E+00 -0.74505805969E-08  0.93827000000E+00  0.93827000000E+00 0.  1.
     999903    2    1    2    0    0  0.44884806633E-01  0.75348501874E-02  0.75366721404E-01  0.90263356150E-01  0.19897510760E-01 0.  0.
         14    1    1    2    0    0  0.51398947124E-01  0.33476521315E-01 -0.24357674812E-01  0.65998678525E-01  0.00000000000E+00 0.  1.
     999901    1    1    2    0    0 -0.96283753757E-01 -0.41011371502E-01 -0.51009046591E-01  0.88766796533E+00  0.88000000000E+00 0.  1.
        -11    1    3    3    0    0  0.25076389816E-01  0.11491095854E-01  0.30917806754E-01  0.41437211605E-01  0.51100000000E-03 0.  1.
         11    1    3    3    0    0  0.19808416817E-01 -0.39562456664E-02  0.44448914649E-01  0.48826144545E-01  0.51100000000E-03 0. -1.
</event>
<event>
 8    1  0.1146431E+005  0.1043930E+01  0.7957747E-01            NaN
         13   -1    0    0    0    0  0.00000000000E+00  0.00000000000E+00  0.74505805969E-08  0.10566000000E+00  0.10566000000E+00 0. -1.
     999900   -1    0    0    0    0 -0.00000000000E+00 -0.00000000000E+00 -0.74505805969E-08  0.93827000000E+00  0.93827000000E+00 0. -1.
     999902    2    1    2    0    0  0.89450042200E-02  0.19194418852E-01  0.97715817833E-02  0.10206078512E+01  0.10203413464E+01 0.  0.
     999903    2    3    3    0    0  0.50435874848E-01  0.27418736514E-02  0.12130129111E+00  0.13244623600E+00  0.16634508214E-01 0.  0.
         14    1    1    2    0    0 -0.89450042200E-02 -0.19194418852E-01 -0.97715817833E-02  0.23322148832E-01  0.00000000000E+00 0.  1.
     999901    1    3    3    0    0 -0.41490870628E-01  0.16452545201E-01 -0.11152970933E+00  0.88816161516E+00  0.88000000000E+00 0. -1.
        -11    1    4    4    0    0  0.98217920972E-02 -0.61254357980E-02  0.25023768351E-01  0.27576052423E-01  0.51100000000E-03 0.  1.
         11    1    4    4    0    0  0.40614082751E-01  0.88673094494E-02  0.96277522760E-01  0.10487018358E+00  0.51100000000E-03 0. -1.
</event>
<event>
 8    1  0.1146431E+005  0.1043930E+01  0.7957747E-01            NaN
         13   -1    0    0    0    0  0.00000000000E+00  0.00000000000E+00  0.74505805969E-08  0.10566000000E+00  0.10566000000E+00 0.  1.
     999900   -1    0    0    0    0 -0.00000000000E+00 -0.00000000000E+00 -0.74505805969E-08  0.93827000000E+00  0.93827000000E+00 0.  1.
     999902    2    1    2    0    0  0.23690803528E-01 -0.47197570858E-02 -0.31544350062E-02  0.10195685399E+01  0.10192774533E+01 0.  0.
     999903    2    3    3    0    0 -0.56604713854E-01  0.94904119773E-01  0.61607244903E-01  0.12795967825E+00  0.19166143436E-01 0.  0.
         14    1    1    2    0    0 -0.23690803528E-01  0.47197570858E-02  0.31544350062E-02  0.24361460115E-01  0.00000000000E+00 0.  1.
     999901    1    3    3    0    0  0.80295517382E-01 -0.99623876859E-01 -0.64761679909E-01  0.89160886163E+00  0.88000000000E+00 0. -1.
        -11    1    4    4    0    0 -0.20273888001E-01  0.18084589928E-01  0.15181232527E-01  0.31125775004E-01  0.51100000000E-03 0. -1.
         11    1    4    4    0    0 -0.36330825853E-01  0.76819529845E-01  0.46426012376E-01  0.96833903251E-01  0.51100000000E-03 0.  1.
</event>
<event>
 8    1  0.1146431E+005  0.1043930E+01  0.7957747E-01            NaN
         13   -1    0    0    0    0  0.00000000000E+00  0.00000000000E+00  0.74505805969E-08  0.10566000000E+00  0.10566000000E+00 0. -1.
     999900   -1    0    0    0    0 -0.00000000000E+00 -0.00000000000E+00 -0.74505805969E-08  0.93827000000E+00  0.93827000000E+00 0.  1.
     999902    2    1    2    0    0 -0.22699651371E-01  0.63559501046E-02  0.17166034412E-02  0.10202948778E+01  0.10200210874E+01 0.  0.
     999903    2    3    3    0    0  0.69188193190E-01  0.10212234294E+00  0.35154475877E-01  0.12971491548E+00  0.19342779495E-01 0.  0.
         14    1    1    2    0    0  0.22699651371E-01 -0.63559501046E-02 -0.17166034412E-02  0.23635122201E-01  0.00000000000E+00 0. -1.
     999901    1    3    3    0    0 -0.91887844561E-01 -0.95766392836E-01 -0.33437872435E-01  0.89057996232E+00  0.88000000000E+00 0. -1.
        -11    1    4    4    0    0  0.15209166956E-01  0.35995943466E-01  0.61604836754E-02  0.39563106370E-01  0.51100000000E-03 0. -1.
         11    1    4    4    0    0  0.53979026234E-01  0.66126399474E-01  0.28993992201E-01  0.90151809108E-01  0.51100000000E-03 0.  1.
</event>
<event>
 8    1  0.1146431E+005  0.1043930E+01  0.7957747E-01            NaN
         13   -1    0    0    0    0  0.00000000000E+00  0.00000000000E+00  0.74505805969E-08  0.10566000000E+00  0.10566000000E+00 0.  1.
     999900   -1    0    0    0    0 -0.00000000000E+00 -0.00000000000E+00 -0.74505805969E-08  0.93827000000E+00  0.93827000000E+00 0.  1.
     999902    2    1    2    0    0  0.51155701186E-02  0.17062695210E-01  0.14720523545E-01  0.10208215938E+01  0.10205600070E+01 0.  0.
     999903    2    3    3    0    0  0.13878804031E-01 -0.86131341614E-01 -0.91938621301E-01  0.12835199950E+00  0.20255776436E-01 0.  0.
         14    1    1    2    0    0 -0.51155701186E-02 -0.17062695210E-01 -0.14720523545E-01  0.23108406239E-01  0.00000000000E+00 0. -1.
     999901    1    3    3    0    0 -0.87632339121E-02  0.10319403682E+00  0.10665914485E+00  0.89246959426E+00  0.88000000000E+00 0. -1.
        -11    1    4    4    0    0 -0.35395731258E-02 -0.20009640376E-01 -0.14068166876E-01  0.24720208861E-01  0.51100000000E-03 0.  1.
         11    1    4    4    0    0  0.17418377156E-01 -0.66121701238E-01 -0.77870454425E-01  0.10363179064E+00  0.51100000000E-03 0. -1.
</event>
<event>
 8    1  0.1146431E+005  0.1043930E+01  0.7957747E-01            NaN
         13   -1    0    0    0    0  0.00000000000E+00  0.00000000000E+00  0.74505805969E-08  0.10566000000E+00  0.10566000000E+00 0.  1.
     999900   -1    0    0    0    0 -0.00000000000E+00 -0.00000000000E+00 -0.74505805969E-08  0.93827000000E+00  0.93827000000E+00 0. -1.
     999902    2    1    2    0    0  0.99457606777E-02 -0.85833880177E-02  0.15404741918E-01  0.10236840429E+01  0.10234838157E+01 0.  0.
     999903    2    3    3    0    0 -0.30877834916E-01 -0.10953838726E+00  0.70475592199E-01  0.13526337881E+00  0.19423531598E-01 0.  0.
         14    1    1    2    0    0 -0.99457606777E-02  0.85833880177E-02 -0.15404741918E-01  0.20245957100E-01  0.00000000000E+00 0. -1.
     999901    1    3    3    0    0  0.40823595594E-01  0.10095499924E+00 -0.55070850281E-01  0.88842066409E+00  0.88000000000E+00 0. -1.
        -11    1    4    4    0    0 -0.28850537457E-01 -0.99807453498E-01  0.56978710655E-01  0.11849352672E+00  0.51100000000E-03 0. -1.
         11    1    4    4    0    0 -0.20272974589E-02 -0.97309337592E-02  0.13496881544E-01  0.16769852093E-01  0.51100000000E-03 0.  1.
</event>
<event>
 8    1  0.1146431E+005  0.1043930E+01  0.7957747E-01            NaN
         13   -1    0    0    0    0  0.00000000000E+00  0.00000000000E+00  0.74505805969E-08  0.10566000000E+00  0.10566000000E+00 0.  1.
     999900   -1    0    0    0    0 -0.00000000000E+00 -0.00000000000E+00 -0.74505805969E-08  0.93827000000E+00  0.93827000000E+00 0.  1.
     999902    2    1    2    0    0 -0.14766133531E-01  0.14632026964E-01  0.11369132613E-01  0.10202362859E+01  0.10199611203E+01 0.  0.
     999903    2    3    3    0    0  0.64029982626E-01  0.45327321320E-01 -0.10059377671E+00  0.12912084887E+00  0.19966996910E-01 0.  0.
         14    1    1    2    0    0  0.14766133531E-01 -0.14632026964E-01 -0.11369132613E-01  0.23693714122E-01  0.00000000000E+00 0. -1.
     999901    1    3    3    0    0 -0.78796116156E-01 -0.30695294356E-01  0.11196290932E+00  0.89111543701E+00  0.88000000000E+00 0. -1.
        -11    1    4    4    0    0  0.31676968796E-01  0.27156926096E-01 -0.38458175955E-01  0.56746994685E-01  0.51100000000E-03 0. -1.
         11    1    4    4    0    0  0.32353013830E-01  0.18170395224E-01 -0.62135600757E-01  0.72373854180E-01  0.51100000000E-03 0.  1.
</event>
<event>
 8    1  0.1146431E+005  0.1043930E+01  0.7957747E-01            NaN
         13   -1    0    0    0    0  0.00000000000E+00  0.00000000000E+00  0.74505805969E-08  0.10566000000E+00  0.10566000000E+00 0. -1.
     999900   -1    0    0    0    0 -0.00000000000E+00 -0.00000000000E+00 -0.74505805969E-08  0.93827000000E+00  0.93827000000E+00 0. -1.
     999902    2    1    2    0    0  0.17801729757E-01  0.92262802006E-02  0.13137181506E-01  0.10199589473E+01  0.10196772248E+01 0.  0.
     999903    2    3    3    0    0 -0.10970939883E+00 -0.62147180107E-01  0.47722394729E-02  0.12786969674E+00  0.20723438128E-01 0.  0.
         14    1    1    2    0    0 -0.17801729757E-01 -0.92262802006E-02 -0.13137181506E-01  0.23971052681E-01  0.00000000000E+00 0. -1.
     999901    1    3    3    0    0  0.12751112858E+00  0.71373460307E-01  0.83649420334E-02  0.89208925058E+00  0.88000000000E+00 0.  1.
        -11    1    4    4    0    0 -0.29277711402E-01 -0.22838259001E-01 -0.62888679767E-02  0.37664060330E-01  0.51100000000E-03 0. -1.
         11    1    4    4    0    0 -0.80431687425E-01 -0.39308921105E-01  0.11061107450E-01  0.90205636407E-01  0.51100000000E-03 0.  1.
</event>
<event>
 8    1  0.1146431E+005  0.1043930E+01  0.7957747E-01            NaN
         13   -1    0    0    0    0  0.00000000000E+00  0.00000000000E+00  0.74505805969E-08  0.10566000000E+00  0.10566000000E+00 0. -1.
     999900   -1    0    0    0    0 -0.00000000000E+00 -0.00000000000E+00 -0.74505805969E-08  0.93827000000E+00  0.93827000000E+00 0. -1.
     999902    2    1    2    0    0  0.23704467547E-01 -0.55104192150E-03 -0.13654292496E-02  0.10201798458E+01  0.10199033522E+01 0.  0.
     999903    2    3    3    0    0 -0.71067252503E-01 -0.68636221066E-01  0.80087452682E-01  0.12874737917E+00  0.20010056094E-01 0.  0.
         14    1    1    2    0    0 -0.23704467547E-01  0.55104192150E-03  0.13654292496E-02  0.23750154229E-01  0.00000000000E+00 0.  1.
     999901    1    3    3    0    0  0.94771720049E-01  0.68085179145E-01 -0.81452881931E-01  0.89143246660E+00  0.88000000000E+00 0.  1.
        -11    1    4    4    0    0 -0.34463915781E-01 -0.26797715180E-01  0.46558201788E-01  0.63826376245E-01  0.51100000000E-03 0. -1.
         11    1    4    4    0    0 -0.36603336721E-01 -0.41838505886E-01  0.33529250893E-01  0.64921002922E-01  0.51100000000E-03 0.  1.
</event>
<event>
 8    1  0.1146431E+005  0.1043930E+01  0.7957747E-01            NaN
         13   -1    0    0    0    0  0.00000000000E+00  0.00000000000E+00  0.74505805969E-08  0.10566000000E+00  0.10566000000E+00 0.  1.
     999900   -1    0    0    0    0 -0.00000000000E+00 -0.00000000000E+00 -0.74505805969E-08  0.93827000000E+00  0.93827000000E+00 0.  1.
     999902    2    1    2    0    0 -0.12479454898E-01  0.96015883763E-02 -0.14685122053E-01  0.10223990896E+01  0.10221723525E+01 0.  0.
     999903    2    3    3    0    0  0.22027572085E-01 -0.79143697678E-02 -0.13040776746E+00  0.13397955222E+00  0.19911891407E-01 0.  0.
         14    1    1    2    0    0  0.12479454898E-01 -0.96015883763E-02  0.14685122053E-01  0.21530910423E-01  0.00000000000E+00 0.  1.
     999901    1    3    3    0    0 -0.34507026983E-01  0.17515958144E-01  0.11572264540E+00  0.88841953736E+00  0.88000000000E+00 0. -1.
        -11    1    4    4    0    0  0.10242500655E-01 -0.13932190408E-01 -0.81092881896E-01  0.82917617937E-01  0.51100000000E-03 0.  1.
         11    1    4    4    0    0  0.11785071430E-01  0.60178206402E-02 -0.49314885560E-01  0.51061934282E-01  0.51100000000E-03 0. -1.
</event>
<event>
 8    1  0.1146431E+005  0.1043930E+01  0.7957747E-01            NaN
         13   -1    0    0    0    0  0.00000000000E+00  0.00000000000E+00  0.74505805969E-08  0.10566000000E+00  0.10566000000E+00 0.  1.
     999900   -1    0    0    0    0 -0.00000000000E+00 -0.00000000000E+00 -0.74505805969E-08  0.93827000000E+00  0.93827000000E+00 0.  1.
     999902    2    1    2    0    0  0.21777426878E-01 -0.85077637372E-02  0.84480323118E-02  0.10190702410E+01  0.10187669746E+01 0.  0.
     999903    2    3    3    0    0 -0.54949977047E-02  0.10658323771E+00 -0.66786579652E-01  0.12797542533E+00  0.22958238314E-01 0.  0.
         14    1    1    2    0    0 -0.21777426878E-01  0.85077637372E-02 -0.84480323118E-02  0.24859758952E-01  0.00000000000E+00 0.  1.
     999901    1    3    3    0    0  0.27272424583E-01 -0.11509100145E+00  0.75234611964E-01  0.89109481572E+00  0.88000000000E+00 0. -1.
        -11    1    4    4    0    0  0.33628906332E-02  0.75893321188E-01 -0.55540881209E-01  0.94107150849E-01  0.51100000000E-03 0. -1.
         11    1    4    4    0    0 -0.88578883380E-02  0.30689916523E-01 -0.11245698443E-01  0.33868274484E-01  0.51100000000E-03 0.  1.
</event>
<event>
 8    1  0.1146431E+005  0.1043930E+01  0.7957747E-01            NaN
         13   -1    0    0    0    0  0.00000000000E+00  0.00000000000E+00  0.74505805969E-08  0.10566000000E+00  0.10566000000E+00 0.  1.
     999900   -1    0    0    0    0 -0.00000000000E+00 -0.00000000000E+00 -0.74505805969E-08  0.93827000000E+00  0.93827000000E+00 0. -1.
     999902    2    1    2    0    0 -0.13138721851E-01 -0.18867561041E-01  0.38118452886E-02  0.10206246136E+01  0.10203584962E+01 0.  0.
     999903    2    3    3    0    0 -0.78847942247E-01  0.42915404975E-01 -0.92953580437E-01  0.13073788812E+00  0.19831724432E-01 0.  0.
         14    1    1    2    0    0  0.13138721851E-01  0.18867561041E-01 -0.38118452886E-02  0.23305386416E-01  0.00000000000E+00 0. -1.
     999901    1    3    3    0    0  0.65709220397E-01 -0.61782966016E-01  0.96765425726E-01  0.88988672546E+00  0.88000000000E+00 0.  1.
        -11    1    4    4    0    0 -0.34601766312E-01  0.21758728277E-01 -0.55979157094E-01  0.69315594480E-01  0.51100000000E-03 0.  1.
         11    1    4    4    0    0 -0.44246175936E-01  0.21156676699E-01 -0.36974423343E-01  0.61422293643E-01  0.51100000000E-03 0. -1.
</event>
<event>
 8    1  0.1146431E+005  0.1043930E+01  0.7957747E-01            NaN
         13   -1    0    0    0    0  0.00000000000E+00  0.00000000000E+00  0.74505805969E-08  0.10566000000E+00  0.10566000000E+00 0.  1.
     999900   -1    0    0    0    0 -0.00000000000E+00 -0.00000000000E+00 -0.74505805969E-08  0.93827000000E+00  0.93827000000E+00 0.  1.
     999902    2    1    2    0    0  0.19343288941E-01 -0.13187763317E-01 -0.72838271517E-02  0.10194119645E+01  0.10191170783E+01 0.  0.
     999903    2    3    3    0    0  0.46854219560E-01 -0.92156955006E-01  0.73862500133E-01  0.13173087817E+00  0.34772591087E-01 0.  0.
         14    1    1    2    0    0 -0.19343288941E-01  0.13187763317E-01  0.72838271517E-02  0.24518035532E-01  0.00000000000E+00 0. -1.
     999901    1    3    3    0    0 -0.27510930619E-01  0.78969191689E-01 -0.81146327285E-01  0.88768108630E+00  0.88000000000E+00 0.  1.
        -11    1    4    4    0    0  0.25156997984E-01 -0.50078073922E-01  0.18803715745E-01  0.59114540361E-01  0.51100000000E-03 0. -1.
         11    1    4    4    0    0  0.21697221577E-01 -0.42078881084E-01  0.55058784388E-01  0.72616337809E-01  0.51100000000E-03 0.  1.
</event>
<event>
 8    1  0.1146431E+005  0.1043930E+01  0.7957747E-01            NaN
         13   -1    0    0    0    0  0.00000000000E+00  0.00000000000E+00  0.74505805969E-08  0.10566000000E+00  0.10566000000E+00 0. -1.
     999900   -1    0    0    0    0 -0.00000000000E+00 -0.00000000000E+00 -0.74505805969E-08  0.93827000000E+00  0.93827000000E+00 0. -1.
     999902    2    1    2    0    0  0.12746671331E-01  0.19845134211E-01  0.25344424164E-02  0.10202080612E+01  0.10199322319E+01 0.  0.
     999903    2    3    3    0    0  0.10873913542E+00 -0.65412788999E-01 -0.13823916812E-01  0.13074133190E+00  0.28269465050E-01 0.  0.
         14    1    1    2    0    0 -0.12746671331E-01 -0.19845134211E-01 -0.25344424164E-02  0.23721938796E-01  0.00000000000E+00 0. -1.
     999901    1    3    3    0    0 -0.95992464084E-01  0.85257923210E-01  0.16358359228E-01  0.88946672931E+00  0.88000000000E+00 0. -1.
        -11    1    4    4    0    0  0.26405374693E-01 -0.17838078834E-01 -0.15922689969E-01  0.35626311148E-01  0.51100000000E-03 0.  1.
         11    1    4    4    0    0  0.82333760722E-01 -0.47574710165E-01  0.20987731569E-02  0.95115020747E-01  0.51100000000E-03 0. -1.
</event>
<event>
 8    1  0.1146431E+005  0.1043930E+01  0.7957747E-01            NaN
         13   -1    0    0    0    0  0.00000000000E+00  0.00000000000E+00  0.74505805969E-08  0.10566000000E+00  0.10566000000E+00 0. -1.
     999900   -1    0    0    0    0 -0.00000000000E+00 -0.00000000000E+00 -0.74505805969E-08  0.93827000000E+00  0.93827000000E+00 0.  1.
     999902    2    1    2    0    0 -0.88981203471E-02 -0.19827627918E-01 -0.15616793880E-01  0.10171681685E+01  0.10168160539E+01 0.  0.
     999903    2    3    3    0    0  0.90117951983E-01 -0.78340952715E-01  0.41319224157E-01  0.12785961579E+00  0.19551289555E-01 0.  0.
         14    1    1    2    0    0  0.88981203471E-02  0.19827627918E-01  0.15616793880E-01  0.26761831508E-01  0.00000000000E+00 0. -1.
     999901    1    3    3    0    0 -0.99016072330E-01  0.58513324797E-01 -0.56936018037E-01  0.88930855270E+00  0.88000000000E+00 0. -1.
        -11    1    4    4    0    0  0.30299492114E-02 -0.78251541805E-02  0.61356672053E-02  0.10407745348E-01  0.51100000000E-03 0.  1.
         11    1    4    4    0    0  0.87088002772E-01 -0.70515798534E-01  0.35183556952E-01  0.11745187044E+00  0.51100000000E-03 0. -1.
</event>
<event>
 8    1  0.1146431E+005  0.1043930E+01  0.7957747E-01            NaN
         13   -1    0    0    0    0  0.00000000000E+00  0.00000000000E+00  0.74505805969E-08  0.10566000000E+00  0.10566000000E+00 0.  1.
     999900   -1    0    0    0    0 -0.00000000000E+00 -0.00000000000E+00 -0.74505805969E-08  0.93827000000E+00  0.93827000000E+00 0.  1.
     999902    2    1    2    0    0 -0.20745261012E-01  0.14685648695E-02 -0.11365320273E-01  0.10202299358E+01  0.10199546210E+01 0.  0.
     999903    2    3    3    0    0  0.12867795934E-01 -0.11513335119E+00  0.55219922646E-01  0.12941040359E+00  0.16629611261E-01 0.  0.
         14    1    1    2    0    0  0.20745261012E-01 -0.14685648695E-02  0.11365320273E-01  0.23700064180E-01  0.00000000000E+00 0.  1.
     999901    1    3    3    0    0 -0.33613056947E-01  0.11660191606E+00 -0.66585242919E-01  0.89081953223E+00  0.88000000000E+00 0.  1.
        -11    1    4    4    0    0  0.37266734426E-03 -0.51096937630E-01  0.17324753284E-01  0.53957799376E-01  0.51100000000E-03 0.  1.
         11    1    4    4    0    0  0.12495128590E-01 -0.64036413565E-01  0.37895169362E-01  0.75452604214E-01  0.51100000000E-03 0. -1.
</event>
<event>
 8    1  0.1146431E+005  0.1043930E+01  0.7957747E-01            NaN
         13   -1    0    0    0    0  0.00000000000E+00  0.00000000000E+00  0.74505805969E-08  0.10566000000E+00  0.10566000000E+00 0. -1.
     999900   -1    0    0    0    0 -0.00000000000E+00 -0.00000000000E+00 -0.74505805969E-08  0.93827000000E+00  0.93827000000E+00 0.  1.
     999902    2    1    2    0    0 -0.21994629281E-01  0.60228226490E-02  0.59300106277E-02  0.10203672511E+01  0.10200951544E+01 0.  0.
     999903    2    3    3    0    0 -0.14322097209E-01 -0.10989928184E+00  0.66225383359E-01  0.13068622172E+00  0.20251235230E-01 0.  0.
         14    1    1    2    0    0  0.21994629281E-01 -0.60228226490E-02 -0.59300106277E-02  0.23562748904E-01  0.00000000000E+00 0. -1.
     999901    1    3    3    0    0 -0.76725320721E-02  0.11592210449E+00 -0.60295372731E-01  0.88968102938E+00  0.88000000000E+00 0.  1.
        -11    1    4    4    0    0  0.33784298327E-02 -0.72744578800E-02  0.18268495691E-02  0.82419673581E-02  0.51100000000E-03 0. -1.
         11    1    4    4    0    0 -0.17700527041E-01 -0.10262482396E+00  0.64398533790E-01  0.12244425436E+00  0.51100000000E-03 0.  1.
</event>
<event>
 8    1  0.1146431E+005  0.1043930E+01  0.7957747E-01            NaN
         13   -1    0    0    0    0  0.00000000000E+00  0.00000000000E+00  0.74505805969E-08  0.10566000000E+00  0.10566000000E+00 0. -1.
     999900   -1    0    0    0    0 -0.00000000000E+00 -0.00000000000E+00 -0.74505805969E-08  0.93827000000E+00  0.93827000000E+00 0. -1.
     999902    2    1    2    0    0 -0.17160738691E-01 -0.16003261080E-01  0.97009940901E-03  0.10204451877E+01  0.10201749088E+01 0.  0.
     999903    2    3    3    0    0  0.11163573278E+00 -0.51439214964E-01 -0.35928150311E-01  0.12959967989E+00  0.19917715047E-01 0.  0.
         14    1    1    2    0    0  0.17160738691E-01  0.16003261080E-01 -0.97009940901E-03  0.23484812336E-01  0.00000000000E+00 0. -1.
     999901    1    3    3    0    0 -0.12879647147E+00  0.35435953884E-01  0.36898249720E-01  0.89084550778E+00  0.88000000000E+00 0. -1.
        -11    1    4    4    0    0  0.16914514303E-01 -0.60884582201E-02  0.16498139524E-02  0.18059709983E-01  0.51100000000E-03 0. -1.
         11    1    4    4    0    0  0.94721218478E-01 -0.45350756744E-01 -0.37577964263E-01  0.11153996990E+00  0.51100000000E-03 0.  1.
</event>
<event>
 8    1  0.1146431E+005  0.1043930E+01  0.7957747E-01            NaN
         13   -1    0    0    0    0  0.00000000000E+00  0.00000000000E+00  0.74505805969E-08  0.10566000000E+00  0.10566000000E+00 0.  1.
     999900   -1    0    0    0    0 -0.00000000000E+00 -0.00000000000E+00 -0.74505805969E-08  0.93827000000E+00  0.93827000000E+00 0.  1.
     999902    2    1    2    0    0  0.74868545459E-02  0.89592653545E-02  0.24804928423E-01  0.10165145682E+01  0.10161448034E+01 0.  0.
     999903    2    3    3    0    0  0.11459993952E+00  0.52860087472E-01  0.17274580243E-01  0.12890136342E+00  0.19743742901E-01 0.  0.
         14    1    1    2    0    0 -0.74868545459E-02 -0.89592653545E-02 -0.24804928423E-01  0.27415431800E-01  0.00000000000E+00 0.  1.
     999901    1    3    3    0    0 -0.10711308497E+00 -0.43900822118E-01  0.75303481798E-02  0.88761320478E+00  0.88000000000E+00 0. -1.
        -11    1    4    4    0    0  0.28619063464E-01  0.13488207571E-01  0.13083027016E-01  0.34240462233E-01  0.51100000000E-03 0.  1.
         11    1    4    4    0    0  0.85980876056E-01  0.39371879901E-01  0.41915532275E-02  0.94660901188E-01  0.51100000000E-03 0. -1.
</event>
<event>
 8    1  0.1146431E+005  0.1043930E+01  0.7957747E-01            NaN
         13   -1    0    0    0    0  0.00000000000E+00  0.00000000000E+00  0.74505805969E-08  0.10566000000E+00  0.10566000000E+00 0. -1.
     999900   -1    0    0    0    0 -0.00000000000E+00 -0.00000000000E+00 -0.74505805969E-08  0.93827000000E+00  0.93827000000E+00 0. -1.
     999902    2    1    2    0    0  0.95608718280E-02  0.27910385708E-01  0.10577394570E-01  0.10125886347E+01  0.10121034839E+01 0.  0.
     999903    2    3    3    0    0 -0.88665425398E-01 -0.79408599943E-01  0.80659058923E-02  0.12064016217E+00  0.17936178081E-01 0.  0.
         14    1    1    2    0    0 -0.95608718280E-02 -0.27910385708E-01 -0.10577394570E-01  0.31341365261E-01  0.00000000000E+00 0.  1.
     999901    1    3    3    0    0  0.98226297226E-01  0.10731898565E+00  0.25114886778E-02  0.89194847257E+00  0.88000000000E+00 0.  1.
        -11    1    4    4    0    0 -0.44017017870E-01 -0.51218125670E-01  0.58384196152E-02  0.67787480584E-01  0.51100000000E-03 0.  1.
         11    1    4    4    0    0 -0.44648407527E-01 -0.28190474273E-01  0.22274862771E-02  0.52852681584E-01  0.51100000000E-03 0. -1.
</event>
<event>
 8    1  0.1146431E+005  0.1043930E+01  0.7957747E-01            NaN
         13   -1    0    0    0    0  0.00000000000E+00  0.00000000000E+00  0.74505805969E-08  0.10566000000E+00  0.10566000000E+00 0.  1.
     999900   -1    0    0    0    0 -0.00000000000E+00 -0.00000000000E+00 -0.74505805969E-08  0.93827000000E+00  0.93827000000E+00 0.  1.
     999902    2    1    2    0    0  0.20652807826E-01 -0.10072466688E-01  0.83809126248E-02  0.10194712030E+01  0.10191777573E+01 0.  0.
     999903    2    3    3    0    0  0.10600506764E+00  0.17059140452E-01 -0.72789818456E-01  0.13120895568E+00  0.19731795182E-01 0.  0.
         14    1    1    2    0    0 -0.20652807826E-01  0.10072466688E-01 -0.83809126248E-02  0.24458797041E-01  0.00000000000E+00 0. -1.
     999901    1    3    3    0    0 -0.85352259812E-01 -0.27131607140E-01  0.81170731081E-01  0.88826224728E+00  0.88000000000E+00 0. -1.
        -11    1    4    4    0    0  0.99519273689E-01  0.14532181792E-01 -0.72918808427E-01  0.12422835380E+00  0.51100000000E-03 0.  1.
         11    1    4    4    0    0  0.64857939491E-02  0.25269586598E-02  0.12898997146E-03  0.69806018818E-02  0.51100000000E-03 0. -1.
</event>
<event>
 8    1  0.1146431E+005  0.1043930E+01  0.7957747E-01            NaN
         13   -1    0    0    0    0  0.00000000000E+00  0.00000000000E+00  0.74505805969E-08  0.10566000000E+00  0.10566000000E+00 0. -1.
     999900   -1    0    0    0    0 -0.00000000000E+00 -0.00000000000E+00 -0.74505805969E-08  0.93827000000E+00  0.93827000000E+00 0.  1.
     999902    2    1    2    0    0 -0.25234296264E-02 -0.21551929694E-01  0.11583643907E-01  0.10193325575E+01  0.10190357347E+01 0.  0.
     999903    2    3    3    0    0 -0.15895323982E-03 -0.64027287519E-01 -0.11181215355E+00  0.12970551791E+00  0.14901170451E-01 0.  0.
         14    1    1    2    0    0  0.25234296264E-02  0.21551929694E-01 -0.11583643907E-01  0.24597442484E-01  0.00000000000E+00 0.  1.
     999901    1    3    3    0    0 -0.23644763866E-02  0.42475357825E-01  0.12339579746E+00  0.88962703961E+00  0.88000000000E+00 0. -1.
        -11    1    4    4    0    0  0.40787137059E-02 -0.15879425297E-01 -0.19315991409E-01  0.25340889849E-01  0.51100000000E-03 0. -1.
         11    1    4    4    0    0 -0.42376669458E-02 -0.48147862222E-01 -0.92496162143E-01  0.10436462806E+00  0.51100000000E-03 0.  1.
</event>
<event>
 8    1  0.1146431E+005  0.1043930E+01  0.7957747E-01            NaN
         13   -1    0    0    0    0  0.00000000000E+00  0.00000000000E+00  0.74505805969E-08  0.10566000000E+00  0.10566000000E+00 0.  1.
     999900   -1    0    0    0    0 -0.00000000000E+00 -0.00000000000E+00 -0.74505805969E-08  0.93827000000E+00  0.93827000000E+00 0.  1.
     999902    2    1    2    0    0 -0.14986123072E-02  0.10713304298E-01 -0.20184075346E-01  0.10210298335E+01  0.10207729930E+01 0.  0.
     999903    2    3    3    0    0  0.37997849090E-02  0.34949482045E-01 -0.12762720269E+00  0.13414794118E+00  0.21703976471E-01 0.  0.
         14    1    1    2    0    0  0.14986123072E-02 -0.10713304298E-01  0.20184075346E-01  0.22900166493E-01  0.00000000000E+00 0.  1.
     999901    1    3    3    0    0 -0.52983972162E-02 -0.24236177747E-01  0.10744312735E+00  0.88688189233E+00  0.88000000000E+00 0. -1.
        -11    1    4    4    0    0 -0.12743469168E-02  0.12111917128E-01 -0.16108610395E-01  0.20200765986E-01  0.51100000000E-03 0.  1.
         11    1    4    4    0    0  0.50741318257E-02  0.22837564917E-01 -0.11151859230E+00  0.11394717519E+00  0.51100000000E-03 0. -1.
</event>
<event>
 8    1  0.1146431E+005  0.1043930E+01  0.7957747E-01            NaN
         13   -1    0    0    0    0  0.00000000000E+00  0.00000000000E+00  0.74505805969E-08  0.10566000000E+00  0.10566000000E+00 0. -1.
     999900   -1    0    0    0    0 -0.00000000000E+00 -0.00000000000E+00 -0.74505805969E-08  0.93827000000E+00  0.93827000000E+00 0. -1.
     999902    2    1    2    0    0  0.11763505565E-01 -0.18798642264E-01  0.33744703010E-02  0.10214988595E+01  0.10212525466E+01 0.  0.
     999903    2    3    3    0    0 -0.91855975958E-01 -0.41299445243E-01  0.82219487367E-01  0.13163380243E+00  0.20597313963E-01 0.  0.
         14    1    1    2    0    0 -0.11763505565E-01  0.18798642264E-01 -0.33744703010E-02  0.22431140496E-01  0.00000000000E+00 0. -1.
     999901    1    3    3    0    0  0.10361948152E+00  0.22500802979E-01 -0.78845017066E-01  0.88986505707E+00  0.88000000000E+00 0. -1.
        -11    1    4    4    0    0 -0.20218281447E-01 -0.18898555534E-01  0.20218038790E-01  0.34277755461E-01  0.51100000000E-03 0. -1.
         11    1    4    4    0    0 -0.71637694512E-01 -0.22400889709E-01  0.62001448577E-01  0.97356046968E-01  0.51100000000E-03 0.  1.
</event>
<event>
 8    1  0.1146431E+005  0.1043930E+01  0.7957747E-01            NaN
         13   -1    0    0    0    0  0.00000000000E+00  0.00000000000E+00  0.74505805969E-08  0.10566000000E+00  0.10566000000E+00 0. -1.
     999900   -1    0    0    0    0 -0.00000000000E+00 -0.00000000000E+00 -0.74505805969E-08  0.93827000000E+00  0.93827000000E+00 0.  1.
     999902    2    1    2    0    0 -0.90408508360E-02 -0.21738005919E-01 -0.98390743556E-02  0.10184136274E+01  0.10180939206E+01 0.  0.
     999903    2    3    3    0    0 -0.75663511035E-01 -0.10392758200E+00  0.19774709598E-01  0.13158180489E+00  0.19920417551E-01 0.  0.
         14    1    1    2    0    0  0.90408508360E-02  0.21738005919E-01  0.98390743556E-02  0.25516372574E-01  0.00000000000E+00 0. -1.
     999901    1    3    3    0    0  0.66622660199E-01  0.82189576080E-01 -0.29613783953E-01  0.88683182254E+00  0.88000000000E+00 0.  1.
        -11    1    4    4    0    0 -0.45209774563E-01 -0.70754551874E-01  0.47274479442E-02  0.84099585088E-01  0.51100000000E-03 0. -1.
         11    1    4    4    0    0 -0.30453736472E-01 -0.33173030124E-01  0.15047261653E-01  0.47482219799E-01  0.51100000000E-03 0.  1.
</event>
<event>
 8    1  0.1146431E+005  0.1043930E+01  0.7957747E-01            NaN
         13   -1    0    0    0    0  0.00000000000E+00  0.00000000000E+00  0.74505805969E-08  0.10566000000E+00  0.10566000000E+00 0.  1.
     999900   -1    0    0    0    0 -0.00000000000E+00 -0.00000000000E+00 -0.74505805969E-08  0.93827000000E+00  0.93827000000E+00 0.  1.
     999902    2    1    2    0    0  0.15907973682E-01  0.17591306237E-01 -0.17604004166E-02  0.10201473027E+01  0.10198700420E+01 0.  0.
     999903    2    3    3    0    0  0.47681688338E-01 -0.11199630542E+00  0.35807577859E-01  0.12929721932E+00  0.24877147388E-01 0.  0.
         14    1    1    2    0    0 -0.15907973682E-01 -0.17591306237E-01  0.17604004166E-02  0.23782697312E-01  0.00000000000E+00 0.  1.
     999901    1    3    3    0    0 -0.31773714656E-01  0.12958761166E+00 -0.37567978275E-01  0.89085008336E+00  0.88000000000E+00 0.  1.
        -11    1    4    4    0    0  0.78283866706E-02 -0.49058291001E-01  0.16328462766E-01  0.52296074146E-01  0.51100000000E-03 0. -1.
         11    1    4    4    0    0  0.39853301668E-01 -0.62938014420E-01  0.19479115093E-01  0.77001145178E-01  0.51100000000E-03 0.  1.
</event>
<event>
 8    1  0.1146431E+005  0.1043930E+01  0.7957747E-01            NaN
         13   -1    0    0    0    0  0.00000000000E+00  0.00000000000E+00  0.74505805969E-08  0.10566000000E+00  0.10566000000E+00 0. -1.
     999900   -1    0    0    0    0 -0.00000000000E+00 -0.00000000000E+00 -0.74505805969E-08  0.93827000000E+00  0.93827000000E+00 0. -1.
     999902    2    1    2    0    0 -0.14881997101E-01 -0.17320451784E-01 -0.56847173667E-02  0.10203973015E+01  0.10201259064E+01 0.  0.
     999903    2    3    3    0    0  0.34251679859E-01  0.80453425845E-01  0.91582817293E-01  0.12830155402E+00  0.20686832437E-01 0.  0.
         14    1    1    2    0    0  0.14881997101E-01  0.17320451784E-01  0.56847173667E-02  0.23532698512E-01  0.00000000000E+00 0. -1.
     999901    1    3    3    0    0 -0.49133676960E-01 -0.97773877629E-01 -0.97267534660E-01  0.89209574747E+00  0.88000000000E+00 0.  1.
        -11    1    4    4    0    0  0.34790014049E-02  0.22567228406E-01  0.34491529459E-01  0.41367982476E-01  0.51100000000E-03 0.  1.
         11    1    4    4    0    0  0.30772678454E-01  0.57886197440E-01  0.57091287833E-01  0.86933571540E-01  0.51100000000E-03 0. -1.
</event>
<event>
 8    1  0.1552172E+005  0.1043930E+01  0.7957747E-01            NaN
         13   -1    0    0    0    0  0.00000000000E+00  0.00000000000E+00  0.74505805969E-08  0.10566000000E+00  0.10566000000E+00 0.  1.
     999900   -1    0    0    0    0 -0.00000000000E+00 -0.00000000000E+00 -0.74505805969E-08  0.93827000000E+00  0.93827000000E+00 0. -1.
     999902    2    1    2    0    0 -0.16348897979E-01 -0.31746956258E-02  0.19482618332E-01  0.10182992065E+01  0.10179765893E+01 0.  0.
     999903    2    3    3    0    0  0.46977583102E-01  0.84658833879E-01  0.82361339079E-01  0.12943549051E+00  0.24416071778E-01 0.  0.
         14    1    1    2    0    0  0.16348897979E-01  0.31746956258E-02 -0.19482618332E-01  0.25630793482E-01  0.00000000000E+00 0. -1.
     999901    1    3    3    0    0 -0.63326481081E-01 -0.87833529504E-01 -0.62878720748E-01  0.88886371601E+00  0.88000000000E+00 0. -1.
        -11    1    4    4    0    0  0.28007424671E-01  0.44074367413E-01  0.59399664376E-01  0.79092015706E-01  0.51100000000E-03 0.  1.
         11    1    4    4    0    0  0.18970158431E-01  0.40584466466E-01  0.22961674704E-01  0.50343474805E-01  0.51100000000E-03 0. -1.
</event>
<event>
 8    1  0.1146431E+005  0.1043930E+01  0.7957747E-01            NaN
         13   -1    0    0    0    0  0.00000000000E+00  0.00000000000E+00  0.74505805969E-08  0.10566000000E+00  0.10566000000E+00 0. -1.
     999900   -1    0    0    0    0 -0.00000000000E+00 -0.00000000000E+00 -0.74505805969E-08  0.93827000000E+00  0.93827000000E+00 0. -1.
     999902    2    1    2    0    0 -0.17329558674E-01 -0.15969325476E-01  0.73010900058E-03  0.10203531890E+01  0.10200807636E+01 0.  0.
     999903    2    3    3    0    0 -0.44743310251E-01  0.11959208656E+00 -0.13099810437E-01  0.12944372280E+00  0.16728459584E-01 0.  0.
         14    1    1    2    0    0  0.17329558674E-01  0.15969325476E-01 -0.73010900058E-03  0.23576811047E-01  0.00000000000E+00 0.  1.
     999901    1    3    3    0    0  0.27413751578E-01 -0.13556141203E+00  0.13829919438E-01  0.89090946615E+00  0.88000000000E+00 0. -1.
        -11    1    4    4    0    0 -0.11967322900E-01  0.15901485500E-01 -0.40775736246E-02  0.20321461221E-01  0.51100000000E-03 0. -1.
         11    1    4    4    0    0 -0.32775987352E-01  0.10369060106E+00 -0.90222368129E-02  0.10912226158E+00  0.51100000000E-03 0.  1.
</event>
<event>
 8    1  0.1146431E+005  0.1043930E+01  0.7957747E-01            NaN
         13   -1    0    0    0    0  0.00000000000E+00  0.00000000000E+00  0.74505805969E-08  0.10566000000E+00  0.10566000000E+00 0. -1.
     999900   -1    0    0    0    0 -0.00000000000E+00 -0.00000000000E+00 -0.74505805969E-08  0.93827000000E+00  0.93827000000E+00 0.  1.
     999902    2    1    2    0    0 -0.10850831462E-01 -0.14831837052E-01 -0.13053301866E-01  0.10213886464E+01  0.10211398799E+01 0.  0.
     999903    2    3    3    0    0  0.51661153576E-01 -0.21772131729E-01  0.11523534104E+00  0.12986529174E+00  0.21045419078E-01 0.  0.
         14    1    1    2    0    0  0.10850831462E-01  0.14831837052E-01  0.13053301866E-01  0.22541353627E-01  0.00000000000E+00 0. -1.
     999901    1    3    3    0    0 -0.62511985038E-01  0.69402946773E-02 -0.12828864291E+00  0.89152335464E+00  0.88000000000E+00 0.  1.
        -11    1    4    4    0    0  0.37610693186E-01 -0.19787512388E-01  0.10180572313E+00  0.11032124125E+00  0.51100000000E-03 0.  1.
         11    1    4    4    0    0  0.14050460390E-01 -0.19846193409E-02  0.13429617911E-01  0.19544050484E-01  0.51100000000E-03 0. -1.
</event>
<event>
 8    1  0.1146431E+005  0.1043930E+01  0.7957747E-01            NaN
         13   -1    0    0    0    0  0.00000000000E+00  0.00000000000E+00  0.74505805969E-08  0.10566000000E+00  0.10566000000E+00 0. -1.
     999900   -1    0    0    0    0 -0.00000000000E+00 -0.00000000000E+00 -0.74505805969E-08  0.93827000000E+00  0.93827000000E+00 0. -1.
     999902    2    1    2    0    0  0.68204958980E-02 -0.81830010064E-02 -0.21143707712E-01  0.10202543364E+01  0.10199795949E+01 0.  0.
     999903    2    3    3    0    0 -0.70637084140E-01  0.62558757748E-01 -0.89214029895E-01  0.13141371973E+00  0.20179860636E-01 0.  0.
         14    1    1    2    0    0 -0.68204958980E-02  0.81830010064E-02  0.21143707712E-01  0.23675663572E-01  0.00000000000E+00 0.  1.
     999901    1    3    3    0    0  0.77457580038E-01 -0.70741758754E-01  0.68070322183E-01  0.88884061670E+00  0.88000000000E+00 0. -1.
        -11    1    4    4    0    0 -0.45520322304E-01  0.52238354407E-01 -0.62362085150E-01  0.93221436371E-01  0.51100000000E-03 0.  1.
         11    1    4    4    0    0 -0.25116761836E-01  0.10320403340E-01 -0.26851944745E-01  0.38192283355E-01  0.51100000000E-03 0. -1.
</event>
<event>
 8    1  0.1146431E+005  0.1043930E+01  0.7957747E-01            NaN
         13   -1    0    0    0    0  0.00000000000E+00  0.00000000000E+00  0.74505805969E-08  0.10566000000E+00  0.10566000000E+00 0.  1.
     999900   -1    0    0    0    0 -0.00000000000E+00 -0.00000000000E+00 -0.74505805969E-08  0.93827000000E+00  0.93827000000E+00 0.  1.
     999902    2    1    2    0    0  0.13891010522E-01 -0.67427500261E-02 -0.16051565293E-01  0.10216572005E+01  0.10214143908E+01 0.  0.
     999903    2    3    3    0    0  0.88508585125E-03 -0.12016148966E+00  0.49598804666E-01  0.13185782101E+00  0.22065279612E-01 0.  0.
         14    1    1    2    0    0 -0.13891010522E-01  0.67427500261E-02  0.16051565293E-01  0.22272799545E-01  0.00000000000E+00 0.  1.
     999901    1    3    3    0    0  0.13005924671E-01  0.11341873963E+00 -0.65650369958E-01  0.88979937944E+00  0.88000000000E+00 0.  1.
        -11    1    4    4    0    0  0.59409996684E-02 -0.14128490114E-01  0.18082909438E-02  0.15441526709E-01  0.51100000000E-03 0.  1.
         11    1    4    4    0    0 -0.50559138172E-02 -0.10603299954E+00  0.47790513722E-01  0.11641629431E+00  0.51100000000E-03 0. -1.
</event>
<event>
 8    1  0.1146431E+005  0.1043930E+01  0.7957747E-01            NaN
         13   -1    0    0    0    0  0.00000000000E+00  0.00000000000E+00  0.74505805969E-08  0.10566000000E+00  0.10566000000E+00 0. -1.
     999900   -1    0    0    0    0 -0.00000000000E+00 -0.00000000000E+00 -0.74505805969E-08  0.93827000000E+00  0.93827000000E+00 0.  1.
     999902    2    1    2    0    0  0.92131720297E-02 -0.19025225354E-01 -0.11450505973E-01  0.10198892882E+01  0.10196059064E+01 0.  0.
     999903    2    3    3    0    0 -0.10544424813E+00 -0.53794063334E-01  0.45858372249E-01  0.12992327554E+00  0.27654592902E-01 0.  0.
         14    1    1    2    0    0 -0.92131720297E-02  0.19025225354E-01  0.11450505973E-01  0.24040711838E-01  0.00000000000E+00 0. -1.
     999901    1    3    3    0    0  0.11465742016E+00  0.34768837980E-01 -0.57308878222E-01  0.88996601262E+00  0.88000000000E+00 0. -1.
        -11    1    4    4    0    0 -0.16643997771E-01 -0.20376673534E-01  0.58846368049E-02  0.26965191590E-01  0.51100000000E-03 0.  1.
         11    1    4    4    0    0 -0.88800250361E-01 -0.33417389800E-01  0.39973735444E-01  0.10295808395E+00  0.51100000000E-03 0. -1.
</event>
<event>
 8    1  0.1146431E+005  0.1043930E+01  0.7957747E-01            NaN
         13   -1    0    0    0    0  0.00000000000E+00  0.00000000000E+00  0.74505805969E-08  0.10566000000E+00  0.10566000000E+00 0. -1.
     999900   -1    0    0    0    0 -0.00000000000E+00 -0.00000000000E+00 -0.74505805969E-08  0.93827000000E+00  0.93827000000E+00 0.  1.
     999902    2    1    2    0    0  0.16884178872E-01 -0.13303728483E-01  0.29939272056E-02  0.10222268139E+01  0.10219963947E+01 0.  0.
     999903    2    3    3    0    0 -0.29606568740E-01  0.58881565609E-01  0.11162855739E+00  0.13139933946E+00  0.21477055349E-01 0.  0.
         14    1    1    2    0    0 -0.16884178872E-01  0.13303728483E-01 -0.29939272056E-02  0.21703186122E-01  0.00000000000E+00 0.  1.
     999901    1    3    3    0    0  0.46490747612E-01 -0.72185294091E-01 -0.10863463018E+00  0.89082747441E+00  0.88000000000E+00 0.  1.
        -11    1    4    4    0    0  0.23841166067E-02  0.31621582207E-02  0.13732691893E-01  0.14301440635E-01  0.51100000000E-03 0.  1.
         11    1    4    4    0    0 -0.31990685347E-01  0.55719407388E-01  0.97895865493E-01  0.11709789883E+00  0.51100000000E-03 0. -1.
</event>
<event>
 8    1  0.1146431E+005  0.1043930E+01  0.7957747E-01            NaN
         13   -1    0    0    0    0  0.00000000000E+00  0.00000000000E+00  0.74505805969E-08  0.10566000000E+00  0.10566000000E+00 0.  1.
     999900   -1    0    0    0    0 -0.00000000000E+00 -0.00000000000E+00 -0.74505805969E-08  0.93827000000E+00  0.93827000000E+00 0.  1.
     999902    2    1    2    0    0 -0.34016703482E-02  0.20629727186E-01 -0.12328375360E-02  0.10229853851E+01  0.10227709525E+01 0.  0.
     999903    2    3    3    0    0  0.70087990746E-01  0.21210291666E-01  0.10929110601E+00  0.13303223496E+00  0.19769339039E-01 0.  0.
         14    1    1    2    0    0  0.34016703482E-02 -0.20629727186E-01  0.12328375360E-02  0.20944614900E-01  0.00000000000E+00 0. -1.
     999901    1    3    3    0    0 -0.73489661094E-01 -0.58056448051E-03 -0.11052394355E+00  0.88995315014E+00  0.88000000000E+00 0.  1.
        -11    1    4    4    0    0  0.32454592910E-01  0.18532382331E-01  0.45122684551E-01  0.58592384982E-01  0.51100000000E-03 0. -1.
         11    1    4    4    0    0  0.37633397836E-01  0.26779093355E-02  0.64168421462E-01  0.74439849980E-01  0.51100000000E-03 0.  1.
</event>
<event>
 8    1  0.1146431E+005  0.1043930E+01  0.7957747E-01            NaN
         13   -1    0    0    0    0  0.00000000000E+00  0.00000000000E+00  0.74505805969E-08  0.10566000000E+00  0.10566000000E+00 0.  1.
     999900   -1    0    0    0    0 -0.00000000000E+00 -0.00000000000E+00 -0.74505805969E-08  0.93827000000E+00  0.93827000000E+00 0. -1.
     999902    2    1    2    0    0  0.90261232180E-02 -0.83529059240E-02  0.20459842018E-01  0.10200585301E+01  0.10197791711E+01 0.  0.
     999903    2    3    3    0    0 -0.29319031374E-01  0.89297554906E-01 -0.84011061918E-01  0.12769081829E+00  0.20332920086E-01 0.  0.
         14    1    1    2    0    0 -0.90261232180E-02  0.83529059240E-02 -0.20459842018E-01  0.23871469857E-01  0.00000000000E+00 0.  1.
     999901    1    3    3    0    0  0.38345154592E-01 -0.97650460830E-01  0.10447090394E+00  0.89236771185E+00  0.88000000000E+00 0. -1.
        -11    1    4    4    0    0 -0.11090018424E-01  0.19304399137E-01 -0.10705107514E-01  0.24708475926E-01  0.51100000000E-03 0.  1.
         11    1    4    4    0    0 -0.18229012950E-01  0.69993155768E-01 -0.73305954405E-01  0.10298234237E+00  0.51100000000E-03 0. -1.
</event>
<event>
 8    1  0.1146431E+005  0.1043930E+01  0.7957747E-01            NaN
         13   -1    0    0    0    0  0.00000000000E+00  0.00000000000E+00  0.74505805969E-08  0.10566000000E+00  0.10566000000E+00 0.  1.
     999900   -1    0    0    0    0 -0.00000000000E+00 -0.00000000000E+00 -0.74505805969E-08  0.93827000000E+00  0.93827000000E+00 0. -1.
     999902    2    1    2    0    0 -0.61158347028E-02  0.80669769750E-02  0.21464550559E-01  0.10201980283E+01  0.10199219629E+01 0.  0.
     999903    2    3    3    0    0  0.43098939795E-01  0.11172530484E+00 -0.46555845739E-01  0.13014526732E+00  0.20743227322E-01 0.  0.
         14    1    1    2    0    0  0.61158347028E-02 -0.80669769750E-02 -0.21464550559E-01  0.23731971733E-01  0.00000000000E+00 0. -1.
     999901    1    3    3    0    0 -0.49214774498E-01 -0.10365832786E+00  0.68020396298E-01  0.89005276095E+00  0.88000000000E+00 0.  1.
        -11    1    4    4    0    0  0.16087370583E-01  0.20433020217E-01 -0.13916612927E-01  0.29499915997E-01  0.51100000000E-03 0.  1.
         11    1    4    4    0    0  0.27011569212E-01  0.91292284621E-01 -0.32639232813E-01  0.10064535132E+00  0.51100000000E-03 0. -1.
</event>
<event>
 8    1  0.1146431E+005  0.1043930E+01  0.7957747E-01            NaN
         13   -1    0    0    0    0  0.00000000000E+00  0.00000000000E+00  0.74505805969E-08  0.10566000000E+00  0.10566000000E+00 0. -1.
     999900   -1    0    0    0    0 -0.00000000000E+00 -0.00000000000E+00 -0.74505805969E-08  0.93827000000E+00  0.93827000000E+00 0.  1.
     999902    2    1    2    0    0 -0.16373992432E-01  0.65210005629E-02  0.14848900255E-01  0.10208839393E+01  0.10206237782E+01 0.  0.
     999903    2    3    3    0    0  0.23945707700E-01 -0.12080559315E+00 -0.34396668004E-01  0.12944528985E+00  0.20138620615E-01 0.  0.
         14    1    1    2    0    0  0.16373992432E-01 -0.65210005629E-02 -0.14848900255E-01  0.23046060732E-01  0.00000000000E+00 0.  1.
     999901    1    3    3    0    0 -0.40319700132E-01  0.12732659371E+00  0.49245568259E-01  0.89143864942E+00  0.88000000000E+00 0. -1.
        -11    1    4    4    0    0  0.20232227129E-01 -0.92277268910E-01 -0.34779185302E-01  0.10066921189E+00  0.51100000000E-03 0. -1.
         11    1    4    4    0    0  0.37134805711E-02 -0.28528324241E-01  0.38251729744E-03  0.28776077954E-01  0.51100000000E-03 0.  1.
</event>
<event>
 8    1  0.1146431E+005  0.1043930E+01  0.7957747E-01            NaN
         13   -1    0    0    0    0  0.00000000000E+00  0.00000000000E+00  0.74505805969E-08  0.10566000000E+00  0.10566000000E+00 0.  1.
     999900   -1    0    0    0    0 -0.00000000000E+00 -0.00000000000E+00 -0.74505805969E-08  0.93827000000E+00  0.93827000000E+00 0.  1.
     999902    2    1    2    0    0 -0.98718821185E-02 -0.17664453226E-01 -0.10605887467E-01  0.10210832975E+01  0.10208276685E+01 0.  0.
     999903    2    3    3    0    0 -0.65904006963E-01 -0.59611964146E-02 -0.11368691350E+00  0.13321942106E+00  0.21067174687E-01 0.  0.
         14    1    1    2    0    0  0.98718821185E-02  0.17664453226E-01  0.10605887467E-01  0.22846702460E-01  0.00000000000E+00 0.  1.
     999901    1    3    3    0    0  0.56032124845E-01 -0.11703256812E-01  0.10308102603E+00  0.88786387648E+00  0.88000000000E+00 0. -1.
        -11    1    4    4    0    0 -0.15966393096E-01 -0.46474876932E-02 -0.14115205602E-01  0.21817997170E-01  0.51100000000E-03 0.  1.
         11    1    4    4    0    0 -0.49937613868E-01 -0.13137087215E-02 -0.99571707897E-01  0.11140142389E+00  0.51100000000E-03 0. -1.
</event>
<event>
 8    1  0.1146431E+005  0.1043930E+01  0.7957747E-01            NaN
         13   -1    0    0    0    0  0.00000000000E+00  0.00000000000E+00  0.74505805969E-08  0.10566000000E+00  0.10566000000E+00 0. -1.
     999900   -1    0    0    0    0 -0.00000000000E+00 -0.00000000000E+00 -0.74505805969E-08  0.93827000000E+00  0.93827000000E+00 0.  1.
     999902    2    1    2    0    0  0.26636048605E-02  0.16553813869E-03  0.22818186282E-01  0.10209562798E+01  0.10206977679E+01 0.  0.
     999903    2    3    3    0    0 -0.76643717272E-01 -0.35525961278E-01 -0.95202045010E-01  0.12882831284E+00  0.19923641553E-01 0.  0.
         14    1    1    2    0    0 -0.26636048605E-02 -0.16553813869E-03 -0.22818186282E-01  0.22973720181E-01  0.00000000000E+00 0.  1.
     999901    1    3    3    0    0  0.79307322132E-01  0.35691499417E-01  0.11802023129E+00  0.89212796698E+00  0.88000000000E+00 0. -1.
        -11    1    4    4    0    0 -0.36245282131E-01 -0.61003622943E-02 -0.38100179568E-01  0.52941663187E-01  0.51100000000E-03 0. -1.
         11    1    4    4    0    0 -0.40398435140E-01 -0.29425598984E-01 -0.57101865443E-01  0.75886649652E-01  0.51100000000E-03 0.  1.
</event>
<event>
 8    1  0.1146431E+005  0.1043930E+01  0.7957747E-01            NaN
         13   -1    0    0    0    0  0.00000000000E+00  0.00000000000E+00  0.74505805969E-08  0.10566000000E+00  0.10566000000E+00 0.  1.
     999900   -1    0    0    0    0 -0.00000000000E+00 -0.00000000000E+00 -0.74505805969E-08  0.93827000000E+00  0.93827000000E+00 0. -1.
     999902    2    1    2    0    0 -0.24235293265E-01 -0.51497453847E-02 -0.35514470119E-02  0.10189003757E+01  0.10185928988E+01 0.  0.
     999903    2    3    3    0    0 -0.34623125271E-01 -0.75373352302E-01 -0.99499034519E-01  0.13084339465E+00  0.18439984094E-01 0.  0.
         14    1    1    2    0    0  0.24235293265E-01  0.51497453847E-02  0.35514470119E-02  0.25029624309E-01  0.00000000000E+00 0.  1.
     999901    1    3    3    0    0  0.10387832006E-01  0.70223606917E-01  0.95947587507E-01  0.88805698104E+00  0.88000000000E+00 0.  1.
        -11    1    4    4    0    0 -0.11147416509E-01 -0.42568873638E-01 -0.43994079681E-01  0.62226313289E-01  0.51100000000E-03 0. -1.
         11    1    4    4    0    0 -0.23475708762E-01 -0.32804478664E-01 -0.55504954838E-01  0.68617081364E-01  0.51100000000E-03 0.  1.
</event>
<event>
 8    1  0.1222796E+005  0.1043930E+01  0.7957747E-01            NaN
         13   -1    0    0    0    0  0.00000000000E+00  0.00000000000E+00  0.74505805969E-08  0.10566000000E+00  0.10566000000E+00 0. -1.
     999900   -1    0    0    0    0 -0.00000000000E+00 -0.00000000000E+00 -0.74505805969E-08  0.93827000000E+00  0.93827000000E+00 0. -1.
     999902    2    1    2    0    0 -0.15536696202E-01 -0.43747233262E-02  0.15600984307E-01  0.10214818855E+01  0.10212351955E+01 0.  0.
     999903    2    3    3    0    0 -0.94027718935E-01 -0.73025878283E-01  0.58527519440E-01  0.13428601697E+00  0.20815210653E-01 0.  0.
         14    1    1    2    0    0  0.15536696202E-01  0.43747233262E-02 -0.15600984307E-01  0.22448114496E-01  0.00000000000E+00 0.  1.
     999901    1    3    3    0    0  0.78491022733E-01  0.68651154957E-01 -0.42926535132E-01  0.88719586853E+00  0.88000000000E+00 0.  1.
        -11    1    4    4    0    0 -0.63866874375E-01 -0.60519351065E-01  0.39055081835E-01  0.96265933922E-01  0.51100000000E-03 0.  1.
         11    1    4    4    0    0 -0.30160844561E-01 -0.12506527219E-01  0.19472437605E-01  0.38020083048E-01  0.51100000000E-03 0. -1.
</event>
<event>
 8    1  0.1146431E+005  0.1043930E+01  0.7957747E-01            NaN
         13   -1    0    0    0    0  0.00000000000E+00  0.00000000000E+00  0.74505805969E-08  0.10566000000E+00  0.10566000000E+00 0. -1.
     999900   -1    0    0    0    0 -0.00000000000E+00 -0.00000000000E+00 -0.74505805969E-08  0.93827000000E+00  0.93827000000E+00 0.  1.
     999902    2    1    2    0    0 -0.58619873984E-02  0.14871693876E-01 -0.25589457344E-01  0.10137579848E+01  0.10133088874E+01 0.  0.
     999903    2    3    3    0    0 -0.28768939378E-01 -0.82847663125E-01  0.81670255654E-01  0.12158174255E+00  0.20511028829E-01 0.  0.
         14    1    1    2    0    0  0.58619873984E-02 -0.14871693876E-01  0.25589457344E-01  0.30172015216E-01  0.00000000000E+00 0. -1.
     999901    1    3    3    0    0  0.22906951980E-01  0.97719357002E-01 -0.10725971300E+00  0.89217624224E+00  0.88000000000E+00 0.  1.
        -11    1    4    4    0    0 -0.14982249348E-01 -0.37553012439E-01  0.24218155245E-01  0.47132543993E-01  0.51100000000E-03 0.  1.
         11    1    4    4    0    0 -0.13786690031E-01 -0.45294650686E-01  0.57452100409E-01  0.74449198553E-01  0.51100000000E-03 0. -1.
</event>
<event>
 8    1  0.1146431E+005  0.1043930E+01  0.7957747E-01            NaN
         13   -1    0    0    0    0  0.00000000000E+00  0.00000000000E+00  0.74505805969E-08  0.10566000000E+00  0.10566000000E+00 0. -1.
     999900   -1    0    0    0    0 -0.00000000000E+00 -0.00000000000E+00 -0.74505805969E-08  0.93827000000E+00  0.93827000000E+00 0.  1.
     999902    2    1    2    0    0  0.18092877121E-01  0.11434102658E-01  0.34507610164E-02  0.10222505476E+01  0.10220206374E+01 0.  0.
     999903    2    3    3    0    0  0.24691271952E-01  0.10108932750E-01 -0.12809816952E+00  0.13244696474E+00  0.20523352643E-01 0.  0.
         14    1    1    2    0    0 -0.18092877121E-01 -0.11434102658E-01 -0.34507610164E-02  0.21679452431E-01  0.00000000000E+00 0. -1.
     999901    1    3    3    0    0 -0.65983948307E-02  0.13251699081E-02  0.13154893053E+00  0.88980358283E+00  0.88000000000E+00 0. -1.
        -11    1    4    4    0    0  0.11042611889E-01  0.10273092037E-01 -0.31964870884E-01  0.35348122850E-01  0.51100000000E-03 0. -1.
         11    1    4    4    0    0  0.13648660063E-01 -0.16415928751E-03 -0.96133298632E-01  0.97098841891E-01  0.51100000000E-03 0.  1.
</event>
<event>
 8    1  0.1146431E+005  0.1043930E+01  0.7957747E-01            NaN
         13   -1    0    0    0    0  0.00000000000E+00  0.00000000000E+00  0.74505805969E-08  0.10566000000E+00  0.10566000000E+00 0.  1.
     999900   -1    0    0    0    0 -0.00000000000E+00 -0.00000000000E+00 -0.74505805969E-08  0.93827000000E+00  0.93827000000E+00 0.  1.
     999902    2    1    2    0    0  0.12904332371E-02 -0.23020088219E-01  0.22899274444E-02  0.10207603335E+01  0.10204973420E+01 0.  0.
     999903    2    3    3    0    0 -0.37535981896E-01  0.11456347683E+00 -0.38879096995E-01  0.12827413388E+00  0.20221994954E-01 0.  0.
         14    1    1    2    0    0 -0.12904332371E-02  0.23020088219E-01 -0.22899274444E-02  0.23169666533E-01  0.00000000000E+00 0. -1.
     999901    1    3    3    0    0  0.38826415133E-01 -0.13758356504E+00  0.41169024439E-01  0.89248619959E+00  0.88000000000E+00 0. -1.
        -11    1    4    4    0    0 -0.38228456423E-01  0.95910630851E-01 -0.36191114148E-01  0.10940896606E+00  0.51100000000E-03 0.  1.
         11    1    4    4    0    0  0.69247452742E-03  0.18652845974E-01 -0.26879828471E-02  0.18865167815E-01  0.51100000000E-03 0. -1.
</event>
<event>
 8    1  0.1146431E+005  0.1043930E+01  0.7957747E-01            NaN
         13   -1    0    0    0    0  0.00000000000E+00  0.00000000000E+00  0.74505805969E-08  0.10566000000E+00  0.10566000000E+00 0.  1.
     999900   -1    0    0    0    0 -0.00000000000E+00 -0.00000000000E+00 -0.74505805969E-08  0.93827000000E+00  0.93827000000E+00 0.  1.
     999902    2    1    2    0    0  0.21323242951E-01 -0.76003250325E-02  0.80600472408E-03  0.10212783936E+01  0.10210271602E+01 0.  0.
     999903    2    3    3    0    0 -0.80937623020E-01 -0.53181582813E-01 -0.84469534619E-01  0.13009555409E+00  0.20262560139E-01 0.  0.
         14    1    1    2    0    0 -0.21323242951E-01  0.76003250325E-02 -0.80600472408E-03  0.22651606437E-01  0.00000000000E+00 0. -1.
     999901    1    3    3    0    0  0.10226086597E+00  0.45581257781E-01  0.85275539343E-01  0.89118283948E+00  0.88000000000E+00 0. -1.
        -11    1    4    4    0    0 -0.26885317404E-01 -0.28585903469E-01 -0.38701190770E-01  0.55118213478E-01  0.51100000000E-03 0. -1.
         11    1    4    4    0    0 -0.54052305616E-01 -0.24595679345E-01 -0.45768343849E-01  0.74977340607E-01  0.51100000000E-03 0.  1.
</event>
<event>
 8    1  0.1146431E+005  0.1043930E+01  0.7957747E-01            NaN
         13   -1    0    0    0    0  0.00000000000E+00  0.00000000000E+00  0.74505805969E-08  0.10566000000E+00  0.10566000000E+00 0. -1.
     999900   -1    0    0    0    0 -0.00000000000E+00 -0.00000000000E+00 -0.74505805969E-08  0.93827000000E+00  0.93827000000E+00 0.  1.
     999902    2    1    2    0    0  0.67251221557E-02  0.18523270673E-01  0.13984297468E-01  0.10197659896E+01  0.10194796585E+01 0.  0.
     999903    2    3    3    0    0 -0.57285626104E-01  0.10785965440E+00  0.47041348931E-01  0.13231394354E+00  0.19461324195E-01 0.  0.
         14    1    1    2    0    0 -0.67251221557E-02 -0.18523270673E-01 -0.13984297468E-01  0.24164010431E-01  0.00000000000E+00 0.  1.
     999901    1    3    3    0    0  0.64010748260E-01 -0.89336383731E-01 -0.33057051464E-01  0.88745204603E+00  0.88000000000E+00 0.  1.
        -11    1    4    4    0    0 -0.28985587076E-01  0.40948278297E-01  0.26870278094E-01  0.56913958916E-01  0.51100000000E-03 0.  1.
         11    1    4    4    0    0 -0.28300039028E-01  0.66911376107E-01  0.20171070837E-01  0.75399984623E-01  0.51100000000E-03 0. -1.
</event>
<event>
 8    1  0.1146431E+005  0.1043930E+01  0.7957747E-01            NaN
         13   -1    0    0    0    0  0.00000000000E+00  0.00000000000E+00  0.74505805969E-08  0.10566000000E+00  0.10566000000E+00 0.  1.
     999900   -1    0    0    0    0 -0.00000000000E+00 -0.00000000000E+00 -0.74505805969E-08  0.93827000000E+00  0.93827000000E+00 0.  1.
     999902    2    1    2    0    0  0.14242388715E-01  0.17627115522E-01  0.69461057995E-02  0.10202274849E+01  0.10199521124E+01 0.  0.
     999903    2    3    3    0    0  0.35640238350E-01  0.76686514701E-02 -0.12355242706E+00  0.13029102306E+00  0.19532374491E-01 0.  0.
         14    1    1    2    0    0 -0.14242388715E-01 -0.17627115522E-01 -0.69461057995E-02  0.23702515135E-01  0.00000000000E+00 0. -1.
     999901    1    3    3    0    0 -0.21397849635E-01  0.99584640519E-02  0.13049853286E+00  0.88993646181E+00  0.88000000000E+00 0. -1.
        -11    1    4    4    0    0  0.21715987334E-01  0.10817567163E-01 -0.98567554771E-01  0.10151072771E+00  0.51100000000E-03 0.  1.
         11    1    4    4    0    0  0.13924251016E-01 -0.31489156926E-02 -0.24984872285E-01  0.28780295351E-01  0.51100000000E-03 0. -1.
</event>
<event>
 8    1  0.1146431E+005  0.1043930E+01  0.7957747E-01            NaN
         13   -1    0    0    0    0  0.00000000000E+00  0.00000000000E+00  0.74505805969E-08  0.10566000000E+00  0.10566000000E+00 0.  1.
     999900   -1    0    0    0    0 -0.00000000000E+00 -0.00000000000E+00 -0.74505805969E-08  0.93827000000E+00  0.93827000000E+00 0. -1.
     999902    2    1    2    0    0 -0.65991184589E-02  0.21325056938E-01  0.86524861267E-02  0.10199889905E+01  0.10197079822E+01 0.  0.
     999903    2    3    3    0    0 -0.11058184814E-01 -0.34281222897E-01 -0.12161184904E+00  0.12865250040E+00  0.21553151503E-01 0.  0.
         14    1    1    2    0    0  0.65991184589E-02 -0.21325056938E-01 -0.86524861267E-02  0.23941009461E-01  0.00000000000E+00 0.  1.
     999901    1    3    3    0    0  0.44590663547E-02  0.55606279835E-01  0.13026433516E+00  0.89133649013E+00  0.88000000000E+00 0.  1.
        -11    1    4    4    0    0 -0.17283277184E-01 -0.20415717807E-01 -0.79185003131E-01  0.83582528352E-01  0.51100000000E-03 0. -1.
         11    1    4    4    0    0  0.62250923700E-02 -0.13865505090E-01 -0.42426845905E-01  0.45069972053E-01  0.51100000000E-03 0.  1.
</event>
<event>
 8    1  0.1146431E+005  0.1043930E+01  0.7957747E-01            NaN
         13   -1    0    0    0    0  0.00000000000E+00  0.00000000000E+00  0.74505805969E-08  0.10566000000E+00  0.10566000000E+00 0.  1.
     999900   -1    0    0    0    0 -0.00000000000E+00 -0.00000000000E+00 -0.74505805969E-08  0.93827000000E+00  0.93827000000E+00 0. -1.
     999902    2    1    2    0    0 -0.30906567031E-02  0.73632658489E-02 -0.19411520594E-01  0.10229400745E+01  0.10227247034E+01 0.  0.
     999903    2    3    3    0    0 -0.40763986499E-01  0.12596323562E+00 -0.11261901487E-02  0.13399711457E+00  0.20628113993E-01 0.  0.
         14    1    1    2    0    0  0.30906567031E-02 -0.73632658489E-02  0.19411520594E-01  0.20989925550E-01  0.00000000000E+00 0.  1.
     999901    1    3    3    0    0  0.37673329796E-01 -0.11859996977E+00 -0.18285330445E-01  0.88894295988E+00  0.88000000000E+00 0. -1.
        -11    1    4    4    0    0 -0.17796493299E-01  0.40557637785E-01 -0.90259079377E-02  0.45203598214E-01  0.51100000000E-03 0. -1.
         11    1    4    4    0    0 -0.22967493200E-01  0.85405597833E-01  0.78997177889E-02  0.88793516358E-01  0.51100000000E-03 0.  1.
</event>
<event>
 8    1  0.1146431E+005  0.1043930E+01  0.7957747E-01            NaN
         13   -1    0    0    0    0  0.00000000000E+00  0.00000000000E+00  0.74505805969E-08  0.10566000000E+00  0.10566000000E+00 0. -1.
     999900   -1    0    0    0    0 -0.00000000000E+00 -0.00000000000E+00 -0.74505805969E-08  0.93827000000E+00  0.93827000000E+00 0.  1.
     999902    2    1    2    0    0 -0.68444404989E-02 -0.90787742165E-02 -0.16743897278E-01  0.10236907163E+01  0.10234906224E+01 0.  0.
     999903    2    3    3    0    0 -0.12195225997E+00  0.23969744821E-01  0.44282749620E-01  0.13348497251E+00  0.20257679886E-01 0.  0.
         14    1    1    2    0    0  0.68444404989E-02  0.90787742165E-02  0.16743897278E-01  0.20239283660E-01  0.00000000000E+00 0.  1.
     999901    1    3    3    0    0  0.11510781947E+00 -0.33048519037E-01 -0.61026646898E-01  0.89020574383E+00  0.88000000000E+00 0. -1.
        -11    1    4    4    0    0 -0.24012483720E-01  0.12341269878E-01  0.58307046928E-02  0.27625433115E-01  0.51100000000E-03 0.  1.
         11    1    4    4    0    0 -0.97939776249E-01  0.11628474943E-01  0.38452044927E-01  0.10585953940E+00  0.51100000000E-03 0. -1.
</event>
<event>
 8    1  0.1146431E+005  0.1043930E+01  0.7957747E-01            NaN
         13   -1    0    0    0    0  0.00000000000E+00  0.00000000000E+00  0.74505805969E-08  0.10566000000E+00  0.10566000000E+00 0.  1.
     999900   -1    0    0    0    0 -0.00000000000E+00 -0.00000000000E+00 -0.74505805969E-08  0.93827000000E+00  0.93827000000E+00 0.  1.
     999902    2    1    2    0    0 -0.51582937798E-02 -0.84346965301E-02  0.20953862135E-01  0.10207607005E+01  0.10204977174E+01 0.  0.
     999903    2    3    3    0    0 -0.54061294283E-01 -0.79824485467E-01 -0.84997051974E-01  0.13019144345E+00  0.20754302794E-01 0.  0.
         14    1    1    2    0    0  0.51582937798E-02  0.84346965301E-02 -0.20953862135E-01  0.23169299485E-01  0.00000000000E+00 0. -1.
     999901    1    3    3    0    0  0.48903000503E-01  0.71389788937E-01  0.10595091411E+00  0.89056925706E+00  0.88000000000E+00 0. -1.
        -11    1    4    4    0    0 -0.34020867675E-01 -0.43285606532E-01 -0.35613196202E-01  0.65571518474E-01  0.51100000000E-03 0. -1.
         11    1    4    4    0    0 -0.20040426608E-01 -0.36538878935E-01 -0.49383855772E-01  0.64619924980E-01  0.51100000000E-03 0.  1.
</event>
<event>
 8    1  0.1146431E+005  0.1043930E+01  0.7957747E-01            NaN
         13   -1    0    0    0    0  0.00000000000E+00  0.00000000000E+00  0.74505805969E-08  0.10566000000E+00  0.10566000000E+00 0.  1.
     999900   -1    0    0    0    0 -0.00000000000E+00 -0.00000000000E+00 -0.74505805969E-08  0.93827000000E+00  0.93827000000E+00 0.  1.
     999902    2    1    2    0    0  0.10518381212E-01  0.20398624057E-01 -0.49902946786E-02  0.10204429132E+01  0.10201725814E+01 0.  0.
     999903    2    3    3    0    0  0.97664638884E-02  0.98514503852E-01  0.85468930435E-01  0.13236322786E+00  0.20361599481E-01 0.  0.
         14    1    1    2    0    0 -0.10518381212E-01 -0.20398624057E-01  0.49902946786E-02  0.23487086829E-01  0.00000000000E+00 0.  1.
     999901    1    3    3    0    0  0.75191732350E-03 -0.78115879796E-01 -0.90459225113E-01  0.88807968531E+00  0.88000000000E+00 0.  1.
        -11    1    4    4    0    0  0.65869475086E-02  0.67757233056E-01  0.45742432385E-01  0.82018667085E-01  0.51100000000E-03 0. -1.
         11    1    4    4    0    0  0.31795163798E-02  0.30757270797E-01  0.39726498050E-01  0.50344560774E-01  0.51100000000E-03 0.  1.
</event>
<event>
 8    1  0.1146431E+005  0.1043930E+01  0.7957747E-01            NaN
         13   -1    0    0    0    0  0.00000000000E+00  0.00000000000E+00  0.74505805969E-08  0.10566000000E+00  0.10566000000E+00 0.  1.
     999900   -1    0    0    0    0 -0.00000000000E+00 -0.00000000000E+00 -0.74505805969E-08  0.93827000000E+00  0.93827000000E+00 0. -1.
     999902    2    1    2    0    0 -0.23469609996E-02 -0.10541091408E-02 -0.36157790500E-01  0.10076807905E+01  0.10070285847E+01 0.  0.
     999903    2    3    3    0    0 -0.10907672224E+00 -0.44541031945E-01 -0.13973254530E-01  0.11988886221E+00  0.17217798297E-01 0.  0.
         14    1    1    2    0    0  0.23469609996E-02  0.10541091408E-02  0.36157790500E-01  0.36249209452E-01  0.00000000000E+00 0.  1.
     999901    1    3    3    0    0  0.10672976124E+00  0.43486922804E-01 -0.22184535970E-01  0.88779192834E+00  0.88000000000E+00 0. -1.
        -11    1    4    4    0    0 -0.87555185727E-01 -0.28069647639E-01 -0.98793487558E-02  0.92475284910E-01  0.51100000000E-03 0. -1.
         11    1    4    4    0    0 -0.21521536512E-01 -0.16471384306E-01 -0.40939057746E-02  0.27413577298E-01  0.51100000000E-03 0.  1.
</event>
<event>
 8    1  0.1146431E+005  0.1043930E+01  0.7957747E-01            NaN
         13   -1    0    0    0    0  0.00000000000E+00  0.00000000000E+00  0.74505805969E-08  0.10566000000E+00  0.10566000000E+00 0. -1.
     999900   -1    0    0    0    0 -0.00000000000E+00 -0.00000000000E+00 -0.74505805969E-08  0.93827000000E+00  0.93827000000E+00 0. -1.
     999902    2    1    2    0    0 -0.92921981717E-02 -0.14676909357E-01 -0.15383678548E-01  0.10207262464E+01  0.10204624716E+01 0.  0.
     999903    2    3    3    0    0  0.11044660756E+00 -0.62434817216E-01  0.22914237503E-01  0.13051002001E+00  0.20279140073E-01 0.  0.
         14    1    1    2    0    0  0.92921981717E-02  0.14676909357E-01  0.15383678548E-01  0.23203753593E-01  0.00000000000E+00 0. -1.
     999901    1    3    3    0    0 -0.11973880573E+00  0.47757907858E-01 -0.38297916051E-01  0.89021622639E+00  0.88000000000E+00 0.  1.
        -11    1    4    4    0    0  0.59414466915E-01 -0.38849502915E-01  0.21857502604E-01  0.74279029992E-01  0.51100000000E-03 0.  1.
         11    1    4    4    0    0  0.51032140641E-01 -0.23585314301E-01  0.10567348991E-02  0.56230990021E-01  0.51100000000E-03 0. -1.
</event>
<event>
 8    1  0.1146431E+005  0.1043930E+01  0.7957747E-01            NaN
         13   -1    0    0    0    0  0.00000000000E+00  0.00000000000E+00  0.74505805969E-08  0.10566000000E+00  0.10566000000E+00 0. -1.
     999900   -1    0    0    0    0 -0.00000000000E+00 -0.00000000000E+00 -0.74505805969E-08  0.93827000000E+00  0.93827000000E+00 0.  1.
     999902    2    1    2    0    0  0.14968561358E-01  0.16605230526E-01  0.74504933299E-02  0.10203651669E+01  0.10200930214E+01 0.  0.
     999903    2    3    3    0    0 -0.74688312635E-01 -0.20071733384E-01 -0.10067280461E+00  0.12847156206E+00  0.19715733403E-01 0.  0.
         14    1    1    2    0    0 -0.14968561358E-01 -0.16605230526E-01 -0.74504933299E-02  0.23564833138E-01  0.00000000000E+00 0.  1.
     999901    1    3    3    0    0  0.89656873993E-01  0.36676963910E-01  0.10812329794E+00  0.89189360481E+00  0.88000000000E+00 0. -1.
        -11    1    4    4    0    0 -0.33239626194E-01 -0.71106499497E-02 -0.29085521490E-01  0.44739946061E-01  0.51100000000E-03 0. -1.
         11    1    4    4    0    0 -0.41448686441E-01 -0.12961083434E-01 -0.71587283121E-01  0.83731615995E-01  0.51100000000E-03 0.  1.
</event>
<event>
 8    1  0.1146431E+005  0.1043930E+01  0.7957747E-01            NaN
         13   -1    0    0    0    0  0.00000000000E+00  0.00000000000E+00  0.74505805969E-08  0.10566000000E+00  0.10566000000E+00 0. -1.
     999900   -1    0    0    0    0 -0.00000000000E+00 -0.00000000000E+00 -0.74505805969E-08  0.93827000000E+00  0.93827000000E+00 0. -1.
     999902    2    1    2    0    0  0.23201648025E-01  0.24225534720E-02  0.24241551854E-02  0.10204766044E+01  0.10202070566E+01 0.  0.
     999903    2    3    3    0    0 -0.76301917987E-01  0.86427052821E-01  0.54709708747E-01  0.12935848953E+00  0.21186043370E-01 0.  0.
         14    1    1    2    0    0 -0.23201648025E-01 -0.24225534720E-02 -0.24241551854E-02  0.23453395591E-01  0.00000000000E+00 0. -1.
     999901    1    3    3    0    0  0.99503566012E-01 -0.84004499349E-01 -0.52285553562E-01  0.89111811488E+00  0.88000000000E+00 0. -1.
        -11    1    4    4    0    0 -0.22169112839E-01  0.40334233138E-01  0.24011021092E-01  0.51914450606E-01  0.51100000000E-03 0. -1.
         11    1    4    4    0    0 -0.54132805149E-01  0.46092819682E-01  0.30698687656E-01  0.77444038921E-01  0.51100000000E-03 0.  1.
</event>
<event>
 8    1  0.1146431E+005  0.1043930E+01  0.7957747E-01            NaN
         13   -1    0    0    0    0  0.00000000000E+00  0.00000000000E+00  0.74505805969E-08  0.10566000000E+00  0.10566000000E+00 0. -1.
     999900   -1    0    0    0    0 -0.00000000000E+00 -0.00000000000E+00 -0.74505805969E-08  0.93827000000E+00  0.93827000000E+00 0. -1.
     999902    2    1    2    0    0 -0.81847439404E-02 -0.64609209188E-02 -0.21061331741E-01  0.10204286548E+01  0.10201579908E+01 0.  0.
     999903    2    3    3    0    0 -0.59971502551E-01  0.11377832512E+00  0.79315441289E-02  0.13027140378E+00  0.19121738032E-01 0.  0.
         14    1    1    2    0    0  0.81847439404E-02  0.64609209188E-02  0.21061331741E-01  0.23501345221E-01  0.00000000000E+00 0. -1.
     999901    1    3    3    0    0  0.51786758611E-01 -0.12023924604E+00 -0.28992875870E-01  0.89015725100E+00  0.88000000000E+00 0. -1.
        -11    1    4    4    0    0 -0.10132642248E-01  0.36829117815E-01  0.51686606368E-02  0.38549066549E-01  0.51100000000E-03 0.  1.
         11    1    4    4    0    0 -0.49838860303E-01  0.76949207303E-01  0.27628834921E-02  0.91722337231E-01  0.51100000000E-03 0. -1.
</event>
<event>
 8    1  0.1146431E+005  0.1043930E+01  0.7957747E-01            NaN
         13   -1    0    0    0    0  0.00000000000E+00  0.00000000000E+00  0.74505805969E-08  0.10566000000E+00  0.10566000000E+00 0.  1.
     999900   -1    0    0    0    0 -0.00000000000E+00 -0.00000000000E+00 -0.74505805969E-08  0.93827000000E+00  0.93827000000E+00 0.  1.
     999902    2    1    2    0    0  0.14089773032E-01  0.12323143903E-01  0.15519981036E-01  0.10196143386E+01  0.10193243586E+01 0.  0.
     999903    2    3    3    0    0 -0.83766069891E-01 -0.24341435246E-01 -0.90272955801E-01  0.12713901518E+00  0.20146034295E-01 0.  0.
         14    1    1    2    0    0 -0.14089773032E-01 -0.12323143903E-01 -0.15519981036E-01  0.24315661437E-01  0.00000000000E+00 0. -1.
     999901    1    3    3    0    0  0.97855842923E-01  0.36664579150E-01  0.10579293684E+00  0.89247532338E+00  0.88000000000E+00 0. -1.
        -11    1    4    4    0    0 -0.40524676164E-01 -0.16421269135E-02 -0.44327434138E-01  0.60084344860E-01  0.51100000000E-03 0.  1.
         11    1    4    4    0    0 -0.43241393726E-01 -0.22699308333E-01 -0.45945521663E-01  0.67054670322E-01  0.51100000000E-03 0. -1.
</event>
<event>
 8    1  0.1146431E+005  0.1043930E+01  0.7957747E-01            NaN
         13   -1    0    0    0    0  0.00000000000E+00  0.00000000000E+00  0.74505805969E-08  0.10566000000E+00  0.10566000000E+00 0. -1.
     999900   -1    0    0    0    0 -0.00000000000E+00 -0.00000000000E+00 -0.74505805969E-08  0.93827000000E+00  0.93827000000E+00 0. -1.
     999902    2    1    2    0    0  0.25203343095E-02 -0.21875023016E-01 -0.80518199928E-02  0.10204843070E+01  0.10202149382E+01 0.  0.
     999903    2    3    3    0    0 -0.79022204899E-02 -0.11709095854E+00  0.58792145711E-01  0.13276654788E+00  0.19942471771E-01 0.  0.
         14    1    1    2    0    0 -0.25203343095E-02  0.21875023016E-01  0.80518199928E-02  0.23445693042E-01  0.00000000000E+00 0. -1.
     999901    1    3    3    0    0  0.10422554799E-01  0.95215935519E-01 -0.66843965704E-01  0.88771775907E+00  0.88000000000E+00 0.  1.
        -11    1    4    4    0    0 -0.14341432813E-01 -0.83474394113E-01  0.39272952954E-01  0.93361004292E-01  0.51100000000E-03 0.  1.
         11    1    4    4    0    0  0.64392123230E-02 -0.33616564422E-01  0.19519192758E-01  0.39405543592E-01  0.51100000000E-03 0. -1.
</event>
<event>
 8    1  0.1146431E+005  0.1043930E+01  0.7957747E-01            NaN
         13   -1    0    0    0    0  0.00000000000E+00  0.00000000000E+00  0.74505805969E-08  0.10566000000E+00  0.10566000000E+00 0. -1.
     999900   -1    0    0    0    0 -0.00000000000E+00 -0.00000000000E+00 -0.74505805969E-08  0.93827000000E+00  0.93827000000E+00 0.  1.
     999902    2    1    2    0    0  0.61381654574E-03 -0.18854878901E-01 -0.13870086620E-01  0.10205149934E+01  0.10202463376E+01 0.  0.
     999903    2    3    3    0    0  0.12689937165E+00 -0.18835564958E-01 -0.18073125577E-01  0.13148984907E+00  0.22465829794E-01 0.  0.
         14    1    1    2    0    0 -0.61381654574E-03  0.18854878901E-01  0.13870086620E-01  0.23415006555E-01  0.00000000000E+00 0. -1.
     999901    1    3    3    0    0 -0.12628555510E+00 -0.19313943116E-04  0.42030389570E-02  0.88902514438E+00  0.88000000000E+00 0.  1.
        -11    1    4    4    0    0  0.12460486475E-01 -0.84785076598E-03  0.48335954531E-02  0.13401766306E-01  0.51100000000E-03 0.  1.
         11    1    4    4    0    0  0.11443888517E+00 -0.17987714192E-01 -0.22906721030E-01  0.11808808276E+00  0.51100000000E-03 0. -1.
</event>
<event>
 8    1  0.1146431E+005  0.1043930E+01  0.7957747E-01            NaN
         13   -1    0    0    0    0  0.00000000000E+00  0.00000000000E+00  0.74505805969E-08  0.10566000000E+00  0.10566000000E+00 0. -1.
     999900   -1    0    0    0    0 -0.00000000000E+00 -0.00000000000E+00 -0.74505805969E-08  0.93827000000E+00  0.93827000000E+00 0.  1.
     999902    2    1    2    0    0 -0.14578354297E-01 -0.19217885623E-01 -0.13728189205E-02  0.10197692845E+01  0.10194830324E+01 0.  0.
     999903    2    3    3    0    0 -0.12474998556E+00  0.25292750920E-01  0.25395813839E-01  0.13137998650E+00  0.20333994835E-01 0.  0.
         14    1    1    2    0    0  0.14578354297E-01  0.19217885623E-01  0.13728189205E-02  0.24160715503E-01  0.00000000000E+00 0.  1.
     999901    1    3    3    0    0  0.11017163126E+00 -0.44510636543E-01 -0.26768632760E-01  0.88838929800E+00  0.88000000000E+00 0.  1.
        -11    1    4    4    0    0 -0.87029307768E-01  0.24965067872E-01  0.23819545057E-01  0.93621508598E-01  0.51100000000E-03 0. -1.
         11    1    4    4    0    0 -0.37720677789E-01  0.32768304873E-03  0.15762687827E-02  0.37758477900E-01  0.51100000000E-03 0.  1.
</event>
<event>
 8    1  0.1146431E+005  0.1043930E+01  0.7957747E-01            NaN
         13   -1    0    0    0    0  0.00000000000E+00  0.00000000000E+00  0.74505805969E-08  0.10566000000E+00  0.10566000000E+00 0. -1.
     999900   -1    0    0    0    0 -0.00000000000E+00 -0.00000000000E+00 -0.74505805969E-08  0.93827000000E+00  0.93827000000E+00 0. -1.
     999902    2    1    2    0    0 -0.24297046581E-01 -0.11677123695E-01  0.30867642389E-02  0.10167964451E+01  0.10164343466E+01 0.  0.
     999903    2    3    3    0    0 -0.19975322406E-01 -0.38112849759E-02  0.12512562130E+00  0.12832920798E+00  0.19960589127E-01 0.  0.
         14    1    1    2    0    0  0.24297046581E-01  0.11677123695E-01 -0.30867642389E-02  0.27133554943E-01  0.00000000000E+00 0. -1.
     999901    1    3    3    0    0 -0.43217241752E-02 -0.78658387195E-02 -0.12203885706E+00  0.88846723707E+00  0.88000000000E+00 0. -1.
        -11    1    4    4    0    0 -0.23738990645E-01 -0.54312618939E-02  0.10803492628E+00  0.11074675932E+00  0.51100000000E-03 0. -1.
         11    1    4    4    0    0  0.37636682393E-02  0.16199769180E-02  0.17090695019E-01  0.17582448666E-01  0.51100000000E-03 0.  1.
</event>
<event>
 8    1  0.1146431E+005  0.1043930E+01  0.7957747E-01            NaN
         13   -1    0    0    0    0  0.00000000000E+00  0.00000000000E+00  0.74505805969E-08  0.10566000000E+00  0.10566000000E+00 0. -1.
     999900   -1    0    0    0    0 -0.00000000000E+00 -0.00000000000E+00 -0.74505805969E-08  0.93827000000E+00  0.93827000000E+00 0.  1.
     999902    2    1    2    0    0 -0.16103531394E-01  0.11216145999E-02  0.15399006401E-01  0.10216205594E+01  0.10213769413E+01 0.  0.
     999903    2    3    3    0    0  0.68897721370E-02  0.88028680674E-01 -0.93807884878E-01  0.13032505550E+00  0.19702366434E-01 0.  0.
         14    1    1    2    0    0  0.16103531394E-01 -0.11216145999E-02 -0.15399006401E-01  0.22309440621E-01  0.00000000000E+00 0. -1.
     999901    1    3    3    0    0 -0.22993303531E-01 -0.86907066074E-01  0.10920689128E+00  0.89129550388E+00  0.88000000000E+00 0.  1.
        -11    1    4    4    0    0  0.65441900684E-02  0.14236687905E-01 -0.97091412749E-02  0.18440126123E-01  0.51100000000E-03 0. -1.
         11    1    4    4    0    0  0.34558206864E-03  0.73791992770E-01 -0.84098743603E-01  0.11188492937E+00  0.51100000000E-03 0.  1.
</event>
<event>
 8    1  0.1146431E+005  0.1043930E+01  0.7957747E-01            NaN
         13   -1    0    0    0    0  0.00000000000E+00  0.00000000000E+00  0.74505805969E-08  0.10566000000E+00  0.10566000000E+00 0.  1.
     999900   -1    0    0    0    0 -0.00000000000E+00 -0.00000000000E+00 -0.74505805969E-08  0.93827000000E+00  0.93827000000E+00 0.  1.
     999902    2    1    2    0    0 -0.84697877509E-02 -0.20346061522E-01 -0.60937610209E-02  0.10210644485E+01  0.10208083926E+01 0.  0.
     999903    2    3    3    0    0 -0.12354092002E+00  0.29746146728E-01 -0.29091118383E-01  0.13186285531E+00  0.19857675526E-01 0.  0.
         14    1    1    2    0    0  0.84697877509E-02  0.20346061522E-01  0.60937610209E-02  0.22865551543E-01  0.00000000000E+00 0. -1.
     999901    1    3    3    0    0  0.11507113227E+00 -0.50092208250E-01  0.22997357362E-01  0.88920159315E+00  0.88000000000E+00 0. -1.
        -11    1    4    4    0    0 -0.10462388790E+00  0.17534803826E-01 -0.23447825901E-01  0.10864478324E+00  0.51100000000E-03 0.  1.
         11    1    4    4    0    0 -0.18917032124E-01  0.12211342903E-01 -0.56432924816E-02  0.23218072075E-01  0.51100000000E-03 0. -1.
</event>
<event>
 8    1  0.1146431E+005  0.1043930E+01  0.7957747E-01            NaN
         13   -1    0    0    0    0  0.00000000000E+00  0.00000000000E+00  0.74505805969E-08  0.10566000000E+00  0.10566000000E+00 0. -1.
     999900   -1    0    0    0    0 -0.00000000000E+00 -0.00000000000E+00 -0.74505805969E-08  0.93827000000E+00  0.93827000000E+00 0.  1.
     999902    2    1    2    0    0  0.99303508573E-02 -0.17534843714E-01 -0.12974848357E-01  0.10199627452E+01  0.10196811131E+01 0.  0.
     999903    2    3    3    0    0  0.47126421080E-01  0.70901015585E-01  0.92399667874E-01  0.12849864749E+00  0.26950885131E-01 0.  0.
         14    1    1    2    0    0 -0.99303508573E-02  0.17534843714E-01  0.12974848357E-01  0.23967254789E-01  0.00000000000E+00 0. -1.
     999901    1    3    3    0    0 -0.37196070223E-01 -0.88435859299E-01 -0.10537451623E+00  0.89146409772E+00  0.88000000000E+00 0.  1.
        -11    1    4    4    0    0  0.16255027869E-01  0.47296079357E-01  0.45771139670E-01  0.67796780168E-01  0.51100000000E-03 0.  1.
         11    1    4    4    0    0  0.30871393211E-01  0.23604936229E-01  0.46628528204E-01  0.60701867324E-01  0.51100000000E-03 0. -1.
</event>
<event>
 7    1  0.1146431E+005  0.1043930E+01  0.7957747E-01            NaN
         13   -1    0    0    0    0  0.00000000000E+00  0.00000000000E+00  0.74505805969E-08  0.10566000000E+00  0.10566000000E+00 0. -1.
     999900   -1    0    0    0    0 -0.00000000000E+00 -0.00000000000E+00 -0.74505805969E-08  0.93827000000E+00  0.93827000000E+00 0.  1.
     999903    2    1    2    0    0 -0.69831798972E-01  0.25556728870E-01  0.33028962633E-01  0.83892740816E-01  0.20431667844E-01 0.  0.
         14    1    1    2    0    0 -0.15258510195E-01  0.68206758850E-01 -0.10600744780E-01  0.70692007159E-01  0.00000000000E+00 0.  1.
     999901    1    1    2    0    0  0.85090309167E-01 -0.93763487720E-01 -0.22428217853E-01  0.88934525203E+00  0.88000000000E+00 0.  1.
        -11    1    3    3    0    0 -0.29264300599E-01  0.21131747781E-01  0.12450230080E-01  0.38186639075E-01  0.51100000000E-03 0. -1.
         11    1    3    3    0    0 -0.40567498373E-01  0.44249810888E-02  0.20578732553E-01  0.45706101741E-01  0.51100000000E-03 0.  1.
</event>
<event>
 8    1  0.1146431E+005  0.1043930E+01  0.7957747E-01            NaN
         13   -1    0    0    0    0  0.00000000000E+00  0.00000000000E+00  0.74505805969E-08  0.10566000000E+00  0.10566000000E+00 0.  1.
     999900   -1    0    0    0    0 -0.00000000000E+00 -0.00000000000E+00 -0.74505805969E-08  0.93827000000E+00  0.93827000000E+00 0. -1.
     999902    2    1    2    0    0  0.16163673684E-01  0.17612595172E-01 -0.48749849075E-03  0.10200196359E+01  0.10197393550E+01 0.  0.
     999903    2    3    3    0    0 -0.79064443977E-01  0.58598590184E-01 -0.82925769481E-01  0.13010710387E+00  0.19136200254E-01 0.  0.
         14    1    1    2    0    0 -0.16163673684E-01 -0.17612595172E-01  0.48749849075E-03  0.23910364079E-01  0.00000000000E+00 0. -1.
     999901    1    3    3    0    0  0.95228117660E-01 -0.40985995012E-01  0.82438270990E-01  0.88991253205E+00  0.88000000000E+00 0.  1.
        -11    1    4    4    0    0 -0.41730564732E-01  0.22411325752E-01 -0.30932602308E-01  0.56575565055E-01  0.51100000000E-03 0.  1.
         11    1    4    4    0    0 -0.37333879245E-01  0.36187264432E-01 -0.51993167173E-01  0.73531538813E-01  0.51100000000E-03 0. -1.
</event>
<event>
 8    1  0.1146431E+005  0.1043930E+01  0.7957747E-01            NaN
         13   -1    0    0    0    0  0.00000000000E+00  0.00000000000E+00  0.74505805969E-08  0.10566000000E+00  0.10566000000E+00 0.  1.
     999900   -1    0    0    0    0 -0.00000000000E+00 -0.00000000000E+00 -0.74505805969E-08  0.93827000000E+00  0.93827000000E+00 0.  1.
     999902    2    1    2    0    0 -0.43615796444E-02  0.25160626061E-01 -0.20260631334E-02  0.10183138837E+01  0.10179916406E+01 0.  0.
     999903    2    3    3    0    0  0.31012147073E-01  0.12315416685E-01  0.12279329859E+00  0.12870938003E+00  0.19351681461E-01 0.  0.
         14    1    1    2    0    0  0.43615796444E-02 -0.25160626061E-01  0.20260631334E-02  0.25616116266E-01  0.00000000000E+00 0. -1.
     999901    1    3    3    0    0 -0.35373726718E-01  0.12845209375E-01 -0.12481936172E+00  0.88960450370E+00  0.88000000000E+00 0.  1.
        -11    1    4    4    0    0  0.83316772962E-02  0.13454697718E-01  0.48176290325E-01  0.50711554973E-01  0.51100000000E-03 0.  1.
         11    1    4    4    0    0  0.22680469777E-01 -0.11392810326E-02  0.74617008264E-01  0.77997825059E-01  0.51100000000E-03 0. -1.
</event>
<event>
 8    1  0.1146431E+005  0.1043930E+01  0.7957747E-01            NaN
         13   -1    0    0    0    0  0.00000000000E+00  0.00000000000E+00  0.74505805969E-08  0.10566000000E+00  0.10566000000E+00 0.  1.
     999900   -1    0    0    0    0 -0.00000000000E+00 -0.00000000000E+00 -0.74505805969E-08  0.93827000000E+00  0.93827000000E+00 0. -1.
     999902    2    1    2    0    0 -0.17811027303E-01 -0.12291968850E-01 -0.97927997233E-02  0.10201765978E+01  0.10199000277E+01 0.  0.
     999903    2    3    3    0    0 -0.10911313826E+00 -0.52745589564E-01 -0.52248161261E-01  0.13351148137E+00  0.20190867783E-01 0.  0.
         14    1    1    2    0    0  0.17811027303E-01  0.12291968850E-01  0.97927997233E-02  0.23753402245E-01  0.00000000000E+00 0.  1.
     999901    1    3    3    0    0  0.91302110960E-01  0.40453620714E-01  0.42455361538E-01  0.88666511639E+00  0.88000000000E+00 0. -1.
        -11    1    4    4    0    0 -0.73884493219E-01 -0.24945370252E-01 -0.33316588670E-01  0.84802394051E-01  0.51100000000E-03 0.  1.
         11    1    4    4    0    0 -0.35228645044E-01 -0.27800219312E-01 -0.18931572591E-01  0.48709087317E-01  0.51100000000E-03 0. -1.
</event>
<event>
 8    1  0.1146431E+005  0.1043930E+01  0.7957747E-01            NaN
         13   -1    0    0    0    0  0.00000000000E+00  0.00000000000E+00  0.74505805969E-08  0.10566000000E+00  0.10566000000E+00 0.  1.
     999900   -1    0    0    0    0 -0.00000000000E+00 -0.00000000000E+00 -0.74505805969E-08  0.93827000000E+00  0.93827000000E+00 0. -1.
     999902    2    1    2    0    0 -0.89120041208E-02 -0.21495315093E-01  0.80215264983E-02  0.10193166444E+01  0.10190194327E+01 0.  0.
     999903    2    3    3    0    0  0.33410091428E-01 -0.76538799059E-01 -0.97955708305E-01  0.13024290209E+00  0.19836098025E-01 0.  0.
         14    1    1    2    0    0  0.89120041208E-02  0.21495315093E-01 -0.80215264983E-02  0.24613355638E-01  0.00000000000E+00 0.  1.
     999901    1    3    3    0    0 -0.42322095549E-01  0.55043483966E-01  0.10597723480E+00  0.88907374227E+00  0.88000000000E+00 0.  1.
        -11    1    4    4    0    0  0.30040471699E-01 -0.46333242106E-01 -0.58674039844E-01  0.80573589572E-01  0.51100000000E-03 0. -1.
         11    1    4    4    0    0  0.33696197286E-02 -0.30205556954E-01 -0.39281668462E-01  0.49669312519E-01  0.51100000000E-03 0.  1.
</event>
<event>
 8    1  0.1146431E+005  0.1043930E+01  0.7957747E-01            NaN
         13   -1    0    0    0    0  0.00000000000E+00  0.00000000000E+00  0.74505805969E-08  0.10566000000E+00  0.10566000000E+00 0.  1.
     999900   -1    0    0    0    0 -0.00000000000E+00 -0.00000000000E+00 -0.74505805969E-08  0.93827000000E+00  0.93827000000E+00 0. -1.
     999902    2    1    2    0    0 -0.21628322308E-01 -0.82411204001E-02  0.26383850445E-02  0.10206349047E+01  0.10203690250E+01 0.  0.
     999903    2    3    3    0    0 -0.36882941042E-01  0.12282492671E+00 -0.14860040231E-01  0.13062523787E+00  0.19895175539E-01 0.  0.
         14    1    1    2    0    0  0.21628322308E-01  0.82411204001E-02 -0.26383850445E-02  0.23295095341E-01  0.00000000000E+00 0. -1.
     999901    1    3    3    0    0  0.15254618733E-01 -0.13106604711E+00  0.17498425276E-01  0.89000966679E+00  0.88000000000E+00 0.  1.
        -11    1    4    4    0    0 -0.30591399562E-01  0.67996932856E-01 -0.73012793438E-02  0.74919866565E-01  0.51100000000E-03 0. -1.
         11    1    4    4    0    0 -0.62915414791E-02  0.54827993857E-01 -0.75587608876E-02  0.55705371301E-01  0.51100000000E-03 0.  1.
</event>
<event>
 8    1  0.1146431E+005  0.1043930E+01  0.7957747E-01            NaN
         13   -1    0    0    0    0  0.00000000000E+00  0.00000000000E+00  0.74505805969E-08  0.10566000000E+00  0.10566000000E+00 0. -1.
     999900   -1    0    0    0    0 -0.00000000000E+00 -0.00000000000E+00 -0.74505805969E-08  0.93827000000E+00  0.93827000000E+00 0. -1.
     999902    2    1    2    0    0 -0.19240550605E-01  0.61439129054E-02 -0.12267620716E-01  0.10202986443E+01  0.10200249422E+01 0.  0.
     999903    2    3    3    0    0 -0.11932809305E+00  0.52890938081E-01  0.14946664074E-01  0.13297490531E+00  0.20549392999E-01 0.  0.
         14    1    1    2    0    0  0.19240550605E-01 -0.61439129054E-02  0.12267620716E-01  0.23631355682E-01  0.00000000000E+00 0. -1.
     999901    1    3    3    0    0  0.10008754244E+00 -0.46747025176E-01 -0.27214284790E-01  0.88732373901E+00  0.88000000000E+00 0. -1.
        -11    1    4    4    0    0 -0.41133575728E-01  0.29062329605E-01  0.67888967881E-02  0.50822635654E-01  0.51100000000E-03 0.  1.
         11    1    4    4    0    0 -0.78194517322E-01  0.23828608476E-01  0.81577672855E-02  0.82152269653E-01  0.51100000000E-03 0. -1.
</event>
<event>
 8    1  0.1146431E+005  0.1043930E+01  0.7957747E-01            NaN
         13   -1    0    0    0    0  0.00000000000E+00  0.00000000000E+00  0.74505805969E-08  0.10566000000E+00  0.10566000000E+00 0.  1.
     999900   -1    0    0    0    0 -0.00000000000E+00 -0.00000000000E+00 -0.74505805969E-08  0.93827000000E+00  0.93827000000E+00 0. -1.
     999902    2    1    2    0    0 -0.15767199459E-01 -0.32324946259E-02 -0.16334344150E-01  0.10209982665E+01  0.10207407094E+01 0.  0.
     999903    2    3    3    0    0 -0.91466669661E-01 -0.67643301591E-01  0.63471199131E-01  0.13181432237E+00  0.20116027292E-01 0.  0.
         14    1    1    2    0    0  0.15767199459E-01  0.32324946259E-02  0.16334344150E-01  0.22931733452E-01  0.00000000000E+00 0.  1.
     999901    1    3    3    0    0  0.75699470202E-01  0.64410806965E-01 -0.79805543282E-01  0.88918394418E+00  0.88000000000E+00 0. -1.
        -11    1    4    4    0    0 -0.44694570410E-01 -0.21819125831E-01  0.22664904925E-01  0.54659289351E-01  0.51100000000E-03 0.  1.
         11    1    4    4    0    0 -0.46772099252E-01 -0.45824175760E-01  0.40806294206E-01  0.77155033020E-01  0.51100000000E-03 0. -1.
</event>
<event>
 8    1  0.1146431E+005  0.1043930E+01  0.7957747E-01            NaN
         13   -1    0    0    0    0  0.00000000000E+00  0.00000000000E+00  0.74505805969E-08  0.10566000000E+00  0.10566000000E+00 0.  1.
     999900   -1    0    0    0    0 -0.00000000000E+00 -0.00000000000E+00 -0.74505805969E-08  0.93827000000E+00  0.93827000000E+00 0. -1.
     999902    2    1    2    0    0 -0.90779392973E-02  0.18615894838E-01 -0.10320603037E-01  0.10207896593E+01  0.10205273407E+01 0.  0.
     999903    2    3    3    0    0  0.61502288937E-01  0.11159030104E+00  0.28876974567E-01  0.13221650025E+00  0.20307546531E-01 0.  0.
         14    1    1    2    0    0  0.90779392973E-02 -0.18615894838E-01  0.10320603037E-01  0.23140340739E-01  0.00000000000E+00 0.  1.
     999901    1    3    3    0    0 -0.70580228234E-01 -0.92974406207E-01 -0.39197577603E-01  0.88857315901E+00  0.88000000000E+00 0.  1.
        -11    1    4    4    0    0  0.31750995177E-01  0.55396270258E-01  0.41339920106E-02  0.63986119308E-01  0.51100000000E-03 0. -1.
         11    1    4    4    0    0  0.29751293760E-01  0.56194030787E-01  0.24742982556E-01  0.68230380940E-01  0.51100000000E-03 0.  1.
</event>
<event>
 8    1  0.1146431E+005  0.1043930E+01  0.7957747E-01            NaN
         13   -1    0    0    0    0  0.00000000000E+00  0.00000000000E+00  0.74505805969E-08  0.10566000000E+00  0.10566000000E+00 0.  1.
     999900   -1    0    0    0    0 -0.00000000000E+00 -0.00000000000E+00 -0.74505805969E-08  0.93827000000E+00  0.93827000000E+00 0. -1.
     999902    2    1    2    0    0  0.13680922935E-01 -0.19027984780E-01  0.21137160639E-02  0.10203991765E+01  0.10201278252E+01 0.  0.
     999903    2    3    3    0    0 -0.20300022253E-01 -0.88514039145E-01 -0.93336518516E-01  0.13186456063E+00  0.20729945302E-01 0.  0.
         14    1    1    2    0    0 -0.13680922935E-01  0.19027984780E-01 -0.21137160639E-02  0.23530823461E-01  0.00000000000E+00 0.  1.
     999901    1    3    3    0    0  0.33980945188E-01  0.69486054365E-01  0.95450234580E-01  0.88853461591E+00  0.88000000000E+00 0.  1.
        -11    1    4    4    0    0  0.91862948679E-04 -0.44440560133E-01 -0.41004011925E-01  0.60469512473E-01  0.51100000000E-03 0.  1.
         11    1    4    4    0    0 -0.20391885202E-01 -0.44073479012E-01 -0.52332506592E-01  0.71395048158E-01  0.51100000000E-03 0. -1.
</event>
<event>
 8    1  0.1146431E+005  0.1043930E+01  0.7957747E-01            NaN
         13   -1    0    0    0    0  0.00000000000E+00  0.00000000000E+00  0.74505805969E-08  0.10566000000E+00  0.10566000000E+00 0.  1.
     999900   -1    0    0    0    0 -0.00000000000E+00 -0.00000000000E+00 -0.74505805969E-08  0.93827000000E+00  0.93827000000E+00 0. -1.
     999902    2    1    2    0    0 -0.18752385317E-01  0.10675028961E-01  0.80581801259E-02  0.10208964926E+01  0.10206366180E+01 0.  0.
     999903    2    3    3    0    0  0.66694949742E-01 -0.10774609241E+00  0.10180980679E-01  0.12885988157E+00  0.21066085549E-01 0.  0.
         14    1    1    2    0    0  0.18752385317E-01 -0.10675028961E-01 -0.80581801259E-02  0.23033507448E-01  0.00000000000E+00 0. -1.
     999901    1    3    3    0    0 -0.85447335060E-01  0.11842112137E+00 -0.21228005532E-02  0.89203661098E+00  0.88000000000E+00 0. -1.
        -11    1    4    4    0    0  0.22242232276E-01 -0.42645390254E-01 -0.57256804698E-02  0.48439557640E-01  0.51100000000E-03 0. -1.
         11    1    4    4    0    0  0.44452717466E-01 -0.65100702151E-01  0.15906661149E-01  0.80420323927E-01  0.51100000000E-03 0.  1.
</event>
<event>
 8    1  0.1146431E+005  0.1043930E+01  0.7957747E-01            NaN
         13   -1    0    0    0    0  0.00000000000E+00  0.00000000000E+00  0.74505805969E-08  0.10566000000E+00  0.10566000000E+00 0. -1.
     999900   -1    0    0    0    0 -0.00000000000E+00 -0.00000000000E+00 -0.74505805969E-08  0.93827000000E+00  0.93827000000E+00 0.  1.
     999902    2    1    2    0    0  0.92743653760E-02 -0.57935357796E-02  0.20646752566E-01  0.10205661968E+01  0.10202987282E+01 0.  0.
     999903    2    3    3    0    0 -0.12553641014E+00  0.81044351133E-02 -0.22025194235E-01  0.12916954329E+00  0.19354317173E-01 0.  0.
         14    1    1    2    0    0 -0.92743653760E-02  0.57935357796E-02 -0.20646752566E-01  0.23363803233E-01  0.00000000000E+00 0.  1.
     999901    1    3    3    0    0  0.13481077551E+00 -0.13897970893E-01  0.42671946801E-01  0.89139665348E+00  0.88000000000E+00 0. -1.
        -11    1    4    4    0    0 -0.49634644678E-01  0.65053163959E-02 -0.17798749025E-01  0.53131663644E-01  0.51100000000E-03 0.  1.
         11    1    4    4    0    0 -0.75901765461E-01  0.15991187174E-02 -0.42264452100E-02  0.76037879645E-01  0.51100000000E-03 0. -1.
</event>
<event>
 8    1  0.1146431E+005  0.1043930E+01  0.7957747E-01            NaN
         13   -1    0    0    0    0  0.00000000000E+00  0.00000000000E+00  0.74505805969E-08  0.10566000000E+00  0.10566000000E+00 0. -1.
     999900   -1    0    0    0    0 -0.00000000000E+00 -0.00000000000E+00 -0.74505805969E-08  0.93827000000E+00  0.93827000000E+00 0.  1.
     999902    2    1    2    0    0 -0.58135186392E-02 -0.30627668546E-02  0.22140698958E-01  0.10208348037E+01  0.10205735194E+01 0.  0.
     999903    2    3    3    0    0 -0.54897373610E-02 -0.10895023016E+00 -0.67700403230E-01  0.12994553826E+00  0.20055135199E-01 0.  0.
         14    1    1    2    0    0  0.58135186392E-02  0.30627668546E-02 -0.22140698958E-01  0.23095196256E-01  0.00000000000E+00 0.  1.
     999901    1    3    3    0    0 -0.32378127823E-03  0.10588746330E+00  0.89841102188E-01  0.89088926549E+00  0.88000000000E+00 0. -1.
        -11    1    4    4    0    0  0.54765492334E-02 -0.27350972907E-01 -0.23615039879E-01  0.36551327472E-01  0.51100000000E-03 0.  1.
         11    1    4    4    0    0 -0.10966286594E-01 -0.81599257249E-01 -0.44085363351E-01  0.93394210785E-01  0.51100000000E-03 0. -1.
</event>
<event>
 8    1  0.1146431E+005  0.1043930E+01  0.7957747E-01            NaN
         13   -1    0    0    0    0  0.00000000000E+00  0.00000000000E+00  0.74505805969E-08  0.10566000000E+00  0.10566000000E+00 0. -1.
     999900   -1    0    0    0    0 -0.00000000000E+00 -0.00000000000E+00 -0.74505805969E-08  0.93827000000E+00  0.93827000000E+00 0.  1.
     999902    2    1    2    0    0  0.18397360651E-01  0.13230218754E-01  0.71661288236E-03  0.10212580989E+01  0.10210064101E+01 0.  0.
     999903    2    3    3    0    0 -0.69651821994E-01  0.30781304881E-01 -0.10411396883E+00  0.13049991055E+00  0.19789974976E-01 0.  0.
         14    1    1    2    0    0 -0.18397360651E-01 -0.13230218754E-01 -0.71661288236E-03  0.22671901138E-01  0.00000000000E+00 0.  1.
     999901    1    3    3    0    0  0.88049182645E-01 -0.17551086127E-01  0.10483058171E+00  0.89075818832E+00  0.88000000000E+00 0. -1.
        -11    1    4    4    0    0 -0.34416623170E-01  0.93472784155E-02 -0.62165870362E-01  0.71670999177E-01  0.51100000000E-03 0. -1.
         11    1    4    4    0    0 -0.35235198824E-01  0.21434026465E-01 -0.41948098469E-01  0.58828911369E-01  0.51100000000E-03 0.  1.
</event>
<event>
 8    1  0.1146431E+005  0.1043930E+01  0.7957747E-01            NaN
         13   -1    0    0    0    0  0.00000000000E+00  0.00000000000E+00  0.74505805969E-08  0.10566000000E+00  0.10566000000E+00 0.  1.
     999900   -1    0    0    0    0 -0.00000000000E+00 -0.00000000000E+00 -0.74505805969E-08  0.93827000000E+00  0.93827000000E+00 0. -1.
     999902    2    1    2    0    0  0.63867273998E-02  0.22484802917E-01 -0.40321121488E-02  0.10202105022E+01  0.10199347303E+01 0.  0.
     999903    2    3    3    0    0 -0.24600420367E-01 -0.83463977826E-01  0.91721723107E-01  0.12815997421E+00  0.20992575409E-01 0.  0.
         14    1    1    2    0    0 -0.63867273998E-02 -0.22484802917E-01  0.40321121488E-02  0.23719497833E-01  0.00000000000E+00 0. -1.
     999901    1    3    3    0    0  0.30987147767E-01  0.10594878074E+00 -0.95753835255E-01  0.89205052796E+00  0.88000000000E+00 0. -1.
        -11    1    4    4    0    0 -0.94595936321E-02 -0.29443308181E-01  0.47682143167E-01  0.56835202175E-01  0.51100000000E-03 0. -1.
         11    1    4    4    0    0 -0.15140826735E-01 -0.54020669644E-01  0.44039579940E-01  0.71324772031E-01  0.51100000000E-03 0.  1.
</event>
<event>
 8    1  0.1146431E+005  0.1043930E+01  0.7957747E-01            NaN
         13   -1    0    0    0    0  0.00000000000E+00  0.00000000000E+00  0.74505805969E-08  0.10566000000E+00  0.10566000000E+00 0.  1.
     999900   -1    0    0    0    0 -0.00000000000E+00 -0.00000000000E+00 -0.74505805969E-08  0.93827000000E+00  0.93827000000E+00 0.  1.
     999902    2    1    2    0    0 -0.45116392733E-03  0.27787641970E-03  0.23855633321E-01  0.10200684828E+01  0.10197893594E+01 0.  0.
     999903    2    3    3    0    0  0.10084574433E+00  0.15206379509E-01  0.81945619424E-01  0.13222932485E+00  0.19194053219E-01 0.  0.
         14    1    1    2    0    0  0.45116392733E-03 -0.27787641970E-03 -0.23855633321E-01  0.23861517247E-01  0.00000000000E+00 0. -1.
     999901    1    3    3    0    0 -0.10129690826E+00 -0.14928503089E-01 -0.58089986103E-01  0.88783915791E+00  0.88000000000E+00 0.  1.
        -11    1    4    4    0    0  0.52330186292E-01  0.15162641898E-01  0.35269880969E-01  0.64904389152E-01  0.51100000000E-03 0.  1.
         11    1    4    4    0    0  0.48515558039E-01  0.43737610748E-04  0.46675738455E-01  0.67324935693E-01  0.51100000000E-03 0. -1.
</event>
<event>
 8    1  0.1146431E+005  0.1043930E+01  0.7957747E-01            NaN
         13   -1    0    0    0    0  0.00000000000E+00  0.00000000000E+00  0.74505805969E-08  0.10566000000E+00  0.10566000000E+00 0.  1.
     999900   -1    0    0    0    0 -0.00000000000E+00 -0.00000000000E+00 -0.74505805969E-08  0.93827000000E+00  0.93827000000E+00 0. -1.
     999902    2    1    2    0    0 -0.11409269356E-01 -0.35771909677E-02 -0.20332047979E-01  0.10203427175E+01  0.10200700472E+01 0.  0.
     999903    2    3    3    0    0 -0.66748610574E-01 -0.42402608719E-01 -0.10594192711E+00  0.13360774739E+00  0.19338562596E-01 0.  0.
         14    1    1    2    0    0  0.11409269356E-01  0.35771909677E-02  0.20332047979E-01  0.23587282537E-01  0.00000000000E+00 0.  1.
     999901    1    3    3    0    0  0.55339341218E-01  0.38825417751E-01  0.85609879128E-01  0.88673497008E+00  0.88000000000E+00 0.  1.
        -11    1    4    4    0    0 -0.18292294089E-01 -0.10645708401E-01 -0.43790994266E-01  0.48640018814E-01  0.51100000000E-03 0.  1.
         11    1    4    4    0    0 -0.48456316485E-01 -0.31756900318E-01 -0.62150932841E-01  0.84967728574E-01  0.51100000000E-03 0. -1.
</event>
<event>
 8    1  0.1146431E+005  0.1043930E+01  0.7957747E-01            NaN
         13   -1    0    0    0    0  0.00000000000E+00  0.00000000000E+00  0.74505805969E-08  0.10566000000E+00  0.10566000000E+00 0. -1.
     999900   -1    0    0    0    0 -0.00000000000E+00 -0.00000000000E+00 -0.74505805969E-08  0.93827000000E+00  0.93827000000E+00 0. -1.
     999902    2    1    2    0    0 -0.19968303294E-02  0.19603209289E-01 -0.14729977485E-01  0.10193282646E+01  0.10190313370E+01 0.  0.
     999903    2    3    3    0    0  0.71542407959E-01  0.53670560566E-01 -0.94907005963E-01  0.13197435561E+00  0.20274258275E-01 0.  0.
         14    1    1    2    0    0  0.19968303294E-02 -0.19603209289E-01  0.14729977485E-01  0.24601735355E-01  0.00000000000E+00 0.  1.
     999901    1    3    3    0    0 -0.73539238289E-01 -0.34067351277E-01  0.80177028478E-01  0.88735390904E+00  0.88000000000E+00 0.  1.
        -11    1    4    4    0    0  0.41623424588E-01  0.20271167104E-01 -0.40908717951E-01  0.61783606366E-01  0.51100000000E-03 0.  1.
         11    1    4    4    0    0  0.29918983371E-01  0.33399393462E-01 -0.53998288012E-01  0.70190749240E-01  0.51100000000E-03 0. -1.
</event>
<event>
 8    1  0.1146431E+005  0.1043930E+01  0.7957747E-01            NaN
         13   -1    0    0    0    0  0.00000000000E+00  0.00000000000E+00  0.74505805969E-08  0.10566000000E+00  0.10566000000E+00 0. -1.
     999900   -1    0    0    0    0 -0.00000000000E+00 -0.00000000000E+00 -0.74505805969E-08  0.93827000000E+00  0.93827000000E+00 0.  1.
     999902    2    1    2    0    0  0.12107232160E-01  0.15483108644E-01  0.13036377237E-01  0.10203448594E+01  0.10200722393E+01 0.  0.
     999903    2    3    3    0    0 -0.11943750369E+00 -0.31980877718E-01 -0.27879840470E-01  0.12836336613E+00  0.20292225917E-01 0.  0.
         14    1    1    2    0    0 -0.12107232160E-01 -0.15483108644E-01 -0.13036377237E-01  0.23585140562E-01  0.00000000000E+00 0.  1.
     999901    1    3    3    0    0  0.13154473585E+00  0.47463986363E-01  0.40916217707E-01  0.89198149331E+00  0.88000000000E+00 0. -1.
        -11    1    4    4    0    0 -0.64871214954E-01 -0.14368317293E-01 -0.50224332571E-02  0.66634893474E-01  0.51100000000E-03 0. -1.
         11    1    4    4    0    0 -0.54566288735E-01 -0.17612560426E-01 -0.22857407213E-01  0.61728472657E-01  0.51100000000E-03 0.  1.
</event>
<event>
 8    1  0.1146431E+005  0.1043930E+01  0.7957747E-01            NaN
         13   -1    0    0    0    0  0.00000000000E+00  0.00000000000E+00  0.74505805969E-08  0.10566000000E+00  0.10566000000E+00 0. -1.
     999900   -1    0    0    0    0 -0.00000000000E+00 -0.00000000000E+00 -0.74505805969E-08  0.93827000000E+00  0.93827000000E+00 0.  1.
     999902    2    1    2    0    0  0.14363628888E-01 -0.18998471762E-01 -0.29152076897E-02  0.10199351214E+01  0.10196528319E+01 0.  0.
     999903    2    3    3    0    0  0.36048404430E-01 -0.77553115542E-01 -0.98862820684E-01  0.13252043802E+00  0.21767774068E-01 0.  0.
         14    1    1    2    0    0 -0.14363628888E-01  0.18998471762E-01  0.29152076897E-02  0.23994878620E-01  0.00000000000E+00 0.  1.
     999901    1    3    3    0    0 -0.21684775542E-01  0.58554643780E-01  0.95947612994E-01  0.88741468336E+00  0.88000000000E+00 0. -1.
        -11    1    4    4    0    0  0.36190934043E-01 -0.72536185388E-01 -0.83617740973E-01  0.11646230989E+00  0.51100000000E-03 0.  1.
         11    1    4    4    0    0 -0.14252961280E-03 -0.50169301544E-02 -0.15245079711E-01  0.16058128137E-01  0.51100000000E-03 0. -1.
</event>
<event>
 8    1  0.1146431E+005  0.1043930E+01  0.7957747E-01            NaN
         13   -1    0    0    0    0  0.00000000000E+00  0.00000000000E+00  0.74505805969E-08  0.10566000000E+00  0.10566000000E+00 0. -1.
     999900   -1    0    0    0    0 -0.00000000000E+00 -0.00000000000E+00 -0.74505805969E-08  0.93827000000E+00  0.93827000000E+00 0. -1.
     999902    2    1    2    0    0  0.85047967322E-02 -0.21959704985E-01  0.23935986599E-02  0.10202595643E+01  0.10199849455E+01 0.  0.
     999903    2    3    3    0    0  0.18040203355E-01 -0.12420501102E+00 -0.40479203294E-01  0.13325161412E+00  0.19107408634E-01 0.  0.
         14    1    1    2    0    0 -0.85047967322E-02  0.21959704985E-01 -0.23935986599E-02  0.23670435674E-01  0.00000000000E+00 0. -1.
     999901    1    3    3    0    0 -0.95354066227E-02  0.10224530604E+00  0.42872801954E-01  0.88700795021E+00  0.88000000000E+00 0.  1.
        -11    1    4    4    0    0  0.85601213826E-02 -0.51870604950E-01 -0.72016850697E-02  0.53065626584E-01  0.51100000000E-03 0. -1.
         11    1    4    4    0    0  0.94800819723E-02 -0.72334406075E-01 -0.33277518224E-01  0.80185987532E-01  0.51100000000E-03 0.  1.
</event>
<event>
 8    1  0.1146431E+005  0.1043930E+01  0.7957747E-01            NaN
         13   -1    0    0    0    0  0.00000000000E+00  0.00000000000E+00  0.74505805969E-08  0.10566000000E+00  0.10566000000E+00 0.  1.
     999900   -1    0    0    0    0 -0.00000000000E+00 -0.00000000000E+00 -0.74505805969E-08  0.93827000000E+00  0.93827000000E+00 0.  1.
     999902    2    1    2    0    0 -0.23962451901E-01  0.19135558974E-02  0.38632919139E-02  0.10195828067E+01  0.10192920651E+01 0.  0.
     999903    2    3    3    0    0 -0.34376029422E-02  0.77926405824E-01 -0.10156787522E+00  0.12979915109E+00  0.21152884158E-01 0.  0.
         14    1    1    2    0    0  0.23962451901E-01 -0.19135558974E-02 -0.38632919139E-02  0.24347193302E-01  0.00000000000E+00 0.  1.
     999901    1    3    3    0    0 -0.20524848959E-01 -0.76012849927E-01  0.10543116714E+00  0.88978365561E+00  0.88000000000E+00 0. -1.
        -11    1    4    4    0    0 -0.65301190545E-02  0.34113553698E-01 -0.59965069244E-01  0.69299694453E-01  0.51100000000E-03 0.  1.
         11    1    4    4    0    0  0.30925161124E-02  0.43812852126E-01 -0.41602805979E-01  0.60499456639E-01  0.51100000000E-03 0. -1.
</event>
<event>
 8    1  0.1146431E+005  0.1043930E+01  0.7957747E-01            NaN
         13   -1    0    0    0    0  0.00000000000E+00  0.00000000000E+00  0.74505805969E-08  0.10566000000E+00  0.10566000000E+00 0. -1.
     999900   -1    0    0    0    0 -0.00000000000E+00 -0.00000000000E+00 -0.74505805969E-08  0.93827000000E+00  0.93827000000E+00 0.  1.
     999902    2    1    2    0    0 -0.57870202041E-02  0.21942986432E-01 -0.11412144854E-02  0.10212080585E+01  0.10209552449E+01 0.  0.
     999903    2    3    3    0    0 -0.11588132992E+00 -0.39949368767E-01 -0.41504757586E-01  0.13127511927E+00  0.22047161918E-01 0.  0.
         14    1    1    2    0    0  0.57870202041E-02 -0.21942986432E-01  0.11412144854E-02  0.22721941530E-01  0.00000000000E+00 0.  1.
     999901    1    3    3    0    0  0.11009430971E+00  0.61892355200E-01  0.40363543101E-01  0.88993293920E+00  0.88000000000E+00 0.  1.
        -11    1    4    4    0    0 -0.53735526387E-01 -0.29481116702E-01 -0.16528008137E-01  0.63482904881E-01  0.51100000000E-03 0. -1.
         11    1    4    4    0    0 -0.62145803529E-01 -0.10468252065E-01 -0.24976749449E-01  0.67792214388E-01  0.51100000000E-03 0.  1.
</event>
<event>
 8    1  0.1146431E+005  0.1043930E+01  0.7957747E-01            NaN
         13   -1    0    0    0    0  0.00000000000E+00  0.00000000000E+00  0.74505805969E-08  0.10566000000E+00  0.10566000000E+00 0.  1.
     999900   -1    0    0    0    0 -0.00000000000E+00 -0.00000000000E+00 -0.74505805969E-08  0.93827000000E+00  0.93827000000E+00 0. -1.
     999902    2    1    2    0    0 -0.18600390469E-01 -0.11565069268E-01  0.10055977391E-01  0.10198292109E+01  0.10195443940E+01 0.  0.
     999903    2    3    3    0    0  0.83540343392E-01  0.49609246325E-01 -0.79477351370E-01  0.12730960702E+00  0.21237240004E-01 0.  0.
         14    1    1    2    0    0  0.18600390469E-01  0.11565069268E-01 -0.10055977391E-01  0.24100789075E-01  0.00000000000E+00 0.  1.
     999901    1    3    3    0    0 -0.10214073386E+00 -0.61174315592E-01  0.89533328761E-01  0.89251960391E+00  0.88000000000E+00 0.  1.
        -11    1    4    4    0    0  0.17613860785E-01  0.20184302496E-02 -0.10018151451E-01  0.20370238878E-01  0.51100000000E-03 0.  1.
         11    1    4    4    0    0  0.65926482606E-01  0.47590816075E-01 -0.69459199919E-01  0.10693936814E+00  0.51100000000E-03 0. -1.
</event>
<event>
 8    1  0.1146431E+005  0.1043930E+01  0.7957747E-01            NaN
         13   -1    0    0    0    0  0.00000000000E+00  0.00000000000E+00  0.74505805969E-08  0.10566000000E+00  0.10566000000E+00 0. -1.
     999900   -1    0    0    0    0 -0.00000000000E+00 -0.00000000000E+00 -0.74505805969E-08  0.93827000000E+00  0.93827000000E+00 0.  1.
     999902    2    1    2    0    0  0.35081475531E-03 -0.21717084523E-01 -0.71100100484E-02  0.10210759615E+01  0.10208201664E+01 0.  0.
     999903    2    3    3    0    0  0.71186609097E-01 -0.11108642963E+00  0.51291395190E-02  0.13363335134E+00  0.20587286274E-01 0.  0.
         14    1    1    2    0    0 -0.35081475531E-03  0.21717084523E-01  0.71100100484E-02  0.22854038463E-01  0.00000000000E+00 0.  1.
     999901    1    3    3    0    0 -0.70835794341E-01  0.89369345108E-01 -0.12239149567E-01  0.88744261019E+00  0.88000000000E+00 0.  1.
        -11    1    4    4    0    0  0.29029237575E-01 -0.50523986529E-01 -0.75517092865E-02  0.58759333583E-01  0.51100000000E-03 0.  1.
         11    1    4    4    0    0  0.42157371522E-01 -0.60562443102E-01  0.12680848806E-01  0.74874017761E-01  0.51100000000E-03 0. -1.
</event>
<event>
 7    1  0.1146431E+005  0.1043930E+01  0.7957747E-01            NaN
         13   -1    0    0    0    0  0.00000000000E+00  0.00000000000E+00  0.74505805969E-08  0.10566000000E+00  0.10566000000E+00 0.  1.
     999900   -1    0    0    0    0 -0.00000000000E+00 -0.00000000000E+00 -0.74505805969E-08  0.93827000000E+00  0.93827000000E+00 0. -1.
     999903    2    1    2    0    0 -0.47758352597E-02  0.36620371151E-01  0.55630723024E-02  0.42693720310E-01  0.20686850772E-01 0.  0.
         14    1    1    2    0    0 -0.32940495862E-01  0.63298360560E-01 -0.85287570934E-01  0.11120129708E+00  0.00000000000E+00 0. -1.
     999901    1    1    2    0    0  0.37716331121E-01 -0.99918731711E-01  0.79724498632E-01  0.89003498261E+00  0.88000000000E+00 0.  1.
        -11    1    3    3    0    0  0.56745427318E-02  0.22727323076E-01 -0.24232058335E-02  0.23555566156E-01  0.51100000000E-03 0. -1.
         11    1    3    3    0    0 -0.10450377992E-01  0.13893048074E-01  0.79862781359E-02  0.19138154154E-01  0.51100000000E-03 0.  1.
</event>
<event>
 8    1  0.1146431E+005  0.1043930E+01  0.7957747E-01            NaN
         13   -1    0    0    0    0  0.00000000000E+00  0.00000000000E+00  0.74505805969E-08  0.10566000000E+00  0.10566000000E+00 0.  1.
     999900   -1    0    0    0    0 -0.00000000000E+00 -0.00000000000E+00 -0.74505805969E-08  0.93827000000E+00  0.93827000000E+00 0.  1.
     999902    2    1    2    0    0 -0.17146846019E-01 -0.90601045232E-04  0.17177765643E-01  0.10196586554E+01  0.10193697442E+01 0.  0.
     999903    2    3    3    0    0  0.26217485934E-01 -0.96168839384E-01  0.82529459040E-01  0.13096166709E+00  0.20100855738E-01 0.  0.
         14    1    1    2    0    0  0.17146846019E-01  0.90601045232E-04 -0.17177765643E-01  0.24271344616E-01  0.00000000000E+00 0. -1.
     999901    1    3    3    0    0 -0.43364331954E-01  0.96078238338E-01 -0.65351693397E-01  0.88869698829E+00  0.88000000000E+00 0.  1.
        -11    1    4    4    0    0  0.20251156103E-02 -0.42943015026E-01  0.30713689715E-01  0.52837444012E-01  0.51100000000E-03 0.  1.
         11    1    4    4    0    0  0.24192370324E-01 -0.53225824358E-01  0.51815769324E-01  0.78124223082E-01  0.51100000000E-03 0. -1.
</event>
<event>
 8    1  0.1146431E+005  0.1043930E+01  0.7957747E-01            NaN
         13   -1    0    0    0    0  0.00000000000E+00  0.00000000000E+00  0.74505805969E-08  0.10566000000E+00  0.10566000000E+00 0. -1.
     999900   -1    0    0    0    0 -0.00000000000E+00 -0.00000000000E+00 -0.74505805969E-08  0.93827000000E+00  0.93827000000E+00 0.  1.
     999902    2    1    2    0    0 -0.13751185678E-01  0.82684211219E-02 -0.16325260543E-01  0.10210394773E+01  0.10207828556E+01 0.  0.
     999903    2    3    3    0    0  0.17470172947E-01 -0.63842189379E-01  0.10858046147E+00  0.12875244238E+00  0.20160424544E-01 0.  0.
         14    1    1    2    0    0  0.13751185678E-01 -0.82684211219E-02  0.16325260543E-01  0.22890522651E-01  0.00000000000E+00 0. -1.
     999901    1    3    3    0    0 -0.31221358625E-01  0.72110610501E-01 -0.12490572202E+00  0.89228703497E+00  0.88000000000E+00 0.  1.
        -11    1    4    4    0    0 -0.12994495515E-02 -0.33073219858E-01  0.54256067947E-01  0.63557127617E-01  0.51100000000E-03 0.  1.
         11    1    4    4    0    0  0.18769622498E-01 -0.30768969521E-01  0.54324393526E-01  0.65195314763E-01  0.51100000000E-03 0. -1.
</event>
<event>
 8    1  0.1153580E+005  0.1043930E+01  0.7957747E-01            NaN
         13   -1    0    0    0    0  0.00000000000E+00  0.00000000000E+00  0.74505805969E-08  0.10566000000E+00  0.10566000000E+00 0. -1.
     999900   -1    0    0    0    0 -0.00000000000E+00 -0.00000000000E+00 -0.74505805969E-08  0.93827000000E+00  0.93827000000E+00 0. -1.
     999902    2    1    2    0    0  0.97119767895E-03 -0.19497140422E-01  0.12120566737E-01  0.10209519703E+01  0.10206933604E+01 0.  0.
     999903    2    3    3    0    0 -0.69076274281E-01 -0.76555712218E-01 -0.79272468970E-01  0.13161794089E+00  0.20170505343E-01 0.  0.
         14    1    1    2    0    0 -0.97119767895E-03  0.19497140422E-01 -0.12120566737E-01  0.22978029671E-01  0.00000000000E+00 0.  1.
     999901    1    3    3    0    0  0.70047471960E-01  0.57058571796E-01  0.91393035706E-01  0.88933402944E+00  0.88000000000E+00 0.  1.
        -11    1    4    4    0    0 -0.29570565214E-01 -0.19792400004E-01 -0.22138014677E-01  0.41910741342E-01  0.51100000000E-03 0. -1.
         11    1    4    4    0    0 -0.39505709067E-01 -0.56763312214E-01 -0.57134454292E-01  0.89707199547E-01  0.51100000000E-03 0.  1.
</event>
<event>
 8    1  0.1146431E+005  0.1043930E+01  0.7957747E-01            NaN
         13   -1    0    0    0    0  0.00000000000E+00  0.00000000000E+00  0.74505805969E-08  0.10566000000E+00  0.10566000000E+00 0.  1.
     999900   -1    0    0    0    0 -0.00000000000E+00 -0.00000000000E+00 -0.74505805969E-08  0.93827000000E+00  0.93827000000E+00 0.  1.
     999902    2    1    2    0    0 -0.20497549344E-01  0.11583075163E-01 -0.23302594000E-02  0.10202710214E+01  0.10199966715E+01 0.  0.
     999903    2    3    3    0    0  0.15452796055E-01 -0.34093783145E-01  0.12240230996E+00  0.12957633938E+00  0.20162521925E-01 0.  0.
         14    1    1    2    0    0  0.20497549344E-01 -0.11583075163E-01  0.23302594000E-02  0.23658978596E-01  0.00000000000E+00 0. -1.
     999901    1    3    3    0    0 -0.35950345399E-01  0.45676858309E-01 -0.12473256936E+00  0.89069468202E+00  0.88000000000E+00 0.  1.
        -11    1    4    4    0    0  0.10295379398E-01 -0.22591953594E-01  0.10607568407E+00  0.10894357749E+00  0.51100000000E-03 0.  1.
         11    1    4    4    0    0  0.51574166569E-02 -0.11501829551E-01  0.16326625889E-01  0.20632761897E-01  0.51100000000E-03 0. -1.
</event>
<event>
 8    1  0.1146431E+005  0.1043930E+01  0.7957747E-01            NaN
         13   -1    0    0    0    0  0.00000000000E+00  0.00000000000E+00  0.74505805969E-08  0.10566000000E+00  0.10566000000E+00 0.  1.
     999900   -1    0    0    0    0 -0.00000000000E+00 -0.00000000000E+00 -0.74505805969E-08  0.93827000000E+00  0.93827000000E+00 0. -1.
     999902    2    1    2    0    0 -0.21479634282E-01 -0.10857273609E-01  0.57389119346E-03  0.10198554402E+01  0.10195712503E+01 0.  0.
     999903    2    3    3    0    0 -0.45278995462E-01  0.71014942003E-01 -0.97542490330E-01  0.13030707523E+00  0.19289557182E-01 0.  0.
         14    1    1    2    0    0  0.21479634282E-01  0.10857273609E-01 -0.57389119346E-03  0.24074559814E-01  0.00000000000E+00 0.  1.
     999901    1    3    3    0    0  0.23799361180E-01 -0.81872215612E-01  0.98116381523E-01  0.88954836496E+00  0.88000000000E+00 0. -1.
        -11    1    4    4    0    0 -0.37302019192E-01  0.44208472287E-01 -0.72616980437E-01  0.92840274808E-01  0.51100000000E-03 0. -1.
         11    1    4    4    0    0 -0.79769762699E-02  0.26806469716E-01 -0.24925509893E-01  0.37466800417E-01  0.51100000000E-03 0.  1.
</event>
<event>
 8    1  0.1146431E+005  0.1043930E+01  0.7957747E-01            NaN
         13   -1    0    0    0    0  0.00000000000E+00  0.00000000000E+00  0.74505805969E-08  0.10566000000E+00  0.10566000000E+00 0.  1.
     999900   -1    0    0    0    0 -0.00000000000E+00 -0.00000000000E+00 -0.74505805969E-08  0.93827000000E+00  0.93827000000E+00 0. -1.
     999902    2    1    2    0    0  0.21695439865E-01 -0.10882607115E-01 -0.20984500521E-02  0.10195675957E+01  0.10192764863E+01 0.  0.
     999903    2    3    3    0    0 -0.35447252088E-01  0.88431983011E-01 -0.83722953775E-01  0.12839351922E+00  0.19965958258E-01 0.  0.
         14    1    1    2    0    0 -0.21695439865E-01  0.10882607115E-01  0.20984500521E-02  0.24362404257E-01  0.00000000000E+00 0.  1.
     999901    1    3    3    0    0  0.57142691954E-01 -0.99314590127E-01  0.81624503723E-01  0.89117407652E+00  0.88000000000E+00 0.  1.
        -11    1    4    4    0    0 -0.29900228644E-01  0.77519925185E-01 -0.62814403875E-01  0.10415984317E+00  0.51100000000E-03 0. -1.
         11    1    4    4    0    0 -0.55470234445E-02  0.10912057826E-01 -0.20908549900E-01  0.24233676053E-01  0.51100000000E-03 0.  1.
</event>
<event>
 8    1  0.1146431E+005  0.1043930E+01  0.7957747E-01            NaN
         13   -1    0    0    0    0  0.00000000000E+00  0.00000000000E+00  0.74505805969E-08  0.10566000000E+00  0.10566000000E+00 0. -1.
     999900   -1    0    0    0    0 -0.00000000000E+00 -0.00000000000E+00 -0.74505805969E-08  0.93827000000E+00  0.93827000000E+00 0. -1.
     999902    2    1    2    0    0 -0.44064225325E-02  0.55914570144E-02 -0.23253713354E-01  0.10196109512E+01  0.10193208894E+01 0.  0.
     999903    2    3    3    0    0  0.11441803648E-01  0.12844179542E+00 -0.50068916231E-02  0.13074857801E+00  0.21021703219E-01 0.  0.
         14    1    1    2    0    0  0.44064225325E-02 -0.55914570144E-02  0.23253713354E-01  0.24319048827E-01  0.00000000000E+00 0. -1.
     999901    1    3    3    0    0 -0.15848226180E-01 -0.12285033841E+00 -0.18246821731E-01  0.88886237316E+00  0.88000000000E+00 0.  1.
        -11    1    4    4    0    0  0.85911342840E-02  0.28814218096E-01 -0.77012463495E-02  0.31042504234E-01  0.51100000000E-03 0. -1.
         11    1    4    4    0    0  0.28506693636E-02  0.99627577326E-01  0.26943547264E-02  0.99706073777E-01  0.51100000000E-03 0.  1.
</event>
<event>
 8    1  0.1146431E+005  0.1043930E+01  0.7957747E-01            NaN
         13   -1    0    0    0    0  0.00000000000E+00  0.00000000000E+00  0.74505805969E-08  0.10566000000E+00  0.10566000000E+00 0.  1.
     999900   -1    0    0    0    0 -0.00000000000E+00 -0.00000000000E+00 -0.74505805969E-08  0.93827000000E+00  0.93827000000E+00 0. -1.
     999902    2    1    2    0    0  0.15844505426E-01 -0.13096885702E-01  0.10320364522E-01  0.10209281155E+01  0.10206689622E+01 0.  0.
     999903    2    3    3    0    0  0.72800328902E-01  0.78819652960E-02 -0.10681568880E+00  0.13109389890E+00  0.20347129775E-01 0.  0.
         14    1    1    2    0    0 -0.15844505426E-01  0.13096885702E-01 -0.10320364522E-01  0.23001884513E-01  0.00000000000E+00 0.  1.
     999901    1    3    3    0    0 -0.56955823475E-01 -0.20978850998E-01  0.11713605332E+00  0.88983421658E+00  0.88000000000E+00 0.  1.
        -11    1    4    4    0    0  0.63351482120E-01 -0.13339036528E-03 -0.93002864498E-01  0.11253098243E+00  0.51100000000E-03 0.  1.
         11    1    4    4    0    0  0.94488467815E-02  0.80153556612E-02 -0.13812824303E-01  0.18562916476E-01  0.51100000000E-03 0. -1.
</event>
<event>
 8    1  0.1146431E+005  0.1043930E+01  0.7957747E-01            NaN
         13   -1    0    0    0    0  0.00000000000E+00  0.00000000000E+00  0.74505805969E-08  0.10566000000E+00  0.10566000000E+00 0.  1.
     999900   -1    0    0    0    0 -0.00000000000E+00 -0.00000000000E+00 -0.74505805969E-08  0.93827000000E+00  0.93827000000E+00 0.  1.
     999902    2    1    2    0    0  0.19217214382E-01  0.10989007412E-01  0.92268862268E-02  0.10199467758E+01  0.10196647638E+01 0.  0.
     999903    2    3    3    0    0  0.10460079715E+00 -0.25207388930E-01 -0.72574495300E-01  0.13130061377E+00  0.19901120247E-01 0.  0.
         14    1    1    2    0    0 -0.19217214382E-01 -0.10989007412E-01 -0.92268862268E-02  0.23983224177E-01  0.00000000000E+00 0.  1.
     999901    1    3    3    0    0 -0.85383582768E-01  0.36196396341E-01  0.81801381527E-01  0.88864616205E+00  0.88000000000E+00 0.  1.
        -11    1    4    4    0    0  0.63449289039E-01 -0.82749056206E-02 -0.51098268031E-01  0.81887608705E-01  0.51100000000E-03 0.  1.
         11    1    4    4    0    0  0.41151508110E-01 -0.16932483309E-01 -0.21476227269E-01  0.49413005064E-01  0.51100000000E-03 0. -1.
</event>
<event>
 8    1  0.1146431E+005  0.1043930E+01  0.7957747E-01            NaN
         13   -1    0    0    0    0  0.00000000000E+00  0.00000000000E+00  0.74505805969E-08  0.10566000000E+00  0.10566000000E+00 0.  1.
     999900   -1    0    0    0    0 -0.00000000000E+00 -0.00000000000E+00 -0.74505805969E-08  0.93827000000E+00  0.93827000000E+00 0.  1.
     999902    2    1    2    0    0 -0.13816947689E-01  0.19206732050E-01  0.40708935574E-02  0.10199221102E+01  0.10196395108E+01 0.  0.
     999903    2    3    3    0    0 -0.53057882350E-01  0.18114506900E-01 -0.11663980309E+00  0.13081462725E+00  0.19087922799E-01 0.  0.
         14    1    1    2    0    0  0.13816947689E-01 -0.19206732050E-01 -0.40708935574E-02  0.24007889825E-01  0.00000000000E+00 0.  1.
     999901    1    3    3    0    0  0.39240934661E-01  0.10922251499E-02  0.12071069665E+00  0.88910748293E+00  0.88000000000E+00 0. -1.
        -11    1    4    4    0    0 -0.70283811355E-02  0.51003486539E-02 -0.36156196581E-01  0.37187946568E-01  0.51100000000E-03 0. -1.
         11    1    4    4    0    0 -0.46029501214E-01  0.13014158246E-01 -0.80483606514E-01  0.93626680681E-01  0.51100000000E-03 0.  1.
</event>
<event>
 8    1  0.1146431E+005  0.1043930E+01  0.7957747E-01            NaN
         13   -1    0    0    0    0  0.00000000000E+00  0.00000000000E+00  0.74505805969E-08  0.10566000000E+00  0.10566000000E+00 0. -1.
     999900   -1    0    0    0    0 -0.00000000000E+00 -0.00000000000E+00 -0.74505805969E-08  0.93827000000E+00  0.93827000000E+00 0.  1.
     999902    2    1    2    0    0  0.14132779056E-01 -0.15421605602E-01 -0.11790865714E-01  0.10199177973E+01  0.10196350952E+01 0.  0.
     999903    2    3    3    0    0 -0.10279649058E+00  0.51791788316E-01 -0.55901935956E-01  0.12855037536E+00  0.12274556979E-01 0.  0.
         14    1    1    2    0    0 -0.14132779056E-01  0.15421605602E-01  0.11790865714E-01  0.24012202679E-01  0.00000000000E+00 0.  1.
     999901    1    3    3    0    0  0.11692926963E+00 -0.67213393918E-01  0.44111070242E-01  0.89136742196E+00  0.88000000000E+00 0. -1.
        -11    1    4    4    0    0 -0.62489945072E-01  0.28009807344E-01 -0.27452769451E-01  0.73779795433E-01  0.51100000000E-03 0.  1.
         11    1    4    4    0    0 -0.40306545506E-01  0.23781980972E-01 -0.28449166505E-01  0.54770579925E-01  0.51100000000E-03 0. -1.
</event>
<event>
 8    1  0.1146431E+005  0.1043930E+01  0.7957747E-01            NaN
         13   -1    0    0    0    0  0.00000000000E+00  0.00000000000E+00  0.74505805969E-08  0.10566000000E+00  0.10566000000E+00 0. -1.
     999900   -1    0    0    0    0 -0.00000000000E+00 -0.00000000000E+00 -0.74505805969E-08  0.93827000000E+00  0.93827000000E+00 0. -1.
     999902    2    1    2    0    0  0.20179535342E-01  0.11945615140E-01  0.87340232671E-03  0.10204635516E+01  0.10201937002E+01 0.  0.
     999903    2    3    3    0    0 -0.83135600497E-01 -0.38512130027E-01  0.88148777948E-01  0.12870293771E+00  0.19988168810E-01 0.  0.
         14    1    1    2    0    0 -0.20179535342E-01 -0.11945615140E-01 -0.87340232671E-03  0.23466448375E-01  0.00000000000E+00 0. -1.
     999901    1    3    3    0    0  0.10331513584E+00  0.50457745167E-01 -0.87275375621E-01  0.89176061392E+00  0.88000000000E+00 0. -1.
        -11    1    4    4    0    0 -0.38448455041E-01 -0.11060344946E-01  0.27652945546E-01  0.48637037777E-01  0.51100000000E-03 0. -1.
         11    1    4    4    0    0 -0.44687145456E-01 -0.27451785081E-01  0.60495832402E-01  0.80065899933E-01  0.51100000000E-03 0.  1.
</event>
<event>
 8    1  0.1146431E+005  0.1043930E+01  0.7957747E-01            NaN
         13   -1    0    0    0    0  0.00000000000E+00  0.00000000000E+00  0.74505805969E-08  0.10566000000E+00  0.10566000000E+00 0. -1.
     999900   -1    0    0    0    0 -0.00000000000E+00 -0.00000000000E+00 -0.74505805969E-08  0.93827000000E+00  0.93827000000E+00 0. -1.
     999902    2    1    2    0    0  0.12472806282E-01 -0.19000882714E-01 -0.54094983646E-04  0.10212010016E+01  0.10209480292E+01 0.  0.
     999903    2    3    3    0    0 -0.92289179677E-01 -0.31363607703E-01 -0.85006308525E-01  0.13083883417E+00  0.19792914479E-01 0.  0.
         14    1    1    2    0    0 -0.12472806282E-01  0.19000882714E-01  0.54094983646E-04  0.22728998366E-01  0.00000000000E+00 0.  1.
     999901    1    3    3    0    0  0.10476198596E+00  0.12362724989E-01  0.84952213541E-01  0.89036216747E+00  0.88000000000E+00 0. -1.
        -11    1    4    4    0    0 -0.65620795458E-01 -0.27070636384E-01 -0.71029864831E-01  0.10042116794E+00  0.51100000000E-03 0. -1.
         11    1    4    4    0    0 -0.26668384219E-01 -0.42929713188E-02 -0.13976443694E-01  0.30417666230E-01  0.51100000000E-03 0.  1.
</event>
<event>
 8    1  0.1146431E+005  0.1043930E+01  0.7957747E-01            NaN
         13   -1    0    0    0    0  0.00000000000E+00  0.00000000000E+00  0.74505805969E-08  0.10566000000E+00  0.10566000000E+00 0.  1.
     999900   -1    0    0    0    0 -0.00000000000E+00 -0.00000000000E+00 -0.74505805969E-08  0.93827000000E+00  0.93827000000E+00 0. -1.
     999902    2    1    2    0    0  0.23998981828E-01 -0.66887133257E-02 -0.73471897549E-02  0.10179555662E+01  0.10176241268E+01 0.  0.
     999903    2    3    3    0    0  0.10089306216E+00  0.53653011163E-01 -0.60713201409E-01  0.13093710273E+00  0.20009409004E-01 0.  0.
         14    1    1    2    0    0 -0.23998981828E-01  0.66887133257E-02  0.73471897549E-02  0.25974433815E-01  0.00000000000E+00 0.  1.
     999901    1    3    3    0    0 -0.76894080330E-01 -0.60341724488E-01  0.53366011654E-01  0.88701846345E+00  0.88000000000E+00 0.  1.
        -11    1    4    4    0    0  0.26259878278E-01  0.20547243265E-01 -0.99695496079E-02  0.34805508951E-01  0.51100000000E-03 0. -1.
         11    1    4    4    0    0  0.74633183880E-01  0.33105767898E-01 -0.50743651801E-01  0.96131593783E-01  0.51100000000E-03 0.  1.
</event>
<event>
 8    1  0.1146431E+005  0.1043930E+01  0.7957747E-01            NaN
         13   -1    0    0    0    0  0.00000000000E+00  0.00000000000E+00  0.74505805969E-08  0.10566000000E+00  0.10566000000E+00 0. -1.
     999900   -1    0    0    0    0 -0.00000000000E+00 -0.00000000000E+00 -0.74505805969E-08  0.93827000000E+00  0.93827000000E+00 0.  1.
     999902    2    1    2    0    0  0.15543106915E-01 -0.12364190004E-01  0.12371650982E-01  0.10205308736E+01  0.10202625863E+01 0.  0.
     999903    2    3    3    0    0 -0.32191530201E-01  0.70908755399E-01  0.10296835962E+00  0.13068777362E+00  0.20309231428E-01 0.  0.
         14    1    1    2    0    0 -0.15543106915E-01  0.12364190004E-01 -0.12371650982E-01  0.23399126374E-01  0.00000000000E+00 0.  1.
     999901    1    3    3    0    0  0.47734637116E-01 -0.83272945403E-01 -0.90596708639E-01  0.88984310001E+00  0.88000000000E+00 0.  1.
        -11    1    4    4    0    0 -0.29602631828E-01  0.53621490747E-01  0.90214321930E-01  0.10904340917E+00  0.51100000000E-03 0.  1.
         11    1    4    4    0    0 -0.25888983728E-02  0.17287264652E-01  0.12754037691E-01  0.21644364448E-01  0.51100000000E-03 0. -1.
</event>
<event>
 8    1  0.1146431E+005  0.1043930E+01  0.7957747E-01            NaN
         13   -1    0    0    0    0  0.00000000000E+00  0.00000000000E+00  0.74505805969E-08  0.10566000000E+00  0.10566000000E+00 0.  1.
     999900   -1    0    0    0    0 -0.00000000000E+00 -0.00000000000E+00 -0.74505805969E-08  0.93827000000E+00  0.93827000000E+00 0. -1.
     999902    2    1    2    0    0  0.17684091965E-01 -0.12164091994E-01 -0.10328733883E-01  0.10201103655E+01  0.10198322327E+01 0.  0.
     999903    2    3    3    0    0 -0.12467178103E+00 -0.13112704609E-01  0.18074195939E-01  0.12821753516E+00  0.19951535196E-01 0.  0.
         14    1    1    2    0    0 -0.17684091965E-01  0.12164091994E-01  0.10328733883E-01  0.23819634470E-01  0.00000000000E+00 0.  1.
     999901    1    3    3    0    0  0.14235587299E+00  0.94861261512E-03 -0.28402929823E-01  0.89189283037E+00  0.88000000000E+00 0. -1.
        -11    1    4    4    0    0 -0.49579091952E-01  0.40003484483E-02  0.10381729958E-01  0.50814668989E-01  0.51100000000E-03 0. -1.
         11    1    4    4    0    0 -0.75092689077E-01 -0.17113053058E-01  0.76924659817E-02  0.77402866172E-01  0.51100000000E-03 0.  1.
</event>
<event>
 8    1  0.1146431E+005  0.1043930E+01  0.7957747E-01            NaN
         13   -1    0    0    0    0  0.00000000000E+00  0.00000000000E+00  0.74505805969E-08  0.10566000000E+00  0.10566000000E+00 0.  1.
     999900   -1    0    0    0    0 -0.00000000000E+00 -0.00000000000E+00 -0.74505805969E-08  0.93827000000E+00  0.93827000000E+00 0. -1.
     999902    2    1    2    0    0  0.10852330938E-01  0.19940457851E-01  0.68617900186E-02  0.10202133580E+01  0.10199376533E+01 0.  0.
     999903    2    3    3    0    0  0.11100298190E+00  0.59194669892E-01  0.38858705504E-01  0.13308605672E+00  0.19396612202E-01 0.  0.
         14    1    1    2    0    0 -0.10852330938E-01 -0.19940457851E-01 -0.68617900186E-02  0.23716642013E-01  0.00000000000E+00 0. -1.
     999901    1    3    3    0    0 -0.10015065097E+00 -0.39254212041E-01 -0.31996915486E-01  0.88712730127E+00  0.88000000000E+00 0. -1.
        -11    1    4    4    0    0  0.60664473550E-01  0.23105883289E-01  0.25335452939E-01  0.69686487143E-01  0.51100000000E-03 0. -1.
         11    1    4    4    0    0  0.50338508353E-01  0.36088786603E-01  0.13523252565E-01  0.63399569578E-01  0.51100000000E-03 0.  1.
</event>
<event>
 8    1  0.1146431E+005  0.1043930E+01  0.7957747E-01            NaN
         13   -1    0    0    0    0  0.00000000000E+00  0.00000000000E+00  0.74505805969E-08  0.10566000000E+00  0.10566000000E+00 0.  1.
     999900   -1    0    0    0    0 -0.00000000000E+00 -0.00000000000E+00 -0.74505805969E-08  0.93827000000E+00  0.93827000000E+00 0.  1.
     999902    2    1    2    0    0  0.49550712570E-02 -0.10327249268E-01  0.20977959813E-01  0.10200285438E+01  0.10197484742E+01 0.  0.
     999903    2    3    3    0    0 -0.12169337840E+00 -0.32786336542E-01 -0.21870787483E-01  0.12964645982E+00  0.21110447343E-01 0.  0.
         14    1    1    2    0    0 -0.49550712570E-02  0.10327249268E-01 -0.20977959813E-01  0.23901456159E-01  0.00000000000E+00 0. -1.
     999901    1    3    3    0    0  0.12664844966E+00  0.22459087274E-01  0.42848747296E-01  0.89038208402E+00  0.88000000000E+00 0. -1.
        -11    1    4    4    0    0 -0.28261243233E-01 -0.46174611674E-02 -0.13610536832E-01  0.31710040217E-01  0.51100000000E-03 0.  1.
         11    1    4    4    0    0 -0.93432135172E-01 -0.28168875374E-01 -0.82602506510E-02  0.97936419602E-01  0.51100000000E-03 0. -1.
</event>
<event>
 7    1  0.1146431E+005  0.1043930E+01  0.7957747E-01            NaN
         13   -1    0    0    0    0  0.00000000000E+00  0.00000000000E+00  0.74505805969E-08  0.10566000000E+00  0.10566000000E+00 0. -1.
     999900   -1    0    0    0    0 -0.00000000000E+00 -0.00000000000E+00 -0.74505805969E-08  0.93827000000E+00  0.93827000000E+00 0.  1.
     999903    2    1    2    0    0  0.74798136401E-01 -0.72556429391E-01  0.16598129698E-01  0.10757259029E+00  0.20908553688E-01 0.  0.
         14    1    1    2    0    0 -0.11049538029E-02  0.30170913060E-01  0.40388872560E-01  0.50425845997E-01  0.00000000000E+00 0. -1.
     999901    1    1    2    0    0 -0.73693182598E-01  0.42385516331E-01 -0.56987002258E-01  0.88593156371E+00  0.88000000000E+00 0.  1.
        -11    1    3    3    0    0  0.51009420515E-02 -0.15883946575E-02  0.51622773774E-02  0.74466661079E-02  0.51100000000E-03 0.  1.
         11    1    3    3    0    0  0.69697194349E-01 -0.70968034733E-01  0.11435852321E-01  0.10012592418E+00  0.51100000000E-03 0. -1.
</event>
<event>
 8    1  0.1146431E+005  0.1043930E+01  0.7957747E-01            NaN
         13   -1    0    0    0    0  0.00000000000E+00  0.00000000000E+00  0.74505805969E-08  0.10566000000E+00  0.10566000000E+00 0. -1.
     999900   -1    0    0    0    0 -0.00000000000E+00 -0.00000000000E+00 -0.74505805969E-08  0.93827000000E+00  0.93827000000E+00 0.  1.
     999902    2    1    2    0    0  0.14102679730E-01  0.17470973545E-01  0.96166783135E-02  0.10195045830E+01  0.10192119475E+01 0.  0.
     999903    2    3    3    0    0  0.10674495830E+00  0.40303999210E-01  0.64654597059E-01  0.13263756293E+00  0.19839549011E-01 0.  0.
         14    1    1    2    0    0 -0.14102679730E-01 -0.17470973545E-01 -0.96166783135E-02  0.24425416966E-01  0.00000000000E+00 0.  1.
     999901    1    3    3    0    0 -0.92642278573E-01 -0.22833025665E-01 -0.55037918746E-01  0.88686702010E+00  0.88000000000E+00 0.  1.
        -11    1    4    4    0    0  0.55206174606E-01  0.10809245760E-01  0.35064478746E-01  0.66289820480E-01  0.51100000000E-03 0. -1.
         11    1    4    4    0    0  0.51538783697E-01  0.29494753451E-01  0.29590118313E-01  0.66347742455E-01  0.51100000000E-03 0.  1.
</event>
<event>
 8    1  0.1154331E+005  0.1043930E+01  0.7957747E-01            NaN
         13   -1    0    0    0    0  0.00000000000E+00  0.00000000000E+00  0.74505805969E-08  0.10566000000E+00  0.10566000000E+00 0. -1.
     999900   -1    0    0    0    0 -0.00000000000E+00 -0.00000000000E+00 -0.74505805969E-08  0.93827000000E+00  0.93827000000E+00 0.  1.
     999902    2    1    2    0    0 -0.27694129890E-01  0.26675999169E-02 -0.51981333737E-02  0.10156262633E+01  0.10152317988E+01 0.  0.
     999903    2    3    3    0    0  0.76115030328E-01  0.20683452995E-01  0.93444999092E-01  0.12386879613E+00  0.19753676339E-01 0.  0.
         14    1    1    2    0    0  0.27694129890E-01 -0.26675999169E-02  0.51981333737E-02  0.28303736684E-01  0.00000000000E+00 0. -1.
     999901    1    3    3    0    0 -0.10380916022E+00 -0.18015853078E-01 -0.98643132465E-01  0.89175746719E+00  0.88000000000E+00 0.  1.
        -11    1    4    4    0    0  0.49363564069E-01  0.35191952053E-02  0.55218397468E-01  0.74151727778E-01  0.51100000000E-03 0.  1.
         11    1    4    4    0    0  0.26751466258E-01  0.17164257789E-01  0.38226601624E-01  0.49717068348E-01  0.51100000000E-03 0. -1.
</event>
<event>
 8    1  0.1146431E+005  0.1043930E+01  0.7957747E-01            NaN
         13   -1    0    0    0    0  0.00000000000E+00  0.00000000000E+00  0.74505805969E-08  0.10566000000E+00  0.10566000000E+00 0.  1.
     999900   -1    0    0    0    0 -0.00000000000E+00 -0.00000000000E+00 -0.74505805969E-08  0.93827000000E+00  0.93827000000E+00 0.  1.
     999902    2    1    2    0    0 -0.14514282881E-01 -0.18784298279E-01  0.35261008662E-02  0.10199310905E+01  0.10196487051E+01 0.  0.
     999903    2    3    3    0    0 -0.11632627146E+00  0.56074931565E-01  0.71323476854E-02  0.13089645096E+00  0.20169558933E-01 0.  0.
         14    1    1    2    0    0  0.14514282881E-01  0.18784298279E-01 -0.35261008662E-02  0.23998909490E-01  0.00000000000E+00 0.  1.
     999901    1    3    3    0    0  0.10181198858E+00 -0.74859229843E-01 -0.36062468192E-02  0.88903463955E+00  0.88000000000E+00 0. -1.
        -11    1    4    4    0    0 -0.50051557275E-01  0.33929709636E-01  0.81063555507E-02  0.61011127698E-01  0.51100000000E-03 0.  1.
         11    1    4    4    0    0 -0.66274714185E-01  0.22145221929E-01 -0.97400786532E-03  0.69885323258E-01  0.51100000000E-03 0. -1.
</event>
<event>
 8    1  0.1146431E+005  0.1043930E+01  0.7957747E-01            NaN
         13   -1    0    0    0    0  0.00000000000E+00  0.00000000000E+00  0.74505805969E-08  0.10566000000E+00  0.10566000000E+00 0. -1.
     999900   -1    0    0    0    0 -0.00000000000E+00 -0.00000000000E+00 -0.74505805969E-08  0.93827000000E+00  0.93827000000E+00 0.  1.
     999902    2    1    2    0    0 -0.14659565416E-01 -0.93313640922E-02 -0.15520052641E-01  0.10206308745E+01  0.10203649018E+01 0.  0.
     999903    2    3    3    0    0 -0.80333479625E-01 -0.10445464164E+00  0.45975699853E-02  0.13284361415E+00  0.16187898637E-01 0.  0.
         14    1    1    2    0    0  0.14659565416E-01  0.93313640922E-02  0.15520052641E-01  0.23299125477E-01  0.00000000000E+00 0.  1.
     999901    1    3    3    0    0  0.65673914209E-01  0.95123277546E-01 -0.20117622627E-01  0.88778726037E+00  0.88000000000E+00 0.  1.
        -11    1    4    4    0    0 -0.25663636437E-01 -0.32015002046E-01  0.88903216701E-02  0.41986682788E-01  0.51100000000E-03 0.  1.
         11    1    4    4    0    0 -0.54669843189E-01 -0.72439639593E-01 -0.42927516848E-02  0.90856931363E-01  0.51100000000E-03 0. -1.
</event>
<event>
 8    1  0.1146431E+005  0.1043930E+01  0.7957747E-01            NaN
         13   -1    0    0    0    0  0.00000000000E+00  0.00000000000E+00  0.74505805969E-08  0.10566000000E+00  0.10566000000E+00 0.  1.
     999900   -1    0    0    0    0 -0.00000000000E+00 -0.00000000000E+00 -0.74505805969E-08  0.93827000000E+00  0.93827000000E+00 0.  1.
     999902    2    1    2    0    0  0.41002036914E-02  0.11721534546E-01 -0.13640479170E-01  0.10254836260E+01  0.10253177061E+01 0.  0.
     999903    2    3    3    0    0  0.15500924998E-01  0.13260689330E+00 -0.23896610250E-01  0.13708707340E+00  0.19923626324E-01 0.  0.
         14    1    1    2    0    0 -0.41002036914E-02 -0.11721534546E-01  0.13640479170E-01  0.18446374018E-01  0.00000000000E+00 0.  1.
     999901    1    3    3    0    0 -0.11400721306E-01 -0.12088535876E+00  0.10256131080E-01  0.88839655258E+00  0.88000000000E+00 0. -1.
        -11    1    4    4    0    0  0.81351751893E-02  0.48406259217E-01  0.57822852964E-03  0.49091164948E-01  0.51100000000E-03 0.  1.
         11    1    4    4    0    0  0.73657498082E-02  0.84200634086E-01 -0.24474838780E-01  0.87995908456E-01  0.51100000000E-03 0. -1.
</event>
<event>
 8    1  0.1146431E+005  0.1043930E+01  0.7957747E-01            NaN
         13   -1    0    0    0    0  0.00000000000E+00  0.00000000000E+00  0.74505805969E-08  0.10566000000E+00  0.10566000000E+00 0. -1.
     999900   -1    0    0    0    0 -0.00000000000E+00 -0.00000000000E+00 -0.74505805969E-08  0.93827000000E+00  0.93827000000E+00 0. -1.
     999902    2    1    2    0    0  0.69676713784E-02  0.10106447633E-01 -0.20402436618E-01  0.10201193270E+01  0.10198414059E+01 0.  0.
     999903    2    3    3    0    0 -0.89532271662E-01  0.86102521751E-01  0.32769526319E-01  0.12999860490E+00  0.19902851559E-01 0.  0.
         14    1    1    2    0    0 -0.69676713784E-02 -0.10106447633E-01  0.20402436618E-01  0.23810672988E-01  0.00000000000E+00 0. -1.
     999901    1    3    3    0    0  0.96499943041E-01 -0.75996074118E-01 -0.53171962938E-01  0.89012072211E+00  0.88000000000E+00 0. -1.
        -11    1    4    4    0    0 -0.57477298488E-01  0.63595827462E-01  0.15163461809E-01  0.87053206759E-01  0.51100000000E-03 0. -1.
         11    1    4    4    0    0 -0.32054973174E-01  0.22506694289E-01  0.17606064510E-01  0.42945398142E-01  0.51100000000E-03 0.  1.
</event>
<event>
 8    1  0.1146431E+005  0.1043930E+01  0.7957747E-01            NaN
         13   -1    0    0    0    0  0.00000000000E+00  0.00000000000E+00  0.74505805969E-08  0.10566000000E+00  0.10566000000E+00 0. -1.
     999900   -1    0    0    0    0 -0.00000000000E+00 -0.00000000000E+00 -0.74505805969E-08  0.93827000000E+00  0.93827000000E+00 0.  1.
     999902    2    1    2    0    0  0.16477175971E-01 -0.17192887874E-01 -0.84843283305E-02  0.10186500366E+01  0.10183363003E+01 0.  0.
     999903    2    3    3    0    0 -0.27887746845E-01 -0.37778699207E-01  0.11751792358E+00  0.12833066162E+00  0.21291778038E-01 0.  0.
         14    1    1    2    0    0 -0.16477175971E-01  0.17192887874E-01  0.84843283305E-02  0.25279963383E-01  0.00000000000E+00 0. -1.
     999901    1    3    3    0    0  0.44364922816E-01  0.20585811333E-01 -0.12600225191E+00  0.89031937499E+00  0.88000000000E+00 0.  1.
        -11    1    4    4    0    0  0.18045926706E-02 -0.10165051170E-01  0.33131751252E-01  0.34706755567E-01  0.51100000000E-03 0. -1.
         11    1    4    4    0    0 -0.29692339515E-01 -0.27613648037E-01  0.84386172328E-01  0.93623906054E-01  0.51100000000E-03 0.  1.
</event>
<event>
 8    1  0.1146431E+005  0.1043930E+01  0.7957747E-01            NaN
         13   -1    0    0    0    0  0.00000000000E+00  0.00000000000E+00  0.74505805969E-08  0.10566000000E+00  0.10566000000E+00 0. -1.
     999900   -1    0    0    0    0 -0.00000000000E+00 -0.00000000000E+00 -0.74505805969E-08  0.93827000000E+00  0.93827000000E+00 0. -1.
     999902    2    1    2    0    0  0.16716013079E-01 -0.14952815439E-01 -0.66604647649E-02  0.10205339838E+01  0.10202657686E+01 0.  0.
     999903    2    3    3    0    0  0.13099485280E+00 -0.12921392910E-01  0.10496135512E-02  0.13310893052E+00  0.19755299109E-01 0.  0.
         14    1    1    2    0    0 -0.16716013079E-01  0.14952815439E-01  0.66604647649E-02  0.23396016193E-01  0.00000000000E+00 0. -1.
     999901    1    3    3    0    0 -0.11427883972E+00 -0.20314225293E-02 -0.77100783161E-02  0.88742505328E+00  0.88000000000E+00 0. -1.
        -11    1    4    4    0    0  0.89656109348E-01 -0.51577792578E-02  0.91527661144E-02  0.90271007964E-01  0.51100000000E-03 0. -1.
         11    1    4    4    0    0  0.41338743448E-01 -0.77636136521E-02 -0.81031525632E-02  0.42837922560E-01  0.51100000000E-03 0.  1.
</event>
<event>
 8    1  0.1146431E+005  0.1043930E+01  0.7957747E-01            NaN
         13   -1    0    0    0    0  0.00000000000E+00  0.00000000000E+00  0.74505805969E-08  0.10566000000E+00  0.10566000000E+00 0.  1.
     999900   -1    0    0    0    0 -0.00000000000E+00 -0.00000000000E+00 -0.74505805969E-08  0.93827000000E+00  0.93827000000E+00 0.  1.
     999902    2    1    2    0    0  0.14697518890E-01  0.16672311155E-01 -0.68099712788E-02  0.10206843826E+01  0.10204196441E+01 0.  0.
     999903    2    3    3    0    0  0.83686312877E-02  0.15704827749E-01  0.12762887946E+00  0.13045138193E+00  0.20291785777E-01 0.  0.
         14    1    1    2    0    0 -0.14697518890E-01 -0.16672311155E-01  0.68099712788E-02  0.23245617428E-01  0.00000000000E+00 0.  1.
     999901    1    3    3    0    0  0.63288876025E-02  0.96748340562E-03 -0.13443885074E+00  0.89023300064E+00  0.88000000000E+00 0.  1.
        -11    1    4    4    0    0  0.94858667315E-02  0.30219573613E-02  0.23241475242E-01  0.25289151555E-01  0.51100000000E-03 0.  1.
         11    1    4    4    0    0 -0.11172354437E-02  0.12682870388E-01  0.10438740422E+00  0.10516223038E+00  0.51100000000E-03 0. -1.
</event>
<event>
 8    1  0.1146431E+005  0.1043930E+01  0.7957747E-01            NaN
         13   -1    0    0    0    0  0.00000000000E+00  0.00000000000E+00  0.74505805969E-08  0.10566000000E+00  0.10566000000E+00 0. -1.
     999900   -1    0    0    0    0 -0.00000000000E+00 -0.00000000000E+00 -0.74505805969E-08  0.93827000000E+00  0.93827000000E+00 0. -1.
     999902    2    1    2    0    0  0.37757561497E-02  0.22267330260E-01  0.25404410633E-02  0.10212023919E+01  0.10209494507E+01 0.  0.
     999903    2    3    3    0    0 -0.52396838545E-01 -0.76913672280E-01  0.87930200971E-01  0.12975208883E+00  0.21041450514E-01 0.  0.
         14    1    1    2    0    0 -0.37757561497E-02 -0.22267330260E-01 -0.25404410633E-02  0.22727608150E-01  0.00000000000E+00 0.  1.
     999901    1    3    3    0    0  0.56172594694E-01  0.99181002540E-01 -0.85389759907E-01  0.89145030302E+00  0.88000000000E+00 0. -1.
        -11    1    4    4    0    0 -0.33678475392E-01 -0.43341302471E-01  0.64657183996E-01  0.84814625908E-01  0.51100000000E-03 0.  1.
         11    1    4    4    0    0 -0.18718363152E-01 -0.33572369809E-01  0.23273016975E-01  0.44937462921E-01  0.51100000000E-03 0. -1.
</event>
<event>
 8    1  0.1146431E+005  0.1043930E+01  0.7957747E-01            NaN
         13   -1    0    0    0    0  0.00000000000E+00  0.00000000000E+00  0.74505805969E-08  0.10566000000E+00  0.10566000000E+00 0. -1.
     999900   -1    0    0    0    0 -0.00000000000E+00 -0.00000000000E+00 -0.74505805969E-08  0.93827000000E+00  0.93827000000E+00 0.  1.
     999902    2    1    2    0    0  0.14166645519E-01 -0.91225546433E-02 -0.16187365666E-01  0.10205645200E+01  0.10202970126E+01 0.  0.
     999903    2    3    3    0    0  0.65114431694E-02  0.97387509677E-01  0.81731388993E-01  0.12871751606E+00  0.19011918902E-01 0.  0.
         14    1    1    2    0    0 -0.14166645519E-01  0.91225546433E-02  0.16187365666E-01  0.23365480001E-01  0.00000000000E+00 0. -1.
     999901    1    3    3    0    0  0.76552023493E-02 -0.10651006432E+00 -0.97918754659E-01  0.89184700394E+00  0.88000000000E+00 0.  1.
        -11    1    4    4    0    0  0.62886113313E-02  0.93431957327E-02  0.73506011884E-02  0.13458617975E-01  0.51100000000E-03 0. -1.
         11    1    4    4    0    0  0.22283183813E-03  0.88044313944E-01  0.74380787804E-01  0.11525889808E+00  0.51100000000E-03 0.  1.
</event>
<event>
 8    1  0.1146431E+005  0.1043930E+01  0.7957747E-01            NaN
         13   -1    0    0    0    0  0.00000000000E+00  0.00000000000E+00  0.74505805969E-08  0.10566000000E+00  0.10566000000E+00 0.  1.
     999900   -1    0    0    0    0 -0.00000000000E+00 -0.00000000000E+00 -0.74505805969E-08  0.93827000000E+00  0.93827000000E+00 0.  1.
     999902    2    1    2    0    0  0.99552397790E-02  0.89106731210E-02  0.19680879850E-01  0.10201425259E+01  0.10198651524E+01 0.  0.
     999903    2    3    3    0    0 -0.23962365114E-01  0.67055747357E-01  0.11043955767E+00  0.13291741847E+00  0.19986896685E-01 0.  0.
         14    1    1    2    0    0 -0.99552397790E-02 -0.89106731210E-02 -0.19680879850E-01  0.23787474145E-01  0.00000000000E+00 0. -1.
     999901    1    3    3    0    0  0.33917604893E-01 -0.58145074236E-01 -0.90758677816E-01  0.88722510739E+00  0.88000000000E+00 0. -1.
        -11    1    4    4    0    0 -0.54588637608E-02  0.14574505256E-01  0.41463954502E-01  0.44291489487E-01  0.51100000000E-03 0.  1.
         11    1    4    4    0    0 -0.18503501354E-01  0.52481242102E-01  0.68975603164E-01  0.88625928981E-01  0.51100000000E-03 0. -1.
</event>
<event>
 8    1  0.1146431E+005  0.1043930E+01  0.7957747E-01            NaN
         13   -1    0    0    0    0  0.00000000000E+00  0.00000000000E+00  0.74505805969E-08  0.10566000000E+00  0.10566000000E+00 0.  1.
     999900   -1    0    0    0    0 -0.00000000000E+00 -0.00000000000E+00 -0.74505805969E-08  0.93827000000E+00  0.93827000000E+00 0.  1.
     999902    2    1    2    0    0  0.40672672355E-02 -0.93118411723E-02 -0.21160841325E-01  0.10204558812E+01  0.10201858513E+01 0.  0.
     999903    2    3    3    0    0 -0.21882149201E-01  0.56178403262E-01  0.11082750076E+00  0.12782870997E+00  0.20557303411E-01 0.  0.
         14    1    1    2    0    0 -0.40672672355E-02  0.93118411723E-02  0.21160841325E-01  0.23474118820E-01  0.00000000000E+00 0.  1.
     999901    1    3    3    0    0  0.25949416437E-01 -0.65490244434E-01 -0.13198834208E+00  0.89262717121E+00  0.88000000000E+00 0.  1.
        -11    1    4    4    0    0 -0.13889728461E-01  0.26541333004E-01  0.74301279760E-01  0.80114344592E-01  0.51100000000E-03 0. -1.
         11    1    4    4    0    0 -0.79924207401E-02  0.29637070258E-01  0.36526220995E-01  0.47714365383E-01  0.51100000000E-03 0.  1.
</event>
<event>
 8    1  0.1146431E+005  0.1043930E+01  0.7957747E-01            NaN
         13   -1    0    0    0    0  0.00000000000E+00  0.00000000000E+00  0.74505805969E-08  0.10566000000E+00  0.10566000000E+00 0.  1.
     999900   -1    0    0    0    0 -0.00000000000E+00 -0.00000000000E+00 -0.74505805969E-08  0.93827000000E+00  0.93827000000E+00 0. -1.
     999902    2    1    2    0    0  0.15430486273E-01 -0.17577483452E-01 -0.59501899193E-02  0.10197955311E+01  0.10195099080E+01 0.  0.
     999903    2    3    3    0    0 -0.65295497593E-01  0.84336032896E-01  0.66551950796E-01  0.12729364888E+00  0.19961022997E-01 0.  0.
         14    1    1    2    0    0 -0.15430486273E-01  0.17577483452E-01  0.59501899193E-02  0.24134468944E-01  0.00000000000E+00 0.  1.
     999901    1    3    3    0    0  0.80725983866E-01 -0.10191351635E+00 -0.72502140716E-01  0.89250188218E+00  0.88000000000E+00 0. -1.
        -11    1    4    4    0    0 -0.47466001437E-01  0.55118516040E-01  0.54898114334E-01  0.91132519889E-01  0.51100000000E-03 0. -1.
         11    1    4    4    0    0 -0.17829496156E-01  0.29217516856E-01  0.11653836462E-01  0.36161128988E-01  0.51100000000E-03 0.  1.
</event>
<event>
 8    1  0.1146431E+005  0.1043930E+01  0.7957747E-01            NaN
         13   -1    0    0    0    0  0.00000000000E+00  0.00000000000E+00  0.74505805969E-08  0.10566000000E+00  0.10566000000E+00 0. -1.
     999900   -1    0    0    0    0 -0.00000000000E+00 -0.00000000000E+00 -0.74505805969E-08  0.93827000000E+00  0.93827000000E+00 0. -1.
     999902    2    1    2    0    0  0.19555017419E-01 -0.12159207561E-01 -0.82565754612E-02  0.10194674557E+01  0.10191739190E+01 0.  0.
     999903    2    3    3    0    0 -0.70135020597E-01 -0.94081062699E-01 -0.52227571341E-01  0.13003564734E+00  0.20282576206E-01 0.  0.
         14    1    1    2    0    0 -0.19555017419E-01  0.12159207561E-01  0.82565754612E-02  0.24462544289E-01  0.00000000000E+00 0.  1.
     999901    1    3    3    0    0  0.89690038015E-01  0.81921855138E-01  0.43970995880E-01  0.88943180837E+00  0.88000000000E+00 0. -1.
        -11    1    4    4    0    0 -0.59315554510E-01 -0.89393223453E-01 -0.46952004043E-01  0.11710779313E+00  0.51100000000E-03 0. -1.
         11    1    4    4    0    0 -0.10819466086E-01 -0.46878392459E-02 -0.52755672978E-02  0.12927854211E-01  0.51100000000E-03 0.  1.
</event>
<event>
 8    1  0.1146431E+005  0.1043930E+01  0.7957747E-01            NaN
         13   -1    0    0    0    0  0.00000000000E+00  0.00000000000E+00  0.74505805969E-08  0.10566000000E+00  0.10566000000E+00 0.  1.
     999900   -1    0    0    0    0 -0.00000000000E+00 -0.00000000000E+00 -0.74505805969E-08  0.93827000000E+00  0.93827000000E+00 0.  1.
     999902    2    1    2    0    0 -0.13792729086E-01 -0.17233033524E-01  0.74108697496E-02  0.10206461470E+01  0.10203805269E+01 0.  0.
     999903    2    3    3    0    0  0.95716333947E-03  0.12496761039E+00  0.25561526297E-01  0.12892420111E+00  0.18714651884E-01 0.  0.
         14    1    1    2    0    0  0.13792729086E-01  0.17233033524E-01 -0.74108697496E-02  0.23283853000E-01  0.00000000000E+00 0. -1.
     999901    1    3    3    0    0 -0.14749892425E-01 -0.14220064392E+00 -0.18150656547E-01  0.89172194589E+00  0.88000000000E+00 0.  1.
        -11    1    4    4    0    0 -0.26253224174E-02  0.92554380591E-01  0.11130708580E-01  0.93259634778E-01  0.51100000000E-03 0. -1.
         11    1    4    4    0    0  0.35824857568E-02  0.32413229802E-01  0.14430817717E-01  0.35664566328E-01  0.51100000000E-03 0.  1.
</event>
<event>
 8    1  0.1146431E+005  0.1043930E+01  0.7957747E-01            NaN
         13   -1    0    0    0    0  0.00000000000E+00  0.00000000000E+00  0.74505805969E-08  0.10566000000E+00  0.10566000000E+00 0.  1.
     999900   -1    0    0    0    0 -0.00000000000E+00 -0.00000000000E+00 -0.74505805969E-08  0.93827000000E+00  0.93827000000E+00 0.  1.
     999902    2    1    2    0    0  0.53825413537E-02  0.22603849693E-01 -0.14299371283E-02  0.10206501698E+01  0.10203846425E+01 0.  0.
     999903    2    3    3    0    0 -0.27988663647E-01 -0.85375144104E-01 -0.90371689094E-01  0.12897548943E+00  0.19883514813E-01 0.  0.
         14    1    1    2    0    0 -0.53825413537E-02 -0.22603849693E-01  0.14299371283E-02  0.23279830166E-01  0.00000000000E+00 0.  1.
     999901    1    3    3    0    0  0.33371205000E-01  0.10797899380E+00  0.88941751966E-01  0.89167468040E+00  0.88000000000E+00 0. -1.
        -11    1    4    4    0    0 -0.69014340050E-02 -0.52514117451E-01 -0.52551686329E-01  0.74614363094E-01  0.51100000000E-03 0.  1.
         11    1    4    4    0    0 -0.21087229642E-01 -0.32861026653E-01 -0.37820002766E-01  0.54361126339E-01  0.51100000000E-03 0. -1.
</event>
<event>
 8    1  0.1146431E+005  0.1043930E+01  0.7957747E-01            NaN
         13   -1    0    0    0    0  0.00000000000E+00  0.00000000000E+00  0.74505805969E-08  0.10566000000E+00  0.10566000000E+00 0.  1.
     999900   -1    0    0    0    0 -0.00000000000E+00 -0.00000000000E+00 -0.74505805969E-08  0.93827000000E+00  0.93827000000E+00 0. -1.
     999902    2    1    2    0    0  0.16229668182E-01  0.14534113278E-01  0.87095405399E-02  0.10204672918E+01  0.10201975275E+01 0.  0.
     999903    2    3    3    0    0 -0.65470078510E-01  0.10493832887E+00  0.39040653999E-01  0.13155348991E+00  0.21994635664E-01 0.  0.
         14    1    1    2    0    0 -0.16229668182E-01 -0.14534113278E-01 -0.87095405399E-02  0.23462708166E-01  0.00000000000E+00 0. -1.
     999901    1    3    3    0    0  0.81699746691E-01 -0.90404215587E-01 -0.30331113459E-01  0.88891380192E+00  0.88000000000E+00 0.  1.
        -11    1    4    4    0    0 -0.40245622430E-01  0.50362151619E-01  0.11781534674E-01  0.65537181209E-01  0.51100000000E-03 0.  1.
         11    1    4    4    0    0 -0.25224456079E-01  0.54576177246E-01  0.27259119325E-01  0.66016308702E-01  0.51100000000E-03 0. -1.
</event>
<event>
 8    1  0.1146431E+005  0.1043930E+01  0.7957747E-01            NaN
         13   -1    0    0    0    0  0.00000000000E+00  0.00000000000E+00  0.74505805969E-08  0.10566000000E+00  0.10566000000E+00 0.  1.
     999900   -1    0    0    0    0 -0.00000000000E+00 -0.00000000000E+00 -0.74505805969E-08  0.93827000000E+00  0.93827000000E+00 0.  1.
     999902    2    1    2    0    0  0.63481129279E-02 -0.21160360366E-01 -0.19798246569E-01  0.10142647012E+01  0.10138307818E+01 0.  0.
     999903    2    3    3    0    0 -0.97278371297E-01  0.55053513814E-01 -0.50458718217E-01  0.12438433426E+00  0.20770398662E-01 0.  0.
         14    1    1    2    0    0 -0.63481129279E-02  0.21160360366E-01  0.19798246569E-01  0.29665298848E-01  0.00000000000E+00 0. -1.
     999901    1    3    3    0    0  0.10362648423E+00 -0.76213874181E-01  0.30660471648E-01  0.88988036689E+00  0.88000000000E+00 0. -1.
        -11    1    4    4    0    0 -0.66924677522E-01  0.47487085579E-01 -0.32156940609E-01  0.88137765507E-01  0.51100000000E-03 0.  1.
         11    1    4    4    0    0 -0.30353693775E-01  0.75664282354E-02 -0.18301777607E-01  0.36246568757E-01  0.51100000000E-03 0. -1.
</event>
<event>
 8    1  0.1146431E+005  0.1043930E+01  0.7957747E-01            NaN
         13   -1    0    0    0    0  0.00000000000E+00  0.00000000000E+00  0.74505805969E-08  0.10566000000E+00  0.10566000000E+00 0.  1.
     999900   -1    0    0    0    0 -0.00000000000E+00 -0.00000000000E+00 -0.74505805969E-08  0.93827000000E+00  0.93827000000E+00 0.  1.
     999902    2    1    2    0    0 -0.15594643697E-01  0.12248169516E-01  0.11637868264E-01  0.10209375981E+01  0.10206786608E+01 0.  0.
     999903    2    3    3    0    0 -0.38399291825E-01 -0.56633319808E-01  0.11216481870E+00  0.13224733746E+00  0.15052348154E-01 0.  0.
         14    1    1    2    0    0  0.15594643697E-01 -0.12248169516E-01 -0.11637868264E-01  0.22992401925E-01  0.00000000000E+00 0. -1.
     999901    1    3    3    0    0  0.22804648128E-01  0.68881489324E-01 -0.10052695044E+00  0.88869026062E+00  0.88000000000E+00 0.  1.
        -11    1    4    4    0    0 -0.26972795221E-01 -0.47389361377E-01  0.79269709500E-01  0.96214506281E-01  0.51100000000E-03 0. -1.
         11    1    4    4    0    0 -0.11426496604E-01 -0.92439584307E-02  0.32895109205E-01  0.36032831178E-01  0.51100000000E-03 0.  1.
</event>
<event>
 8    1  0.1146431E+005  0.1043930E+01  0.7957747E-01            NaN
         13   -1    0    0    0    0  0.00000000000E+00  0.00000000000E+00  0.74505805969E-08  0.10566000000E+00  0.10566000000E+00 0. -1.
     999900   -1    0    0    0    0 -0.00000000000E+00 -0.00000000000E+00 -0.74505805969E-08  0.93827000000E+00  0.93827000000E+00 0.  1.
     999902    2    1    2    0    0 -0.48551718555E-02  0.11187304235E-01  0.21228261178E-01  0.10194480160E+01  0.10191540069E+01 0.  0.
     999903    2    3    3    0    0 -0.71445112171E-01  0.49241653740E-02 -0.10419647095E+00  0.12804192978E+00  0.20228192333E-01 0.  0.
         14    1    1    2    0    0  0.48551718555E-02 -0.11187304235E-01 -0.21228261178E-01  0.24481984038E-01  0.00000000000E+00 0.  1.
     999901    1    3    3    0    0  0.66589940315E-01  0.62631388612E-02  0.12542473213E+00  0.89140608619E+00  0.88000000000E+00 0. -1.
        -11    1    4    4    0    0 -0.34788312544E-01 -0.70917961893E-02 -0.43941794171E-01  0.56494802051E-01  0.51100000000E-03 0. -1.
         11    1    4    4    0    0 -0.36656799627E-01  0.12015961563E-01 -0.60254676777E-01  0.71547127725E-01  0.51100000000E-03 0.  1.
</event>
<event>
 8    1  0.1146431E+005  0.1043930E+01  0.7957747E-01            NaN
         13   -1    0    0    0    0  0.00000000000E+00  0.00000000000E+00  0.74505805969E-08  0.10566000000E+00  0.10566000000E+00 0.  1.
     999900   -1    0    0    0    0 -0.00000000000E+00 -0.00000000000E+00 -0.74505805969E-08  0.93827000000E+00  0.93827000000E+00 0.  1.
     999902    2    1    2    0    0 -0.10184567225E-01 -0.18105227692E-01 -0.14676027430E-01  0.10184955655E+01  0.10181779345E+01 0.  0.
     999903    2    3    3    0    0  0.25955973103E-01  0.94188632222E-01 -0.79328119474E-01  0.12827315357E+00  0.24816131988E-01 0.  0.
         14    1    1    2    0    0  0.10184567225E-01  0.18105227692E-01  0.14676027430E-01  0.25434434542E-01  0.00000000000E+00 0.  1.
     999901    1    3    3    0    0 -0.36140540328E-01 -0.11229385991E+00  0.64652092044E-01  0.89022241189E+00  0.88000000000E+00 0. -1.
        -11    1    4    4    0    0  0.15119423954E-01  0.83087975541E-01 -0.72546134758E-01  0.11133468215E+00  0.51100000000E-03 0. -1.
         11    1    4    4    0    0  0.10836549149E-01  0.11100656681E-01 -0.67819847161E-02  0.16938471415E-01  0.51100000000E-03 0.  1.
</event>
<event>
 8    1  0.1146431E+005  0.1043930E+01  0.7957747E-01            NaN
         13   -1    0    0    0    0  0.00000000000E+00  0.00000000000E+00  0.74505805969E-08  0.10566000000E+00  0.10566000000E+00 0.  1.
     999900   -1    0    0    0    0 -0.00000000000E+00 -0.00000000000E+00 -0.74505805969E-08  0.93827000000E+00  0.93827000000E+00 0.  1.
     999902    2    1    2    0    0 -0.13314583693E-01 -0.27583218238E-02  0.29272533819E-01  0.10116535734E+01  0.10111385587E+01 0.  0.
     999903    2    3    3    0    0 -0.12215476178E+00 -0.14850519907E-01  0.42725038373E-02  0.12451355788E+00  0.18521556088E-01 0.  0.
         14    1    1    2    0    0  0.13314583693E-01  0.27583218238E-02 -0.29272533819E-01  0.32276426604E-01  0.00000000000E+00 0. -1.
     999901    1    3    3    0    0  0.10884017809E+00  0.12092198083E-01  0.25000029981E-01  0.88714001551E+00  0.88000000000E+00 0. -1.
        -11    1    4    4    0    0 -0.24938964388E-01 -0.33849997523E-02  0.83952929693E-02  0.26535866918E-01  0.51100000000E-03 0. -1.
         11    1    4    4    0    0 -0.97215797396E-01 -0.11465520154E-01 -0.41227891320E-02  0.97977690966E-01  0.51100000000E-03 0.  1.
</event>
<event>
 8    1  0.1146431E+005  0.1043930E+01  0.7957747E-01            NaN
         13   -1    0    0    0    0  0.00000000000E+00  0.00000000000E+00  0.74505805969E-08  0.10566000000E+00  0.10566000000E+00 0. -1.
     999900   -1    0    0    0    0 -0.00000000000E+00 -0.00000000000E+00 -0.74505805969E-08  0.93827000000E+00  0.93827000000E+00 0.  1.
     999902    2    1    2    0    0  0.15772437504E-01  0.15753859892E-01  0.52153961742E-02  0.10210355849E+01  0.10207788749E+01 0.  0.
     999903    2    3    3    0    0 -0.11749647163E+00 -0.45649471011E-01  0.17906944017E-01  0.12879568072E+00  0.19451829766E-01 0.  0.
         14    1    1    2    0    0 -0.15772437504E-01 -0.15753859892E-01 -0.52153961742E-02  0.22894415117E-01  0.00000000000E+00 0.  1.
     999901    1    3    3    0    0  0.13326890913E+00  0.61403330903E-01 -0.12691547843E-01  0.89223990416E+00  0.88000000000E+00 0.  1.
        -11    1    4    4    0    0 -0.76235049803E-01 -0.21461950863E-01  0.16743119162E-01  0.80950548569E-01  0.51100000000E-03 0. -1.
         11    1    4    4    0    0 -0.41261421822E-01 -0.24187520147E-01  0.11638248549E-02  0.47845132156E-01  0.51100000000E-03 0.  1.
</event>
<event>
 8    1  0.1146431E+005  0.1043930E+01  0.7957747E-01            NaN
         13   -1    0    0    0    0  0.00000000000E+00  0.00000000000E+00  0.74505805969E-08  0.10566000000E+00  0.10566000000E+00 0.  1.
     999900   -1    0    0    0    0 -0.00000000000E+00 -0.00000000000E+00 -0.74505805969E-08  0.93827000000E+00  0.93827000000E+00 0. -1.
     999902    2    1    2    0    0 -0.11044474434E-01  0.10969244925E-01  0.15883604299E-01  0.10216905388E+01  0.10214484634E+01 0.  0.
     999903    2    3    3    0    0 -0.87739698840E-01 -0.94189247174E-01  0.21981243406E-01  0.13209644758E+00  0.19910483787E-01 0.  0.
         14    1    1    2    0    0  0.11044474434E-01 -0.10969244925E-01 -0.15883604299E-01  0.22239461218E-01  0.00000000000E+00 0.  1.
     999901    1    3    3    0    0  0.76695224406E-01  0.10515849210E+00 -0.60976391065E-02  0.88959409121E+00  0.88000000000E+00 0. -1.
        -11    1    4    4    0    0 -0.47960922524E-01 -0.54234074354E-01  0.22150873488E-01  0.75713322656E-01  0.51100000000E-03 0.  1.
         11    1    4    4    0    0 -0.39778776316E-01 -0.39955172820E-01 -0.16963008174E-03  0.56383124919E-01  0.51100000000E-03 0. -1.
</event>
<event>
 8    1  0.1146431E+005  0.1043930E+01  0.7957747E-01            NaN
         13   -1    0    0    0    0  0.00000000000E+00  0.00000000000E+00  0.74505805969E-08  0.10566000000E+00  0.10566000000E+00 0. -1.
     999900   -1    0    0    0    0 -0.00000000000E+00 -0.00000000000E+00 -0.74505805969E-08  0.93827000000E+00  0.93827000000E+00 0. -1.
     999902    2    1    2    0    0  0.16170704792E-01 -0.13857828149E-01  0.96762266121E-02  0.10205385388E+01  0.10202704292E+01 0.  0.
     999903    2    3    3    0    0 -0.21919147433E-01 -0.80801147355E-01 -0.98155646304E-01  0.13061721778E+00  0.20421856964E-01 0.  0.
         14    1    1    2    0    0 -0.16170704792E-01  0.13857828149E-01 -0.96762266121E-02  0.23391461176E-01  0.00000000000E+00 0. -1.
     999901    1    3    3    0    0  0.38089852225E-01  0.66943319205E-01  0.10783187292E+00  0.88992132104E+00  0.88000000000E+00 0.  1.
        -11    1    4    4    0    0 -0.50395556517E-02 -0.33020427327E-01 -0.25467525247E-01  0.42007162547E-01  0.51100000000E-03 0.  1.
         11    1    4    4    0    0 -0.16879591782E-01 -0.47780720027E-01 -0.72688121057E-01  0.88610055235E-01  0.51100000000E-03 0. -1.
</event>
<event>
 8    1  0.1146431E+005  0.1043930E+01  0.7957747E-01            NaN
         13   -1    0    0    0    0  0.00000000000E+00  0.00000000000E+00  0.74505805969E-08  0.10566000000E+00  0.10566000000E+00 0. -1.
     999900   -1    0    0    0    0 -0.00000000000E+00 -0.00000000000E+00 -0.74505805969E-08  0.93827000000E+00  0.93827000000E+00 0.  1.
     999902    2    1    2    0    0 -0.18070616687E-01 -0.14372948134E-01  0.48201879490E-02  0.10203426509E+01  0.10200699791E+01 0.  0.
     999903    2    3    3    0    0  0.45356198973E-02  0.81151902984E-01  0.98934463200E-01  0.12989695581E+00  0.21885792498E-01 0.  0.
         14    1    1    2    0    0  0.18070616687E-01  0.14372948134E-01 -0.48201879490E-02  0.23587349096E-01  0.00000000000E+00 0. -1.
     999901    1    3    3    0    0 -0.22606236584E-01 -0.95524851118E-01 -0.94114275251E-01  0.89044569510E+00  0.88000000000E+00 0.  1.
        -11    1    4    4    0    0 -0.85893805050E-03  0.34264098877E-01  0.26006825994E-01  0.43027693009E-01  0.51100000000E-03 0.  1.
         11    1    4    4    0    0  0.53945579478E-02  0.46887804107E-01  0.72927637206E-01  0.86869262797E-01  0.51100000000E-03 0. -1.
</event>
<event>
 8    1  0.1146431E+005  0.1043930E+01  0.7957747E-01            NaN
         13   -1    0    0    0    0  0.00000000000E+00  0.00000000000E+00  0.74505805969E-08  0.10566000000E+00  0.10566000000E+00 0. -1.
     999900   -1    0    0    0    0 -0.00000000000E+00 -0.00000000000E+00 -0.74505805969E-08  0.93827000000E+00  0.93827000000E+00 0. -1.
     999902    2    1    2    0    0  0.23832030338E-01 -0.11359108287E-02 -0.86739055803E-03  0.10200551528E+01  0.10197757138E+01 0.  0.
     999903    2    3    3    0    0 -0.86786194781E-01  0.59332679725E-01  0.70436585449E-01  0.12821598613E+00  0.20635310561E-01 0.  0.
         14    1    1    2    0    0 -0.23832030338E-01  0.11359108287E-02  0.86739055803E-03  0.23874847221E-01  0.00000000000E+00 0. -1.
     999901    1    3    3    0    0  0.11061822512E+00 -0.60468590554E-01 -0.71303976007E-01  0.89183916665E+00  0.88000000000E+00 0. -1.
        -11    1    4    4    0    0 -0.68325367841E-01  0.37460917320E-01  0.45384069179E-01  0.90175667856E-01  0.51100000000E-03 0.  1.
         11    1    4    4    0    0 -0.18460826941E-01  0.21871762405E-01  0.25052516270E-01  0.38040318276E-01  0.51100000000E-03 0. -1.
</event>
<event>
 8    1  0.1146431E+005  0.1043930E+01  0.7957747E-01            NaN
         13   -1    0    0    0    0  0.00000000000E+00  0.00000000000E+00  0.74505805969E-08  0.10566000000E+00  0.10566000000E+00 0. -1.
     999900   -1    0    0    0    0 -0.00000000000E+00 -0.00000000000E+00 -0.74505805969E-08  0.93827000000E+00  0.93827000000E+00 0. -1.
     999902    2    1    2    0    0  0.76394450582E-02 -0.18586924865E-01  0.13503131038E-01  0.10197190635E+01  0.10194316059E+01 0.  0.
     999903    2    3    3    0    0  0.91124213201E-01 -0.30574896480E-01 -0.85556346334E-01  0.13015388996E+00  0.19537147895E-01 0.  0.
         14    1    1    2    0    0 -0.76394450582E-02  0.18586924865E-01 -0.13503131038E-01  0.24210936466E-01  0.00000000000E+00 0.  1.
     999901    1    3    3    0    0 -0.83484768143E-01  0.11987971615E-01  0.99059477372E-01  0.88956517357E+00  0.88000000000E+00 0.  1.
        -11    1    4    4    0    0  0.62261083814E-01 -0.19952543947E-01 -0.45528431639E-01  0.79672114169E-01  0.51100000000E-03 0.  1.
         11    1    4    4    0    0  0.28863129387E-01 -0.10622352533E-01 -0.40027914695E-01  0.50481775793E-01  0.51100000000E-03 0. -1.
</event>
<event>
 8    1  0.1146431E+005  0.1043930E+01  0.7957747E-01            NaN
         13   -1    0    0    0    0  0.00000000000E+00  0.00000000000E+00  0.74505805969E-08  0.10566000000E+00  0.10566000000E+00 0.  1.
     999900   -1    0    0    0    0 -0.00000000000E+00 -0.00000000000E+00 -0.74505805969E-08  0.93827000000E+00  0.93827000000E+00 0.  1.
     999902    2    1    2    0    0 -0.15750050623E-01  0.17468819161E-01  0.31839168155E-02  0.10201947717E+01  0.10199186296E+01 0.  0.
     999903    2    3    3    0    0  0.21924377641E-01 -0.10479332777E+00  0.67622795181E-01  0.12861204182E+00  0.22492109581E-01 0.  0.
         14    1    1    2    0    0  0.15750050623E-01 -0.17468819161E-01 -0.31839168155E-02  0.23735228328E-01  0.00000000000E+00 0. -1.
     999901    1    3    3    0    0 -0.37674428264E-01  0.12226214693E+00 -0.64438878366E-01  0.89158272985E+00  0.88000000000E+00 0.  1.
        -11    1    4    4    0    0  0.17958824445E-01 -0.62283286265E-01  0.28910222541E-01  0.70977385214E-01  0.51100000000E-03 0. -1.
         11    1    4    4    0    0  0.39655531953E-02 -0.42510041507E-01  0.38712572640E-01  0.57634656610E-01  0.51100000000E-03 0.  1.
</event>
<event>
 8    1  0.1146431E+005  0.1043930E+01  0.7957747E-01            NaN
         13   -1    0    0    0    0  0.00000000000E+00  0.00000000000E+00  0.74505805969E-08  0.10566000000E+00  0.10566000000E+00 0.  1.
     999900   -1    0    0    0    0 -0.00000000000E+00 -0.00000000000E+00 -0.74505805969E-08  0.93827000000E+00  0.93827000000E+00 0.  1.
     999902    2    1    2    0    0  0.41186945854E-02 -0.70719690041E-04 -0.30881423200E-01  0.10127750494E+01  0.10122957423E+01 0.  0.
     999903    2    3    3    0    0  0.23654955074E-01 -0.11667084886E+00 -0.31582510660E-01  0.12486866522E+00  0.20569022866E-01 0.  0.
         14    1    1    2    0    0 -0.41186945854E-02  0.70719690041E-04  0.30881423200E-01  0.31154950573E-01  0.00000000000E+00 0.  1.
     999901    1    3    3    0    0 -0.19536260488E-01  0.11660012916E+00  0.70108745987E-03  0.88790638421E+00  0.88000000000E+00 0. -1.
        -11    1    4    4    0    0  0.18041199233E-01 -0.52548174066E-01 -0.22139180940E-01  0.59809697551E-01  0.51100000000E-03 0. -1.
         11    1    4    4    0    0  0.56137558412E-02 -0.64122674789E-01 -0.94433297200E-02  0.65058967667E-01  0.51100000000E-03 0.  1.
</event>
<event>
 8    1  0.1146431E+005  0.1043930E+01  0.7957747E-01            NaN
         13   -1    0    0    0    0  0.00000000000E+00  0.00000000000E+00  0.74505805969E-08  0.10566000000E+00  0.10566000000E+00 0.  1.
     999900   -1    0    0    0    0 -0.00000000000E+00 -0.00000000000E+00 -0.74505805969E-08  0.93827000000E+00  0.93827000000E+00 0. -1.
     999902    2    1    2    0    0  0.23679453897E-01  0.91605848472E-03 -0.32668201506E-02  0.10200087163E+01  0.10197281763E+01 0.  0.
     999903    2    3    3    0    0  0.83336873038E-01  0.21092431813E-01 -0.98325879499E-01  0.13265178785E+00  0.23207609817E-01 0.  0.
         14    1    1    2    0    0 -0.23679453897E-01 -0.91605848472E-03  0.32668201506E-02  0.23921283701E-01  0.00000000000E+00 0.  1.
     999901    1    3    3    0    0 -0.59657419141E-01 -0.20176373329E-01  0.95059059348E-01  0.88735692845E+00  0.88000000000E+00 0.  1.
        -11    1    4    4    0    0  0.72721519627E-01  0.25231475764E-01 -0.79640355126E-01  0.11076052578E+00  0.51100000000E-03 0.  1.
         11    1    4    4    0    0  0.10615353411E-01 -0.41390439507E-02 -0.18685524374E-01  0.21891262069E-01  0.51100000000E-03 0. -1.
</event>
<event>
 8    1  0.1146431E+005  0.1043930E+01  0.7957747E-01            NaN
         13   -1    0    0    0    0  0.00000000000E+00  0.00000000000E+00  0.74505805969E-08  0.10566000000E+00  0.10566000000E+00 0.  1.
     999900   -1    0    0    0    0 -0.00000000000E+00 -0.00000000000E+00 -0.74505805969E-08  0.93827000000E+00  0.93827000000E+00 0. -1.
     999902    2    1    2    0    0  0.23594662857E-01 -0.16422441387E-02 -0.32516666548E-02  0.10200557792E+01  0.10197763551E+01 0.  0.
     999903    2    3    3    0    0  0.61524321228E-01 -0.11465692786E+00 -0.67575792519E-02  0.13201114683E+00  0.21209073568E-01 0.  0.
         14    1    1    2    0    0 -0.23594662857E-01  0.16422441387E-02  0.32516666548E-02  0.23874220766E-01  0.00000000000E+00 0.  1.
     999901    1    3    3    0    0 -0.37929658371E-01  0.11301468372E+00  0.35059125971E-02  0.88804463241E+00  0.88000000000E+00 0. -1.
        -11    1    4    4    0    0  0.37588018726E-01 -0.48844815721E-01 -0.65162500677E-02  0.61979011048E-01  0.51100000000E-03 0. -1.
         11    1    4    4    0    0  0.23936302502E-01 -0.65812112137E-01 -0.24132918418E-03  0.70032135782E-01  0.51100000000E-03 0.  1.
</event>
<event>
 8    1  0.1146431E+005  0.1043930E+01  0.7957747E-01            NaN
         13   -1    0    0    0    0  0.00000000000E+00  0.00000000000E+00  0.74505805969E-08  0.10566000000E+00  0.10566000000E+00 0.  1.
     999900   -1    0    0    0    0 -0.00000000000E+00 -0.00000000000E+00 -0.74505805969E-08  0.93827000000E+00  0.93827000000E+00 0. -1.
     999902    2    1    2    0    0 -0.18448932596E-01 -0.19291317042E-02  0.12717922145E-01  0.10214393307E+01  0.10211916941E+01 0.  0.
     999903    2    3    3    0    0 -0.12654379659E+00 -0.39024874950E-01  0.62083775718E-02  0.13402569095E+00  0.19699455903E-01 0.  0.
         14    1    1    2    0    0  0.18448932596E-01  0.19291317042E-02 -0.12717922145E-01  0.22490669326E-01  0.00000000000E+00 0.  1.
     999901    1    3    3    0    0  0.10809486400E+00  0.37095743245E-01  0.65095445728E-02  0.88741363972E+00  0.88000000000E+00 0. -1.
        -11    1    4    4    0    0 -0.48271428519E-01 -0.19373690989E-01  0.11050310090E-01  0.53177449994E-01  0.51100000000E-03 0. -1.
         11    1    4    4    0    0 -0.78272368073E-01 -0.19651183961E-01 -0.48419325178E-02  0.80848240960E-01  0.51100000000E-03 0.  1.
</event>
<event>
 8    1  0.1146431E+005  0.1043930E+01  0.7957747E-01            NaN
         13   -1    0    0    0    0  0.00000000000E+00  0.00000000000E+00  0.74505805969E-08  0.10566000000E+00  0.10566000000E+00 0. -1.
     999900   -1    0    0    0    0 -0.00000000000E+00 -0.00000000000E+00 -0.74505805969E-08  0.93827000000E+00  0.93827000000E+00 0.  1.
     999902    2    1    2    0    0  0.21952010117E-01  0.92628444281E-02  0.39735075344E-02  0.10197746735E+01  0.10194885507E+01 0.  0.
     999903    2    3    3    0    0  0.62324239649E-01 -0.86848442439E-01 -0.71813484970E-01  0.13038670159E+00  0.20409618485E-01 0.  0.
         14    1    1    2    0    0 -0.21952010117E-01 -0.92628444281E-02 -0.39735075344E-02  0.24155326477E-01  0.00000000000E+00 0.  1.
     999901    1    3    3    0    0 -0.40372229532E-01  0.96111286867E-01  0.75786992505E-01  0.88938797193E+00  0.88000000000E+00 0. -1.
        -11    1    4    4    0    0  0.35863246514E-01 -0.64170991753E-01 -0.43005969079E-01  0.85169613892E-01  0.51100000000E-03 0.  1.
         11    1    4    4    0    0  0.26460993135E-01 -0.22677450687E-01 -0.28807515891E-01  0.45217087701E-01  0.51100000000E-03 0. -1.
</event>
<event>
 8    1  0.1362889E+005  0.1043930E+01  0.7957747E-01            NaN
         13   -1    0    0    0    0  0.00000000000E+00  0.00000000000E+00  0.74505805969E-08  0.10566000000E+00  0.10566000000E+00 0. -1.
     999900   -1    0    0    0    0 -0.00000000000E+00 -0.00000000000E+00 -0.74505805969E-08  0.93827000000E+00  0.93827000000E+00 0.  1.
     999902    2    1    2    0    0 -0.29025273011E-01 -0.38862148282E-02  0.39660622301E-02  0.10143783708E+01  0.10139478193E+01 0.  0.
     999903    2    3    3    0    0  0.11463921822E+00 -0.10835043240E-03 -0.36100155715E-01  0.12182077595E+00  0.19872546808E-01 0.  0.
         14    1    1    2    0    0  0.29025273011E-01  0.38862148282E-02 -0.39660622301E-02  0.29551629205E-01  0.00000000000E+00 0. -1.
     999901    1    3    3    0    0 -0.14366449123E+00 -0.37778643958E-02  0.40066217945E-01  0.89255759485E+00  0.88000000000E+00 0. -1.
        -11    1    4    4    0    0  0.43458361948E-01 -0.81621322367E-03 -0.37556036988E-02  0.43630965007E-01  0.51100000000E-03 0.  1.
         11    1    4    4    0    0  0.71180856268E-01  0.70786279126E-03 -0.32344552017E-01  0.78189810941E-01  0.51100000000E-03 0. -1.
</event>
<event>
 8    1  0.1146431E+005  0.1043930E+01  0.7957747E-01            NaN
         13   -1    0    0    0    0  0.00000000000E+00  0.00000000000E+00  0.74505805969E-08  0.10566000000E+00  0.10566000000E+00 0.  1.
     999900   -1    0    0    0    0 -0.00000000000E+00 -0.00000000000E+00 -0.74505805969E-08  0.93827000000E+00  0.93827000000E+00 0. -1.
     999902    2    1    2    0    0  0.13458313079E-01 -0.19343410848E-01  0.81949363266E-03  0.10203510835E+01  0.10200786089E+01 0.  0.
     999903    2    3    3    0    0  0.61795919316E-01  0.19388838244E-01 -0.11213619115E+00  0.13097169424E+00  0.19606035620E-01 0.  0.
         14    1    1    2    0    0 -0.13458313079E-01  0.19343410848E-01 -0.81949363266E-03  0.23578916514E-01  0.00000000000E+00 0.  1.
     999901    1    3    3    0    0 -0.48337606237E-01 -0.38732249092E-01  0.11295568478E+00  0.88937938925E+00  0.88000000000E+00 0.  1.
        -11    1    4    4    0    0  0.17404225955E-01 -0.92467072379E-03 -0.18819311054E-01  0.25655207787E-01  0.51100000000E-03 0.  1.
         11    1    4    4    0    0  0.44391693361E-01  0.20313508968E-01 -0.93316880097E-01  0.10531648645E+00  0.51100000000E-03 0. -1.
</event>
<event>
 8    1  0.1146431E+005  0.1043930E+01  0.7957747E-01            NaN
         13   -1    0    0    0    0  0.00000000000E+00  0.00000000000E+00  0.74505805969E-08  0.10566000000E+00  0.10566000000E+00 0. -1.
     999900   -1    0    0    0    0 -0.00000000000E+00 -0.00000000000E+00 -0.74505805969E-08  0.93827000000E+00  0.93827000000E+00 0.  1.
     999902    2    1    2    0    0  0.23179333640E-01  0.22653803704E-02 -0.38661328491E-02  0.10203215176E+01  0.10200483513E+01 0.  0.
     999903    2    3    3    0    0  0.10881021301E+00  0.74011509595E-01  0.98706021937E-02  0.13315250756E+00  0.17742476516E-01 0.  0.
         14    1    1    2    0    0 -0.23179333640E-01 -0.22653803704E-02  0.38661328491E-02  0.23608482361E-01  0.00000000000E+00 0. -1.
     999901    1    3    3    0    0 -0.85630879371E-01 -0.71746129225E-01 -0.13736735043E-01  0.88716901008E+00  0.88000000000E+00 0. -1.
        -11    1    4    4    0    0  0.29049956526E-01  0.25349264255E-01 -0.37097942112E-02  0.38736402344E-01  0.51100000000E-03 0. -1.
         11    1    4    4    0    0  0.79760256484E-01  0.48662245340E-01  0.13580396405E-01  0.94416105212E-01  0.51100000000E-03 0.  1.
</event>
<event>
 8    1  0.1146431E+005  0.1043930E+01  0.7957747E-01            NaN
         13   -1    0    0    0    0  0.00000000000E+00  0.00000000000E+00  0.74505805969E-08  0.10566000000E+00  0.10566000000E+00 0. -1.
     999900   -1    0    0    0    0 -0.00000000000E+00 -0.00000000000E+00 -0.74505805969E-08  0.93827000000E+00  0.93827000000E+00 0. -1.
     999902    2    1    2    0    0 -0.31438688453E-01 -0.17386870331E-01  0.12891870434E-01  0.10057607098E+01  0.10050361738E+01 0.  0.
     999903    2    3    3    0    0  0.88039641626E-01 -0.73687664438E-01 -0.62443333854E-03  0.11580141789E+00  0.15123758814E-01 0.  0.
         14    1    1    2    0    0  0.31438688453E-01  0.17386870331E-01 -0.12891870434E-01  0.38169290206E-01  0.00000000000E+00 0. -1.
     999901    1    3    3    0    0 -0.11947833008E+00  0.56300794107E-01  0.13516303773E-01  0.88995929190E+00  0.88000000000E+00 0.  1.
        -11    1    4    4    0    0  0.95387478984E-02 -0.78351172414E-02 -0.47909829945E-02  0.13251091001E-01  0.51100000000E-03 0.  1.
         11    1    4    4    0    0  0.78500893728E-01 -0.65852547197E-01  0.41665496560E-02  0.10255032689E+00  0.51100000000E-03 0. -1.
</event>
<event>
 8    1  0.1146431E+005  0.1043930E+01  0.7957747E-01            NaN
         13   -1    0    0    0    0  0.00000000000E+00  0.00000000000E+00  0.74505805969E-08  0.10566000000E+00  0.10566000000E+00 0.  1.
     999900   -1    0    0    0    0 -0.00000000000E+00 -0.00000000000E+00 -0.74505805969E-08  0.93827000000E+00  0.93827000000E+00 0.  1.
     999902    2    1    2    0    0 -0.33971870072E-01  0.28748091291E-02  0.15147443348E-01  0.10066231974E+01  0.10059316398E+01 0.  0.
     999903    2    3    3    0    0 -0.59962456346E-01  0.16009637123E-01  0.10295781023E+00  0.12177366505E+00  0.19409022659E-01 0.  0.
         14    1    1    2    0    0  0.33971870072E-01 -0.28748091291E-02 -0.15147443348E-01  0.37306802646E-01  0.00000000000E+00 0. -1.
     999901    1    3    3    0    0  0.25990586274E-01 -0.13134827994E-01 -0.87810366884E-01  0.88484953230E+00  0.88000000000E+00 0.  1.
        -11    1    4    4    0    0 -0.83846956436E-02  0.10053975103E-01  0.21187598616E-01  0.24911061650E-01  0.51100000000E-03 0.  1.
         11    1    4    4    0    0 -0.51577760702E-01  0.59556620208E-02  0.81770211616E-01  0.96862603403E-01  0.51100000000E-03 0. -1.
</event>
<event>
 8    1  0.1146431E+005  0.1043930E+01  0.7957747E-01            NaN
         13   -1    0    0    0    0  0.00000000000E+00  0.00000000000E+00  0.74505805969E-08  0.10566000000E+00  0.10566000000E+00 0. -1.
     999900   -1    0    0    0    0 -0.00000000000E+00 -0.00000000000E+00 -0.74505805969E-08  0.93827000000E+00  0.93827000000E+00 0. -1.
     999902    2    1    2    0    0  0.81113465947E-02 -0.16611252704E-01  0.14463472196E-01  0.10204583216E+01  0.10201883485E+01 0.  0.
     999903    2    3    3    0    0 -0.12211465827E+00 -0.48740131888E-02 -0.35192582952E-01  0.12941270044E+00  0.23945424870E-01 0.  0.
         14    1    1    2    0    0 -0.81113465947E-02  0.16611252704E-01 -0.14463472196E-01  0.23471678422E-01  0.00000000000E+00 0.  1.
     999901    1    3    3    0    0  0.13022600486E+00 -0.11737239515E-01  0.49656055149E-01  0.89104562114E+00  0.88000000000E+00 0.  1.
        -11    1    4    4    0    0 -0.71573502504E-01 -0.10371358271E-01 -0.11166628096E-01  0.73179819877E-01  0.51100000000E-03 0.  1.
         11    1    4    4    0    0 -0.50541155763E-01  0.54973450819E-02 -0.24025954856E-01  0.56232880565E-01  0.51100000000E-03 0. -1.
</event>
<event>
 8    1  0.1146431E+005  0.1043930E+01  0.7957747E-01            NaN
         13   -1    0    0    0    0  0.00000000000E+00  0.00000000000E+00  0.74505805969E-08  0.10566000000E+00  0.10566000000E+00 0. -1.
     999900   -1    0    0    0    0 -0.00000000000E+00 -0.00000000000E+00 -0.74505805969E-08  0.93827000000E+00  0.93827000000E+00 0. -1.
     999902    2    1    2    0    0 -0.21143890952E-01 -0.99456053455E-02  0.22167872565E-02  0.10204588829E+01  0.10201889229E+01 0.  0.
     999903    2    3    3    0    0  0.32584702662E-01  0.81842042424E-01  0.93528904550E-01  0.12936425451E+00  0.15085476545E-01 0.  0.
         14    1    1    2    0    0  0.21143890952E-01  0.99456053455E-02 -0.22167872565E-02  0.23471117060E-01  0.00000000000E+00 0.  1.
     999901    1    3    3    0    0 -0.53728593614E-01 -0.91787647770E-01 -0.91312117293E-01  0.89109462843E+00  0.88000000000E+00 0. -1.
        -11    1    4    4    0    0  0.14676564866E-01  0.52117017864E-01  0.50079770336E-01  0.73755200665E-01  0.51100000000E-03 0. -1.
         11    1    4    4    0    0  0.17908137796E-01  0.29725024561E-01  0.43449134214E-01  0.55609053843E-01  0.51100000000E-03 0.  1.
</event>
<event>
 8    1  0.1146431E+005  0.1043930E+01  0.7957747E-01            NaN
         13   -1    0    0    0    0  0.00000000000E+00  0.00000000000E+00  0.74505805969E-08  0.10566000000E+00  0.10566000000E+00 0.  1.
     999900   -1    0    0    0    0 -0.00000000000E+00 -0.00000000000E+00 -0.74505805969E-08  0.93827000000E+00  0.93827000000E+00 0. -1.
     999902    2    1    2    0    0 -0.15641271943E-01 -0.15641234972E-01  0.86169277870E-02  0.10201908116E+01  0.10199145764E+01 0.  0.
     999903    2    3    3    0    0  0.23880366282E-01 -0.88104239857E-01 -0.91163516074E-01  0.13071400815E+00  0.21041299626E-01 0.  0.
         14    1    1    2    0    0  0.15641271943E-01  0.15641234972E-01 -0.86169277870E-02  0.23739188359E-01  0.00000000000E+00 0. -1.
     999901    1    3    3    0    0 -0.39521638226E-01  0.72463004886E-01  0.99780443861E-01  0.88947680349E+00  0.88000000000E+00 0.  1.
        -11    1    4    4    0    0 -0.20787913435E-02 -0.25487748025E-01 -0.29880057347E-01  0.39332246578E-01  0.51100000000E-03 0. -1.
         11    1    4    4    0    0  0.25959157626E-01 -0.62616491833E-01 -0.61283458727E-01  0.91381761575E-01  0.51100000000E-03 0.  1.
</event>
<event>
 8    1  0.1146431E+005  0.1043930E+01  0.7957747E-01            NaN
         13   -1    0    0    0    0  0.00000000000E+00  0.00000000000E+00  0.74505805969E-08  0.10566000000E+00  0.10566000000E+00 0.  1.
     999900   -1    0    0    0    0 -0.00000000000E+00 -0.00000000000E+00 -0.74505805969E-08  0.93827000000E+00  0.93827000000E+00 0. -1.
     999902    2    1    2    0    0  0.26374618079E-01 -0.32193090086E-02  0.19007409011E-02  0.10172917334E+01  0.10169429058E+01 0.  0.
     999903    2    3    3    0    0 -0.72392896139E-01  0.18714665202E-01  0.99595183362E-01  0.12612377779E+00  0.19925779038E-01 0.  0.
         14    1    1    2    0    0 -0.26374618079E-01  0.32193090086E-02 -0.19007409011E-02  0.26638266560E-01  0.00000000000E+00 0.  1.
     999901    1    3    3    0    0  0.98767514218E-01 -0.21933974210E-01 -0.97694442461E-01  0.89116795565E+00  0.88000000000E+00 0. -1.
        -11    1    4    4    0    0 -0.20101524073E-01  0.71700615959E-03  0.15176516980E-01  0.25202641856E-01  0.51100000000E-03 0.  1.
         11    1    4    4    0    0 -0.52291372065E-01  0.17997659042E-01  0.84418666382E-01  0.10092113593E+00  0.51100000000E-03 0. -1.
</event>
<event>
 7    1  0.1146431E+005  0.1043930E+01  0.7957747E-01            NaN
         13   -1    0    0    0    0  0.00000000000E+00  0.00000000000E+00  0.74505805969E-08  0.10566000000E+00  0.10566000000E+00 0.  1.
     999900   -1    0    0    0    0 -0.00000000000E+00 -0.00000000000E+00 -0.74505805969E-08  0.93827000000E+00  0.93827000000E+00 0. -1.
     999903    2    1    2    0    0 -0.24748920560E-01  0.38626932331E-01  0.80720888313E-01  0.94941767894E-01  0.19837553042E-01 0.  0.
         14    1    1    2    0    0 -0.47996670485E-01  0.34916182390E-01 -0.89926403946E-02  0.60030723397E-01  0.00000000000E+00 0.  1.
     999901    1    1    2    0    0  0.72745591044E-01 -0.73543114721E-01 -0.71728247919E-01  0.88895750871E+00  0.88000000000E+00 0.  1.
        -11    1    3    3    0    0 -0.25877164587E-01  0.24283812347E-01  0.54730884201E-01  0.65230836233E-01  0.51100000000E-03 0.  1.
         11    1    3    3    0    0  0.11282440279E-02  0.14343119983E-01  0.25990004112E-01  0.29710931661E-01  0.51100000000E-03 0. -1.
</event>
<event>
 8    1  0.1146431E+005  0.1043930E+01  0.7957747E-01            NaN
         13   -1    0    0    0    0  0.00000000000E+00  0.00000000000E+00  0.74505805969E-08  0.10566000000E+00  0.10566000000E+00 0.  1.
     999900   -1    0    0    0    0 -0.00000000000E+00 -0.00000000000E+00 -0.74505805969E-08  0.93827000000E+00  0.93827000000E+00 0.  1.
     999902    2    1    2    0    0  0.97550861687E-02 -0.64096299755E-02  0.20183640117E-01  0.10206142459E+01  0.10203478889E+01 0.  0.
     999903    2    3    3    0    0  0.57321111591E-01 -0.75891556666E-01 -0.86134956935E-01  0.13022449469E+00  0.22224986047E-01 0.  0.
         14    1    1    2    0    0 -0.97550861687E-02  0.64096299755E-02 -0.20183640117E-01  0.23315754136E-01  0.00000000000E+00 0. -1.
     999901    1    3    3    0    0 -0.47566025422E-01  0.69481926690E-01  0.10631859705E+00  0.89038975117E+00  0.88000000000E+00 0. -1.
        -11    1    4    4    0    0  0.27019747171E-01 -0.27138032976E-01 -0.47555824531E-01  0.61060274638E-01  0.51100000000E-03 0.  1.
         11    1    4    4    0    0  0.30301364420E-01 -0.48753523690E-01 -0.38579132403E-01  0.69164220055E-01  0.51100000000E-03 0. -1.
</event>
<event>
 8    1  0.1146431E+005  0.1043930E+01  0.7957747E-01            NaN
         13   -1    0    0    0    0  0.00000000000E+00  0.00000000000E+00  0.74505805969E-08  0.10566000000E+00  0.10566000000E+00 0. -1.
     999900   -1    0    0    0    0 -0.00000000000E+00 -0.00000000000E+00 -0.74505805969E-08  0.93827000000E+00  0.93827000000E+00 0. -1.
     999902    2    1    2    0    0  0.16790498242E-01 -0.17653269820E-01  0.21584069379E-02  0.10194715150E+01  0.10191780769E+01 0.  0.
     999903    2    3    3    0    0 -0.19416899264E-01  0.87078436931E-01 -0.88679872027E-01  0.12788231649E+00  0.23023835731E-01 0.  0.
         14    1    1    2    0    0 -0.16790498242E-01  0.17653269820E-01 -0.21584069379E-02  0.24458484971E-01  0.00000000000E+00 0. -1.
     999901    1    3    3    0    0  0.36207397507E-01 -0.10473170675E+00  0.90838278964E-01  0.89158919854E+00  0.88000000000E+00 0.  1.
        -11    1    4    4    0    0  0.21404263133E-02  0.35792695576E-01 -0.42267611040E-01  0.55430231331E-01  0.51100000000E-03 0. -1.
         11    1    4    4    0    0 -0.21557325578E-01  0.51285741355E-01 -0.46412260987E-01  0.72452085155E-01  0.51100000000E-03 0.  1.
</event>
<event>
 8    1  0.1146431E+005  0.1043930E+01  0.7957747E-01            NaN
         13   -1    0    0    0    0  0.00000000000E+00  0.00000000000E+00  0.74505805969E-08  0.10566000000E+00  0.10566000000E+00 0.  1.
     999900   -1    0    0    0    0 -0.00000000000E+00 -0.00000000000E+00 -0.74505805969E-08  0.93827000000E+00  0.93827000000E+00 0.  1.
     999902    2    1    2    0    0  0.18621932425E-01 -0.86687140725E-02  0.10042401308E-01  0.10210657748E+01  0.10208097490E+01 0.  0.
     999903    2    3    3    0    0 -0.76563267554E-01 -0.85919340884E-01 -0.57029123710E-01  0.13004025825E+00  0.20348973884E-01 0.  0.
         14    1    1    2    0    0 -0.18621932425E-01  0.86687140725E-02 -0.10042401308E-01  0.22864225221E-01  0.00000000000E+00 0. -1.
     999901    1    3    3    0    0  0.95185199979E-01  0.77250626811E-01  0.67071525018E-01  0.89102551653E+00  0.88000000000E+00 0.  1.
        -11    1    4    4    0    0 -0.10806345179E-01 -0.34046856797E-02 -0.49448477530E-02  0.12372615771E-01  0.51100000000E-03 0.  1.
         11    1    4    4    0    0 -0.65756922375E-01 -0.82514655204E-01 -0.52084275957E-01  0.11766764248E+00  0.51100000000E-03 0. -1.
</event>
<event>
 8    1  0.1146431E+005  0.1043930E+01  0.7957747E-01            NaN
         13   -1    0    0    0    0  0.00000000000E+00  0.00000000000E+00  0.74505805969E-08  0.10566000000E+00  0.10566000000E+00 0.  1.
     999900   -1    0    0    0    0 -0.00000000000E+00 -0.00000000000E+00 -0.74505805969E-08  0.93827000000E+00  0.93827000000E+00 0. -1.
     999902    2    1    2    0    0  0.13235775831E-01 -0.15914330130E-01 -0.10611884038E-01  0.10206692230E+01  0.10204041351E+01 0.  0.
     999903    2    3    3    0    0  0.10754173204E+00  0.60812060103E-01  0.38580941981E-01  0.13094989280E+00  0.19901119464E-01 0.  0.
         14    1    1    2    0    0 -0.13235775831E-01  0.15914330130E-01  0.10611884038E-01  0.23260777033E-01  0.00000000000E+00 0.  1.
     999901    1    3    3    0    0 -0.94305956214E-01 -0.76726390233E-01 -0.49192826019E-01  0.88971933016E+00  0.88000000000E+00 0. -1.
        -11    1    4    4    0    0  0.92001927485E-01  0.58616669711E-01  0.36883037040E-01  0.11515592981E+00  0.51100000000E-03 0. -1.
         11    1    4    4    0    0  0.15539804560E-01  0.21953903918E-02  0.16979049413E-02  0.15793962990E-01  0.51100000000E-03 0.  1.
</event>
<event>
 8    1  0.1146431E+005  0.1043930E+01  0.7957747E-01            NaN
         13   -1    0    0    0    0  0.00000000000E+00  0.00000000000E+00  0.74505805969E-08  0.10566000000E+00  0.10566000000E+00 0.  1.
     999900   -1    0    0    0    0 -0.00000000000E+00 -0.00000000000E+00 -0.74505805969E-08  0.93827000000E+00  0.93827000000E+00 0.  1.
     999902    2    1    2    0    0  0.11560646929E-01  0.11732166535E-01 -0.16525267332E-01  0.10205981173E+01  0.10203313875E+01 0.  0.
     999903    2    3    3    0    0 -0.41679157050E-01  0.12188585497E+00 -0.21107696701E-01  0.13212228171E+00  0.20431561131E-01 0.  0.
         14    1    1    2    0    0 -0.11560646929E-01 -0.11732166535E-01  0.16525267332E-01  0.23331882680E-01  0.00000000000E+00 0.  1.
     999901    1    3    3    0    0  0.53239803978E-01 -0.11015368843E+00  0.45824293686E-02  0.88847583561E+00  0.88000000000E+00 0. -1.
        -11    1    4    4    0    0 -0.76724853030E-02  0.12341510926E-01  0.31605785584E-02  0.14880534281E-01  0.51100000000E-03 0.  1.
         11    1    4    4    0    0 -0.34006671747E-01  0.10954434404E+00 -0.24268275259E-01  0.11724174743E+00  0.51100000000E-03 0. -1.
</event>
<event>
 8    1  0.1146431E+005  0.1043930E+01  0.7957747E-01            NaN
         13   -1    0    0    0    0  0.00000000000E+00  0.00000000000E+00  0.74505805969E-08  0.10566000000E+00  0.10566000000E+00 0. -1.
     999900   -1    0    0    0    0 -0.00000000000E+00 -0.00000000000E+00 -0.74505805969E-08  0.93827000000E+00  0.93827000000E+00 0. -1.
     999902    2    1    2    0    0 -0.16775421929E-01 -0.16119009221E-01 -0.16493091769E-01  0.10154122982E+01  0.10150117615E+01 0.  0.
     999903    2    3    3    0    0 -0.12664310331E+00 -0.85754361669E-02 -0.33516106064E-02  0.12845090591E+00  0.19400727147E-01 0.  0.
         14    1    1    2    0    0  0.16775421929E-01  0.16119009221E-01  0.16493091769E-01  0.28517701788E-01  0.00000000000E+00 0. -1.
     999901    1    3    3    0    0  0.10986768138E+00 -0.75435730544E-02 -0.13141481163E-01  0.88696139230E+00  0.88000000000E+00 0. -1.
        -11    1    4    4    0    0 -0.90995872235E-01 -0.80555836615E-02  0.61251476995E-02  0.91558286066E-01  0.51100000000E-03 0. -1.
         11    1    4    4    0    0 -0.35647231076E-01 -0.51985250536E-03 -0.94767583059E-02  0.36892619845E-01  0.51100000000E-03 0.  1.
</event>
<event>
 8    1  0.1146431E+005  0.1043930E+01  0.7957747E-01            NaN
         13   -1    0    0    0    0  0.00000000000E+00  0.00000000000E+00  0.74505805969E-08  0.10566000000E+00  0.10566000000E+00 0.  1.
     999900   -1    0    0    0    0 -0.00000000000E+00 -0.00000000000E+00 -0.74505805969E-08  0.93827000000E+00  0.93827000000E+00 0. -1.
     999902    2    1    2    0    0  0.10587478870E-01 -0.13777823700E-01  0.16007661897E-01  0.10203044127E+01  0.10200308457E+01 0.  0.
     999903    2    3    3    0    0 -0.99850073960E-01 -0.79536927444E-01  0.21312462759E-01  0.13095135926E+00  0.19946862543E-01 0.  0.
         14    1    1    2    0    0 -0.10587478870E-01  0.13777823700E-01 -0.16007661897E-01  0.23625587276E-01  0.00000000000E+00 0. -1.
     999901    1    3    3    0    0  0.11043755283E+00  0.65759103744E-01 -0.53048008621E-02  0.88935305347E+00  0.88000000000E+00 0.  1.
        -11    1    4    4    0    0 -0.71707639847E-01 -0.59626961138E-01  0.66869687881E-02  0.93500464061E-01  0.51100000000E-03 0. -1.
         11    1    4    4    0    0 -0.28142434112E-01 -0.19909966306E-01  0.14625493971E-01  0.37450895196E-01  0.51100000000E-03 0.  1.
</event>
<event>
 8    1  0.1146431E+005  0.1043930E+01  0.7957747E-01            NaN
         13   -1    0    0    0    0  0.00000000000E+00  0.00000000000E+00  0.74505805969E-08  0.10566000000E+00  0.10566000000E+00 0.  1.
     999900   -1    0    0    0    0 -0.00000000000E+00 -0.00000000000E+00 -0.74505805969E-08  0.93827000000E+00  0.93827000000E+00 0. -1.
     999902    2    1    2    0    0 -0.20973681344E-01  0.57526668494E-02 -0.10878110274E-01  0.10196128915E+01  0.10193228765E+01 0.  0.
     999903    2    3    3    0    0  0.21748348282E-01  0.75576584921E-01 -0.10296994468E+00  0.13102892957E+00  0.19518197572E-01 0.  0.
         14    1    1    2    0    0  0.20973681344E-01 -0.57526668494E-02  0.10878110274E-01  0.24317108548E-01  0.00000000000E+00 0.  1.
     999901    1    3    3    0    0 -0.42722029626E-01 -0.69823918071E-01  0.92091834402E-01  0.88858396188E+00  0.88000000000E+00 0.  1.
        -11    1    4    4    0    0  0.20187156664E-03  0.35591130725E-01 -0.46261280861E-01  0.58370682421E-01  0.51100000000E-03 0. -1.
         11    1    4    4    0    0  0.21546476716E-01  0.39985454196E-01 -0.56708663815E-01  0.72658247149E-01  0.51100000000E-03 0.  1.
</event>
<event>
 8    1  0.1146431E+005  0.1043930E+01  0.7957747E-01            NaN
         13   -1    0    0    0    0  0.00000000000E+00  0.00000000000E+00  0.74505805969E-08  0.10566000000E+00  0.10566000000E+00 0.  1.
     999900   -1    0    0    0    0 -0.00000000000E+00 -0.00000000000E+00 -0.74505805969E-08  0.93827000000E+00  0.93827000000E+00 0.  1.
     999902    2    1    2    0    0  0.16241925647E-01  0.96950982654E-02 -0.14683465135E-01  0.10199842441E+01  0.10197031229E+01 0.  0.
     999903    2    3    3    0    0 -0.39664869060E-01  0.96651881542E-01  0.73875617436E-01  0.12951820711E+00  0.20061681861E-01 0.  0.
         14    1    1    2    0    0 -0.16241925647E-01 -0.96950982654E-02  0.14683465135E-01  0.23945755939E-01  0.00000000000E+00 0.  1.
     999901    1    3    3    0    0  0.55906794707E-01 -0.86956783276E-01 -0.88559082572E-01  0.89046603695E+00  0.88000000000E+00 0.  1.
        -11    1    4    4    0    0 -0.87821795814E-03  0.23872951229E-01  0.15617073804E-01  0.28545458174E-01  0.51100000000E-03 0.  1.
         11    1    4    4    0    0 -0.38786651101E-01  0.72778930313E-01  0.58258543633E-01  0.10097274894E+00  0.51100000000E-03 0. -1.
</event>
<event>
 8    1  0.1146431E+005  0.1043930E+01  0.7957747E-01            NaN
         13   -1    0    0    0    0  0.00000000000E+00  0.00000000000E+00  0.74505805969E-08  0.10566000000E+00  0.10566000000E+00 0.  1.
     999900   -1    0    0    0    0 -0.00000000000E+00 -0.00000000000E+00 -0.74505805969E-08  0.93827000000E+00  0.93827000000E+00 0. -1.
     999902    2    1    2    0    0 -0.25468705555E-02 -0.24448960330E-01  0.99445342831E-03  0.10193286352E+01  0.10190317166E+01 0.  0.
     999903    2    3    3    0    0  0.61258314164E-01  0.86102727570E-01  0.68434443004E-01  0.12756581391E+00  0.20579191927E-01 0.  0.
         14    1    1    2    0    0  0.25468705555E-02  0.24448960330E-01 -0.99445342831E-03  0.24601364768E-01  0.00000000000E+00 0. -1.
     999901    1    3    3    0    0 -0.63805184719E-01 -0.11055168790E+00 -0.67439989576E-01  0.89176282132E+00  0.88000000000E+00 0. -1.
        -11    1    4    4    0    0  0.29818266716E-01  0.45716121538E-01  0.23391163441E-01  0.59384345131E-01  0.51100000000E-03 0.  1.
         11    1    4    4    0    0  0.31440047448E-01  0.40386606032E-01  0.45043279564E-01  0.68181468781E-01  0.51100000000E-03 0. -1.
</event>
<event>
 8    1  0.1146431E+005  0.1043930E+01  0.7957747E-01            NaN
         13   -1    0    0    0    0  0.00000000000E+00  0.00000000000E+00  0.74505805969E-08  0.10566000000E+00  0.10566000000E+00 0. -1.
     999900   -1    0    0    0    0 -0.00000000000E+00 -0.00000000000E+00 -0.74505805969E-08  0.93827000000E+00  0.93827000000E+00 0. -1.
     999902    2    1    2    0    0  0.18650152716E-01 -0.13732586943E-01  0.68649192675E-02  0.10197734428E+01  0.10194872904E+01 0.  0.
     999903    2    3    3    0    0  0.21729475974E-01 -0.23112693586E-01  0.12619281389E+00  0.13166499497E+00  0.20116607359E-01 0.  0.
         14    1    1    2    0    0 -0.18650152716E-01  0.13732586943E-01 -0.68649192675E-02  0.24156557226E-01  0.00000000000E+00 0.  1.
     999901    1    3    3    0    0 -0.30793232574E-02  0.93801066431E-02 -0.11932789462E+00  0.88810844781E+00  0.88000000000E+00 0. -1.
        -11    1    4    4    0    0  0.61552465555E-02 -0.20046979661E-01  0.84077824380E-01  0.86655121759E-01  0.51100000000E-03 0. -1.
         11    1    4    4    0    0  0.15574229418E-01 -0.30657139249E-02  0.42114989508E-01  0.45009873207E-01  0.51100000000E-03 0.  1.
</event>
<event>
 8    1  0.1146431E+005  0.1043930E+01  0.7957747E-01            NaN
         13   -1    0    0    0    0  0.00000000000E+00  0.00000000000E+00  0.74505805969E-08  0.10566000000E+00  0.10566000000E+00 0.  1.
     999900   -1    0    0    0    0 -0.00000000000E+00 -0.00000000000E+00 -0.74505805969E-08  0.93827000000E+00  0.93827000000E+00 0.  1.
     999902    2    1    2    0    0  0.50910377332E-02 -0.46134258870E-02  0.23200419877E-01  0.10197336811E+01  0.10194465747E+01 0.  0.
     999903    2    3    3    0    0  0.91053486266E-01 -0.72379146714E-01 -0.53593518571E-01  0.12963310005E+00  0.20074789083E-01 0.  0.
         14    1    1    2    0    0 -0.50910377332E-02  0.46134258870E-02 -0.23200419877E-01  0.24196318854E-01  0.00000000000E+00 0. -1.
     999901    1    3    3    0    0 -0.85962448533E-01  0.67765720827E-01  0.76793938448E-01  0.89010058109E+00  0.88000000000E+00 0. -1.
        -11    1    4    4    0    0  0.54357595550E-01 -0.37893092655E-01 -0.40268500466E-01  0.77539976242E-01  0.51100000000E-03 0.  1.
         11    1    4    4    0    0  0.36695890716E-01 -0.34486054059E-01 -0.13325018105E-01  0.52093123812E-01  0.51100000000E-03 0. -1.
</event>
<event>
 8    1  0.1146431E+005  0.1043930E+01  0.7957747E-01            NaN
         13   -1    0    0    0    0  0.00000000000E+00  0.00000000000E+00  0.74505805969E-08  0.10566000000E+00  0.10566000000E+00 0.  1.
     999900   -1    0    0    0    0 -0.00000000000E+00 -0.00000000000E+00 -0.74505805969E-08  0.93827000000E+00  0.93827000000E+00 0.  1.
     999902    2    1    2    0    0  0.20417560530E-01 -0.18139871064E-01  0.75116790075E-02  0.10156040927E+01  0.10152090012E+01 0.  0.
     999903    2    3    3    0    0 -0.86292161736E-01 -0.74595516727E-01 -0.50177715588E-01  0.12549046461E+00  0.14806257888E-01 0.  0.
         14    1    1    2    0    0 -0.20417560530E-01  0.18139871064E-01 -0.75116790075E-02  0.28325907253E-01  0.00000000000E+00 0. -1.
     999901    1    3    3    0    0  0.10670972227E+00  0.56455645663E-01  0.57689394596E-01  0.89011362814E+00  0.88000000000E+00 0. -1.
        -11    1    4    4    0    0 -0.61110760929E-01 -0.51127944996E-01 -0.27611187389E-01  0.84328113052E-01  0.51100000000E-03 0.  1.
         11    1    4    4    0    0 -0.25181400807E-01 -0.23467571731E-01 -0.22566528199E-01  0.41162351554E-01  0.51100000000E-03 0. -1.
</event>
<event>
 8    1  0.1146431E+005  0.1043930E+01  0.7957747E-01            NaN
         13   -1    0    0    0    0  0.00000000000E+00  0.00000000000E+00  0.74505805969E-08  0.10566000000E+00  0.10566000000E+00 0. -1.
     999900   -1    0    0    0    0 -0.00000000000E+00 -0.00000000000E+00 -0.74505805969E-08  0.93827000000E+00  0.93827000000E+00 0. -1.
     999902    2    1    2    0    0  0.12937208870E-01 -0.11510265597E-02 -0.20286504089E-01  0.10198418601E+01  0.10195573457E+01 0.  0.
     999903    2    3    3    0    0  0.33201805447E-01  0.50177335788E-01  0.11157229086E+00  0.12830835178E+00  0.19862833064E-01 0.  0.
         14    1    1    2    0    0 -0.12937208870E-01  0.11510265597E-02  0.20286504089E-01  0.24088139896E-01  0.00000000000E+00 0. -1.
     999901    1    3    3    0    0 -0.20264596578E-01 -0.51328362348E-01 -0.13185879495E+00  0.89153350832E+00  0.88000000000E+00 0. -1.
        -11    1    4    4    0    0  0.19280492361E-01  0.12569688250E-01  0.35487090041E-01  0.42300462515E-01  0.51100000000E-03 0. -1.
         11    1    4    4    0    0  0.13921313086E-01  0.37607647538E-01  0.76085200820E-01  0.86007889267E-01  0.51100000000E-03 0.  1.
</event>
<event>
 8    1  0.1146431E+005  0.1043930E+01  0.7957747E-01            NaN
         13   -1    0    0    0    0  0.00000000000E+00  0.00000000000E+00  0.74505805969E-08  0.10566000000E+00  0.10566000000E+00 0. -1.
     999900   -1    0    0    0    0 -0.00000000000E+00 -0.00000000000E+00 -0.74505805969E-08  0.93827000000E+00  0.93827000000E+00 0.  1.
     999902    2    1    2    0    0 -0.21061019121E-01 -0.10569528968E-02  0.10670221478E-01  0.10202966062E+01  0.10200228563E+01 0.  0.
     999903    2    3    3    0    0 -0.41839744653E-02  0.12890190712E+00  0.46488071404E-02  0.13057170638E+00  0.19853256599E-01 0.  0.
         14    1    1    2    0    0  0.21061019121E-01  0.10569528968E-02 -0.10670221478E-01  0.23633393794E-01  0.00000000000E+00 0.  1.
     999901    1    3    3    0    0 -0.16877044656E-01 -0.12995886002E+00  0.60214143376E-02  0.88972489982E+00  0.88000000000E+00 0. -1.
        -11    1    4    4    0    0  0.49965411202E-02  0.42163696787E-01 -0.52605985408E-02  0.42786420368E-01  0.51100000000E-03 0. -1.
         11    1    4    4    0    0 -0.91805155855E-02  0.86738210336E-01  0.99094056812E-02  0.87785286015E-01  0.51100000000E-03 0.  1.
</event>
<event>
 8    1  0.1146431E+005  0.1043930E+01  0.7957747E-01            NaN
         13   -1    0    0    0    0  0.00000000000E+00  0.00000000000E+00  0.74505805969E-08  0.10566000000E+00  0.10566000000E+00 0.  1.
     999900   -1    0    0    0    0 -0.00000000000E+00 -0.00000000000E+00 -0.74505805969E-08  0.93827000000E+00  0.93827000000E+00 0.  1.
     999902    2    1    2    0    0  0.10739257090E-01  0.21381944221E-01 -0.32413300319E-02  0.10197840811E+01  0.10194981837E+01 0.  0.
     999903    2    3    3    0    0 -0.66275976441E-01 -0.44855861198E-01  0.98001967641E-01  0.12817374106E+00  0.20483381011E-01 0.  0.
         14    1    1    2    0    0 -0.10739257090E-01 -0.21381944221E-01  0.32413300319E-02  0.24145918949E-01  0.00000000000E+00 0.  1.
     999901    1    3    3    0    0  0.77015233531E-01  0.66237805420E-01 -0.10124329767E+00  0.89161034000E+00  0.88000000000E+00 0.  1.
        -11    1    4    4    0    0 -0.38186720935E-01 -0.13548800108E-01  0.49555705612E-01  0.64014254037E-01  0.51100000000E-03 0.  1.
         11    1    4    4    0    0 -0.28089255506E-01 -0.31307061090E-01  0.48446262029E-01  0.64159487019E-01  0.51100000000E-03 0. -1.
</event>
<event>
 8    1  0.1146431E+005  0.1043930E+01  0.7957747E-01            NaN
         13   -1    0    0    0    0  0.00000000000E+00  0.00000000000E+00  0.74505805969E-08  0.10566000000E+00  0.10566000000E+00 0. -1.
     999900   -1    0    0    0    0 -0.00000000000E+00 -0.00000000000E+00 -0.74505805969E-08  0.93827000000E+00  0.93827000000E+00 0. -1.
     999902    2    1    2    0    0  0.25064717384E-01  0.10457832697E-02 -0.81592869637E-04  0.10188433426E+01  0.10185344454E+01 0.  0.
     999903    2    3    3    0    0  0.60299824994E-01  0.98946185004E-02  0.11410040120E+00  0.13072322550E+00  0.18321783827E-01 0.  0.
         14    1    1    2    0    0 -0.25064717384E-01 -0.10457832697E-02  0.81592869637E-04  0.25086657362E-01  0.00000000000E+00 0. -1.
     999901    1    3    3    0    0 -0.35235107609E-01 -0.88488352307E-02 -0.11418199407E+00  0.88812011714E+00  0.88000000000E+00 0. -1.
        -11    1    4    4    0    0  0.26159781404E-01 -0.45649331258E-02  0.52149226554E-01  0.58523292190E-01  0.51100000000E-03 0. -1.
         11    1    4    4    0    0  0.34140043589E-01  0.14459551626E-01  0.61951174644E-01  0.72199933312E-01  0.51100000000E-03 0.  1.
</event>
<event>
 8    1  0.1146431E+005  0.1043930E+01  0.7957747E-01            NaN
         13   -1    0    0    0    0  0.00000000000E+00  0.00000000000E+00  0.74505805969E-08  0.10566000000E+00  0.10566000000E+00 0. -1.
     999900   -1    0    0    0    0 -0.00000000000E+00 -0.00000000000E+00 -0.74505805969E-08  0.93827000000E+00  0.93827000000E+00 0.  1.
     999902    2    1    2    0    0  0.18022109579E-01  0.43927325886E-02 -0.13617147838E-01  0.10209187148E+01  0.10206593471E+01 0.  0.
     999903    2    3    3    0    0 -0.33487635976E-01 -0.63830147707E-01  0.10487154076E+00  0.12887208783E+00  0.20353511743E-01 0.  0.
         14    1    1    2    0    0 -0.18022109579E-01 -0.43927325886E-02  0.13617147838E-01  0.23011285242E-01  0.00000000000E+00 0. -1.
     999901    1    3    3    0    0  0.51509745554E-01  0.68222880296E-01 -0.11848868860E+00  0.89204662693E+00  0.88000000000E+00 0.  1.
        -11    1    4    4    0    0 -0.29488726016E-01 -0.52203836292E-01  0.97693992232E-01  0.11462636139E+00  0.51100000000E-03 0.  1.
         11    1    4    4    0    0 -0.39989099602E-02 -0.11626311416E-01  0.71775485319E-02  0.14245726445E-01  0.51100000000E-03 0. -1.
</event>
<event>
 8    1  0.1146431E+005  0.1043930E+01  0.7957747E-01            NaN
         13   -1    0    0    0    0  0.00000000000E+00  0.00000000000E+00  0.74505805969E-08  0.10566000000E+00  0.10566000000E+00 0.  1.
     999900   -1    0    0    0    0 -0.00000000000E+00 -0.00000000000E+00 -0.74505805969E-08  0.93827000000E+00  0.93827000000E+00 0. -1.
     999902    2    1    2    0    0 -0.15164506929E-01  0.18281827532E-01  0.94997018273E-02  0.10183481349E+01  0.10180267639E+01 0.  0.
     999903    2    3    3    0    0  0.38651475131E-01  0.24770340500E-01  0.11980684343E+00  0.12980667484E+00  0.19712605148E-01 0.  0.
         14    1    1    2    0    0  0.15164506929E-01 -0.18281827532E-01 -0.94997018273E-02  0.25581865122E-01  0.00000000000E+00 0. -1.
     999901    1    3    3    0    0 -0.53815982060E-01 -0.64885129679E-02 -0.11030714160E+00  0.88854146004E+00  0.88000000000E+00 0. -1.
        -11    1    4    4    0    0  0.92797245071E-02  0.65136965344E-02  0.56878354662E-01  0.57999567925E-01  0.51100000000E-03 0.  1.
         11    1    4    4    0    0  0.29371750624E-01  0.18256643966E-01  0.62928488765E-01  0.71807106910E-01  0.51100000000E-03 0. -1.
</event>
<event>
 8    1  0.1146431E+005  0.1043930E+01  0.7957747E-01            NaN
         13   -1    0    0    0    0  0.00000000000E+00  0.00000000000E+00  0.74505805969E-08  0.10566000000E+00  0.10566000000E+00 0.  1.
     999900   -1    0    0    0    0 -0.00000000000E+00 -0.00000000000E+00 -0.74505805969E-08  0.93827000000E+00  0.93827000000E+00 0.  1.
     999902    2    1    2    0    0  0.13890872517E-01  0.12681804992E-01 -0.14578719720E-01  0.10201324458E+01  0.10198548345E+01 0.  0.
     999903    2    3    3    0    0 -0.63406418043E-01  0.26076450513E-02 -0.11315354029E+00  0.13120424000E+00  0.19587119500E-01 0.  0.
         14    1    1    2    0    0 -0.13890872517E-01 -0.12681804992E-01  0.14578719720E-01  0.23797554198E-01  0.00000000000E+00 0.  1.
     999901    1    3    3    0    0  0.77297290560E-01  0.10074159940E-01  0.98574820573E-01  0.88892820581E+00  0.88000000000E+00 0. -1.
        -11    1    4    4    0    0 -0.45397262979E-01  0.19707616080E-02 -0.61304556876E-01  0.76310583814E-01  0.51100000000E-03 0. -1.
         11    1    4    4    0    0 -0.18009155065E-01  0.63688344330E-03 -0.51848983417E-01  0.54893656182E-01  0.51100000000E-03 0.  1.
</event>
<event>
 8    1  0.1146431E+005  0.1043930E+01  0.7957747E-01            NaN
         13   -1    0    0    0    0  0.00000000000E+00  0.00000000000E+00  0.74505805969E-08  0.10566000000E+00  0.10566000000E+00 0.  1.
     999900   -1    0    0    0    0 -0.00000000000E+00 -0.00000000000E+00 -0.74505805969E-08  0.93827000000E+00  0.93827000000E+00 0.  1.
     999902    2    1    2    0    0  0.97483203820E-02 -0.24356483680E-02  0.22491984976E-01  0.10192956435E+01  0.10189979182E+01 0.  0.
     999903    2    3    3    0    0  0.11874360398E+00 -0.46412813515E-01  0.25167273079E-01  0.13147746385E+00  0.19968453192E-01 0.  0.
         14    1    1    2    0    0 -0.97483203820E-02  0.24356483680E-02 -0.22491984976E-01  0.24634356525E-01  0.00000000000E+00 0. -1.
     999901    1    3    3    0    0 -0.10899528360E+00  0.43977165147E-01 -0.26752881026E-02  0.88781817962E+00  0.88000000000E+00 0. -1.
        -11    1    4    4    0    0  0.74406951435E-01 -0.29167702044E-01  0.58664436365E-02  0.80136293565E-01  0.51100000000E-03 0.  1.
         11    1    4    4    0    0  0.44336652543E-01 -0.17245111471E-01  0.19300829443E-01  0.51341170288E-01  0.51100000000E-03 0. -1.
</event>
<event>
 8    1  0.1146431E+005  0.1043930E+01  0.7957747E-01            NaN
         13   -1    0    0    0    0  0.00000000000E+00  0.00000000000E+00  0.74505805969E-08  0.10566000000E+00  0.10566000000E+00 0. -1.
     999900   -1    0    0    0    0 -0.00000000000E+00 -0.00000000000E+00 -0.74505805969E-08  0.93827000000E+00  0.93827000000E+00 0.  1.
     999902    2    1    2    0    0  0.12438671041E-01  0.18798445171E-01  0.71623183255E-02  0.10202783429E+01  0.10200041648E+01 0.  0.
     999903    2    3    3    0    0 -0.10248940102E-01  0.12729704607E+00 -0.29485169911E-01  0.13256796647E+00  0.19882448991E-01 0.  0.
         14    1    1    2    0    0 -0.12438671041E-01 -0.18798445171E-01 -0.71623183255E-02  0.23651657064E-01  0.00000000000E+00 0.  1.
     999901    1    3    3    0    0  0.22687611143E-01 -0.10849860090E+00  0.36647488236E-01  0.88771037647E+00  0.88000000000E+00 0.  1.
        -11    1    4    4    0    0 -0.14209463676E-01  0.10577281911E+00 -0.19433753716E-01  0.10847916862E+00  0.51100000000E-03 0. -1.
         11    1    4    4    0    0  0.39605235742E-02  0.21524226957E-01 -0.10051416195E-01  0.24088797845E-01  0.51100000000E-03 0.  1.
</event>
<event>
 8    1  0.1146431E+005  0.1043930E+01  0.7957747E-01            NaN
         13   -1    0    0    0    0  0.00000000000E+00  0.00000000000E+00  0.74505805969E-08  0.10566000000E+00  0.10566000000E+00 0. -1.
     999900   -1    0    0    0    0 -0.00000000000E+00 -0.00000000000E+00 -0.74505805969E-08  0.93827000000E+00  0.93827000000E+00 0.  1.
     999902    2    1    2    0    0  0.19304188988E-01 -0.95543007186E-03 -0.14013734941E-01  0.10200563885E+01  0.10197769788E+01 0.  0.
     999903    2    3    3    0    0 -0.50858325643E-01 -0.73484555955E-01  0.89587552723E-01  0.12825120834E+00  0.20878064695E-01 0.  0.
         14    1    1    2    0    0 -0.19304188988E-01  0.95543007186E-03  0.14013734941E-01  0.23873611501E-01  0.00000000000E+00 0. -1.
     999901    1    3    3    0    0  0.70162514631E-01  0.72529125883E-01 -0.10360128766E+00  0.89180518016E+00  0.88000000000E+00 0.  1.
        -11    1    4    4    0    0 -0.52444186846E-01 -0.67339280358E-01  0.84434924886E-01  0.12006035597E+00  0.51100000000E-03 0.  1.
         11    1    4    4    0    0  0.15858612027E-02 -0.61452755969E-02  0.51526278369E-02  0.81908523697E-02  0.51100000000E-03 0. -1.
</event>
<event>
 8    1  0.1146431E+005  0.1043930E+01  0.7957747E-01            NaN
         13   -1    0    0    0    0  0.00000000000E+00  0.00000000000E+00  0.74505805969E-08  0.10566000000E+00  0.10566000000E+00 0. -1.
     999900   -1    0    0    0    0 -0.00000000000E+00 -0.00000000000E+00 -0.74505805969E-08  0.93827000000E+00  0.93827000000E+00 0.  1.
     999902    2    1    2    0    0  0.16052523611E-01 -0.84592680813E-02  0.14203153084E-01  0.10208871641E+01  0.10206270766E+01 0.  0.
     999903    2    3    3    0    0 -0.11486824420E-01  0.12532814134E+00  0.27021899883E-01  0.13025715846E+00  0.19941266484E-01 0.  0.
         14    1    1    2    0    0 -0.16052523611E-01  0.84592680813E-02 -0.14203153084E-01  0.23042835942E-01  0.00000000000E+00 0.  1.
     999901    1    3    3    0    0  0.27539348031E-01 -0.13378740942E+00 -0.12818746799E-01  0.89063000560E+00  0.88000000000E+00 0.  1.
        -11    1    4    4    0    0  0.56660134272E-02  0.34737462648E-01  0.85395398890E-02  0.36221262843E-01  0.51100000000E-03 0. -1.
         11    1    4    4    0    0 -0.17152837847E-01  0.90590678691E-01  0.18482359993E-01  0.94035895613E-01  0.51100000000E-03 0.  1.
</event>
<event>
 8    1  0.1146431E+005  0.1043930E+01  0.7957747E-01            NaN
         13   -1    0    0    0    0  0.00000000000E+00  0.00000000000E+00  0.74505805969E-08  0.10566000000E+00  0.10566000000E+00 0. -1.
     999900   -1    0    0    0    0 -0.00000000000E+00 -0.00000000000E+00 -0.74505805969E-08  0.93827000000E+00  0.93827000000E+00 0.  1.
     999902    2    1    2    0    0 -0.95874994053E-02  0.46055936024E-02  0.20417812404E-01  0.10209078650E+01  0.10206482499E+01 0.  0.
     999903    2    3    3    0    0 -0.12890943651E+00  0.22151070437E-01 -0.23559957962E-02  0.13238987711E+00  0.20327717621E-01 0.  0.
         14    1    1    2    0    0  0.95874994053E-02 -0.46055936024E-02 -0.20417812404E-01  0.23022135014E-01  0.00000000000E+00 0.  1.
     999901    1    3    3    0    0  0.11932193710E+00 -0.17545476834E-01  0.22773808200E-01  0.88851798787E+00  0.88000000000E+00 0.  1.
        -11    1    4    4    0    0 -0.69895460503E-01  0.21189351255E-01  0.31733703082E-02  0.73107423738E-01  0.51100000000E-03 0. -1.
         11    1    4    4    0    0 -0.59013976005E-01  0.96171918191E-03 -0.55293661044E-02  0.59282453376E-01  0.51100000000E-03 0.  1.
</event>
<event>
 8    1  0.1146431E+005  0.1043930E+01  0.7957747E-01            NaN
         13   -1    0    0    0    0  0.00000000000E+00  0.00000000000E+00  0.74505805969E-08  0.10566000000E+00  0.10566000000E+00 0.  1.
     999900   -1    0    0    0    0 -0.00000000000E+00 -0.00000000000E+00 -0.74505805969E-08  0.93827000000E+00  0.93827000000E+00 0.  1.
     999902    2    1    2    0    0  0.14099904602E-01  0.83974220360E-02  0.17761084430E-01  0.10197477725E+01  0.10194610044E+01 0.  0.
     999903    2    3    3    0    0 -0.56794972622E-01 -0.11091084593E+00  0.25941888777E-01  0.12883393156E+00  0.19957847274E-01 0.  0.
         14    1    1    2    0    0 -0.14099904602E-01 -0.83974220360E-02 -0.17761084430E-01  0.24182227498E-01  0.00000000000E+00 0.  1.
     999901    1    3    3    0    0  0.70894877224E-01  0.11930826797E+00 -0.81808043471E-02  0.89091384094E+00  0.88000000000E+00 0. -1.
        -11    1    4    4    0    0 -0.19279703914E-01 -0.40474335230E-01 -0.26498629863E-03  0.44835367001E-01  0.51100000000E-03 0. -1.
         11    1    4    4    0    0 -0.37515268708E-01 -0.70436510701E-01  0.26206875075E-01  0.83998564560E-01  0.51100000000E-03 0.  1.
</event>
<event>
 8    1  0.1146431E+005  0.1043930E+01  0.7957747E-01            NaN
         13   -1    0    0    0    0  0.00000000000E+00  0.00000000000E+00  0.74505805969E-08  0.10566000000E+00  0.10566000000E+00 0. -1.
     999900   -1    0    0    0    0 -0.00000000000E+00 -0.00000000000E+00 -0.74505805969E-08  0.93827000000E+00  0.93827000000E+00 0. -1.
     999902    2    1    2    0    0 -0.10404347179E-01  0.20111659378E-01 -0.59939113867E-02  0.10205065874E+01  0.10202377364E+01 0.  0.
     999903    2    3    3    0    0 -0.73381492327E-01 -0.96347479752E-01 -0.41658530006E-01  0.12988836567E+00  0.21630398585E-01 0.  0.
         14    1    1    2    0    0  0.10404347179E-01 -0.20111659378E-01  0.59939113867E-02  0.23423412579E-01  0.00000000000E+00 0. -1.
     999901    1    3    3    0    0  0.62977145148E-01  0.11645913913E+00  0.35664618619E-01  0.89061822175E+00  0.88000000000E+00 0. -1.
        -11    1    4    4    0    0 -0.33608437722E-01 -0.28252894581E-01 -0.18944109332E-01  0.47821475695E-01  0.51100000000E-03 0.  1.
         11    1    4    4    0    0 -0.39773054605E-01 -0.68094585171E-01 -0.22714420674E-01  0.82066889973E-01  0.51100000000E-03 0. -1.
</event>
<event>
 8    1  0.1146431E+005  0.1043930E+01  0.7957747E-01            NaN
         13   -1    0    0    0    0  0.00000000000E+00  0.00000000000E+00  0.74505805969E-08  0.10566000000E+00  0.10566000000E+00 0.  1.
     999900   -1    0    0    0    0 -0.00000000000E+00 -0.00000000000E+00 -0.74505805969E-08  0.93827000000E+00  0.93827000000E+00 0. -1.
     999902    2    1    2    0    0 -0.22714050444E-01 -0.24613063759E-02 -0.36915759677E-04  0.10210829547E+01  0.10208273179E+01 0.  0.
     999903    2    3    3    0    0  0.11881535051E+00  0.25698651787E-01  0.35295029340E-01  0.12863021032E+00  0.22857902145E-01 0.  0.
         14    1    1    2    0    0  0.22714050444E-01  0.24613063759E-02  0.36915759677E-04  0.22847045311E-01  0.00000000000E+00 0.  1.
     999901    1    3    3    0    0 -0.14152940096E+00 -0.28159958163E-01 -0.35331945100E-01  0.89245274436E+00  0.88000000000E+00 0. -1.
        -11    1    4    4    0    0  0.14053708880E-01  0.23027925809E-02  0.12360364727E-01  0.18863968939E-01  0.51100000000E-03 0.  1.
         11    1    4    4    0    0  0.10476164163E+00  0.23395859206E-01  0.22934664613E-01  0.10976624139E+00  0.51100000000E-03 0. -1.
</event>
<event>
 8    1  0.1146431E+005  0.1043930E+01  0.7957747E-01            NaN
         13   -1    0    0    0    0  0.00000000000E+00  0.00000000000E+00  0.74505805969E-08  0.10566000000E+00  0.10566000000E+00 0.  1.
     999900   -1    0    0    0    0 -0.00000000000E+00 -0.00000000000E+00 -0.74505805969E-08  0.93827000000E+00  0.93827000000E+00 0.  1.
     999902    2    1    2    0    0  0.22239842475E-01  0.24878347534E-02  0.48204440888E-02  0.10210381544E+01  0.10207815026E+01 0.  0.
     999903    2    3    3    0    0  0.11082131010E+00 -0.70787606227E-01  0.38323177752E-02  0.13356029941E+00  0.23052525917E-01 0.  0.
         14    1    1    2    0    0 -0.22239842475E-01 -0.24878347534E-02 -0.48204440888E-02  0.22891845628E-01  0.00000000000E+00 0.  1.
     999901    1    3    3    0    0 -0.88581467623E-01  0.73275440981E-01  0.98812631367E-03  0.88747785496E+00  0.88000000000E+00 0.  1.
        -11    1    4    4    0    0  0.96343062554E-01 -0.60991238246E-01  0.11215067547E-01  0.11457729141E+00  0.51100000000E-03 0.  1.
         11    1    4    4    0    0  0.14478247544E-01 -0.97963679816E-02 -0.73827497717E-02  0.18983008001E-01  0.51100000000E-03 0. -1.
</event>
<event>
 8    1  0.1146431E+005  0.1043930E+01  0.7957747E-01            NaN
         13   -1    0    0    0    0  0.00000000000E+00  0.00000000000E+00  0.74505805969E-08  0.10566000000E+00  0.10566000000E+00 0. -1.
     999900   -1    0    0    0    0 -0.00000000000E+00 -0.00000000000E+00 -0.74505805969E-08  0.93827000000E+00  0.93827000000E+00 0. -1.
     999902    2    1    2    0    0  0.12737495898E-01  0.20172723405E-02 -0.14891205578E-01  0.10242307312E+01  0.10240412733E+01 0.  0.
     999903    2    3    3    0    0 -0.22494313272E-01  0.82735504344E-01  0.98830192432E-01  0.13255294758E+00  0.21253685976E-01 0.  0.
         14    1    1    2    0    0 -0.12737495898E-01 -0.20172723405E-02  0.14891205578E-01  0.19699268845E-01  0.00000000000E+00 0. -1.
     999901    1    3    3    0    0  0.35231809170E-01 -0.80718232004E-01 -0.11372139801E+00  0.89167778357E+00  0.88000000000E+00 0. -1.
        -11    1    4    4    0    0 -0.11943819155E-01  0.12859080583E-01  0.17145985957E-01  0.24540919398E-01  0.51100000000E-03 0.  1.
         11    1    4    4    0    0 -0.10550494116E-01  0.69876423761E-01  0.81684206475E-01  0.10801202818E+00  0.51100000000E-03 0. -1.
</event>
<event>
 8    1  0.1146431E+005  0.1043930E+01  0.7957747E-01            NaN
         13   -1    0    0    0    0  0.00000000000E+00  0.00000000000E+00  0.74505805969E-08  0.10566000000E+00  0.10566000000E+00 0. -1.
     999900   -1    0    0    0    0 -0.00000000000E+00 -0.00000000000E+00 -0.74505805969E-08  0.93827000000E+00  0.93827000000E+00 0.  1.
     999902    2    1    2    0    0  0.69683670518E-02 -0.12429081391E-01  0.19378042055E-01  0.10198769603E+01  0.10195932843E+01 0.  0.
     999903    2    3    3    0    0  0.79840136199E-01  0.99799438519E-01  0.98134343321E-02  0.12971011240E+00  0.19850302004E-01 0.  0.
         14    1    1    2    0    0 -0.69683670518E-02  0.12429081391E-01 -0.19378042055E-01  0.24053039672E-01  0.00000000000E+00 0.  1.
     999901    1    3    3    0    0 -0.72871769148E-01 -0.11222851991E+00  0.95646077229E-02  0.89016684792E+00  0.88000000000E+00 0. -1.
        -11    1    4    4    0    0  0.20170854868E-01  0.33091234923E-01 -0.46896854318E-02  0.39040331521E-01  0.51100000000E-03 0. -1.
         11    1    4    4    0    0  0.59669281331E-01  0.66708203596E-01  0.14503119764E-01  0.90669780884E-01  0.51100000000E-03 0.  1.
</event>
<event>
 8    1  0.1146431E+005  0.1043930E+01  0.7957747E-01            NaN
         13   -1    0    0    0    0  0.00000000000E+00  0.00000000000E+00  0.74505805969E-08  0.10566000000E+00  0.10566000000E+00 0. -1.
     999900   -1    0    0    0    0 -0.00000000000E+00 -0.00000000000E+00 -0.74505805969E-08  0.93827000000E+00  0.93827000000E+00 0. -1.
     999902    2    1    2    0    0  0.15956080542E-01 -0.14596255104E-01  0.12091084802E-01  0.10191541751E+01  0.10188529781E+01 0.  0.
     999903    2    3    3    0    0  0.53679568784E-01 -0.45226160044E-01  0.11051681797E+00  0.13233464574E+00  0.19276663443E-01 0.  0.
         14    1    1    2    0    0 -0.15956080542E-01  0.14596255104E-01 -0.12091084802E-01  0.24775824931E-01  0.00000000000E+00 0.  1.
     999901    1    3    3    0    0 -0.37723488242E-01  0.30629904940E-01 -0.98425733166E-01  0.88681952932E+00  0.88000000000E+00 0. -1.
        -11    1    4    4    0    0  0.23912649137E-02 -0.10666026555E-01  0.16718046782E-01  0.19980902871E-01  0.51100000000E-03 0.  1.
         11    1    4    4    0    0  0.51288303870E-01 -0.34560133490E-01  0.93798771186E-01  0.11235374287E+00  0.51100000000E-03 0. -1.
</event>
<event>
 8    1  0.1146431E+005  0.1043930E+01  0.7957747E-01            NaN
         13   -1    0    0    0    0  0.00000000000E+00  0.00000000000E+00  0.74505805969E-08  0.10566000000E+00  0.10566000000E+00 0. -1.
     999900   -1    0    0    0    0 -0.00000000000E+00 -0.00000000000E+00 -0.74505805969E-08  0.93827000000E+00  0.93827000000E+00 0.  1.
     999902    2    1    2    0    0 -0.15042489400E-01  0.84876205188E-02 -0.16177472190E-01  0.10202651147E+01  0.10199906262E+01 0.  0.
     999903    2    3    3    0    0 -0.63483266406E-02  0.10610755914E-01 -0.13077051931E+00  0.13279023472E+00  0.19478919980E-01 0.  0.
         14    1    1    2    0    0  0.15042489400E-01 -0.84876205188E-02  0.16177472190E-01  0.23664885292E-01  0.00000000000E+00 0.  1.
     999901    1    3    3    0    0 -0.86941627593E-02 -0.21231353948E-02  0.11459304712E+00  0.88747487999E+00  0.88000000000E+00 0. -1.
        -11    1    4    4    0    0 -0.76490634547E-02  0.11429324535E-01 -0.46248370577E-01  0.48252570222E-01  0.51100000000E-03 0.  1.
         11    1    4    4    0    0  0.13007368141E-02 -0.81856862128E-03 -0.84522148731E-01  0.84537664493E-01  0.51100000000E-03 0. -1.
</event>
<event>
 8    1  0.1146431E+005  0.1043930E+01  0.7957747E-01            NaN
         13   -1    0    0    0    0  0.00000000000E+00  0.00000000000E+00  0.74505805969E-08  0.10566000000E+00  0.10566000000E+00 0.  1.
     999900   -1    0    0    0    0 -0.00000000000E+00 -0.00000000000E+00 -0.74505805969E-08  0.93827000000E+00  0.93827000000E+00 0. -1.
     999902    2    1    2    0    0  0.19734064135E-02  0.22295737150E-01  0.10471880958E-01  0.10192185751E+01  0.10189189611E+01 0.  0.
     999903    2    3    3    0    0 -0.14629552509E-01 -0.11470304338E+00 -0.47760302629E-01  0.12656225196E+00  0.19134919549E-01 0.  0.
         14    1    1    2    0    0 -0.19734064135E-02 -0.22295737150E-01 -0.10471880958E-01  0.24711424863E-01  0.00000000000E+00 0. -1.
     999901    1    3    3    0    0  0.16602958922E-01  0.13699878053E+00  0.58232183587E-01  0.89265632318E+00  0.88000000000E+00 0.  1.
        -11    1    4    4    0    0 -0.13459065770E-01 -0.85153790198E-01 -0.26695562193E-01  0.90250920208E-01  0.51100000000E-03 0. -1.
         11    1    4    4    0    0 -0.11704867385E-02 -0.29549253179E-01 -0.21064740436E-01  0.36311331748E-01  0.51100000000E-03 0.  1.
</event>
<event>
 8    1  0.1146431E+005  0.1043930E+01  0.7957747E-01            NaN
         13   -1    0    0    0    0  0.00000000000E+00  0.00000000000E+00  0.74505805969E-08  0.10566000000E+00  0.10566000000E+00 0. -1.
     999900   -1    0    0    0    0 -0.00000000000E+00 -0.00000000000E+00 -0.74505805969E-08  0.93827000000E+00  0.93827000000E+00 0.  1.
     999902    2    1    2    0    0  0.48055673887E-04  0.16318845314E-01 -0.17577875829E-01  0.10199448225E+01  0.10196627639E+01 0.  0.
     999903    2    3    3    0    0 -0.24010130982E-01 -0.17900717687E-01  0.12265914834E+00  0.12785951391E+00  0.20146129671E-01 0.  0.
         14    1    1    2    0    0 -0.48055673887E-04 -0.16318845314E-01  0.17577875829E-01  0.23985177514E-01  0.00000000000E+00 0. -1.
     999901    1    3    3    0    0  0.24058186656E-01  0.34219563001E-01 -0.14023702417E+00  0.89208530858E+00  0.88000000000E+00 0.  1.
        -11    1    4    4    0    0 -0.24712884425E-01 -0.79250159412E-02  0.93062480705E-01  0.96614796849E-01  0.51100000000E-03 0.  1.
         11    1    4    4    0    0  0.70275344261E-03 -0.99757017455E-02  0.29596667637E-01  0.31244717056E-01  0.51100000000E-03 0. -1.
</event>
<event>
 8    1  0.1146431E+005  0.1043930E+01  0.7957747E-01            NaN
         13   -1    0    0    0    0  0.00000000000E+00  0.00000000000E+00  0.74505805969E-08  0.10566000000E+00  0.10566000000E+00 0.  1.
     999900   -1    0    0    0    0 -0.00000000000E+00 -0.00000000000E+00 -0.74505805969E-08  0.93827000000E+00  0.93827000000E+00 0.  1.
     999902    2    1    2    0    0  0.16224094343E-01 -0.15814493004E-02  0.18685070987E-01  0.10191337483E+01  0.10188320484E+01 0.  0.
     999903    2    3    3    0    0  0.53522694076E-01  0.83266650382E-01  0.81510545419E-01  0.13203881215E+00  0.31500238917E-01 0.  0.
         14    1    1    2    0    0 -0.16224094343E-01  0.15814493004E-02 -0.18685070987E-01  0.24796251671E-01  0.00000000000E+00 0.  1.
     999901    1    3    3    0    0 -0.37298599734E-01 -0.84848099682E-01 -0.62825474432E-01  0.88709493618E+00  0.88000000000E+00 0.  1.
        -11    1    4    4    0    0  0.12374649872E-01  0.43779332784E-01  0.46818568175E-01  0.65284005587E-01  0.51100000000E-03 0.  1.
         11    1    4    4    0    0  0.41148044204E-01  0.39487317597E-01  0.34691977244E-01  0.66754806561E-01  0.51100000000E-03 0. -1.
</event>
<event>
 8    1  0.1146431E+005  0.1043930E+01  0.7957747E-01            NaN
         13   -1    0    0    0    0  0.00000000000E+00  0.00000000000E+00  0.74505805969E-08  0.10566000000E+00  0.10566000000E+00 0.  1.
     999900   -1    0    0    0    0 -0.00000000000E+00 -0.00000000000E+00 -0.74505805969E-08  0.93827000000E+00  0.93827000000E+00 0.  1.
     999902    2    1    2    0    0 -0.11903975993E-01  0.23212904800E-02  0.19450928841E-01  0.10210077037E+01  0.10207503610E+01 0.  0.
     999903    2    3    3    0    0  0.77492277374E-02 -0.12879113248E+00  0.12422776039E-01  0.13104921547E+00  0.19296765941E-01 0.  0.
         14    1    1    2    0    0  0.11903975993E-01 -0.23212904800E-02 -0.19450928841E-01  0.22922296279E-01  0.00000000000E+00 0. -1.
     999901    1    3    3    0    0 -0.19653203730E-01  0.13111242296E+00  0.70281528027E-02  0.88995848825E+00  0.88000000000E+00 0. -1.
        -11    1    4    4    0    0  0.14962548117E-02 -0.74401656058E-01 -0.19499378265E-02  0.74443996273E-01  0.51100000000E-03 0.  1.
         11    1    4    4    0    0  0.62529729258E-02 -0.54389476422E-01  0.14372713865E-01  0.56605219201E-01  0.51100000000E-03 0. -1.
</event>
<event>
 8    1  0.1146431E+005  0.1043930E+01  0.7957747E-01            NaN
         13   -1    0    0    0    0  0.00000000000E+00  0.00000000000E+00  0.74505805969E-08  0.10566000000E+00  0.10566000000E+00 0.  1.
     999900   -1    0    0    0    0 -0.00000000000E+00 -0.00000000000E+00 -0.74505805969E-08  0.93827000000E+00  0.93827000000E+00 0. -1.
     999902    2    1    2    0    0  0.16461826369E-02  0.21950221121E-01 -0.75998263113E-02  0.10206431049E+01  0.10203774145E+01 0.  0.
     999903    2    3    3    0    0 -0.64984171051E-01 -0.78455320903E-01  0.75766718685E-01  0.12852716077E+00  0.20011385020E-01 0.  0.
         14    1    1    2    0    0 -0.16461826369E-02 -0.21950221121E-01  0.75998263113E-02  0.23286895124E-01  0.00000000000E+00 0. -1.
     999901    1    3    3    0    0  0.66630353687E-01  0.10040554202E+00 -0.83366544997E-01  0.89211594411E+00  0.88000000000E+00 0. -1.
        -11    1    4    4    0    0 -0.30617910458E-01 -0.32828730162E-01  0.21656466078E-01  0.49844213394E-01  0.51100000000E-03 0. -1.
         11    1    4    4    0    0 -0.34366260593E-01 -0.45626590741E-01  0.54110252607E-01  0.78682947377E-01  0.51100000000E-03 0.  1.
</event>
<event>
 8    1  0.1146431E+005  0.1043930E+01  0.7957747E-01            NaN
         13   -1    0    0    0    0  0.00000000000E+00  0.00000000000E+00  0.74505805969E-08  0.10566000000E+00  0.10566000000E+00 0.  1.
     999900   -1    0    0    0    0 -0.00000000000E+00 -0.00000000000E+00 -0.74505805969E-08  0.93827000000E+00  0.93827000000E+00 0.  1.
     999902    2    1    2    0    0 -0.16518847078E-01  0.19275869309E-01  0.11089556714E-01  0.10162278392E+01  0.10158501914E+01 0.  0.
     999903    2    3    3    0    0  0.12156583183E+00 -0.11168933584E-01 -0.15252192390E-01  0.12455068217E+00  0.19422834811E-01 0.  0.
         14    1    1    2    0    0  0.16518847078E-01 -0.19275869309E-01 -0.11089556714E-01  0.27702160827E-01  0.00000000000E+00 0. -1.
     999901    1    3    3    0    0 -0.13808467890E+00  0.30444802893E-01  0.26341749104E-01  0.89167715700E+00  0.88000000000E+00 0.  1.
        -11    1    4    4    0    0  0.10917996511E-01 -0.58710597018E-02 -0.47233845616E-02  0.13275672207E-01  0.51100000000E-03 0. -1.
         11    1    4    4    0    0  0.11064783531E+00 -0.52978738822E-02 -0.10528807829E-01  0.11127500996E+00  0.51100000000E-03 0.  1.
</event>
<event>
 8    1  0.1146431E+005  0.1043930E+01  0.7957747E-01            NaN
         13   -1    0    0    0    0  0.00000000000E+00  0.00000000000E+00  0.74505805969E-08  0.10566000000E+00  0.10566000000E+00 0. -1.
     999900   -1    0    0    0    0 -0.00000000000E+00 -0.00000000000E+00 -0.74505805969E-08  0.93827000000E+00  0.93827000000E+00 0. -1.
     999902    2    1    2    0    0 -0.96381037369E-02  0.24403856855E-02  0.21816017727E-01  0.10199552809E+01  0.10196734712E+01 0.  0.
     999903    2    3    3    0    0  0.66949384911E-01  0.93248889470E-01 -0.54583817798E-01  0.12869282650E+00  0.20121503404E-01 0.  0.
         14    1    1    2    0    0  0.96381037369E-02 -0.24403856855E-02 -0.21816017727E-01  0.23974719089E-01  0.00000000000E+00 0.  1.
     999901    1    3    3    0    0 -0.76587488648E-01 -0.90808503785E-01  0.76399835525E-01  0.89126245441E+00  0.88000000000E+00 0.  1.
        -11    1    4    4    0    0  0.39668729719E-01  0.61269395212E-01 -0.44413471065E-01  0.85442170151E-01  0.51100000000E-03 0.  1.
         11    1    4    4    0    0  0.27280655193E-01  0.31979494258E-01 -0.10170346733E-01  0.43250656347E-01  0.51100000000E-03 0. -1.
</event>
<event>
 8    1  0.1146431E+005  0.1043930E+01  0.7957747E-01            NaN
         13   -1    0    0    0    0  0.00000000000E+00  0.00000000000E+00  0.74505805969E-08  0.10566000000E+00  0.10566000000E+00 0.  1.
     999900   -1    0    0    0    0 -0.00000000000E+00 -0.00000000000E+00 -0.74505805969E-08  0.93827000000E+00  0.93827000000E+00 0. -1.
     999902    2    1    2    0    0  0.26209498953E-03  0.10724082852E-01  0.20525127238E-01  0.10207706499E+01  0.10205078953E+01 0.  0.
     999903    2    3    3    0    0 -0.88427343847E-01 -0.80053083879E-01  0.51224964172E-01  0.13113657318E+00  0.18571819827E-01 0.  0.
         14    1    1    2    0    0 -0.26209498953E-03 -0.10724082852E-01 -0.20525127238E-01  0.23159350054E-01  0.00000000000E+00 0. -1.
     999901    1    3    3    0    0  0.88689438837E-01  0.90777166730E-01 -0.30699836934E-01  0.88963407677E+00  0.88000000000E+00 0. -1.
        -11    1    4    4    0    0 -0.36839037431E-01 -0.29970347683E-01  0.11010509315E-01  0.48752731774E-01  0.51100000000E-03 0. -1.
         11    1    4    4    0    0 -0.51588306417E-01 -0.50082736195E-01  0.40214454857E-01  0.82383841402E-01  0.51100000000E-03 0.  1.
</event>
<event>
 8    1  0.1146431E+005  0.1043930E+01  0.7957747E-01            NaN
         13   -1    0    0    0    0  0.00000000000E+00  0.00000000000E+00  0.74505805969E-08  0.10566000000E+00  0.10566000000E+00 0.  1.
     999900   -1    0    0    0    0 -0.00000000000E+00 -0.00000000000E+00 -0.74505805969E-08  0.93827000000E+00  0.93827000000E+00 0.  1.
     999902    2    1    2    0    0 -0.82022367688E-02  0.13803142631E-01  0.17506777593E-01  0.10201751964E+01  0.10198985933E+01 0.  0.
     999903    2    3    3    0    0 -0.88357328425E-01  0.20989767667E-01  0.95359402813E-01  0.13308020846E+00  0.19218177474E-01 0.  0.
         14    1    1    2    0    0  0.82022367688E-02 -0.13803142631E-01 -0.17506777593E-01  0.23754803645E-01  0.00000000000E+00 0.  1.
     999901    1    3    3    0    0  0.80155091657E-01 -0.71866250363E-02 -0.77852625219E-01  0.88709498790E+00  0.88000000000E+00 0.  1.
        -11    1    4    4    0    0 -0.52643977107E-01  0.15118419033E-01  0.70005423981E-01  0.88887431212E-01  0.51100000000E-03 0.  1.
         11    1    4    4    0    0 -0.35713351319E-01  0.58713486348E-02  0.25353978832E-01  0.44192777247E-01  0.51100000000E-03 0. -1.
</event>
<event>
 8    1  0.1146431E+005  0.1043930E+01  0.7957747E-01            NaN
         13   -1    0    0    0    0  0.00000000000E+00  0.00000000000E+00  0.74505805969E-08  0.10566000000E+00  0.10566000000E+00 0.  1.
     999900   -1    0    0    0    0 -0.00000000000E+00 -0.00000000000E+00 -0.74505805969E-08  0.93827000000E+00  0.93827000000E+00 0.  1.
     999902    2    1    2    0    0 -0.17249453254E-01 -0.54859962700E-02 -0.15126149280E-01  0.10203410156E+01  0.10200683055E+01 0.  0.
     999903    2    3    3    0    0 -0.37189598145E-01 -0.88045545628E-02 -0.12574443002E+00  0.13318543385E+00  0.21589620618E-01 0.  0.
         14    1    1    2    0    0  0.17249453254E-01  0.54859962700E-02  0.15126149280E-01  0.23588984393E-01  0.00000000000E+00 0.  1.
     999901    1    3    3    0    0  0.19940144891E-01  0.33185582928E-02  0.11061828074E+00  0.88715558176E+00  0.88000000000E+00 0. -1.
        -11    1    4    4    0    0 -0.95206761587E-02 -0.96495328385E-02 -0.22316987583E-01  0.26116389763E-01  0.51100000000E-03 0.  1.
         11    1    4    4    0    0 -0.27668921986E-01  0.84497827571E-03 -0.10342744244E+00  0.10706904409E+00  0.51100000000E-03 0. -1.
</event>
<event>
 8    1  0.1146431E+005  0.1043930E+01  0.7957747E-01            NaN
         13   -1    0    0    0    0  0.00000000000E+00  0.00000000000E+00  0.74505805969E-08  0.10566000000E+00  0.10566000000E+00 0. -1.
     999900   -1    0    0    0    0 -0.00000000000E+00 -0.00000000000E+00 -0.74505805969E-08  0.93827000000E+00  0.93827000000E+00 0.  1.
     999902    2    1    2    0    0 -0.23147855834E-01  0.37138061702E-02 -0.25559067627E-02  0.10203472045E+01  0.10200746391E+01 0.  0.
     999903    2    3    3    0    0  0.76757750081E-01 -0.74600289088E-02  0.10068535994E+00  0.12862710049E+00  0.21447261940E-01 0.  0.
         14    1    1    2    0    0  0.23147855834E-01 -0.37138061702E-02  0.25559067627E-02  0.23582795537E-01  0.00000000000E+00 0.  1.
     999901    1    3    3    0    0 -0.99905605915E-01  0.11173835079E-01 -0.10324126670E+00  0.89172010398E+00  0.88000000000E+00 0.  1.
        -11    1    4    4    0    0  0.20642771716E-01  0.69997145147E-02  0.32594429688E-01  0.39214512557E-01  0.51100000000E-03 0.  1.
         11    1    4    4    0    0  0.56114978365E-01 -0.14459743424E-01  0.68090930252E-01  0.89412587930E-01  0.51100000000E-03 0. -1.
</event>
<event>
 8    1  0.1146431E+005  0.1043930E+01  0.7957747E-01            NaN
         13   -1    0    0    0    0  0.00000000000E+00  0.00000000000E+00  0.74505805969E-08  0.10566000000E+00  0.10566000000E+00 0. -1.
     999900   -1    0    0    0    0 -0.00000000000E+00 -0.00000000000E+00 -0.74505805969E-08  0.93827000000E+00  0.93827000000E+00 0. -1.
     999902    2    1    2    0    0  0.47494504434E-02  0.22975137168E-01  0.18435764634E-02  0.10203967686E+01  0.10201253611E+01 0.  0.
     999903    2    3    3    0    0  0.71588878809E-01 -0.10554676247E+00 -0.53436702779E-02  0.12852399492E+00  0.14992525499E-01 0.  0.
         14    1    1    2    0    0 -0.47494504434E-02 -0.22975137168E-01 -0.18435764634E-02  0.23533231431E-01  0.00000000000E+00 0.  1.
     999901    1    3    3    0    0 -0.66839428366E-01  0.12852189963E+00  0.71872467413E-02  0.89187277365E+00  0.88000000000E+00 0. -1.
        -11    1    4    4    0    0  0.23002148996E-01 -0.41189504268E-01  0.39775756926E-02  0.47347189459E-01  0.51100000000E-03 0.  1.
         11    1    4    4    0    0  0.48586729813E-01 -0.64357258197E-01 -0.93212459705E-02  0.81176805456E-01  0.51100000000E-03 0. -1.
</event>
<event>
 8    1  0.1146431E+005  0.1043930E+01  0.7957747E-01            NaN
         13   -1    0    0    0    0  0.00000000000E+00  0.00000000000E+00  0.74505805969E-08  0.10566000000E+00  0.10566000000E+00 0. -1.
     999900   -1    0    0    0    0 -0.00000000000E+00 -0.00000000000E+00 -0.74505805969E-08  0.93827000000E+00  0.93827000000E+00 0. -1.
     999902    2    1    2    0    0 -0.83085246417E-02 -0.21570974721E-01  0.44247910694E-02  0.10203945521E+01  0.10201230929E+01 0.  0.
     999903    2    3    3    0    0  0.37757396739E-01 -0.32046126181E-01 -0.11904775216E+00  0.13051969188E+00  0.20259503014E-01 0.  0.
         14    1    1    2    0    0  0.83085246417E-02  0.21570974721E-01 -0.44247910694E-02  0.23535447906E-01  0.00000000000E+00 0. -1.
     999901    1    3    3    0    0 -0.46065921381E-01  0.10475151460E-01  0.12347254323E+00  0.88987486021E+00  0.88000000000E+00 0.  1.
        -11    1    4    4    0    0  0.28061476237E-01 -0.32730095433E-01 -0.88229050392E-01  0.98200468684E-01  0.51100000000E-03 0. -1.
         11    1    4    4    0    0  0.96959205023E-02  0.68396925263E-03 -0.30818701768E-01  0.32319223196E-01  0.51100000000E-03 0.  1.
</event>
<event>
 8    1  0.1146431E+005  0.1043930E+01  0.7957747E-01            NaN
         13   -1    0    0    0    0  0.00000000000E+00  0.00000000000E+00  0.74505805969E-08  0.10566000000E+00  0.10566000000E+00 0.  1.
     999900   -1    0    0    0    0 -0.00000000000E+00 -0.00000000000E+00 -0.74505805969E-08  0.93827000000E+00  0.93827000000E+00 0. -1.
     999902    2    1    2    0    0  0.22574211334E-01  0.21172507596E-02  0.71743231771E-02  0.10201487326E+01  0.10198715056E+01 0.  0.
     999903    2    3    3    0    0  0.43603274709E-01  0.12118818688E+00 -0.18773086967E-01  0.13150179624E+00  0.18774222116E-01 0.  0.
         14    1    1    2    0    0 -0.22574211334E-01 -0.21172507596E-02 -0.71743231771E-02  0.23781267442E-01  0.00000000000E+00 0. -1.
     999901    1    3    3    0    0 -0.21029063375E-01 -0.11907093612E+00  0.25947410144E-01  0.88864693632E+00  0.88000000000E+00 0. -1.
        -11    1    4    4    0    0  0.12538462164E-01  0.62367846819E-01 -0.81609766818E-02  0.64139098931E-01  0.51100000000E-03 0. -1.
         11    1    4    4    0    0  0.31064812545E-01  0.58820340058E-01 -0.10612110285E-01  0.67362697309E-01  0.51100000000E-03 0.  1.
</event>
<event>
 8    1  0.1146431E+005  0.1043930E+01  0.7957747E-01            NaN
         13   -1    0    0    0    0  0.00000000000E+00  0.00000000000E+00  0.74505805969E-08  0.10566000000E+00  0.10566000000E+00 0.  1.
     999900   -1    0    0    0    0 -0.00000000000E+00 -0.00000000000E+00 -0.74505805969E-08  0.93827000000E+00  0.93827000000E+00 0. -1.
     999902    2    1    2    0    0  0.94554784712E-02 -0.11392465859E-01  0.29221753630E-02  0.10288391597E+01  0.10287284788E+01 0.  0.
     999903    2    3    3    0    0 -0.13051686155E+00  0.33966070149E-01 -0.65142032828E-02  0.13657311307E+00  0.20528889416E-01 0.  0.
         14    1    1    2    0    0 -0.94554784712E-02  0.11392465859E-01 -0.29221753630E-02  0.15090840279E-01  0.00000000000E+00 0. -1.
     999901    1    3    3    0    0  0.13997234002E+00 -0.45358536008E-01  0.94363786458E-02  0.89226604665E+00  0.88000000000E+00 0.  1.
        -11    1    4    4    0    0 -0.90445054886E-01  0.32902761071E-01 -0.24241030852E-02  0.96275838278E-01  0.51100000000E-03 0.  1.
         11    1    4    4    0    0 -0.40071806661E-01  0.10633090781E-02 -0.40901001976E-02  0.40297274795E-01  0.51100000000E-03 0. -1.
</event>
<event>
 8    1  0.1146431E+005  0.1043930E+01  0.7957747E-01            NaN
         13   -1    0    0    0    0  0.00000000000E+00  0.00000000000E+00  0.74505805969E-08  0.10566000000E+00  0.10566000000E+00 0.  1.
     999900   -1    0    0    0    0 -0.00000000000E+00 -0.00000000000E+00 -0.74505805969E-08  0.93827000000E+00  0.93827000000E+00 0. -1.
     999902    2    1    2    0    0 -0.20945020570E-01 -0.49689283676E-02 -0.15182048301E-01  0.10175884221E+01  0.10172474222E+01 0.  0.
     999903    2    3    3    0    0 -0.14579884470E-01 -0.10357259501E+00 -0.74705078537E-01  0.13006028780E+00  0.19873958741E-01 0.  0.
         14    1    1    2    0    0  0.20945020570E-01  0.49689283676E-02  0.15182048301E-01  0.26341577903E-01  0.00000000000E+00 0. -1.
     999901    1    3    3    0    0 -0.63651360995E-02  0.98603666643E-01  0.59523030236E-01  0.88752813429E+00  0.88000000000E+00 0.  1.
        -11    1    4    4    0    0 -0.11411756882E-01 -0.94490719008E-01 -0.60101889241E-01  0.11256652426E+00  0.51100000000E-03 0.  1.
         11    1    4    4    0    0 -0.31681275885E-02 -0.90818760032E-02 -0.14603189296E-01  0.17493763540E-01  0.51100000000E-03 0. -1.
</event>
<event>
 8    1  0.1146431E+005  0.1043930E+01  0.7957747E-01            NaN
         13   -1    0    0    0    0  0.00000000000E+00  0.00000000000E+00  0.74505805969E-08  0.10566000000E+00  0.10566000000E+00 0.  1.
     999900   -1    0    0    0    0 -0.00000000000E+00 -0.00000000000E+00 -0.74505805969E-08  0.93827000000E+00  0.93827000000E+00 0.  1.
     999902    2    1    2    0    0  0.20830321823E-01 -0.10685204427E-01 -0.36361628247E-02  0.10202382803E+01  0.10199631616E+01 0.  0.
     999903    2    3    3    0    0 -0.56338106881E-01 -0.90165901682E-01 -0.73061261558E-01  0.13057992345E+00  0.20231074006E-01 0.  0.
         14    1    1    2    0    0 -0.20830321823E-01  0.10685204427E-01  0.36361628247E-02  0.23691719671E-01  0.00000000000E+00 0. -1.
     999901    1    3    3    0    0  0.77168428704E-01  0.79480697255E-01  0.69425098734E-01  0.88965835688E+00  0.88000000000E+00 0.  1.
        -11    1    4    4    0    0 -0.29133117845E-01 -0.28356034495E-01 -0.29083203604E-01  0.49988969789E-01  0.51100000000E-03 0.  1.
         11    1    4    4    0    0 -0.27204989036E-01 -0.61809867187E-01 -0.43978057955E-01  0.80590953664E-01  0.51100000000E-03 0. -1.
</event>
<event>
 8    1  0.1146431E+005  0.1043930E+01  0.7957747E-01            NaN
         13   -1    0    0    0    0  0.00000000000E+00  0.00000000000E+00  0.74505805969E-08  0.10566000000E+00  0.10566000000E+00 0. -1.
     999900   -1    0    0    0    0 -0.00000000000E+00 -0.00000000000E+00 -0.74505805969E-08  0.93827000000E+00  0.93827000000E+00 0. -1.
     999902    2    1    2    0    0 -0.40416724735E-02  0.12877522721E-01  0.19136651250E-01  0.10205125465E+01  0.10202438338E+01 0.  0.
     999903    2    3    3    0    0  0.11200434953E+00  0.58337304517E-01  0.31410584221E-01  0.13164589709E+00  0.19894773366E-01 0.  0.
         14    1    1    2    0    0  0.40416724735E-02 -0.12877522721E-01 -0.19136651250E-01  0.23417453510E-01  0.00000000000E+00 0.  1.
     999901    1    3    3    0    0 -0.11604602201E+00 -0.45459781795E-01 -0.12273932972E-01  0.88886664940E+00  0.88000000000E+00 0.  1.
        -11    1    4    4    0    0  0.79024793661E-01  0.30661005453E-01  0.21953182186E-01  0.87562655268E-01  0.51100000000E-03 0.  1.
         11    1    4    4    0    0  0.32979555872E-01  0.27676299063E-01  0.94574020351E-02  0.44083241823E-01  0.51100000000E-03 0. -1.
</event>
<event>
 8    1  0.1146431E+005  0.1043930E+01  0.7957747E-01            NaN
         13   -1    0    0    0    0  0.00000000000E+00  0.00000000000E+00  0.74505805969E-08  0.10566000000E+00  0.10566000000E+00 0.  1.
     999900   -1    0    0    0    0 -0.00000000000E+00 -0.00000000000E+00 -0.74505805969E-08  0.93827000000E+00  0.93827000000E+00 0. -1.
     999902    2    1    2    0    0  0.39154447043E-02 -0.20318977674E-02 -0.21391261988E-01  0.10220886309E+01  0.10218552363E+01 0.  0.
     999903    2    3    3    0    0 -0.12011727149E+00 -0.94444434617E-02 -0.52133403153E-01  0.13282818547E+00  0.20200958090E-01 0.  0.
         14    1    1    2    0    0 -0.39154447043E-02  0.20318977674E-02  0.21391261988E-01  0.21841369124E-01  0.00000000000E+00 0.  1.
     999901    1    3    3    0    0  0.12403271620E+00  0.74125456943E-02  0.30742141165E-01  0.88926044541E+00  0.88000000000E+00 0.  1.
        -11    1    4    4    0    0 -0.48265691462E-01  0.53259629938E-02 -0.16608094758E-01  0.51322829098E-01  0.51100000000E-03 0.  1.
         11    1    4    4    0    0 -0.71851580031E-01 -0.14770406455E-01 -0.35525308395E-01  0.81505356372E-01  0.51100000000E-03 0. -1.
</event>
<event>
 8    1  0.1146431E+005  0.1043930E+01  0.7957747E-01            NaN
         13   -1    0    0    0    0  0.00000000000E+00  0.00000000000E+00  0.74505805969E-08  0.10566000000E+00  0.10566000000E+00 0.  1.
     999900   -1    0    0    0    0 -0.00000000000E+00 -0.00000000000E+00 -0.74505805969E-08  0.93827000000E+00  0.93827000000E+00 0. -1.
     999902    2    1    2    0    0  0.22632660546E-01 -0.63365786200E-02 -0.37431108986E-02  0.10201308313E+01  0.10198531818E+01 0.  0.
     999903    2    3    3    0    0 -0.48447678128E-01 -0.90068123852E-01  0.77136982275E-01  0.12962256312E+00  0.19810360542E-01 0.  0.
         14    1    1    2    0    0 -0.22632660546E-01  0.63365786200E-02  0.37431108986E-02  0.23799168708E-01  0.00000000000E+00 0.  1.
     999901    1    3    3    0    0  0.71080338674E-01  0.83731545232E-01 -0.80880093174E-01  0.89050826817E+00  0.88000000000E+00 0. -1.
        -11    1    4    4    0    0 -0.45797286497E-01 -0.71656787432E-01  0.58055321355E-01  0.10296974359E+00  0.51100000000E-03 0. -1.
         11    1    4    4    0    0 -0.26503916308E-02 -0.18411336419E-01  0.19081660921E-01  0.26652819533E-01  0.51100000000E-03 0.  1.
</event>
<event>
 8    1  0.1146431E+005  0.1043930E+01  0.7957747E-01            NaN
         13   -1    0    0    0    0  0.00000000000E+00  0.00000000000E+00  0.74505805969E-08  0.10566000000E+00  0.10566000000E+00 0. -1.
     999900   -1    0    0    0    0 -0.00000000000E+00 -0.00000000000E+00 -0.74505805969E-08  0.93827000000E+00  0.93827000000E+00 0.  1.
     999902    2    1    2    0    0  0.22157870039E-02  0.16356662315E-01 -0.17978842320E-01  0.10195232615E+01  0.10192310787E+01 0.  0.
     999903    2    3    3    0    0 -0.13164188313E-01  0.82888774138E-01  0.96546389535E-01  0.12947882760E+00  0.19992917058E-01 0.  0.
         14    1    1    2    0    0 -0.22157870039E-02 -0.16356662315E-01  0.17978842320E-01  0.24406738523E-01  0.00000000000E+00 0. -1.
     999901    1    3    3    0    0  0.15379975316E-01 -0.66532111823E-01 -0.11452523186E+00  0.89004443388E+00  0.88000000000E+00 0.  1.
        -11    1    4    4    0    0 -0.97154914389E-03  0.42092134244E-01  0.35652056380E-01  0.55172655529E-01  0.51100000000E-03 0.  1.
         11    1    4    4    0    0 -0.12192639169E-01  0.40796639894E-01  0.60894333155E-01  0.74306172071E-01  0.51100000000E-03 0. -1.
</event>
<event>
 8    1  0.1146431E+005  0.1043930E+01  0.7957747E-01            NaN
         13   -1    0    0    0    0  0.00000000000E+00  0.00000000000E+00  0.74505805969E-08  0.10566000000E+00  0.10566000000E+00 0. -1.
     999900   -1    0    0    0    0 -0.00000000000E+00 -0.00000000000E+00 -0.74505805969E-08  0.93827000000E+00  0.93827000000E+00 0.  1.
     999902    2    1    2    0    0  0.53158272653E-02  0.65646292980E-02  0.21540384839E-01  0.10207925724E+01  0.10205303206E+01 0.  0.
     999903    2    3    3    0    0  0.93815315809E-01 -0.75030831826E-01 -0.45900675361E-01  0.13004104960E+00  0.19309670590E-01 0.  0.
         14    1    1    2    0    0 -0.53158272653E-02 -0.65646292980E-02 -0.21540384839E-01  0.23137427609E-01  0.00000000000E+00 0.  1.
     999901    1    3    3    0    0 -0.88499488544E-01  0.81595461124E-01  0.67441060200E-01  0.89075152279E+00  0.88000000000E+00 0. -1.
        -11    1    4    4    0    0  0.65649043934E-01 -0.46079653497E-01 -0.22274190178E-01  0.83243811211E-01  0.51100000000E-03 0.  1.
         11    1    4    4    0    0  0.28166271875E-01 -0.28951178329E-01 -0.23626485183E-01  0.46797238392E-01  0.51100000000E-03 0. -1.
</event>
<event>
 8    1  0.1146431E+005  0.1043930E+01  0.7957747E-01            NaN
         13   -1    0    0    0    0  0.00000000000E+00  0.00000000000E+00  0.74505805969E-08  0.10566000000E+00  0.10566000000E+00 0.  1.
     999900   -1    0    0    0    0 -0.00000000000E+00 -0.00000000000E+00 -0.74505805969E-08  0.93827000000E+00  0.93827000000E+00 0. -1.
     999902    2    1    2    0    0  0.11061040021E-01  0.11047721241E-01 -0.18340991868E-01  0.10198303997E+01  0.10195456113E+01 0.  0.
     999903    2    3    3    0    0 -0.97495366787E-01 -0.49666264364E-02 -0.84267550496E-01  0.13056819771E+00  0.20421074007E-01 0.  0.
         14    1    1    2    0    0 -0.11061040021E-01 -0.11047721241E-01  0.18340991868E-01  0.24099600280E-01  0.00000000000E+00 0.  1.
     999901    1    3    3    0    0  0.10855640681E+00  0.16014347677E-01  0.65926558629E-01  0.88926220201E+00  0.88000000000E+00 0. -1.
        -11    1    4    4    0    0 -0.14177667897E-01 -0.78829057838E-03 -0.39101028328E-02  0.14736949962E-01  0.51100000000E-03 0. -1.
         11    1    4    4    0    0 -0.83317698890E-01 -0.41783358580E-02 -0.80357447664E-01  0.11583124775E+00  0.51100000000E-03 0.  1.
</event>
<event>
 8    1  0.1146431E+005  0.1043930E+01  0.7957747E-01            NaN
         13   -1    0    0    0    0  0.00000000000E+00  0.00000000000E+00  0.74505805969E-08  0.10566000000E+00  0.10566000000E+00 0. -1.
     999900   -1    0    0    0    0 -0.00000000000E+00 -0.00000000000E+00 -0.74505805969E-08  0.93827000000E+00  0.93827000000E+00 0. -1.
     999902    2    1    2    0    0 -0.11757895998E-01  0.45987612334E-02  0.19879655794E-01  0.10203801075E+01  0.10201083111E+01 0.  0.
     999903    2    3    3    0    0 -0.96968278404E-01 -0.84535283156E-01  0.22880907299E-01  0.13177744338E+00  0.17108405816E-01 0.  0.
         14    1    1    2    0    0  0.11757895998E-01 -0.45987612334E-02 -0.19879655794E-01  0.23549892519E-01  0.00000000000E+00 0.  1.
     999901    1    3    3    0    0  0.85210382406E-01  0.89134044390E-01 -0.30012515056E-02  0.88860266410E+00  0.88000000000E+00 0. -1.
        -11    1    4    4    0    0 -0.60400735878E-01 -0.53987793719E-01  0.60405377487E-02  0.81238414451E-01  0.51100000000E-03 0. -1.
         11    1    4    4    0    0 -0.36567542526E-01 -0.30547489437E-01  0.16840369551E-01  0.50539028927E-01  0.51100000000E-03 0.  1.
</event>
<event>
 8    1  0.1146431E+005  0.1043930E+01  0.7957747E-01            NaN
         13   -1    0    0    0    0  0.00000000000E+00  0.00000000000E+00  0.74505805969E-08  0.10566000000E+00  0.10566000000E+00 0. -1.
     999900   -1    0    0    0    0 -0.00000000000E+00 -0.00000000000E+00 -0.74505805969E-08  0.93827000000E+00  0.93827000000E+00 0.  1.
     999902    2    1    2    0    0  0.18298210997E-01  0.15887249764E-01  0.46602086338E-02  0.10192531531E+01  0.10189543872E+01 0.  0.
     999903    2    3    3    0    0  0.24139102674E-02  0.45501859817E-01  0.12111604370E+00  0.13094504341E+00  0.20031528726E-01 0.  0.
         14    1    1    2    0    0 -0.18298210997E-01 -0.15887249764E-01 -0.46602086338E-02  0.24676846948E-01  0.00000000000E+00 0. -1.
     999901    1    3    3    0    0  0.15884300730E-01 -0.29614610053E-01 -0.11645583506E+00  0.88830810964E+00  0.88000000000E+00 0.  1.
        -11    1    4    4    0    0  0.22583826494E-02  0.33540081860E-01  0.61029607625E-01  0.69677195059E-01  0.51100000000E-03 0. -1.
         11    1    4    4    0    0  0.15552761800E-03  0.11961777957E-01  0.60086436071E-01  0.61267848350E-01  0.51100000000E-03 0.  1.
</event>
<event>
 8    1  0.1146431E+005  0.1043930E+01  0.7957747E-01            NaN
         13   -1    0    0    0    0  0.00000000000E+00  0.00000000000E+00  0.74505805969E-08  0.10566000000E+00  0.10566000000E+00 0.  1.
     999900   -1    0    0    0    0 -0.00000000000E+00 -0.00000000000E+00 -0.74505805969E-08  0.93827000000E+00  0.93827000000E+00 0. -1.
     999902    2    1    2    0    0  0.17885603282E-01 -0.15707833325E-01  0.46139100332E-02  0.10196829590E+01  0.10193946330E+01 0.  0.
     999903    2    3    3    0    0 -0.10203632685E+00 -0.68631121576E-01 -0.34012415739E-01  0.12913585926E+00  0.19939480375E-01 0.  0.
         14    1    1    2    0    0 -0.17885603282E-01  0.15707833325E-01 -0.46139100332E-02  0.24247041022E-01  0.00000000000E+00 0.  1.
     999901    1    3    3    0    0  0.11992193013E+00  0.52923288252E-01  0.38626325772E-01  0.89054709971E+00  0.88000000000E+00 0.  1.
        -11    1    4    4    0    0 -0.57376348990E-01 -0.49145990768E-01 -0.16292661422E-01  0.77285741047E-01  0.51100000000E-03 0.  1.
         11    1    4    4    0    0 -0.44659977860E-01 -0.19485130809E-01 -0.17719754317E-01  0.51850118217E-01  0.51100000000E-03 0. -1.
</event>
<event>
 8    1  0.1146431E+005  0.1043930E+01  0.7957747E-01            NaN
         13   -1    0    0    0    0  0.00000000000E+00  0.00000000000E+00  0.74505805969E-08  0.10566000000E+00  0.10566000000E+00 0.  1.
     999900   -1    0    0    0    0 -0.00000000000E+00 -0.00000000000E+00 -0.74505805969E-08  0.93827000000E+00  0.93827000000E+00 0. -1.
     999902    2    1    2    0    0 -0.29209907261E-02 -0.18853425359E-01 -0.12222089807E-01  0.10212724778E+01  0.10210211117E+01 0.  0.
     999903    2    3    3    0    0 -0.13226753254E-01  0.18513659559E-01  0.12710380385E+00  0.12946856859E+00  0.94356084609E-02 0.  0.
         14    1    1    2    0    0  0.29209907261E-02  0.18853425359E-01  0.12222089807E-01  0.22657522236E-01  0.00000000000E+00 0. -1.
     999901    1    3    3    0    0  0.10305762528E-01 -0.37367084918E-01 -0.13932589366E+00  0.89180390918E+00  0.88000000000E+00 0. -1.
        -11    1    4    4    0    0 -0.73118744992E-02  0.70190114552E-02  0.79236977351E-01  0.79884227049E-01  0.51100000000E-03 0. -1.
         11    1    4    4    0    0 -0.59148787551E-02  0.11494648103E-01  0.47866826501E-01  0.49584341540E-01  0.51100000000E-03 0.  1.
</event>
<event>
 8    1  0.1146431E+005  0.1043930E+01  0.7957747E-01            NaN
         13   -1    0    0    0    0  0.00000000000E+00  0.00000000000E+00  0.74505805969E-08  0.10566000000E+00  0.10566000000E+00 0. -1.
     999900   -1    0    0    0    0 -0.00000000000E+00 -0.00000000000E+00 -0.74505805969E-08  0.93827000000E+00  0.93827000000E+00 0. -1.
     999902    2    1    2    0    0 -0.13153977164E-02 -0.11690998345E-01 -0.21607950133E-01  0.10193268859E+01  0.10190299246E+01 0.  0.
     999903    2    3    3    0    0  0.57827543698E-01 -0.83861906081E-01 -0.83057120264E-01  0.13226289276E+00  0.14769680915E-01 0.  0.
         14    1    1    2    0    0  0.13153977164E-02  0.11690998345E-01  0.21607950133E-01  0.24603114080E-01  0.00000000000E+00 0. -1.
     999901    1    3    3    0    0 -0.59142941414E-01  0.72170907736E-01  0.61449170130E-01  0.88706399316E+00  0.88000000000E+00 0.  1.
        -11    1    4    4    0    0  0.35290658673E-01 -0.53299092618E-01 -0.42865535139E-01  0.76967129914E-01  0.51100000000E-03 0.  1.
         11    1    4    4    0    0  0.22536885025E-01 -0.30562813463E-01 -0.40191585125E-01  0.55295762851E-01  0.51100000000E-03 0. -1.
</event>
<event>
 8    1  0.1146431E+005  0.1043930E+01  0.7957747E-01            NaN
         13   -1    0    0    0    0  0.00000000000E+00  0.00000000000E+00  0.74505805969E-08  0.10566000000E+00  0.10566000000E+00 0.  1.
     999900   -1    0    0    0    0 -0.00000000000E+00 -0.00000000000E+00 -0.74505805969E-08  0.93827000000E+00  0.93827000000E+00 0.  1.
     999902    2    1    2    0    0 -0.22677206156E-01 -0.24921215663E-01  0.14608183693E-01  0.10072050534E+01  0.10065352940E+01 0.  0.
     999903    2    3    3    0    0 -0.82925217701E-01  0.81860142961E-01  0.99914717362E-02  0.11869315398E+00  0.20262294006E-01 0.  0.
         14    1    1    2    0    0  0.22677206156E-01  0.24921215663E-01 -0.14608183693E-01  0.36724946562E-01  0.00000000000E+00 0.  1.
     999901    1    3    3    0    0  0.60248011545E-01 -0.10678135862E+00  0.46167119567E-02  0.88851189946E+00  0.88000000000E+00 0. -1.
        -11    1    4    4    0    0 -0.16071123256E-01  0.14383230358E-01  0.98219966996E-02  0.23704241359E-01  0.51100000000E-03 0. -1.
         11    1    4    4    0    0 -0.66854094445E-01  0.67476912603E-01  0.16947503661E-03  0.94988912623E-01  0.51100000000E-03 0.  1.
</event>
<event>
 8    1  0.1146431E+005  0.1043930E+01  0.7957747E-01            NaN
         13   -1    0    0    0    0  0.00000000000E+00  0.00000000000E+00  0.74505805969E-08  0.10566000000E+00  0.10566000000E+00 0. -1.
     999900   -1    0    0    0    0 -0.00000000000E+00 -0.00000000000E+00 -0.74505805969E-08  0.93827000000E+00  0.93827000000E+00 0.  1.
     999902    2    1    2    0    0 -0.32762949683E-02 -0.18701996834E-01 -0.14157661403E-01  0.10202458667E+01  0.10199709262E+01 0.  0.
     999903    2    3    3    0    0 -0.12924753203E+00  0.36734232089E-02  0.25926727820E-02  0.13083595799E+00  0.19821891352E-01 0.  0.
         14    1    1    2    0    0  0.32762949683E-02  0.18701996834E-01  0.14157661403E-01  0.23684133311E-01  0.00000000000E+00 0. -1.
     999901    1    3    3    0    0  0.12597123707E+00 -0.22375420043E-01 -0.16750334185E-01  0.88940990870E+00  0.88000000000E+00 0. -1.
        -11    1    4    4    0    0 -0.61292231704E-01 -0.65759077252E-02  0.65698445534E-02  0.61995195041E-01  0.51100000000E-03 0. -1.
         11    1    4    4    0    0 -0.67955300331E-01  0.10249330934E-01 -0.39771717713E-02  0.68840762953E-01  0.51100000000E-03 0.  1.
</event>
<event>
 8    1  0.1146431E+005  0.1043930E+01  0.7957747E-01            NaN
         13   -1    0    0    0    0  0.00000000000E+00  0.00000000000E+00  0.74505805969E-08  0.10566000000E+00  0.10566000000E+00 0. -1.
     999900   -1    0    0    0    0 -0.00000000000E+00 -0.00000000000E+00 -0.74505805969E-08  0.93827000000E+00  0.93827000000E+00 0. -1.
     999902    2    1    2    0    0 -0.13069221925E-01 -0.81610582854E-02 -0.27021149780E-02  0.10282868271E+01  0.10281678316E+01 0.  0.
     999903    2    3    3    0    0  0.61355658679E-01 -0.51033445586E-01  0.10953040141E+00  0.13701063969E+00  0.20151355648E-01 0.  0.
         14    1    1    2    0    0  0.13069221925E-01  0.81610582854E-02  0.27021149780E-02  0.15643172933E-01  0.00000000000E+00 0.  1.
     999901    1    3    3    0    0 -0.74424880604E-01  0.42872387300E-01 -0.11223251639E+00  0.89127618737E+00  0.88000000000E+00 0. -1.
        -11    1    4    4    0    0  0.49149325315E-01 -0.30521575577E-01  0.69832563718E-01  0.90686662917E-01  0.51100000000E-03 0. -1.
         11    1    4    4    0    0  0.12206333364E-01 -0.20511870009E-01  0.39697837696E-01  0.46323976775E-01  0.51100000000E-03 0.  1.
</event>
<event>
 8    1  0.1146431E+005  0.1043930E+01  0.7957747E-01            NaN
         13   -1    0    0    0    0  0.00000000000E+00  0.00000000000E+00  0.74505805969E-08  0.10566000000E+00  0.10566000000E+00 0.  1.
     999900   -1    0    0    0    0 -0.00000000000E+00 -0.00000000000E+00 -0.74505805969E-08  0.93827000000E+00  0.93827000000E+00 0. -1.
     999902    2    1    2    0    0 -0.21490373561E-01  0.69669380505E-02  0.42670359334E-02  0.10209390892E+01  0.10206801859E+01 0.  0.
     999903    2    3    3    0    0 -0.11076154441E+00  0.25598164516E-01 -0.67297056561E-01  0.13333676620E+00  0.18066921500E-01 0.  0.
         14    1    1    2    0    0  0.21490373561E-01 -0.69669380505E-02 -0.42670359334E-02  0.22990910753E-01  0.00000000000E+00 0. -1.
     999901    1    3    3    0    0  0.89271170848E-01 -0.18631226466E-01  0.71564092495E-01  0.88760232305E+00  0.88000000000E+00 0.  1.
        -11    1    4    4    0    0 -0.42898674223E-01  0.10599909418E-01 -0.36501847980E-01  0.57317539695E-01  0.51100000000E-03 0.  1.
         11    1    4    4    0    0 -0.67862870185E-01  0.14998255098E-01 -0.30795208581E-01  0.76019226505E-01  0.51100000000E-03 0. -1.
</event>
<event>
 8    1  0.1146431E+005  0.1043930E+01  0.7957747E-01            NaN
         13   -1    0    0    0    0  0.00000000000E+00  0.00000000000E+00  0.74505805969E-08  0.10566000000E+00  0.10566000000E+00 0. -1.
     999900   -1    0    0    0    0 -0.00000000000E+00 -0.00000000000E+00 -0.74505805969E-08  0.93827000000E+00  0.93827000000E+00 0.  1.
     999902    2    1    2    0    0  0.86005919487E-03  0.20699944918E-01 -0.11708626386E-01  0.10201325347E+01  0.10198549255E+01 0.  0.
     999903    2    3    3    0    0 -0.12591364385E+00 -0.80506204601E-02 -0.26226206200E-01  0.13046466023E+00  0.20350810271E-01 0.  0.
         14    1    1    2    0    0 -0.86005919487E-03 -0.20699944918E-01  0.11708626386E-01  0.23797465270E-01  0.00000000000E+00 0. -1.
     999901    1    3    3    0    0  0.12677370305E+00  0.28750565378E-01  0.14517579815E-01  0.88966787450E+00  0.88000000000E+00 0. -1.
        -11    1    4    4    0    0 -0.79909240387E-01  0.46786578061E-02 -0.17487288498E-01  0.81935602262E-01  0.51100000000E-03 0. -1.
         11    1    4    4    0    0 -0.46004403468E-01 -0.12729278266E-01 -0.87389177019E-02  0.48529057968E-01  0.51100000000E-03 0.  1.
</event>
<event>
 8    1  0.1146431E+005  0.1043930E+01  0.7957747E-01            NaN
         13   -1    0    0    0    0  0.00000000000E+00  0.00000000000E+00  0.74505805969E-08  0.10566000000E+00  0.10566000000E+00 0. -1.
     999900   -1    0    0    0    0 -0.00000000000E+00 -0.00000000000E+00 -0.74505805969E-08  0.93827000000E+00  0.93827000000E+00 0.  1.
     999902    2    1    2    0    0 -0.19361518845E-01  0.67214731764E-02  0.11621129223E-01  0.10203694979E+01  0.10200974537E+01 0.  0.
     999903    2    3    3    0    0  0.94682350270E-01 -0.48821298624E-01  0.70709042944E-01  0.12931260573E+00  0.19331699204E-01 0.  0.
         14    1    1    2    0    0  0.19361518845E-01 -0.67214731764E-02 -0.11621129223E-01  0.23560502076E-01  0.00000000000E+00 0.  1.
     999901    1    3    3    0    0 -0.11404386911E+00  0.55542771801E-01 -0.59087913721E-01  0.89105689220E+00  0.88000000000E+00 0. -1.
        -11    1    4    4    0    0  0.11329717903E-01 -0.10380188246E-01  0.17174520826E-01  0.23050728891E-01  0.51100000000E-03 0.  1.
         11    1    4    4    0    0  0.83352632367E-01 -0.38441110378E-01  0.53534522118E-01  0.10626187684E+00  0.51100000000E-03 0. -1.
</event>
<event>
 8    1  0.1146431E+005  0.1043930E+01  0.7957747E-01            NaN
         13   -1    0    0    0    0  0.00000000000E+00  0.00000000000E+00  0.74505805969E-08  0.10566000000E+00  0.10566000000E+00 0.  1.
     999900   -1    0    0    0    0 -0.00000000000E+00 -0.00000000000E+00 -0.74505805969E-08  0.93827000000E+00  0.93827000000E+00 0. -1.
     999902    2    1    2    0    0 -0.14185653673E-01 -0.18239334506E-01 -0.60261512241E-02  0.10200507079E+01  0.10197711636E+01 0.  0.
     999903    2    3    3    0    0 -0.85435122956E-01  0.91410210603E-01  0.30810890704E-01  0.12962582207E+00  0.14090987365E-01 0.  0.
         14    1    1    2    0    0  0.14185653673E-01  0.18239334506E-01  0.60261512241E-02  0.23879292115E-01  0.00000000000E+00 0. -1.
     999901    1    3    3    0    0  0.71249469283E-01 -0.10964954511E+00 -0.36837041928E-01  0.89042488581E+00  0.88000000000E+00 0. -1.
        -11    1    4    4    0    0 -0.80991416751E-02  0.11624277218E-01  0.76938101827E-02  0.16129964440E-01  0.51100000000E-03 0.  1.
         11    1    4    4    0    0 -0.77335981281E-01  0.79785933384E-01  0.23117080522E-01  0.11349585763E+00  0.51100000000E-03 0. -1.
</event>
<event>
 8    1  0.1146431E+005  0.1043930E+01  0.7957747E-01            NaN
         13   -1    0    0    0    0  0.00000000000E+00  0.00000000000E+00  0.74505805969E-08  0.10566000000E+00  0.10566000000E+00 0. -1.
     999900   -1    0    0    0    0 -0.00000000000E+00 -0.00000000000E+00 -0.74505805969E-08  0.93827000000E+00  0.93827000000E+00 0. -1.
     999902    2    1    2    0    0 -0.13628835905E-01 -0.13041710707E-01 -0.14685480764E-01  0.10200240440E+01  0.10197438677E+01 0.  0.
     999903    2    3    3    0    0  0.73230635233E-01 -0.63491396212E-02 -0.10648041997E+00  0.13097080090E+00  0.20303530262E-01 0.  0.
         14    1    1    2    0    0  0.13628835905E-01  0.13041710707E-01  0.14685480764E-01  0.23905955985E-01  0.00000000000E+00 0. -1.
     999901    1    3    3    0    0 -0.86859471139E-01 -0.66925710859E-02  0.91794939201E-01  0.88905324312E+00  0.88000000000E+00 0.  1.
        -11    1    4    4    0    0  0.36523147276E-01 -0.10235394834E-01 -0.41412553604E-01  0.56160166590E-01  0.51100000000E-03 0. -1.
         11    1    4    4    0    0  0.36707487957E-01  0.38862552130E-02 -0.65067866361E-01  0.74810634308E-01  0.51100000000E-03 0.  1.
</event>
<event>
 8    1  0.1146431E+005  0.1043930E+01  0.7957747E-01            NaN
         13   -1    0    0    0    0  0.00000000000E+00  0.00000000000E+00  0.74505805969E-08  0.10566000000E+00  0.10566000000E+00 0. -1.
     999900   -1    0    0    0    0 -0.00000000000E+00 -0.00000000000E+00 -0.74505805969E-08  0.93827000000E+00  0.93827000000E+00 0.  1.
     999902    2    1    2    0    0  0.11420778090E-01  0.29110622063E-02  0.18690599374E-01  0.10218336890E+01  0.10215947538E+01 0.  0.
     999903    2    3    3    0    0  0.19305301033E-01 -0.37988275217E-01  0.12425268397E+00  0.13454665809E+00  0.29125075569E-01 0.  0.
         14    1    1    2    0    0 -0.11420778090E-01 -0.29110622063E-02 -0.18690599374E-01  0.22096311011E-01  0.00000000000E+00 0.  1.
     999901    1    3    3    0    0 -0.78845229425E-02  0.40899337424E-01 -0.10556208459E+00  0.88728703090E+00  0.88000000000E+00 0. -1.
        -11    1    4    4    0    0 -0.50741024716E-02 -0.32162818451E-02  0.37212763592E-01  0.37698035492E-01  0.51100000000E-03 0. -1.
         11    1    4    4    0    0  0.24379403504E-01 -0.34771993372E-01  0.87039920376E-01  0.96848622595E-01  0.51100000000E-03 0.  1.
</event>
<event>
 8    1  0.1146431E+005  0.1043930E+01  0.7957747E-01            NaN
         13   -1    0    0    0    0  0.00000000000E+00  0.00000000000E+00  0.74505805969E-08  0.10566000000E+00  0.10566000000E+00 0.  1.
     999900   -1    0    0    0    0 -0.00000000000E+00 -0.00000000000E+00 -0.74505805969E-08  0.93827000000E+00  0.93827000000E+00 0. -1.
     999902    2    1    2    0    0  0.25685533805E-02 -0.72333115567E-02 -0.23260346647E-01  0.10194358785E+01  0.10191415742E+01 0.  0.
     999903    2    3    3    0    0 -0.19917501020E-02 -0.25681159304E-01 -0.12886420579E+00  0.13291836906E+00  0.19945432787E-01 0.  0.
         14    1    1    2    0    0 -0.25685533805E-02  0.72333115567E-02  0.23260346647E-01  0.24494121513E-01  0.00000000000E+00 0.  1.
     999901    1    3    3    0    0  0.45603034825E-02  0.18447847747E-01  0.10560385914E+00  0.88651750943E+00  0.88000000000E+00 0.  1.
        -11    1    4    4    0    0  0.53126366353E-02 -0.16857139477E-01 -0.46294930047E-01  0.49556724351E-01  0.51100000000E-03 0. -1.
         11    1    4    4    0    0 -0.73043867373E-02 -0.88240198270E-02 -0.82569275739E-01  0.83361644709E-01  0.51100000000E-03 0.  1.
</event>
<event>
 8    1  0.1146431E+005  0.1043930E+01  0.7957747E-01            NaN
         13   -1    0    0    0    0  0.00000000000E+00  0.00000000000E+00  0.74505805969E-08  0.10566000000E+00  0.10566000000E+00 0. -1.
     999900   -1    0    0    0    0 -0.00000000000E+00 -0.00000000000E+00 -0.74505805969E-08  0.93827000000E+00  0.93827000000E+00 0.  1.
     999902    2    1    2    0    0  0.14062359858E-01  0.13485884492E-01 -0.12605545667E-01  0.10207239916E+01  0.10204601649E+01 0.  0.
     999903    2    3    3    0    0 -0.62941116489E-01  0.95324723654E-01 -0.63299068623E-01  0.13213130410E+00  0.20087865762E-01 0.  0.
         14    1    1    2    0    0 -0.14062359858E-01 -0.13485884492E-01  0.12605545667E-01  0.23206008421E-01  0.00000000000E+00 0. -1.
     999901    1    3    3    0    0  0.77003476347E-01 -0.81838839162E-01  0.50693522956E-01  0.88859268748E+00  0.88000000000E+00 0.  1.
        -11    1    4    4    0    0 -0.10678462465E-01  0.31969763488E-01 -0.15487835912E-01  0.37097567580E-01  0.51100000000E-03 0.  1.
         11    1    4    4    0    0 -0.52262654024E-01  0.63354960166E-01 -0.47811232711E-01  0.95033736524E-01  0.51100000000E-03 0. -1.
</event>
<event>
 8    1  0.1146431E+005  0.1043930E+01  0.7957747E-01            NaN
         13   -1    0    0    0    0  0.00000000000E+00  0.00000000000E+00  0.74505805969E-08  0.10566000000E+00  0.10566000000E+00 0. -1.
     999900   -1    0    0    0    0 -0.00000000000E+00 -0.00000000000E+00 -0.74505805969E-08  0.93827000000E+00  0.93827000000E+00 0.  1.
     999902    2    1    2    0    0 -0.20999230980E-01 -0.60009989702E-02 -0.13280045990E-01  0.10183694970E+01  0.10180486694E+01 0.  0.
     999903    2    3    3    0    0  0.70420921348E-01  0.99732938788E-01 -0.27809208395E-01  0.12721944996E+00  0.22487132609E-01 0.  0.
         14    1    1    2    0    0  0.20999230980E-01  0.60009989702E-02  0.13280045990E-01  0.25560502966E-01  0.00000000000E+00 0. -1.
     999901    1    3    3    0    0 -0.91420152328E-01 -0.10573393776E+00  0.14529162406E-01  0.89115004708E+00  0.88000000000E+00 0. -1.
        -11    1    4    4    0    0  0.39443048696E-01  0.65095500748E-01 -0.74332330169E-02  0.76476744061E-01  0.51100000000E-03 0. -1.
         11    1    4    4    0    0  0.30977872652E-01  0.34637438039E-01 -0.20375975378E-01  0.50742705896E-01  0.51100000000E-03 0.  1.
</event>
<event>
 8    1  0.1146431E+005  0.1043930E+01  0.7957747E-01            NaN
         13   -1    0    0    0    0  0.00000000000E+00  0.00000000000E+00  0.74505805969E-08  0.10566000000E+00  0.10566000000E+00 0.  1.
     999900   -1    0    0    0    0 -0.00000000000E+00 -0.00000000000E+00 -0.74505805969E-08  0.93827000000E+00  0.93827000000E+00 0. -1.
     999902    2    1    2    0    0 -0.15037144720E-02 -0.80311288581E-02 -0.22280782135E-01  0.10201983030E+01  0.10199222441E+01 0.  0.
     999903    2    3    3    0    0  0.50953934142E-01  0.71392159854E-01  0.91052992361E-01  0.12783940208E+00  0.18950499006E-01 0.  0.
         14    1    1    2    0    0  0.15037144720E-02  0.80311288581E-02  0.22280782135E-01  0.23731696958E-01  0.00000000000E+00 0.  1.
     999901    1    3    3    0    0 -0.52457648614E-01 -0.79423288712E-01 -0.11333377450E+00  0.89235890096E+00  0.88000000000E+00 0. -1.
        -11    1    4    4    0    0  0.11592027159E-01  0.26117623249E-01  0.39391006668E-01  0.48666393591E-01  0.51100000000E-03 0. -1.
         11    1    4    4    0    0  0.39361906983E-01  0.45274536604E-01  0.51661985693E-01  0.79173008487E-01  0.51100000000E-03 0.  1.
</event>
<event>
 8    1  0.1146431E+005  0.1043930E+01  0.7957747E-01            NaN
         13   -1    0    0    0    0  0.00000000000E+00  0.00000000000E+00  0.74505805969E-08  0.10566000000E+00  0.10566000000E+00 0.  1.
     999900   -1    0    0    0    0 -0.00000000000E+00 -0.00000000000E+00 -0.74505805969E-08  0.93827000000E+00  0.93827000000E+00 0.  1.
     999902    2    1    2    0    0  0.34077492790E-03 -0.13373272160E-01 -0.19155264086E-01  0.10205658249E+01  0.10202983477E+01 0.  0.
     999903    2    3    3    0    0 -0.97910080787E-02  0.10687662722E+00  0.67041943349E-01  0.12815748233E+00  0.20279073557E-01 0.  0.
         14    1    1    2    0    0 -0.34077492790E-03  0.13373272160E-01  0.19155264086E-01  0.23364175098E-01  0.00000000000E+00 0.  1.
     999901    1    3    3    0    0  0.10131783007E-01 -0.12024989938E+00 -0.86197207435E-01  0.89240834257E+00  0.88000000000E+00 0.  1.
        -11    1    4    4    0    0 -0.16397355441E-02  0.49252583567E-01  0.42184519011E-01  0.64871415013E-01  0.51100000000E-03 0.  1.
         11    1    4    4    0    0 -0.81512725346E-02  0.57624043648E-01  0.24857424338E-01  0.63286067314E-01  0.51100000000E-03 0. -1.
</event>
<event>
 8    1  0.1146431E+005  0.1043930E+01  0.7957747E-01            NaN
         13   -1    0    0    0    0  0.00000000000E+00  0.00000000000E+00  0.74505805969E-08  0.10566000000E+00  0.10566000000E+00 0. -1.
     999900   -1    0    0    0    0 -0.00000000000E+00 -0.00000000000E+00 -0.74505805969E-08  0.93827000000E+00  0.93827000000E+00 0. -1.
     999902    2    1    2    0    0  0.10613399414E-01 -0.12818086881E-01  0.15786007501E-01  0.10209921354E+01  0.10207344390E+01 0.  0.
     999903    2    3    3    0    0  0.10962737390E-01  0.96290375525E-01 -0.82712830073E-01  0.12880000387E+00  0.18868246036E-01 0.  0.
         14    1    1    2    0    0 -0.10613399414E-01  0.12818086881E-01 -0.15786007501E-01  0.22937864574E-01  0.00000000000E+00 0. -1.
     999901    1    3    3    0    0 -0.34933797668E-03 -0.10910846241E+00  0.98498837575E-01  0.89219213156E+00  0.88000000000E+00 0.  1.
        -11    1    4    4    0    0  0.22432452994E-02  0.41163400845E-01 -0.47084515951E-01  0.62583308333E-01  0.51100000000E-03 0. -1.
         11    1    4    4    0    0  0.87194920911E-02  0.55126974680E-01 -0.35628314123E-01  0.66216695538E-01  0.51100000000E-03 0.  1.
</event>
<event>
 8    1  0.1146431E+005  0.1043930E+01  0.7957747E-01            NaN
         13   -1    0    0    0    0  0.00000000000E+00  0.00000000000E+00  0.74505805969E-08  0.10566000000E+00  0.10566000000E+00 0.  1.
     999900   -1    0    0    0    0 -0.00000000000E+00 -0.00000000000E+00 -0.74505805969E-08  0.93827000000E+00  0.93827000000E+00 0.  1.
     999902    2    1    2    0    0 -0.92854365026E-02 -0.88880569615E-02 -0.20304699035E-01  0.10198988184E+01  0.10196156639E+01 0.  0.
     999903    2    3    3    0    0 -0.50420325232E-01  0.11738975990E+00 -0.10603696287E-01  0.12988068622E+00  0.20832411075E-01 0.  0.
         14    1    1    2    0    0  0.92854365026E-02  0.88880569615E-02  0.20304699035E-01  0.24031181629E-01  0.00000000000E+00 0.  1.
     999901    1    3    3    0    0  0.41134888730E-01 -0.12627781687E+00 -0.97010027480E-02  0.89001813215E+00  0.88000000000E+00 0. -1.
        -11    1    4    4    0    0 -0.18311634470E-01  0.66486559864E-01 -0.12742793649E-02  0.68975818288E-01  0.51100000000E-03 0.  1.
         11    1    4    4    0    0 -0.32108690763E-01  0.50903200039E-01 -0.93294169220E-02  0.60904867932E-01  0.51100000000E-03 0. -1.
</event>
<event>
 8    1  0.1146431E+005  0.1043930E+01  0.7957747E-01            NaN
         13   -1    0    0    0    0  0.00000000000E+00  0.00000000000E+00  0.74505805969E-08  0.10566000000E+00  0.10566000000E+00 0.  1.
     999900   -1    0    0    0    0 -0.00000000000E+00 -0.00000000000E+00 -0.74505805969E-08  0.93827000000E+00  0.93827000000E+00 0. -1.
     999902    2    1    2    0    0 -0.96044160627E-02 -0.19640471083E-02 -0.22507866876E-01  0.10193799214E+01  0.10190842545E+01 0.  0.
     999903    2    3    3    0    0 -0.40154935124E-01 -0.11532827293E+00 -0.43820543056E-01  0.13132642520E+00  0.20331271738E-01 0.  0.
         14    1    1    2    0    0  0.96044160627E-02  0.19640471083E-02  0.22507866876E-01  0.24550078621E-01  0.00000000000E+00 0.  1.
     999901    1    3    3    0    0  0.30550519062E-01  0.11336422582E+00  0.21312676180E-01  0.88805349618E+00  0.88000000000E+00 0.  1.
        -11    1    4    4    0    0 -0.12030188496E-01 -0.18236126710E-01 -0.20411111183E-02  0.21947870243E-01  0.51100000000E-03 0. -1.
         11    1    4    4    0    0 -0.28124746628E-01 -0.97092146219E-01 -0.41779431938E-01  0.10937855496E+00  0.51100000000E-03 0.  1.
</event>
<event>
 8    1  0.1146431E+005  0.1043930E+01  0.7957747E-01            NaN
         13   -1    0    0    0    0  0.00000000000E+00  0.00000000000E+00  0.74505805969E-08  0.10566000000E+00  0.10566000000E+00 0.  1.
     999900   -1    0    0    0    0 -0.00000000000E+00 -0.00000000000E+00 -0.74505805969E-08  0.93827000000E+00  0.93827000000E+00 0. -1.
     999902    2    1    2    0    0  0.15531290711E-01  0.17981556567E-01  0.29918905003E-02  0.10199819567E+01  0.10197007812E+01 0.  0.
     999903    2    3    3    0    0  0.12408084871E+00  0.39356335199E-01  0.18935285039E-01  0.13291145247E+00  0.19024485291E-01 0.  0.
         14    1    1    2    0    0 -0.15531290711E-01 -0.17981556567E-01 -0.29918905003E-02  0.23948043270E-01  0.00000000000E+00 0. -1.
     999901    1    3    3    0    0 -0.10854955800E+00 -0.21374778632E-01 -0.15943394539E-01  0.88707050426E+00  0.88000000000E+00 0.  1.
        -11    1    4    4    0    0  0.60184533576E-01  0.20970833644E-01 -0.15030645203E-03  0.63735685911E-01  0.51100000000E-03 0. -1.
         11    1    4    4    0    0  0.63896315133E-01  0.18385501555E-01  0.19085591491E-01  0.69175766556E-01  0.51100000000E-03 0.  1.
</event>
<event>
 8    1  0.1146431E+005  0.1043930E+01  0.7957747E-01            NaN
         13   -1    0    0    0    0  0.00000000000E+00  0.00000000000E+00  0.74505805969E-08  0.10566000000E+00  0.10566000000E+00 0.  1.
     999900   -1    0    0    0    0 -0.00000000000E+00 -0.00000000000E+00 -0.74505805969E-08  0.93827000000E+00  0.93827000000E+00 0.  1.
     999902    2    1    2    0    0  0.22124026143E-01 -0.29385855549E-02  0.84635466043E-02  0.10200607847E+01  0.10197814791E+01 0.  0.
     999903    2    3    3    0    0 -0.66951883145E-02 -0.97658489150E-01  0.85023093208E-01  0.13120546946E+00  0.20098327983E-01 0.  0.
         14    1    1    2    0    0 -0.22124026143E-01  0.29385855549E-02 -0.84635466043E-02  0.23869215298E-01  0.00000000000E+00 0.  1.
     999901    1    3    3    0    0  0.28819214457E-01  0.94719903595E-01 -0.76559546603E-01  0.88885531524E+00  0.88000000000E+00 0.  1.
        -11    1    4    4    0    0 -0.68474529116E-02 -0.17954954503E-01  0.96653068532E-02  0.21516209707E-01  0.51100000000E-03 0. -1.
         11    1    4    4    0    0  0.15226459707E-03 -0.79703534647E-01  0.75357786354E-01  0.10968925975E+00  0.51100000000E-03 0.  1.
</event>
<event>
 8    1  0.1146431E+005  0.1043930E+01  0.7957747E-01            NaN
         13   -1    0    0    0    0  0.00000000000E+00  0.00000000000E+00  0.74505805969E-08  0.10566000000E+00  0.10566000000E+00 0.  1.
     999900   -1    0    0    0    0 -0.00000000000E+00 -0.00000000000E+00 -0.74505805969E-08  0.93827000000E+00  0.93827000000E+00 0. -1.
     999902    2    1    2    0    0  0.20024337709E-01 -0.80242380845E-02 -0.10244579189E-01  0.10200487542E+01  0.10197691636E+01 0.  0.
     999903    2    3    3    0    0 -0.10850610743E+00  0.20203406078E-01  0.60610837190E-01  0.12744729485E+00  0.19682134392E-01 0.  0.
         14    1    1    2    0    0 -0.20024337709E-01  0.80242380845E-02  0.10244579189E-01  0.23881245786E-01  0.00000000000E+00 0.  1.
     999901    1    3    3    0    0  0.12853044514E+00 -0.28227644162E-01 -0.70855416379E-01  0.89260145936E+00  0.88000000000E+00 0. -1.
        -11    1    4    4    0    0 -0.17210074098E-01 -0.32673522590E-02  0.13134133863E-01  0.21900430009E-01  0.51100000000E-03 0. -1.
         11    1    4    4    0    0 -0.91296033330E-01  0.23470758337E-01  0.47476703327E-01  0.10554686484E+00  0.51100000000E-03 0.  1.
</event>
<event>
 8    1  0.1146431E+005  0.1043930E+01  0.7957747E-01            NaN
         13   -1    0    0    0    0  0.00000000000E+00  0.00000000000E+00  0.74505805969E-08  0.10566000000E+00  0.10566000000E+00 0. -1.
     999900   -1    0    0    0    0 -0.00000000000E+00 -0.00000000000E+00 -0.74505805969E-08  0.93827000000E+00  0.93827000000E+00 0.  1.
     999902    2    1    2    0    0 -0.26742158830E-02  0.10610004744E-01 -0.20162826866E-01  0.10209895724E+01  0.10207318177E+01 0.  0.
     999903    2    3    3    0    0  0.96598111793E-01 -0.57314802045E-01 -0.65742651358E-01  0.13163795756E+00  0.19755351863E-01 0.  0.
         14    1    1    2    0    0  0.26742158830E-02 -0.10610004744E-01  0.20162826866E-01  0.22940427600E-01  0.00000000000E+00 0. -1.
     999901    1    3    3    0    0 -0.99272327676E-01  0.67924806789E-01  0.45579824492E-01  0.88935161484E+00  0.88000000000E+00 0. -1.
        -11    1    4    4    0    0  0.76417087028E-01 -0.36482951951E-01 -0.44329592338E-01  0.95582168058E-01  0.51100000000E-03 0.  1.
         11    1    4    4    0    0  0.20181024765E-01 -0.20831850094E-01 -0.21413059020E-01  0.36055789501E-01  0.51100000000E-03 0. -1.
</event>
<event>
 8    1  0.1146431E+005  0.1043930E+01  0.7957747E-01            NaN
         13   -1    0    0    0    0  0.00000000000E+00  0.00000000000E+00  0.74505805969E-08  0.10566000000E+00  0.10566000000E+00 0. -1.
     999900   -1    0    0    0    0 -0.00000000000E+00 -0.00000000000E+00 -0.74505805969E-08  0.93827000000E+00  0.93827000000E+00 0.  1.
     999902    2    1    2    0    0 -0.90726000958E-02  0.18432041038E-01  0.11140157384E-01  0.10205600339E+01  0.10202924225E+01 0.  0.
     999903    2    3    3    0    0 -0.85030479297E-01  0.37058481791E-01 -0.90535478753E-01  0.13126004025E+00  0.20712599335E-01 0.  0.
         14    1    1    2    0    0  0.90726000958E-02 -0.18432041038E-01 -0.11140157384E-01  0.23369966108E-01  0.00000000000E+00 0.  1.
     999901    1    3    3    0    0  0.75957879202E-01 -0.18626440753E-01  0.10167563614E+00  0.88929999364E+00  0.88000000000E+00 0. -1.
        -11    1    4    4    0    0 -0.64704168431E-01  0.35596540273E-01 -0.77557728370E-01  0.10709437633E+00  0.51100000000E-03 0. -1.
         11    1    4    4    0    0 -0.20326310867E-01  0.14619415187E-02 -0.12977750384E-01  0.24165663915E-01  0.51100000000E-03 0.  1.
</event>
<event>
 8    1  0.1146431E+005  0.1043930E+01  0.7957747E-01            NaN
         13   -1    0    0    0    0  0.00000000000E+00  0.00000000000E+00  0.74505805969E-08  0.10566000000E+00  0.10566000000E+00 0.  1.
     999900   -1    0    0    0    0 -0.00000000000E+00 -0.00000000000E+00 -0.74505805969E-08  0.93827000000E+00  0.93827000000E+00 0. -1.
     999902    2    1    2    0    0 -0.16567311147E-01  0.12163721907E-01 -0.13293451191E-02  0.10233339060E+01  0.10231266217E+01 0.  0.
     999903    2    3    3    0    0  0.93468002441E-01 -0.85585749999E-02  0.89875726405E-01  0.13156288781E+00  0.20533644734E-01 0.  0.
         14    1    1    2    0    0  0.16567311147E-01 -0.12163721907E-01  0.13293451191E-02  0.20596093992E-01  0.00000000000E+00 0.  1.
     999901    1    3    3    0    0 -0.11003531359E+00  0.20722296907E-01 -0.91205071524E-01  0.89177101820E+00  0.88000000000E+00 0. -1.
        -11    1    4    4    0    0  0.52549883953E-01  0.32411768894E-03  0.61914729598E-01  0.81211392168E-01  0.51100000000E-03 0.  1.
         11    1    4    4    0    0  0.40918118488E-01 -0.88826926888E-02  0.27960996806E-01  0.50351495642E-01  0.51100000000E-03 0. -1.
</event>
<event>
 8    1  0.1146431E+005  0.1043930E+01  0.7957747E-01            NaN
         13   -1    0    0    0    0  0.00000000000E+00  0.00000000000E+00  0.74505805969E-08  0.10566000000E+00  0.10566000000E+00 0.  1.
     999900   -1    0    0    0    0 -0.00000000000E+00 -0.00000000000E+00 -0.74505805969E-08  0.93827000000E+00  0.93827000000E+00 0. -1.
     999902    2    1    2    0    0 -0.11834096832E-01 -0.85580003289E-02 -0.18988960639E-01  0.10199745029E+01  0.10196931502E+01 0.  0.
     999903    2    3    3    0    0 -0.10979448067E+00  0.33237152828E-01  0.58285953304E-01  0.13019111126E+00  0.19822633134E-01 0.  0.
         14    1    1    2    0    0  0.11834096832E-01  0.85580003289E-02  0.18988960639E-01  0.23955497148E-01  0.00000000000E+00 0.  1.
     999901    1    3    3    0    0  0.97960383839E-01 -0.41795153157E-01 -0.77274913943E-01  0.88978339159E+00  0.88000000000E+00 0. -1.
        -11    1    4    4    0    0 -0.51511356054E-01  0.20456225664E-01  0.18331680965E-01  0.58379693549E-01  0.51100000000E-03 0. -1.
         11    1    4    4    0    0 -0.58283124618E-01  0.12780927164E-01  0.39954272339E-01  0.71811417710E-01  0.51100000000E-03 0.  1.
</event>
<event>
 8    1  0.1146431E+005  0.1043930E+01  0.7957747E-01            NaN
         13   -1    0    0    0    0  0.00000000000E+00  0.00000000000E+00  0.74505805969E-08  0.10566000000E+00  0.10566000000E+00 0.  1.
     999900   -1    0    0    0    0 -0.00000000000E+00 -0.00000000000E+00 -0.74505805969E-08  0.93827000000E+00  0.93827000000E+00 0. -1.
     999902    2    1    2    0    0  0.91740155744E-02  0.22831357606E-01 -0.10342591175E-01  0.10172391281E+01  0.10168889030E+01 0.  0.
     999903    2    3    3    0    0  0.27772776438E-01 -0.10630192735E+00  0.53879616289E-01  0.12530537991E+00  0.26962906245E-01 0.  0.
         14    1    1    2    0    0 -0.91740155744E-02 -0.22831357606E-01  0.10342591175E-01  0.26690871925E-01  0.00000000000E+00 0.  1.
     999901    1    3    3    0    0 -0.18598760863E-01  0.12913328495E+00 -0.64222207464E-01  0.89193374817E+00  0.88000000000E+00 0. -1.
        -11    1    4    4    0    0  0.15159405944E-01 -0.74086135363E-01  0.23307494291E-01  0.79133200698E-01  0.51100000000E-03 0. -1.
         11    1    4    4    0    0  0.12613370493E-01 -0.32215791986E-01  0.30572121998E-01  0.46172179209E-01  0.51100000000E-03 0.  1.
</event>
<event>
 8    1  0.1146431E+005  0.1043930E+01  0.7957747E-01            NaN
         13   -1    0    0    0    0  0.00000000000E+00  0.00000000000E+00  0.74505805969E-08  0.10566000000E+00  0.10566000000E+00 0. -1.
     999900   -1    0    0    0    0 -0.00000000000E+00 -0.00000000000E+00 -0.74505805969E-08  0.93827000000E+00  0.93827000000E+00 0. -1.
     999902    2    1    2    0    0  0.16731084138E-01  0.10133346312E-01 -0.50601041764E-02  0.10237255812E+01  0.10235261829E+01 0.  0.
     999903    2    3    3    0    0 -0.11985623241E+00  0.74947334089E-02 -0.51586643132E-01  0.13197013484E+00  0.18255061353E-01 0.  0.
         14    1    1    2    0    0 -0.16731084138E-01 -0.10133346312E-01  0.50601041764E-02  0.20204418779E-01  0.00000000000E+00 0. -1.
     999901    1    3    3    0    0  0.13658731655E+00  0.26386129030E-02  0.46526538955E-01  0.89175544638E+00  0.88000000000E+00 0.  1.
        -11    1    4    4    0    0 -0.39823313729E-01 -0.40406990099E-02 -0.23215914681E-01  0.46275948183E-01  0.51100000000E-03 0.  1.
         11    1    4    4    0    0 -0.80032918678E-01  0.11535432419E-01 -0.28370728451E-01  0.85694186659E-01  0.51100000000E-03 0. -1.
</event>
<event>
 8    1  0.1146431E+005  0.1043930E+01  0.7957747E-01            NaN
         13   -1    0    0    0    0  0.00000000000E+00  0.00000000000E+00  0.74505805969E-08  0.10566000000E+00  0.10566000000E+00 0.  1.
     999900   -1    0    0    0    0 -0.00000000000E+00 -0.00000000000E+00 -0.74505805969E-08  0.93827000000E+00  0.93827000000E+00 0. -1.
     999902    2    1    2    0    0  0.21737099218E-01  0.60069508167E-02 -0.58831699796E-02  0.10206234209E+01  0.10203572760E+01 0.  0.
     999903    2    3    3    0    0  0.30424730635E-01  0.74831401168E-01 -0.10318606901E+00  0.13254677214E+00  0.19896711556E-01 0.  0.
         14    1    1    2    0    0 -0.21737099218E-01 -0.60069508167E-02  0.58831699796E-02  0.23306579104E-01  0.00000000000E+00 0. -1.
     999901    1    3    3    0    0 -0.86876314167E-02 -0.68824450352E-01  0.97302899035E-01  0.88807664876E+00  0.88000000000E+00 0.  1.
        -11    1    4    4    0    0  0.29738065146E-01  0.48805221770E-01 -0.70777251176E-01  0.90972427667E-01  0.51100000000E-03 0. -1.
         11    1    4    4    0    0  0.68666548949E-03  0.26026179398E-01 -0.32408817839E-01  0.41574344472E-01  0.51100000000E-03 0.  1.
</event>
<event>
 8    1  0.1146431E+005  0.1043930E+01  0.7957747E-01            NaN
         13   -1    0    0    0    0  0.00000000000E+00  0.00000000000E+00  0.74505805969E-08  0.10566000000E+00  0.10566000000E+00 0. -1.
     999900   -1    0    0    0    0 -0.00000000000E+00 -0.00000000000E+00 -0.74505805969E-08  0.93827000000E+00  0.93827000000E+00 0. -1.
     999902    2    1    2    0    0  0.24040807221E-01 -0.40303898020E-02 -0.27237223277E-02  0.10194019932E+01  0.10191068642E+01 0.  0.
     999903    2    3    3    0    0  0.87584237113E-01  0.53107355547E-01  0.80457094367E-01  0.13135833567E+00  0.17037561823E-01 0.  0.
         14    1    1    2    0    0 -0.24040807221E-01  0.40303898020E-02  0.27237223277E-02  0.24528006790E-01  0.00000000000E+00 0. -1.
     999901    1    3    3    0    0 -0.63543429892E-01 -0.57137745349E-01 -0.83180816695E-01  0.88804365754E+00  0.88000000000E+00 0.  1.
        -11    1    4    4    0    0  0.65255037937E-01  0.33278842392E-01  0.49929654506E-01  0.88650622373E-01  0.51100000000E-03 0. -1.
         11    1    4    4    0    0  0.22329199176E-01  0.19828513155E-01  0.30527439861E-01  0.42707713299E-01  0.51100000000E-03 0.  1.
</event>
<event>
 8    1  0.1146431E+005  0.1043930E+01  0.7957747E-01            NaN
         13   -1    0    0    0    0  0.00000000000E+00  0.00000000000E+00  0.74505805969E-08  0.10566000000E+00  0.10566000000E+00 0. -1.
     999900   -1    0    0    0    0 -0.00000000000E+00 -0.00000000000E+00 -0.74505805969E-08  0.93827000000E+00  0.93827000000E+00 0.  1.
     999902    2    1    2    0    0 -0.20035437459E-01 -0.12091416109E-01 -0.16991962055E-03  0.10205280776E+01  0.10202597254E+01 0.  0.
     999903    2    3    3    0    0  0.51902588729E-01 -0.51053652653E-01 -0.10637614369E+00  0.13037477762E+00  0.19528044634E-01 0.  0.
         14    1    1    2    0    0  0.20035437459E-01  0.12091416109E-01  0.16991962055E-03  0.23401922365E-01  0.00000000000E+00 0.  1.
     999901    1    3    3    0    0 -0.71938026189E-01  0.38962236544E-01  0.10620622407E+00  0.89015330001E+00  0.88000000000E+00 0. -1.
        -11    1    4    4    0    0  0.20768965794E-01 -0.25612800543E-01 -0.32712593696E-01  0.46451484359E-01  0.51100000000E-03 0.  1.
         11    1    4    4    0    0  0.31133622936E-01 -0.25440852110E-01 -0.73663549998E-01  0.83923293265E-01  0.51100000000E-03 0. -1.
</event>
<event>
 8    1  0.1146431E+005  0.1043930E+01  0.7957747E-01            NaN
         13   -1    0    0    0    0  0.00000000000E+00  0.00000000000E+00  0.74505805969E-08  0.10566000000E+00  0.10566000000E+00 0. -1.
     999900   -1    0    0    0    0 -0.00000000000E+00 -0.00000000000E+00 -0.74505805969E-08  0.93827000000E+00  0.93827000000E+00 0.  1.
     999902    2    1    2    0    0 -0.20239317946E-01 -0.10954584104E-01 -0.40864509244E-02  0.10205562544E+01  0.10202885554E+01 0.  0.
     999903    2    3    3    0    0  0.83994849398E-01  0.70927817353E-01 -0.63677741898E-01  0.12863663284E+00  0.20165279419E-01 0.  0.
         14    1    1    2    0    0  0.20239317946E-01  0.10954584104E-01  0.40864509244E-02  0.23373745635E-01  0.00000000000E+00 0. -1.
     999901    1    3    3    0    0 -0.10423416734E+00 -0.81882401457E-01  0.59591290974E-01  0.89191962153E+00  0.88000000000E+00 0.  1.
        -11    1    4    4    0    0  0.27478517690E-01  0.36136481099E-01 -0.26157353312E-01  0.52396397337E-01  0.51100000000E-03 0. -1.
         11    1    4    4    0    0  0.56516331709E-01  0.34791336254E-01 -0.37520388586E-01  0.76240235498E-01  0.51100000000E-03 0.  1.
</event>
<event>
 8    1  0.1146431E+005  0.1043930E+01  0.7957747E-01            NaN
         13   -1    0    0    0    0  0.00000000000E+00  0.00000000000E+00  0.74505805969E-08  0.10566000000E+00  0.10566000000E+00 0. -1.
     999900   -1    0    0    0    0 -0.00000000000E+00 -0.00000000000E+00 -0.74505805969E-08  0.93827000000E+00  0.93827000000E+00 0.  1.
     999902    2    1    2    0    0 -0.10728081926E-01  0.11424512293E-02 -0.16929555756E-01  0.10238549709E+01  0.10236581434E+01 0.  0.
     999903    2    3    3    0    0 -0.71100166143E-01 -0.10539534388E+00 -0.41056253689E-01  0.13504836204E+00  0.19723893788E-01 0.  0.
         14    1    1    2    0    0  0.10728081926E-01 -0.11424512293E-02  0.16929555756E-01  0.20075029134E-01  0.00000000000E+00 0. -1.
     999901    1    3    3    0    0  0.60372084217E-01  0.10653779511E+00  0.24126697933E-01  0.88880660883E+00  0.88000000000E+00 0. -1.
        -11    1    4    4    0    0 -0.90379664396E-02 -0.25949178465E-01 -0.47213845117E-02  0.27885431557E-01  0.51100000000E-03 0.  1.
         11    1    4    4    0    0 -0.62062199703E-01 -0.79446165413E-01 -0.36334869178E-01  0.10716293048E+00  0.51100000000E-03 0. -1.
</event>
<event>
 8    1  0.1146431E+005  0.1043930E+01  0.7957747E-01            NaN
         13   -1    0    0    0    0  0.00000000000E+00  0.00000000000E+00  0.74505805969E-08  0.10566000000E+00  0.10566000000E+00 0. -1.
     999900   -1    0    0    0    0 -0.00000000000E+00 -0.00000000000E+00 -0.74505805969E-08  0.93827000000E+00  0.93827000000E+00 0.  1.
     999902    2    1    2    0    0  0.91113723830E-02 -0.13940914626E-02  0.22238788255E-01  0.10198566890E+01  0.10195725290E+01 0.  0.
     999903    2    3    3    0    0  0.12988601982E-01  0.12260558574E+00  0.39424615088E-01  0.13098869799E+00  0.20072500898E-01 0.  0.
         14    1    1    2    0    0 -0.91113723830E-02  0.13940914626E-02 -0.22238788255E-01  0.24073310964E-01  0.00000000000E+00 0.  1.
     999901    1    3    3    0    0 -0.38772295993E-02 -0.12399967720E+00 -0.17185826833E-01  0.88886799104E+00  0.88000000000E+00 0. -1.
        -11    1    4    4    0    0  0.76722892964E-02  0.91024137534E-01  0.37971170919E-01  0.98925874162E-01  0.51100000000E-03 0. -1.
         11    1    4    4    0    0  0.53163126859E-02  0.31581448202E-01  0.14534441685E-02  0.32062823832E-01  0.51100000000E-03 0.  1.
</event>
<event>
 8    1  0.1146431E+005  0.1043930E+01  0.7957747E-01            NaN
         13   -1    0    0    0    0  0.00000000000E+00  0.00000000000E+00  0.74505805969E-08  0.10566000000E+00  0.10566000000E+00 0.  1.
     999900   -1    0    0    0    0 -0.00000000000E+00 -0.00000000000E+00 -0.74505805969E-08  0.93827000000E+00  0.93827000000E+00 0. -1.
     999902    2    1    2    0    0 -0.16294575272E-01  0.37685328667E-02 -0.16669248446E-01  0.10203168921E+01  0.10200436174E+01 0.  0.
     999903    2    3    3    0    0  0.35577152403E-01 -0.57620973175E-01 -0.11078999660E+00  0.13165606653E+00  0.21748245546E-01 0.  0.
         14    1    1    2    0    0  0.16294575272E-01 -0.37685328667E-02  0.16669248446E-01  0.23613107949E-01  0.00000000000E+00 0.  1.
     999901    1    3    3    0    0 -0.51871727675E-01  0.61389506041E-01  0.94120748155E-01  0.88866082552E+00  0.88000000000E+00 0.  1.
        -11    1    4    4    0    0  0.19493406147E-01 -0.15635251426E-01 -0.51499130489E-01  0.57243999970E-01  0.51100000000E-03 0. -1.
         11    1    4    4    0    0  0.16083746257E-01 -0.41985721748E-01 -0.59290866112E-01  0.74412066559E-01  0.51100000000E-03 0.  1.
</event>
<event>
 8    1  0.1146431E+005  0.1043930E+01  0.7957747E-01            NaN
         13   -1    0    0    0    0  0.00000000000E+00  0.00000000000E+00  0.74505805969E-08  0.10566000000E+00  0.10566000000E+00 0. -1.
     999900   -1    0    0    0    0 -0.00000000000E+00 -0.00000000000E+00 -0.74505805969E-08  0.93827000000E+00  0.93827000000E+00 0.  1.
     999902    2    1    2    0    0 -0.32000104973E-02  0.22989939140E-01 -0.10485543363E-01  0.10184599394E+01  0.10181414067E+01 0.  0.
     999903    2    3    3    0    0 -0.10779480664E+00  0.70444809582E-01  0.10337423484E-01  0.13075186119E+00  0.20174125631E-01 0.  0.
         14    1    1    2    0    0  0.32000104973E-02 -0.22989939140E-01  0.10485543363E-01  0.25470060630E-01  0.00000000000E+00 0.  1.
     999901    1    3    3    0    0  0.10459479615E+00 -0.47454870442E-01 -0.20822966847E-01  0.88770807818E+00  0.88000000000E+00 0. -1.
        -11    1    4    4    0    0 -0.57308636614E-01  0.44809242899E-01  0.13700998178E-01  0.74027876856E-01  0.51100000000E-03 0.  1.
         11    1    4    4    0    0 -0.50486170031E-01  0.25635566683E-01 -0.33635746935E-02  0.56723984339E-01  0.51100000000E-03 0. -1.
</event>
<event>
 8    1  0.1146431E+005  0.1043930E+01  0.7957747E-01            NaN
         13   -1    0    0    0    0  0.00000000000E+00  0.00000000000E+00  0.74505805969E-08  0.10566000000E+00  0.10566000000E+00 0. -1.
     999900   -1    0    0    0    0 -0.00000000000E+00 -0.00000000000E+00 -0.74505805969E-08  0.93827000000E+00  0.93827000000E+00 0. -1.
     999902    2    1    2    0    0  0.23188780266E-01  0.50571374279E-02  0.15494409253E-02  0.10201456577E+01  0.10198683582E+01 0.  0.
     999903    2    3    3    0    0 -0.11358811287E+00 -0.25412644972E-01 -0.49076544699E-01  0.12762153115E+00  0.18184775594E-01 0.  0.
         14    1    1    2    0    0 -0.23188780266E-01 -0.50571374279E-02 -0.15494409253E-02  0.23784342253E-01  0.00000000000E+00 0. -1.
     999901    1    3    3    0    0  0.13677689314E+00  0.30469782400E-01  0.50625985624E-01  0.89252412660E+00  0.88000000000E+00 0.  1.
        -11    1    4    4    0    0 -0.86095041480E-01 -0.11316685688E-01 -0.34236769087E-01  0.93342600247E-01  0.51100000000E-03 0.  1.
         11    1    4    4    0    0 -0.27493071393E-01 -0.14095959283E-01 -0.14839775612E-01  0.34278930904E-01  0.51100000000E-03 0. -1.
</event>
<event>
 8    1  0.1146431E+005  0.1043930E+01  0.7957747E-01            NaN
         13   -1    0    0    0    0  0.00000000000E+00  0.00000000000E+00  0.74505805969E-08  0.10566000000E+00  0.10566000000E+00 0. -1.
     999900   -1    0    0    0    0 -0.00000000000E+00 -0.00000000000E+00 -0.74505805969E-08  0.93827000000E+00  0.93827000000E+00 0. -1.
     999902    2    1    2    0    0  0.10097492581E-01  0.17967412121E-01 -0.12289877272E-01  0.10199335766E+01  0.10196512503E+01 0.  0.
     999903    2    3    3    0    0  0.79473986839E-01 -0.80315266295E-01 -0.61698240682E-01  0.13037538891E+00  0.20601275350E-01 0.  0.
         14    1    1    2    0    0 -0.10097492581E-01 -0.17967412121E-01  0.12289877272E-01  0.23996423444E-01  0.00000000000E+00 0. -1.
     999901    1    3    3    0    0 -0.69376494258E-01  0.98282678417E-01  0.49408363410E-01  0.88955818765E+00  0.88000000000E+00 0. -1.
        -11    1    4    4    0    0  0.29483612140E-01 -0.41694113240E-01 -0.20938062658E-01  0.55193713886E-01  0.51100000000E-03 0. -1.
         11    1    4    4    0    0  0.49990374698E-01 -0.38621153056E-01 -0.40760178025E-01  0.75181675024E-01  0.51100000000E-03 0.  1.
</event>
<event>
 8    1  0.1146431E+005  0.1043930E+01  0.7957747E-01            NaN
         13   -1    0    0    0    0  0.00000000000E+00  0.00000000000E+00  0.74505805969E-08  0.10566000000E+00  0.10566000000E+00 0. -1.
     999900   -1    0    0    0    0 -0.00000000000E+00 -0.00000000000E+00 -0.74505805969E-08  0.93827000000E+00  0.93827000000E+00 0.  1.
     999902    2    1    2    0    0  0.50968306980E-02  0.17487190832E-01  0.14973082295E-01  0.10203509262E+01  0.10200784479E+01 0.  0.
     999903    2    3    3    0    0  0.19733752239E-01 -0.11394180042E+00 -0.51199840058E-01  0.12801316794E+00  0.19844210350E-01 0.  0.
         14    1    1    2    0    0 -0.50968306980E-02 -0.17487190832E-01 -0.14973082295E-01  0.23579073768E-01  0.00000000000E+00 0.  1.
     999901    1    3    3    0    0 -0.14636921541E-01  0.13142899125E+00  0.66172922353E-01  0.89233775829E+00  0.88000000000E+00 0. -1.
        -11    1    4    4    0    0 -0.30477902988E-02 -0.35692957945E-01 -0.15245862397E-01  0.38935507108E-01  0.51100000000E-03 0. -1.
         11    1    4    4    0    0  0.22781542538E-01 -0.78248842476E-01 -0.35953977661E-01  0.89077660835E-01  0.51100000000E-03 0.  1.
</event>
<event>
 8    1  0.1146431E+005  0.1043930E+01  0.7957747E-01            NaN
         13   -1    0    0    0    0  0.00000000000E+00  0.00000000000E+00  0.74505805969E-08  0.10566000000E+00  0.10566000000E+00 0. -1.
     999900   -1    0    0    0    0 -0.00000000000E+00 -0.00000000000E+00 -0.74505805969E-08  0.93827000000E+00  0.93827000000E+00 0. -1.
     999902    2    1    2    0    0  0.18680649988E-01 -0.10959095258E-01 -0.68245442827E-02  0.10212222291E+01  0.10209697343E+01 0.  0.
     999903    2    3    3    0    0  0.94515236711E-02 -0.21436125622E-01  0.12717081696E+00  0.13096962354E+00  0.20779480797E-01 0.  0.
         14    1    1    2    0    0 -0.18680649988E-01  0.10959095258E-01  0.68245442827E-02  0.22707770862E-01  0.00000000000E+00 0. -1.
     999901    1    3    3    0    0  0.92291263164E-02  0.10477030364E-01 -0.13399536125E+00  0.89025260560E+00  0.88000000000E+00 0. -1.
        -11    1    4    4    0    0  0.93799382350E-02 -0.20741922927E-01  0.66455928124E-01  0.70248573736E-01  0.51100000000E-03 0. -1.
         11    1    4    4    0    0  0.71585436099E-04 -0.69420269505E-03  0.60714888838E-01  0.60721049805E-01  0.51100000000E-03 0.  1.
</event>
<event>
 8    1  0.1146431E+005  0.1043930E+01  0.7957747E-01            NaN
         13   -1    0    0    0    0  0.00000000000E+00  0.00000000000E+00  0.74505805969E-08  0.10566000000E+00  0.10566000000E+00 0. -1.
     999900   -1    0    0    0    0 -0.00000000000E+00 -0.00000000000E+00 -0.74505805969E-08  0.93827000000E+00  0.93827000000E+00 0. -1.
     999902    2    1    2    0    0 -0.10122921447E-01  0.13611257583E-01 -0.18875149727E-01  0.10185526253E+01  0.10182364358E+01 0.  0.
     999903    2    3    3    0    0  0.97203924664E-01  0.73916116202E-01  0.34249560363E-01  0.12839648014E+00  0.20010710198E-01 0.  0.
         14    1    1    2    0    0  0.10122921447E-01 -0.13611257583E-01  0.18875149727E-01  0.25377374743E-01  0.00000000000E+00 0. -1.
     999901    1    3    3    0    0 -0.10732684611E+00 -0.60304858619E-01 -0.53124710090E-01  0.89015614512E+00  0.88000000000E+00 0. -1.
        -11    1    4    4    0    0  0.74445883793E-01  0.65312242446E-01  0.23462358884E-01  0.10177731590E+00  0.51100000000E-03 0. -1.
         11    1    4    4    0    0  0.22758040871E-01  0.86038737566E-02  0.10787201479E-01  0.26619164236E-01  0.51100000000E-03 0.  1.
</event>
<event>
 8    1  0.1146431E+005  0.1043930E+01  0.7957747E-01            NaN
         13   -1    0    0    0    0  0.00000000000E+00  0.00000000000E+00  0.74505805969E-08  0.10566000000E+00  0.10566000000E+00 0.  1.
     999900   -1    0    0    0    0 -0.00000000000E+00 -0.00000000000E+00 -0.74505805969E-08  0.93827000000E+00  0.93827000000E+00 0. -1.
     999902    2    1    2    0    0  0.74452763076E-02  0.41982283412E-02 -0.21623835462E-01  0.10206781717E+01  0.10204132901E+01 0.  0.
     999903    2    3    3    0    0  0.18666981491E-02 -0.12149280448E+00  0.40607542181E-01  0.12955410588E+00  0.19269347823E-01 0.  0.
         14    1    1    2    0    0 -0.74452763076E-02 -0.41982283412E-02  0.21623835462E-01  0.23251828328E-01  0.00000000000E+00 0.  1.
     999901    1    3    3    0    0  0.55785781586E-02  0.12569103282E+00 -0.62231377643E-01  0.89112406579E+00  0.88000000000E+00 0. -1.
        -11    1    4    4    0    0  0.15586459935E-03 -0.15132132373E-01  0.12215387707E-01  0.19454627772E-01  0.51100000000E-03 0. -1.
         11    1    4    4    0    0  0.17108335497E-02 -0.10636067211E+00  0.28392154474E-01  0.11009947811E+00  0.51100000000E-03 0.  1.
</event>
<event>
 8    1  0.1146431E+005  0.1043930E+01  0.7957747E-01            NaN
         13   -1    0    0    0    0  0.00000000000E+00  0.00000000000E+00  0.74505805969E-08  0.10566000000E+00  0.10566000000E+00 0. -1.
     999900   -1    0    0    0    0 -0.00000000000E+00 -0.00000000000E+00 -0.74505805969E-08  0.93827000000E+00  0.93827000000E+00 0. -1.
     999902    2    1    2    0    0 -0.34572680244E-01  0.11764628195E-01  0.58621972841E-02  0.10069429475E+01  0.10062634136E+01 0.  0.
     999903    2    3    3    0    0  0.29357646103E-01  0.99319169415E-01 -0.53341104404E-01  0.11831596431E+00  0.20669426551E-01 0.  0.
         14    1    1    2    0    0  0.34572680244E-01 -0.11764628195E-01 -0.58621972841E-02  0.36987052502E-01  0.00000000000E+00 0.  1.
     999901    1    3    3    0    0 -0.63930326347E-01 -0.87554541220E-01  0.59203301688E-01  0.88862698319E+00  0.88000000000E+00 0.  1.
        -11    1    4    4    0    0  0.55833639342E-02  0.53643996240E-01 -0.23846253216E-01  0.58972512232E-01  0.51100000000E-03 0.  1.
         11    1    4    4    0    0  0.23774282169E-01  0.45675173175E-01 -0.29494851188E-01  0.59343452080E-01  0.51100000000E-03 0. -1.
</event>
<event>
 8    1  0.1146431E+005  0.1043930E+01  0.7957747E-01            NaN
         13   -1    0    0    0    0  0.00000000000E+00  0.00000000000E+00  0.74505805969E-08  0.10566000000E+00  0.10566000000E+00 0. -1.
     999900   -1    0    0    0    0 -0.00000000000E+00 -0.00000000000E+00 -0.74505805969E-08  0.93827000000E+00  0.93827000000E+00 0.  1.
     999902    2    1    2    0    0 -0.92316553233E-02  0.16483065636E-02 -0.21931126287E-01  0.10200780677E+01  0.10197991712E+01 0.  0.
     999903    2    3    3    0    0 -0.29047574050E-01  0.48737419614E-01  0.11326055457E+00  0.12828950207E+00  0.20276722862E-01 0.  0.
         14    1    1    2    0    0  0.92316553233E-02 -0.16483065636E-02  0.21931126287E-01  0.23851932307E-01  0.00000000000E+00 0. -1.
     999901    1    3    3    0    0  0.19815918727E-01 -0.47089113050E-01 -0.13519168086E+00  0.89178856562E+00  0.88000000000E+00 0.  1.
        -11    1    4    4    0    0 -0.18234232451E-01  0.35052859342E-01  0.56791917120E-01  0.69186509901E-01  0.51100000000E-03 0.  1.
         11    1    4    4    0    0 -0.10813341599E-01  0.13684560272E-01  0.56468637454E-01  0.59102992168E-01  0.51100000000E-03 0. -1.
</event>
<event>
 8    1  0.1146431E+005  0.1043930E+01  0.7957747E-01            NaN
         13   -1    0    0    0    0  0.00000000000E+00  0.00000000000E+00  0.74505805969E-08  0.10566000000E+00  0.10566000000E+00 0. -1.
     999900   -1    0    0    0    0 -0.00000000000E+00 -0.00000000000E+00 -0.74505805969E-08  0.93827000000E+00  0.93827000000E+00 0. -1.
     999902    2    1    2    0    0  0.47819719106E-02 -0.12725284613E-02 -0.23300172895E-01  0.10201101629E+01  0.10198320253E+01 0.  0.
     999903    2    3    3    0    0 -0.66169522165E-01 -0.98114049440E-01  0.47900687579E-01  0.12910962570E+00  0.19236611383E-01 0.  0.
         14    1    1    2    0    0 -0.47819719106E-02  0.12725284613E-02  0.23300172895E-01  0.23819837132E-01  0.00000000000E+00 0. -1.
     999901    1    3    3    0    0  0.70951494076E-01  0.96841520978E-01 -0.71200860474E-01  0.89100053717E+00  0.88000000000E+00 0.  1.
        -11    1    4    4    0    0 -0.62229036786E-01 -0.88368932993E-01  0.48716235020E-01  0.11855401306E+00  0.51100000000E-03 0.  1.
         11    1    4    4    0    0 -0.39404853798E-02 -0.97451164463E-02 -0.81554744137E-03  0.10555612640E-01  0.51100000000E-03 0. -1.
</event>
<event>
 8    1  0.1270739E+005  0.1043930E+01  0.7957747E-01            NaN
         13   -1    0    0    0    0  0.00000000000E+00  0.00000000000E+00  0.74505805969E-08  0.10566000000E+00  0.10566000000E+00 0. -1.
     999900   -1    0    0    0    0 -0.00000000000E+00 -0.00000000000E+00 -0.74505805969E-08  0.93827000000E+00  0.93827000000E+00 0. -1.
     999902    2    1    2    0    0 -0.11581752457E-01  0.64520226659E-02 -0.21968213684E-01  0.10182713173E+01  0.10179479886E+01 0.  0.
     999903    2    3    3    0    0 -0.61632534545E-01 -0.96997766543E-01  0.51868274662E-01  0.12773284720E+00  0.20450582135E-01 0.  0.
         14    1    1    2    0    0  0.11581752457E-01 -0.64520226659E-02  0.21968213684E-01  0.25658682720E-01  0.00000000000E+00 0.  1.
     999901    1    3    3    0    0  0.50050782088E-01  0.10344978921E+00 -0.73836488346E-01  0.89053847008E+00  0.88000000000E+00 0. -1.
        -11    1    4    4    0    0 -0.31513823883E-01 -0.56225317752E-01  0.39343454449E-01  0.75515402277E-01  0.51100000000E-03 0.  1.
         11    1    4    4    0    0 -0.30118710662E-01 -0.40772448790E-01  0.12524820213E-01  0.52217444926E-01  0.51100000000E-03 0. -1.
</event>
<event>
 8    1  0.1146431E+005  0.1043930E+01  0.7957747E-01            NaN
         13   -1    0    0    0    0  0.00000000000E+00  0.00000000000E+00  0.74505805969E-08  0.10566000000E+00  0.10566000000E+00 0.  1.
     999900   -1    0    0    0    0 -0.00000000000E+00 -0.00000000000E+00 -0.74505805969E-08  0.93827000000E+00  0.93827000000E+00 0. -1.
     999902    2    1    2    0    0 -0.12624940148E-01 -0.17074170029E-01  0.83602003312E-02  0.10211087523E+01  0.10208536990E+01 0.  0.
     999903    2    3    3    0    0  0.10873066381E-01 -0.12227340110E-01  0.12989558278E+00  0.13243192847E+00  0.19940457179E-01 0.  0.
         14    1    1    2    0    0  0.12624940148E-01  0.17074170029E-01 -0.83602003312E-02  0.22821247677E-01  0.00000000000E+00 0. -1.
     999901    1    3    3    0    0 -0.23498006529E-01 -0.48468299196E-02 -0.12153538245E+00  0.88867682386E+00  0.88000000000E+00 0. -1.
        -11    1    4    4    0    0 -0.81634966661E-03 -0.73337635807E-02  0.13904225552E-01  0.15749257895E-01  0.51100000000E-03 0. -1.
         11    1    4    4    0    0  0.11689416047E-01 -0.48935765289E-02  0.11599135723E+00  0.11668267057E+00  0.51100000000E-03 0.  1.
</event>
<event>
 8    1  0.1146431E+005  0.1043930E+01  0.7957747E-01            NaN
         13   -1    0    0    0    0  0.00000000000E+00  0.00000000000E+00  0.74505805969E-08  0.10566000000E+00  0.10566000000E+00 0. -1.
     999900   -1    0    0    0    0 -0.00000000000E+00 -0.00000000000E+00 -0.74505805969E-08  0.93827000000E+00  0.93827000000E+00 0.  1.
     999902    2    1    2    0    0  0.16133491641E-01 -0.10438516367E-02  0.19675473574E-01  0.10184642693E+01  0.10181458464E+01 0.  0.
     999903    2    3    3    0    0  0.12232691440E+00 -0.35604135158E-01 -0.19884378936E-01  0.13052483548E+00  0.20243905837E-01 0.  0.
         14    1    1    2    0    0 -0.16133491641E-01  0.10438516367E-02 -0.19675473574E-01  0.25465730681E-01  0.00000000000E+00 0. -1.
     999901    1    3    3    0    0 -0.10619342276E+00  0.34560283522E-01  0.39559852511E-01  0.88793943384E+00  0.88000000000E+00 0. -1.
        -11    1    4    4    0    0  0.67824259045E-01 -0.13316864484E-01 -0.26622673706E-02  0.69172377314E-01  0.51100000000E-03 0.  1.
         11    1    4    4    0    0  0.54502655358E-01 -0.22287270674E-01 -0.17222111566E-01  0.61352458166E-01  0.51100000000E-03 0. -1.
</event>
<event>
 8    1  0.1146431E+005  0.1043930E+01  0.7957747E-01            NaN
         13   -1    0    0    0    0  0.00000000000E+00  0.00000000000E+00  0.74505805969E-08  0.10566000000E+00  0.10566000000E+00 0.  1.
     999900   -1    0    0    0    0 -0.00000000000E+00 -0.00000000000E+00 -0.74505805969E-08  0.93827000000E+00  0.93827000000E+00 0. -1.
     999902    2    1    2    0    0  0.24508473584E-02  0.17206631433E-01 -0.16448124987E-01  0.10200006115E+01  0.10197198791E+01 0.  0.
     999903    2    3    3    0    0  0.31979251015E-01  0.81911536561E-01 -0.98438601342E-01  0.13333207728E+00  0.18844423080E-01 0.  0.
         14    1    1    2    0    0 -0.24508473584E-02 -0.17206631433E-01  0.16448124987E-01  0.23929388493E-01  0.00000000000E+00 0.  1.
     999901    1    3    3    0    0 -0.29528403656E-01 -0.64704905128E-01  0.81990476354E-01  0.88666853422E+00  0.88000000000E+00 0.  1.
        -11    1    4    4    0    0  0.30431134930E-01  0.82140104028E-01 -0.93485847346E-01  0.12811290114E+00  0.51100000000E-03 0. -1.
         11    1    4    4    0    0  0.15481160846E-02 -0.22856746639E-03 -0.49527539961E-02  0.52191761461E-02  0.51100000000E-03 0.  1.
</event>
<event>
 8    1  0.1146431E+005  0.1043930E+01  0.7957747E-01            NaN
         13   -1    0    0    0    0  0.00000000000E+00  0.00000000000E+00  0.74505805969E-08  0.10566000000E+00  0.10566000000E+00 0.  1.
     999900   -1    0    0    0    0 -0.00000000000E+00 -0.00000000000E+00 -0.74505805969E-08  0.93827000000E+00  0.93827000000E+00 0. -1.
     999902    2    1    2    0    0  0.18113557160E-02  0.20292287986E-01 -0.18962011142E-01  0.10160980790E+01  0.10157168357E+01 0.  0.
     999903    2    3    3    0    0  0.14016774824E-01  0.22906109838E-01  0.12045087055E+00  0.12503592856E+00  0.20109981842E-01 0.  0.
         14    1    1    2    0    0 -0.18113557160E-02 -0.20292287986E-01  0.18962011142E-01  0.27831921022E-01  0.00000000000E+00 0.  1.
     999901    1    3    3    0    0 -0.12205419108E-01 -0.26138218519E-02 -0.13941288170E+00  0.89106215042E+00  0.88000000000E+00 0. -1.
        -11    1    4    4    0    0  0.68494508097E-03  0.85919748339E-02  0.75741024827E-01  0.76231588887E-01  0.51100000000E-03 0. -1.
         11    1    4    4    0    0  0.13331829743E-01  0.14314135004E-01  0.44709845728E-01  0.48804339676E-01  0.51100000000E-03 0.  1.
</event>
<event>
 7    1  0.1146431E+005  0.1043930E+01  0.7957747E-01            NaN
         13   -1    0    0    0    0  0.00000000000E+00  0.00000000000E+00  0.74505805969E-08  0.10566000000E+00  0.10566000000E+00 0.  1.
     999900   -1    0    0    0    0 -0.00000000000E+00 -0.00000000000E+00 -0.74505805969E-08  0.93827000000E+00  0.93827000000E+00 0. -1.
     999903    2    1    2    0    0 -0.98489864011E-01 -0.18012015616E-01 -0.20186885731E-01  0.10409724434E+00  0.20100743848E-01 0.  0.
         14    1    1    2    0    0  0.40962267524E-01  0.37128525611E-01  0.16658128902E-01  0.57740176942E-01  0.00000000000E+00 0.  1.
     999901    1    1    2    0    0  0.57527596487E-01 -0.19116509995E-01  0.35287568291E-02  0.88209257872E+00  0.88000000000E+00 0. -1.
        -11    1    3    3    0    0 -0.30604816896E-01  0.11904195332E-02  0.29544528506E-03  0.30633646940E-01  0.51100000000E-03 0.  1.
         11    1    3    3    0    0 -0.67885047115E-01 -0.19202435149E-01 -0.20482331016E-01  0.73463597396E-01  0.51100000000E-03 0. -1.
</event>
<event>
 8    1  0.1146431E+005  0.1043930E+01  0.7957747E-01            NaN
         13   -1    0    0    0    0  0.00000000000E+00  0.00000000000E+00  0.74505805969E-08  0.10566000000E+00  0.10566000000E+00 0.  1.
     999900   -1    0    0    0    0 -0.00000000000E+00 -0.00000000000E+00 -0.74505805969E-08  0.93827000000E+00  0.93827000000E+00 0.  1.
     999902    2    1    2    0    0  0.80399637807E-02  0.23629880656E-01 -0.59152041375E-02  0.10182784519E+01  0.10179553054E+01 0.  0.
     999903    2    3    3    0    0 -0.90044495003E-01 -0.61431153313E-02  0.87811430941E-01  0.12738470157E+00  0.19242293088E-01 0.  0.
         14    1    1    2    0    0 -0.80399637807E-02 -0.23629880656E-01  0.59152041375E-02  0.25651548051E-01  0.00000000000E+00 0. -1.
     999901    1    3    3    0    0  0.98084458784E-01  0.29772995988E-01 -0.93726635079E-01  0.89089375038E+00  0.88000000000E+00 0.  1.
        -11    1    4    4    0    0 -0.22715239287E-01  0.49868519643E-02  0.29878541516E-01  0.37866068617E-01  0.51100000000E-03 0. -1.
         11    1    4    4    0    0 -0.67329255715E-01 -0.11129967296E-01  0.57932889426E-01  0.89518632951E-01  0.51100000000E-03 0.  1.
</event>
<event>
 8    1  0.1146431E+005  0.1043930E+01  0.7957747E-01            NaN
         13   -1    0    0    0    0  0.00000000000E+00  0.00000000000E+00  0.74505805969E-08  0.10566000000E+00  0.10566000000E+00 0. -1.
     999900   -1    0    0    0    0 -0.00000000000E+00 -0.00000000000E+00 -0.74505805969E-08  0.93827000000E+00  0.93827000000E+00 0. -1.
     999902    2    1    2    0    0 -0.24093111544E-01 -0.20145429203E-01 -0.20556782579E-01  0.10063947146E+01  0.10056944983E+01 0.  0.
     999903    2    3    3    0    0  0.10887371538E+00  0.99088402575E-02  0.28484999187E-01  0.11454913796E+00  0.18932480357E-01 0.  0.
         14    1    1    2    0    0  0.24093111544E-01  0.20145429203E-01  0.20556782579E-01  0.37535285421E-01  0.00000000000E+00 0.  1.
     999901    1    3    3    0    0 -0.13296682693E+00 -0.30054269460E-01 -0.49041781766E-01  0.89184557662E+00  0.88000000000E+00 0.  1.
        -11    1    4    4    0    0  0.58462570757E-01 -0.41473034128E-02  0.14655335178E-01  0.60416159058E-01  0.51100000000E-03 0. -1.
         11    1    4    4    0    0  0.50411144625E-01  0.14056143670E-01  0.13829664009E-01  0.54132978903E-01  0.51100000000E-03 0.  1.
</event>
<event>
 8    1  0.1146431E+005  0.1043930E+01  0.7957747E-01            NaN
         13   -1    0    0    0    0  0.00000000000E+00  0.00000000000E+00  0.74505805969E-08  0.10566000000E+00  0.10566000000E+00 0. -1.
     999900   -1    0    0    0    0 -0.00000000000E+00 -0.00000000000E+00 -0.74505805969E-08  0.93827000000E+00  0.93827000000E+00 0. -1.
     999902    2    1    2    0    0 -0.22847358518E-01 -0.71982293529E-02  0.20993709816E-01  0.10120779648E+01  0.10115766183E+01 0.  0.
     999903    2    3    3    0    0  0.68623978135E-01 -0.10472682290E-01 -0.95364974186E-01  0.11971196876E+00  0.20434033228E-01 0.  0.
         14    1    1    2    0    0  0.22847358518E-01  0.71982293529E-02 -0.20993709816E-01  0.31852035240E-01  0.00000000000E+00 0.  1.
     999901    1    3    3    0    0 -0.91471336653E-01  0.32744529372E-02  0.11635868400E+00  0.89236599600E+00  0.88000000000E+00 0.  1.
        -11    1    4    4    0    0  0.12820080533E-01  0.30137801465E-02 -0.88322200962E-02  0.15865262950E-01  0.51100000000E-03 0. -1.
         11    1    4    4    0    0  0.55803897602E-01 -0.13486462437E-01 -0.86532754090E-01  0.10384670581E+00  0.51100000000E-03 0.  1.
</event>
<event>
 8    1  0.1146431E+005  0.1043930E+01  0.7957747E-01            NaN
         13   -1    0    0    0    0  0.00000000000E+00  0.00000000000E+00  0.74505805969E-08  0.10566000000E+00  0.10566000000E+00 0.  1.
     999900   -1    0    0    0    0 -0.00000000000E+00 -0.00000000000E+00 -0.74505805969E-08  0.93827000000E+00  0.93827000000E+00 0.  1.
     999902    2    1    2    0    0  0.12142939283E-01 -0.13314797520E-01 -0.85668216091E-02  0.10239769240E+01  0.10237825041E+01 0.  0.
     999903    2    3    3    0    0 -0.72901252932E-02  0.12316944786E+00 -0.44108836244E-01  0.13253493040E+00  0.19901244425E-01 0.  0.
         14    1    1    2    0    0 -0.12142939283E-01  0.13314797520E-01  0.85668216091E-02  0.19953075951E-01  0.00000000000E+00 0.  1.
     999901    1    3    3    0    0  0.19433064576E-01 -0.13648424538E+00  0.35542014635E-01  0.89144199365E+00  0.88000000000E+00 0.  1.
        -11    1    4    4    0    0  0.54183637772E-02  0.30579030061E-01 -0.16006315880E-01  0.34941365379E-01  0.51100000000E-03 0.  1.
         11    1    4    4    0    0 -0.12708489070E-01  0.92590417795E-01 -0.28102520364E-01  0.97593565022E-01  0.51100000000E-03 0. -1.
</event>
<event>
 8    1  0.1146431E+005  0.1043930E+01  0.7957747E-01            NaN
         13   -1    0    0    0    0  0.00000000000E+00  0.00000000000E+00  0.74505805969E-08  0.10566000000E+00  0.10566000000E+00 0.  1.
     999900   -1    0    0    0    0 -0.00000000000E+00 -0.00000000000E+00 -0.74505805969E-08  0.93827000000E+00  0.93827000000E+00 0.  1.
     999902    2    1    2    0    0  0.81880862124E-02 -0.21954899089E-01 -0.16145074851E-02  0.10204423653E+01  0.10201720207E+01 0.  0.
     999903    2    3    3    0    0  0.64643526921E-01  0.27163864857E-01  0.10810749574E+00  0.13047675486E+00  0.20501019437E-01 0.  0.
         14    1    1    2    0    0 -0.81880862124E-02  0.21954899089E-01  0.16145074851E-02  0.23487634710E-01  0.00000000000E+00 0. -1.
     999901    1    3    3    0    0 -0.56455440708E-01 -0.49118763946E-01 -0.10972200322E+00  0.88996561043E+00  0.88000000000E+00 0.  1.
        -11    1    4    4    0    0  0.53829378846E-01  0.13899313202E-01  0.77083213747E-01  0.95041443050E-01  0.51100000000E-03 0. -1.
         11    1    4    4    0    0  0.10814148074E-01  0.13264551655E-01  0.31024281989E-01  0.35435311810E-01  0.51100000000E-03 0.  1.
</event>
<event>
 8    1  0.1146431E+005  0.1043930E+01  0.7957747E-01            NaN
         13   -1    0    0    0    0  0.00000000000E+00  0.00000000000E+00  0.74505805969E-08  0.10566000000E+00  0.10566000000E+00 0.  1.
     999900   -1    0    0    0    0 -0.00000000000E+00 -0.00000000000E+00 -0.74505805969E-08  0.93827000000E+00  0.93827000000E+00 0.  1.
     999902    2    1    2    0    0 -0.24594083214E-01  0.31946371014E-03  0.63181642559E-02  0.10185353119E+01  0.10182186854E+01 0.  0.
     999903    2    3    3    0    0 -0.52677082668E-01 -0.93388909466E-03 -0.11668738038E+00  0.12953554259E+00  0.19691746140E-01 0.  0.
         14    1    1    2    0    0  0.24594083214E-01 -0.31946371014E-03 -0.63181642559E-02  0.25394688141E-01  0.00000000000E+00 0. -1.
     999901    1    3    3    0    0  0.28082999453E-01  0.12533528048E-02  0.12300554464E+00  0.88899976927E+00  0.88000000000E+00 0. -1.
        -11    1    4    4    0    0 -0.21135038428E-01 -0.70949609132E-02 -0.32445334804E-01  0.39369902098E-01  0.51100000000E-03 0. -1.
         11    1    4    4    0    0 -0.31542044240E-01  0.61610718186E-02 -0.84242045578E-01  0.90165640490E-01  0.51100000000E-03 0.  1.
</event>
<event>
 8    1  0.1146431E+005  0.1043930E+01  0.7957747E-01            NaN
         13   -1    0    0    0    0  0.00000000000E+00  0.00000000000E+00  0.74505805969E-08  0.10566000000E+00  0.10566000000E+00 0.  1.
     999900   -1    0    0    0    0 -0.00000000000E+00 -0.00000000000E+00 -0.74505805969E-08  0.93827000000E+00  0.93827000000E+00 0.  1.
     999902    2    1    2    0    0  0.17632707572E-01  0.11999580954E-01  0.10226750219E-01  0.10202764857E+01  0.10200022640E+01 0.  0.
     999903    2    3    3    0    0 -0.61754022987E-01  0.10679568109E+00 -0.36979878657E-01  0.13037928971E+00  0.20306917693E-01 0.  0.
         14    1    1    2    0    0 -0.17632707572E-01 -0.11999580954E-01 -0.10226750219E-01  0.23653514315E-01  0.00000000000E+00 0. -1.
     999901    1    3    3    0    0  0.79386730559E-01 -0.94796100135E-01  0.47206628877E-01  0.88989719597E+00  0.88000000000E+00 0. -1.
        -11    1    4    4    0    0 -0.85250800670E-02  0.12660635304E-01 -0.11912977912E-01  0.19368759386E-01  0.51100000000E-03 0. -1.
         11    1    4    4    0    0 -0.53228942920E-01  0.94135045785E-01 -0.25066900745E-01  0.11101053033E+00  0.51100000000E-03 0.  1.
</event>
<event>
 8    1  0.1146431E+005  0.1043930E+01  0.7957747E-01            NaN
         13   -1    0    0    0    0  0.00000000000E+00  0.00000000000E+00  0.74505805969E-08  0.10566000000E+00  0.10566000000E+00 0. -1.
     999900   -1    0    0    0    0 -0.00000000000E+00 -0.00000000000E+00 -0.74505805969E-08  0.93827000000E+00  0.93827000000E+00 0.  1.
     999902    2    1    2    0    0  0.26942469242E-02 -0.10659066736E-01  0.21551880528E-01  0.10197358225E+01  0.10194487675E+01 0.  0.
     999903    2    3    3    0    0  0.98872578515E-01  0.40996403571E-02 -0.79853544346E-01  0.12858423546E+00  0.19097728433E-01 0.  0.
         14    1    1    2    0    0 -0.26942469242E-02  0.10659066736E-01 -0.21551880528E-01  0.24194177491E-01  0.00000000000E+00 0.  1.
     999901    1    3    3    0    0 -0.96178331591E-01 -0.14758707093E-01  0.10140542487E+00  0.89115158705E+00  0.88000000000E+00 0. -1.
        -11    1    4    4    0    0  0.58001416982E-01 -0.54134661530E-02 -0.53028891579E-01  0.78776864946E-01  0.51100000000E-03 0.  1.
         11    1    4    4    0    0  0.40871161534E-01  0.95131065100E-02 -0.26824652767E-01  0.49807370516E-01  0.51100000000E-03 0. -1.
</event>
<event>
 8    1  0.1146431E+005  0.1043930E+01  0.7957747E-01            NaN
         13   -1    0    0    0    0  0.00000000000E+00  0.00000000000E+00  0.74505805969E-08  0.10566000000E+00  0.10566000000E+00 0.  1.
     999900   -1    0    0    0    0 -0.00000000000E+00 -0.00000000000E+00 -0.74505805969E-08  0.93827000000E+00  0.93827000000E+00 0. -1.
     999902    2    1    2    0    0  0.11376714979E-01 -0.14960888309E-01  0.14972314038E-01  0.10199002682E+01  0.10196171483E+01 0.  0.
     999903    2    3    3    0    0 -0.96165355435E-01  0.35989062468E-01 -0.73007670431E-01  0.12754290029E+00  0.19851530673E-01 0.  0.
         14    1    1    2    0    0 -0.11376714979E-01  0.14960888309E-01 -0.14972314038E-01  0.24029731800E-01  0.00000000000E+00 0. -1.
     999901    1    3    3    0    0  0.10754207041E+00 -0.50949950777E-01  0.87979984469E-01  0.89235736791E+00  0.88000000000E+00 0. -1.
        -11    1    4    4    0    0 -0.75416074889E-01  0.33650448583E-01 -0.65290076821E-01  0.10527579158E+00  0.51100000000E-03 0. -1.
         11    1    4    4    0    0 -0.20749280546E-01  0.23386138849E-02 -0.77175936092E-02  0.22267108707E-01  0.51100000000E-03 0.  1.
</event>
<event>
 8    1  0.1146431E+005  0.1043930E+01  0.7957747E-01            NaN
         13   -1    0    0    0    0  0.00000000000E+00  0.00000000000E+00  0.74505805969E-08  0.10566000000E+00  0.10566000000E+00 0.  1.
     999900   -1    0    0    0    0 -0.00000000000E+00 -0.00000000000E+00 -0.74505805969E-08  0.93827000000E+00  0.93827000000E+00 0.  1.
     999902    2    1    2    0    0  0.22691089736E-01  0.65960434324E-02  0.35877104553E-02  0.10200288492E+01  0.10197487868E+01 0.  0.
     999903    2    3    3    0    0 -0.28741874543E-01  0.70810515174E-01 -0.10297870690E+00  0.12978997706E+00  0.20014985869E-01 0.  0.
         14    1    1    2    0    0 -0.22691089736E-01 -0.65960434324E-02 -0.35877104553E-02  0.23901150782E-01  0.00000000000E+00 0.  1.
     999901    1    3    3    0    0  0.51432964280E-01 -0.64214471742E-01  0.10656641735E+00  0.89023887216E+00  0.88000000000E+00 0. -1.
        -11    1    4    4    0    0 -0.20217249643E-01  0.66251090934E-01 -0.88803426819E-01  0.11262439331E+00  0.51100000000E-03 0.  1.
         11    1    4    4    0    0 -0.85246249005E-02  0.45594242403E-02 -0.14175280078E-01  0.17165583747E-01  0.51100000000E-03 0. -1.
</event>
<event>
 8    1  0.1146431E+005  0.1043930E+01  0.7957747E-01            NaN
         13   -1    0    0    0    0  0.00000000000E+00  0.00000000000E+00  0.74505805969E-08  0.10566000000E+00  0.10566000000E+00 0. -1.
     999900   -1    0    0    0    0 -0.00000000000E+00 -0.00000000000E+00 -0.74505805969E-08  0.93827000000E+00  0.93827000000E+00 0. -1.
     999902    2    1    2    0    0 -0.33517680979E-02  0.16035318333E-01 -0.12916964248E-01  0.10230682228E+01  0.10228555004E+01 0.  0.
     999903    2    3    3    0    0  0.36937133370E-01  0.34626470265E-01 -0.12363414369E+00  0.13502142202E+00  0.19545809105E-01 0.  0.
         14    1    1    2    0    0  0.33517680979E-02 -0.16035318333E-01  0.12916964248E-01  0.20861777221E-01  0.00000000000E+00 0. -1.
     999901    1    3    3    0    0 -0.40288901468E-01 -0.18591151932E-01  0.11071717944E+00  0.88804680076E+00  0.88000000000E+00 0.  1.
        -11    1    4    4    0    0  0.17395020518E-01  0.13706291345E-01 -0.31271245526E-01  0.38322331336E-01  0.51100000000E-03 0.  1.
         11    1    4    4    0    0  0.19542112852E-01  0.20920178919E-01 -0.92362898167E-01  0.96699090686E-01  0.51100000000E-03 0. -1.
</event>
<event>
 8    1  0.1146431E+005  0.1043930E+01  0.7957747E-01            NaN
         13   -1    0    0    0    0  0.00000000000E+00  0.00000000000E+00  0.74505805969E-08  0.10566000000E+00  0.10566000000E+00 0. -1.
     999900   -1    0    0    0    0 -0.00000000000E+00 -0.00000000000E+00 -0.74505805969E-08  0.93827000000E+00  0.93827000000E+00 0. -1.
     999902    2    1    2    0    0  0.19094820861E-01  0.13887507308E-01 -0.38023938513E-02  0.10200148742E+01  0.10197344803E+01 0.  0.
     999903    2    3    3    0    0  0.10273439059E+00  0.31340328579E-01  0.74907363234E-01  0.13238014952E+00  0.19411844711E-01 0.  0.
         14    1    1    2    0    0 -0.19094820861E-01 -0.13887507308E-01  0.38023938513E-02  0.23915125798E-01  0.00000000000E+00 0.  1.
     999901    1    3    3    0    0 -0.83639569733E-01 -0.17452821272E-01 -0.78709757086E-01  0.88763472468E+00  0.88000000000E+00 0. -1.
        -11    1    4    4    0    0  0.75035311206E-01  0.22247012205E-01  0.64506134689E-01  0.10142253208E+00  0.51100000000E-03 0.  1.
         11    1    4    4    0    0  0.27699079387E-01  0.90933163741E-02  0.10401228546E-01  0.30957617445E-01  0.51100000000E-03 0. -1.
</event>
<event>
 8    1  0.1146431E+005  0.1043930E+01  0.7957747E-01            NaN
         13   -1    0    0    0    0  0.00000000000E+00  0.00000000000E+00  0.74505805969E-08  0.10566000000E+00  0.10566000000E+00 0. -1.
     999900   -1    0    0    0    0 -0.00000000000E+00 -0.00000000000E+00 -0.74505805969E-08  0.93827000000E+00  0.93827000000E+00 0. -1.
     999902    2    1    2    0    0 -0.20568537828E-01 -0.40880224315E-02 -0.10901738449E-01  0.10202947598E+01  0.10200209666E+01 0.  0.
     999903    2    3    3    0    0  0.43102722158E-01  0.36433637376E-01  0.11355735907E+00  0.12833842616E+00  0.19754068937E-01 0.  0.
         14    1    1    2    0    0  0.20568537828E-01  0.40880224315E-02  0.10901738449E-01  0.23635240151E-01  0.00000000000E+00 0.  1.
     999901    1    3    3    0    0 -0.63671259986E-01 -0.40521659807E-01 -0.12445909752E+00  0.89195633369E+00  0.88000000000E+00 0. -1.
        -11    1    4    4    0    0  0.34791215613E-01  0.37321545772E-01  0.91845619289E-01  0.10506762283E+00  0.51100000000E-03 0. -1.
         11    1    4    4    0    0  0.83115065456E-02 -0.88790839593E-03  0.21711739779E-01  0.23270803330E-01  0.51100000000E-03 0.  1.
</event>
<event>
 8    1  0.1146431E+005  0.1043930E+01  0.7957747E-01            NaN
         13   -1    0    0    0    0  0.00000000000E+00  0.00000000000E+00  0.74505805969E-08  0.10566000000E+00  0.10566000000E+00 0.  1.
     999900   -1    0    0    0    0 -0.00000000000E+00 -0.00000000000E+00 -0.74505805969E-08  0.93827000000E+00  0.93827000000E+00 0. -1.
     999902    2    1    2    0    0 -0.17819282347E-01  0.11822943243E-01  0.13148235885E-01  0.10188265158E+01  0.10185171989E+01 0.  0.
     999903    2    3    3    0    0 -0.59031488700E-01 -0.88342057574E-01  0.73480486171E-01  0.13013565071E+00  0.15712095414E-01 0.  0.
         14    1    1    2    0    0  0.17819282347E-01 -0.11822943243E-01 -0.13148235885E-01  0.25103484164E-01  0.00000000000E+00 0. -1.
     999901    1    3    3    0    0  0.41212206353E-01  0.10016500082E+00 -0.60332250286E-01  0.88869086513E+00  0.88000000000E+00 0. -1.
        -11    1    4    4    0    0 -0.36146744742E-01 -0.66353299343E-01  0.54311669469E-01  0.93055714766E-01  0.51100000000E-03 0. -1.
         11    1    4    4    0    0 -0.22884743958E-01 -0.21988758231E-01  0.19168816702E-01  0.37079935940E-01  0.51100000000E-03 0.  1.
</event>
<event>
 8    1  0.1146431E+005  0.1043930E+01  0.7957747E-01            NaN
         13   -1    0    0    0    0  0.00000000000E+00  0.00000000000E+00  0.74505805969E-08  0.10566000000E+00  0.10566000000E+00 0. -1.
     999900   -1    0    0    0    0 -0.00000000000E+00 -0.00000000000E+00 -0.74505805969E-08  0.93827000000E+00  0.93827000000E+00 0. -1.
     999902    2    1    2    0    0 -0.31113719568E-02  0.17801063155E-01  0.15289297402E-01  0.10202588974E+01  0.10199842629E+01 0.  0.
     999903    2    3    3    0    0  0.74248158969E-01  0.10158008021E+00 -0.31569771318E-01  0.13166495577E+00  0.22532383588E-01 0.  0.
         14    1    1    2    0    0  0.31113719568E-02 -0.17801063155E-01 -0.15289297402E-01  0.23671102635E-01  0.00000000000E+00 0.  1.
     999901    1    3    3    0    0 -0.77359530926E-01 -0.83779017055E-01  0.46859068720E-01  0.88859394160E+00  0.88000000000E+00 0.  1.
        -11    1    4    4    0    0  0.67082916885E-01  0.77523657710E-01 -0.22412479515E-01  0.10494101010E+00  0.51100000000E-03 0. -1.
         11    1    4    4    0    0  0.71652420841E-02  0.24056422501E-01 -0.91572918031E-02  0.26723945664E-01  0.51100000000E-03 0.  1.
</event>
<event>
 8    1  0.1146431E+005  0.1043930E+01  0.7957747E-01            NaN
         13   -1    0    0    0    0  0.00000000000E+00  0.00000000000E+00  0.74505805969E-08  0.10566000000E+00  0.10566000000E+00 0.  1.
     999900   -1    0    0    0    0 -0.00000000000E+00 -0.00000000000E+00 -0.74505805969E-08  0.93827000000E+00  0.93827000000E+00 0.  1.
     999902    2    1    2    0    0  0.19566467205E-01 -0.62979546052E-02  0.68886630989E-02  0.10222513342E+01  0.10220214409E+01 0.  0.
     999903    2    3    3    0    0 -0.86795944420E-01  0.73000678484E-01 -0.59358695645E-01  0.12984450526E+00  0.21760187753E-01 0.  0.
         14    1    1    2    0    0 -0.19566467205E-01  0.62979546052E-02 -0.68886630989E-02  0.21678665789E-01  0.00000000000E+00 0. -1.
     999901    1    3    3    0    0  0.10636241162E+00 -0.79298633089E-01  0.66247358743E-01  0.89240682895E+00  0.88000000000E+00 0. -1.
        -11    1    4    4    0    0 -0.50502455252E-01  0.53671704912E-01 -0.44659352392E-01  0.86173480675E-01  0.51100000000E-03 0.  1.
         11    1    4    4    0    0 -0.36293489168E-01  0.19328973572E-01 -0.14699343253E-01  0.43671024586E-01  0.51100000000E-03 0. -1.
</event>
<event>
 8    1  0.1146431E+005  0.1043930E+01  0.7957747E-01            NaN
         13   -1    0    0    0    0  0.00000000000E+00  0.00000000000E+00  0.74505805969E-08  0.10566000000E+00  0.10566000000E+00 0.  1.
     999900   -1    0    0    0    0 -0.00000000000E+00 -0.00000000000E+00 -0.74505805969E-08  0.93827000000E+00  0.93827000000E+00 0. -1.
     999902    2    1    2    0    0 -0.22384083557E-02 -0.13959393367E-01  0.18886337638E-01  0.10203382878E+01  0.10200655139E+01 0.  0.
     999903    2    3    3    0    0 -0.39365710173E-01 -0.12088332022E+00 -0.28289887327E-01  0.13183575045E+00  0.20442874723E-01 0.  0.
         14    1    1    2    0    0  0.22384083557E-02  0.13959393367E-01 -0.18886337638E-01  0.23591712200E-01  0.00000000000E+00 0. -1.
     999901    1    3    3    0    0  0.37127301817E-01  0.10692392685E+00  0.47176224965E-01  0.88850253735E+00  0.88000000000E+00 0.  1.
        -11    1    4    4    0    0 -0.31238232082E-01 -0.76645680705E-01 -0.26160232709E-01  0.86804414696E-01  0.51100000000E-03 0.  1.
         11    1    4    4    0    0 -0.81274780906E-02 -0.44237639516E-01 -0.21296546177E-02  0.45031335755E-01  0.51100000000E-03 0. -1.
</event>
<event>
 8    1  0.1146431E+005  0.1043930E+01  0.7957747E-01            NaN
         13   -1    0    0    0    0  0.00000000000E+00  0.00000000000E+00  0.74505805969E-08  0.10566000000E+00  0.10566000000E+00 0.  1.
     999900   -1    0    0    0    0 -0.00000000000E+00 -0.00000000000E+00 -0.74505805969E-08  0.93827000000E+00  0.93827000000E+00 0. -1.
     999902    2    1    2    0    0 -0.22564377265E-01  0.26319335214E-02  0.59921027026E-02  0.10204356711E+01  0.10201651706E+01 0.  0.
     999903    2    3    3    0    0  0.81363422814E-02  0.12420186432E+00 -0.34794071989E-01  0.13061248962E+00  0.18886286946E-01 0.  0.
         14    1    1    2    0    0  0.22564377265E-01 -0.26319335214E-02 -0.59921027026E-02  0.23494328894E-01  0.00000000000E+00 0. -1.
     999901    1    3    3    0    0 -0.30700719546E-01 -0.12156993080E+00  0.40786174691E-01  0.88982318148E+00  0.88000000000E+00 0.  1.
        -11    1    4    4    0    0 -0.26576594264E-02  0.58977071472E-01 -0.23483330855E-01  0.63538067818E-01  0.51100000000E-03 0. -1.
         11    1    4    4    0    0  0.10794001708E-01  0.65224792847E-01 -0.11310741134E-01  0.67074421807E-01  0.51100000000E-03 0.  1.
</event>
<event>
 8    1  0.1146431E+005  0.1043930E+01  0.7957747E-01            NaN
         13   -1    0    0    0    0  0.00000000000E+00  0.00000000000E+00  0.74505805969E-08  0.10566000000E+00  0.10566000000E+00 0. -1.
     999900   -1    0    0    0    0 -0.00000000000E+00 -0.00000000000E+00 -0.74505805969E-08  0.93827000000E+00  0.93827000000E+00 0. -1.
     999902    2    1    2    0    0 -0.41893611575E-02  0.28272597397E-01  0.80833026649E-02  0.10142276383E+01  0.10137926178E+01 0.  0.
     999903    2    3    3    0    0 -0.42611498245E-01  0.11919740463E+00  0.77233309970E-02  0.12870874476E+00  0.21966567373E-01 0.  0.
         14    1    1    2    0    0  0.41893611575E-02 -0.28272597397E-01 -0.80833026649E-02  0.29702361732E-01  0.00000000000E+00 0.  1.
     999901    1    3    3    0    0  0.38422137087E-01 -0.90924807230E-01  0.35997166796E-03  0.88551889351E+00  0.88000000000E+00 0. -1.
        -11    1    4    4    0    0 -0.16997761704E-01  0.26930398904E-01  0.84361878366E-02  0.32948454809E-01  0.51100000000E-03 0.  1.
         11    1    4    4    0    0 -0.25613736541E-01  0.92267005723E-01 -0.71285683965E-03  0.95760289946E-01  0.51100000000E-03 0. -1.
</event>
<event>
 8    1  0.1146431E+005  0.1043930E+01  0.7957747E-01            NaN
         13   -1    0    0    0    0  0.00000000000E+00  0.00000000000E+00  0.74505805969E-08  0.10566000000E+00  0.10566000000E+00 0.  1.
     999900   -1    0    0    0    0 -0.00000000000E+00 -0.00000000000E+00 -0.74505805969E-08  0.93827000000E+00  0.93827000000E+00 0.  1.
     999902    2    1    2    0    0  0.49642346873E-02 -0.20041926643E-01 -0.91265558136E-02  0.10213553135E+01  0.10211058025E+01 0.  0.
     999903    2    3    3    0    0  0.72479795527E-01 -0.10762341088E+00 -0.27961994817E-01  0.13423432902E+00  0.20021553504E-01 0.  0.
         14    1    1    2    0    0 -0.49642346873E-02  0.20041926643E-01  0.91265558136E-02  0.22574686501E-01  0.00000000000E+00 0. -1.
     999901    1    3    3    0    0 -0.67515560839E-01  0.87581484238E-01  0.18835439004E-01  0.88712098448E+00  0.88000000000E+00 0.  1.
        -11    1    4    4    0    0  0.28653305296E-01 -0.53933370552E-01 -0.52501945558E-02  0.61299641331E-01  0.51100000000E-03 0.  1.
         11    1    4    4    0    0  0.43826490231E-01 -0.53690040329E-01 -0.22711800261E-01  0.72934687691E-01  0.51100000000E-03 0. -1.
</event>
<event>
 8    1  0.1146431E+005  0.1043930E+01  0.7957747E-01            NaN
         13   -1    0    0    0    0  0.00000000000E+00  0.00000000000E+00  0.74505805969E-08  0.10566000000E+00  0.10566000000E+00 0.  1.
     999900   -1    0    0    0    0 -0.00000000000E+00 -0.00000000000E+00 -0.74505805969E-08  0.93827000000E+00  0.93827000000E+00 0. -1.
     999902    2    1    2    0    0  0.12672377546E-01 -0.18871228375E-01 -0.65271607679E-02  0.10202801323E+01  0.10200059962E+01 0.  0.
     999903    2    3    3    0    0 -0.12153006798E+00 -0.37994378480E-02 -0.41622988579E-01  0.12928676963E+00  0.14092638913E-01 0.  0.
         14    1    1    2    0    0 -0.12672377546E-01  0.18871228375E-01  0.65271607679E-02  0.23649867668E-01  0.00000000000E+00 0. -1.
     999901    1    3    3    0    0  0.13420244552E+00 -0.15071790527E-01  0.35095827811E-01  0.89099336270E+00  0.88000000000E+00 0. -1.
        -11    1    4    4    0    0 -0.23133635575E-01  0.41881425393E-03 -0.13795399010E-01  0.26942803401E-01  0.51100000000E-03 0. -1.
         11    1    4    4    0    0 -0.98396432404E-01 -0.42182521019E-02 -0.27827589569E-01  0.10234396623E+00  0.51100000000E-03 0.  1.
</event>
<event>
 8    1  0.1146431E+005  0.1043930E+01  0.7957747E-01            NaN
         13   -1    0    0    0    0  0.00000000000E+00  0.00000000000E+00  0.74505805969E-08  0.10566000000E+00  0.10566000000E+00 0. -1.
     999900   -1    0    0    0    0 -0.00000000000E+00 -0.00000000000E+00 -0.74505805969E-08  0.93827000000E+00  0.93827000000E+00 0.  1.
     999902    2    1    2    0    0 -0.21779443919E-01  0.15040405366E-02 -0.11740403369E-01  0.10191420314E+01  0.10188405355E+01 0.  0.
     999903    2    3    3    0    0  0.54551565773E-01  0.11184215865E+00  0.27426309640E-01  0.12811175429E+00  0.13261875688E-01 0.  0.
         14    1    1    2    0    0  0.21779443919E-01 -0.15040405366E-02  0.11740403369E-01  0.24787968586E-01  0.00000000000E+00 0. -1.
     999901    1    3    3    0    0 -0.76331009692E-01 -0.11033811811E+00 -0.39166713009E-01  0.89103027713E+00  0.88000000000E+00 0.  1.
        -11    1    4    4    0    0  0.46114867328E-01  0.92784685998E-01  0.17731653029E-01  0.10512017687E+00  0.51100000000E-03 0. -1.
         11    1    4    4    0    0  0.84366984454E-02  0.19057472649E-01  0.96946566113E-02  0.22991577420E-01  0.51100000000E-03 0.  1.
</event>
<event>
 8    1  0.1146431E+005  0.1043930E+01  0.7957747E-01            NaN
         13   -1    0    0    0    0  0.00000000000E+00  0.00000000000E+00  0.74505805969E-08  0.10566000000E+00  0.10566000000E+00 0. -1.
     999900   -1    0    0    0    0 -0.00000000000E+00 -0.00000000000E+00 -0.74505805969E-08  0.93827000000E+00  0.93827000000E+00 0.  1.
     999902    2    1    2    0    0  0.11841469285E-01  0.88695966012E-02 -0.13936678173E-01  0.10236046184E+01  0.10234028013E+01 0.  0.
     999903    2    3    3    0    0 -0.18328617985E-01 -0.10273769148E+00 -0.80738813410E-01  0.13353217967E+00  0.20521099554E-01 0.  0.
         14    1    1    2    0    0 -0.11841469285E-01 -0.88695966012E-02  0.13936678173E-01  0.20325381601E-01  0.00000000000E+00 0. -1.
     999901    1    3    3    0    0  0.30170087271E-01  0.11160728809E+00  0.66802135237E-01  0.89007243873E+00  0.88000000000E+00 0. -1.
        -11    1    4    4    0    0 -0.16209985323E-01 -0.73397846221E-01 -0.46496020908E-01  0.88386359442E-01  0.51100000000E-03 0. -1.
         11    1    4    4    0    0 -0.21186326625E-02 -0.29339845262E-01 -0.34242792503E-01  0.45145820225E-01  0.51100000000E-03 0.  1.
</event>
<event>
 8    1  0.1146431E+005  0.1043930E+01  0.7957747E-01            NaN
         13   -1    0    0    0    0  0.00000000000E+00  0.00000000000E+00  0.74505805969E-08  0.10566000000E+00  0.10566000000E+00 0. -1.
     999900   -1    0    0    0    0 -0.00000000000E+00 -0.00000000000E+00 -0.74505805969E-08  0.93827000000E+00  0.93827000000E+00 0.  1.
     999902    2    1    2    0    0  0.60289444745E-02  0.16500234536E-01 -0.14298120595E-01  0.10212795659E+01  0.10210283589E+01 0.  0.
     999903    2    3    3    0    0  0.82896511361E-01  0.89635402101E-01  0.47901470935E-01  0.13272671732E+00  0.20383661783E-01 0.  0.
         14    1    1    2    0    0 -0.60289444745E-02 -0.16500234536E-01  0.14298120595E-01  0.22650434075E-01  0.00000000000E+00 0. -1.
     999901    1    3    3    0    0 -0.76867566887E-01 -0.73135167564E-01 -0.62199591530E-01  0.88855284860E+00  0.88000000000E+00 0.  1.
        -11    1    4    4    0    0  0.36540797165E-01  0.30998605254E-01  0.27469817689E-01  0.55235816189E-01  0.51100000000E-03 0. -1.
         11    1    4    4    0    0  0.46355714196E-01  0.58636796847E-01  0.20431653246E-01  0.77490901133E-01  0.51100000000E-03 0.  1.
</event>
<event>
 8    1  0.1146431E+005  0.1043930E+01  0.7957747E-01            NaN
         13   -1    0    0    0    0  0.00000000000E+00  0.00000000000E+00  0.74505805969E-08  0.10566000000E+00  0.10566000000E+00 0.  1.
     999900   -1    0    0    0    0 -0.00000000000E+00 -0.00000000000E+00 -0.74505805969E-08  0.93827000000E+00  0.93827000000E+00 0.  1.
     999902    2    1    2    0    0  0.10826313457E-01  0.11858387512E-01  0.17103351919E-01  0.10204703524E+01  0.10202006592E+01 0.  0.
     999903    2    3    3    0    0 -0.68298701808E-01  0.10340154498E+00  0.40329948236E-01  0.13188698971E+00  0.20275136440E-01 0.  0.
         14    1    1    2    0    0 -0.10826313457E-01 -0.11858387512E-01 -0.17103351919E-01  0.23459647575E-01  0.00000000000E+00 0. -1.
     999901    1    3    3    0    0  0.79125015265E-01 -0.91543157464E-01 -0.23226596316E-01  0.88858336272E+00  0.88000000000E+00 0.  1.
        -11    1    4    4    0    0 -0.24085762613E-01  0.20700540036E-01  0.90136495461E-02  0.33017318449E-01  0.51100000000E-03 0. -1.
         11    1    4    4    0    0 -0.44212939195E-01  0.82701004941E-01  0.31316298690E-01  0.98869671260E-01  0.51100000000E-03 0.  1.
</event>
<event>
 8    1  0.1146431E+005  0.1043930E+01  0.7957747E-01            NaN
         13   -1    0    0    0    0  0.00000000000E+00  0.00000000000E+00  0.74505805969E-08  0.10566000000E+00  0.10566000000E+00 0. -1.
     999900   -1    0    0    0    0 -0.00000000000E+00 -0.00000000000E+00 -0.74505805969E-08  0.93827000000E+00  0.93827000000E+00 0. -1.
     999902    2    1    2    0    0  0.49069178098E-02 -0.29680261154E-01 -0.13361679781E-01  0.10110129796E+01  0.10104769739E+01 0.  0.
     999903    2    3    3    0    0 -0.80093135681E-01 -0.48549660956E-01 -0.79300358174E-01  0.12426105678E+00  0.19500858007E-01 0.  0.
         14    1    1    2    0    0 -0.49069178098E-02  0.29680261154E-01  0.13361679781E-01  0.32917020387E-01  0.00000000000E+00 0. -1.
     999901    1    3    3    0    0  0.85000053491E-01  0.18869399802E-01  0.65938678393E-01  0.88675192283E+00  0.88000000000E+00 0.  1.
        -11    1    4    4    0    0 -0.64496987837E-02 -0.69412678914E-02 -0.16036011803E-01  0.18633158881E-01  0.51100000000E-03 0. -1.
         11    1    4    4    0    0 -0.73643436897E-01 -0.41608393065E-01 -0.63264346371E-01  0.10562789790E+00  0.51100000000E-03 0.  1.
</event>
<event>
 7    1  0.1146431E+005  0.1043930E+01  0.7957747E-01            NaN
         13   -1    0    0    0    0  0.00000000000E+00  0.00000000000E+00  0.74505805969E-08  0.10566000000E+00  0.10566000000E+00 0. -1.
     999900   -1    0    0    0    0 -0.00000000000E+00 -0.00000000000E+00 -0.74505805969E-08  0.93827000000E+00  0.93827000000E+00 0.  1.
     999902    2    1    2    0    0 -0.19842901314E-01 -0.98919965159E-02  0.10121320153E-01  0.10195571986E+01  0.10192658376E+01 0.  0.
         14    1    1    2    0    0  0.19842901314E-01  0.98919965159E-02 -0.10121320153E-01  0.24372801425E-01  0.00000000000E+00 0.  1.
     999901    1    3    3    0    0 -0.33519444397E-01  0.80316894125E-01  0.79794218644E-01  0.88788595775E+00  0.88000000000E+00 0. -1.
        -11    1    3    3    0    0  0.14673819198E-01 -0.72275456298E-01 -0.16541910210E-01  0.75584115179E-01  0.51100000000E-03 0.  1.
         11    1    3    3    0    0 -0.99727611564E-03 -0.17933434343E-01 -0.53130988281E-01  0.56087125650E-01  0.51100000000E-03 0. -1.
</event>
<event>
 8    1  0.1146431E+005  0.1043930E+01  0.7957747E-01            NaN
         13   -1    0    0    0    0  0.00000000000E+00  0.00000000000E+00  0.74505805969E-08  0.10566000000E+00  0.10566000000E+00 0.  1.
     999900   -1    0    0    0    0 -0.00000000000E+00 -0.00000000000E+00 -0.74505805969E-08  0.93827000000E+00  0.93827000000E+00 0.  1.
     999902    2    1    2    0    0 -0.22565363517E-01 -0.98148078987E-03  0.50756296403E-02  0.10207800334E+01  0.10205174941E+01 0.  0.
     999903    2    3    3    0    0 -0.72704547878E-01 -0.70212022287E-02  0.10948452032E+00  0.13316996563E+00  0.20301009617E-01 0.  0.
         14    1    1    2    0    0  0.22565363517E-01  0.98148078987E-03 -0.50756296403E-02  0.23149966554E-01  0.00000000000E+00 0. -1.
     999901    1    3    3    0    0  0.50139184362E-01  0.60397214388E-02 -0.10440889068E+00  0.88761006782E+00  0.88000000000E+00 0.  1.
        -11    1    4    4    0    0 -0.67698186392E-01 -0.86504113798E-03  0.95186840586E-01  0.11681005299E+00  0.51100000000E-03 0. -1.
         11    1    4    4    0    0 -0.50063614868E-02 -0.61561610907E-02  0.14297679737E-01  0.16359912640E-01  0.51100000000E-03 0.  1.
</event>
<event>
 8    1  0.1146431E+005  0.1043930E+01  0.7957747E-01            NaN
         13   -1    0    0    0    0  0.00000000000E+00  0.00000000000E+00  0.74505805969E-08  0.10566000000E+00  0.10566000000E+00 0. -1.
     999900   -1    0    0    0    0 -0.00000000000E+00 -0.00000000000E+00 -0.74505805969E-08  0.93827000000E+00  0.93827000000E+00 0. -1.
     999902    2    1    2    0    0  0.17058690511E-01 -0.19602187176E-01 -0.11513689832E-02  0.10179190347E+01  0.10175866503E+01 0.  0.
     999903    2    3    3    0    0  0.10676122541E+00 -0.67080340183E-02 -0.71994132025E-01  0.13043297792E+00  0.19663410461E-01 0.  0.
         14    1    1    2    0    0 -0.17058690511E-01  0.19602187176E-01  0.11513689832E-02  0.26010965276E-01  0.00000000000E+00 0.  1.
     999901    1    3    3    0    0 -0.89702534897E-01 -0.12894153158E-01  0.70842763042E-01  0.88748605681E+00  0.88000000000E+00 0.  1.
        -11    1    4    4    0    0  0.91365144408E-01 -0.18488502520E-02 -0.53564190382E-01  0.10592634928E+00  0.51100000000E-03 0. -1.
         11    1    4    4    0    0  0.15396081000E-01 -0.48591837662E-02 -0.18429941643E-01  0.24506628634E-01  0.51100000000E-03 0.  1.
</event>
<event>
 8    1  0.1146431E+005  0.1043930E+01  0.7957747E-01            NaN
         13   -1    0    0    0    0  0.00000000000E+00  0.00000000000E+00  0.74505805969E-08  0.10566000000E+00  0.10566000000E+00 0. -1.
     999900   -1    0    0    0    0 -0.00000000000E+00 -0.00000000000E+00 -0.74505805969E-08  0.93827000000E+00  0.93827000000E+00 0.  1.
     999902    2    1    2    0    0 -0.97618565122E-02  0.15998843289E-01 -0.14123239100E-01  0.10204625180E+01  0.10201926425E+01 0.  0.
     999903    2    3    3    0    0 -0.10089409207E+00  0.18286680281E-01 -0.82584854612E-01  0.13310841091E+00  0.19584952217E-01 0.  0.
         14    1    1    2    0    0  0.97618565122E-02 -0.15998843289E-01  0.14123239100E-01  0.23467482009E-01  0.00000000000E+00 0.  1.
     999901    1    3    3    0    0  0.91132235557E-01 -0.22878369920E-02  0.68461615511E-01  0.88735410708E+00  0.88000000000E+00 0. -1.
        -11    1    4    4    0    0 -0.29229633831E-01  0.28889979221E-02 -0.13309232500E-01  0.32250807643E-01  0.51100000000E-03 0. -1.
         11    1    4    4    0    0 -0.71664458239E-01  0.15397682359E-01 -0.69275622112E-01  0.10085760327E+00  0.51100000000E-03 0.  1.
</event>
<event>
 8    1  0.1146431E+005  0.1043930E+01  0.7957747E-01            NaN
         13   -1    0    0    0    0  0.00000000000E+00  0.00000000000E+00  0.74505805969E-08  0.10566000000E+00  0.10566000000E+00 0.  1.
     999900   -1    0    0    0    0 -0.00000000000E+00 -0.00000000000E+00 -0.74505805969E-08  0.93827000000E+00  0.93827000000E+00 0.  1.
     999902    2    1    2    0    0  0.12930741801E-01 -0.11252547517E-01  0.14245742382E-01  0.10216417725E+01  0.10213986226E+01 0.  0.
     999903    2    3    3    0    0  0.91917925587E-01  0.90238014710E-01 -0.19714760324E-01  0.13164591567E+00  0.18712856426E-01 0.  0.
         14    1    1    2    0    0 -0.12930741801E-01  0.11252547517E-01 -0.14245742382E-01  0.22288227501E-01  0.00000000000E+00 0. -1.
     999901    1    3    3    0    0 -0.78987183786E-01 -0.10149056223E+00  0.33960502705E-01  0.88999585683E+00  0.88000000000E+00 0.  1.
        -11    1    4    4    0    0  0.13846665746E-01  0.14592457711E-01  0.36581968507E-02  0.20452713745E-01  0.51100000000E-03 0.  1.
         11    1    4    4    0    0  0.78071259841E-01  0.75645556999E-01 -0.23372957174E-01  0.11119320193E+00  0.51100000000E-03 0. -1.
</event>
<event>
 8    1  0.1146431E+005  0.1043930E+01  0.7957747E-01            NaN
         13   -1    0    0    0    0  0.00000000000E+00  0.00000000000E+00  0.74505805969E-08  0.10566000000E+00  0.10566000000E+00 0. -1.
     999900   -1    0    0    0    0 -0.00000000000E+00 -0.00000000000E+00 -0.74505805969E-08  0.93827000000E+00  0.93827000000E+00 0. -1.
     999902    2    1    2    0    0 -0.41587072173E-02  0.21745625753E-01 -0.92583958116E-02  0.10199323964E+01  0.10196500421E+01 0.  0.
     999903    2    3    3    0    0  0.89444568741E-01  0.24052035928E-01  0.88393416493E-01  0.12959382640E+00  0.20058226552E-01 0.  0.
         14    1    1    2    0    0  0.41587072173E-02 -0.21745625753E-01  0.92583958116E-02  0.23997603591E-01  0.00000000000E+00 0. -1.
     999901    1    3    3    0    0 -0.93603275958E-01 -0.23064101750E-02 -0.97651812304E-01  0.89033857001E+00  0.88000000000E+00 0. -1.
        -11    1    4    4    0    0  0.41990970467E-01  0.44340987952E-02  0.29806142149E-01  0.51687233082E-01  0.51100000000E-03 0.  1.
         11    1    4    4    0    0  0.47453598274E-01  0.19617937133E-01  0.58587274344E-01  0.77906593319E-01  0.51100000000E-03 0. -1.
</event>
<event>
 8    1  0.1146431E+005  0.1043930E+01  0.7957747E-01            NaN
         13   -1    0    0    0    0  0.00000000000E+00  0.00000000000E+00  0.74505805969E-08  0.10566000000E+00  0.10566000000E+00 0. -1.
     999900   -1    0    0    0    0 -0.00000000000E+00 -0.00000000000E+00 -0.74505805969E-08  0.93827000000E+00  0.93827000000E+00 0.  1.
     999902    2    1    2    0    0 -0.19884933548E-01  0.77971869587E-02 -0.77259909356E-02  0.10212166197E+01  0.10209639988E+01 0.  0.
     999903    2    3    3    0    0 -0.12009671104E-01 -0.88742666283E-01  0.92452824495E-01  0.13025210974E+00  0.19964826980E-01 0.  0.
         14    1    1    2    0    0  0.19884933548E-01 -0.77971869587E-02  0.77259909356E-02  0.22713380255E-01  0.00000000000E+00 0. -1.
     999901    1    3    3    0    0 -0.78752624432E-02  0.96539853241E-01 -0.10017881543E+00  0.89096451000E+00  0.88000000000E+00 0.  1.
        -11    1    4    4    0    0 -0.28730031094E-02 -0.37927725652E-01  0.25903215143E-01  0.46021779580E-01  0.51100000000E-03 0. -1.
         11    1    4    4    0    0 -0.91366679951E-02 -0.50814940631E-01  0.66549609352E-01  0.84230330162E-01  0.51100000000E-03 0.  1.
</event>
<event>
 8    1  0.1146431E+005  0.1043930E+01  0.7957747E-01            NaN
         13   -1    0    0    0    0  0.00000000000E+00  0.00000000000E+00  0.74505805969E-08  0.10566000000E+00  0.10566000000E+00 0.  1.
     999900   -1    0    0    0    0 -0.00000000000E+00 -0.00000000000E+00 -0.74505805969E-08  0.93827000000E+00  0.93827000000E+00 0.  1.
     999902    2    1    2    0    0  0.20440107172E-01 -0.90837034557E-02 -0.63986341046E-02  0.10206651302E+01  0.10203999480E+01 0.  0.
     999903    2    3    3    0    0 -0.87541349934E-01  0.89098767454E-01 -0.22442982649E-01  0.12850078780E+00  0.20166474312E-01 0.  0.
         14    1    1    2    0    0 -0.20440107172E-01  0.90837034557E-02  0.63986341046E-02  0.23264869827E-01  0.00000000000E+00 0.  1.
     999901    1    3    3    0    0  0.10798145711E+00 -0.98182470909E-01  0.16044348545E-01  0.89216434237E+00  0.88000000000E+00 0.  1.
        -11    1    4    4    0    0 -0.35656281168E-01  0.31128398526E-01  0.67018980488E-03  0.47339812599E-01  0.51100000000E-03 0. -1.
         11    1    4    4    0    0 -0.51885068767E-01  0.57970368927E-01 -0.23113172454E-01  0.81160975206E-01  0.51100000000E-03 0.  1.
</event>
<event>
 8    1  0.1146431E+005  0.1043930E+01  0.7957747E-01            NaN
         13   -1    0    0    0    0  0.00000000000E+00  0.00000000000E+00  0.74505805969E-08  0.10566000000E+00  0.10566000000E+00 0.  1.
     999900   -1    0    0    0    0 -0.00000000000E+00 -0.00000000000E+00 -0.74505805969E-08  0.93827000000E+00  0.93827000000E+00 0.  1.
     999902    2    1    2    0    0  0.12946887831E-01  0.18596323214E-01  0.73544691199E-02  0.10201070414E+01  0.10198288300E+01 0.  0.
     999903    2    3    3    0    0 -0.12189370312E+00 -0.28551374413E-02 -0.35028915913E-01  0.12856988485E+00  0.20903676041E-01 0.  0.
         14    1    1    2    0    0 -0.12946887831E-01 -0.18596323214E-01 -0.73544691199E-02  0.23822958624E-01  0.00000000000E+00 0. -1.
     999901    1    3    3    0    0  0.13484059095E+00  0.21451460655E-01  0.42383385033E-01  0.89153715652E+00  0.88000000000E+00 0.  1.
        -11    1    4    4    0    0 -0.38841393835E-01 -0.79205236457E-02 -0.43323246431E-02  0.39880054258E-01  0.51100000000E-03 0. -1.
         11    1    4    4    0    0 -0.83052309282E-01  0.50653862044E-02 -0.30696591270E-01  0.88689830596E-01  0.51100000000E-03 0.  1.
</event>
<event>
 8    1  0.1146431E+005  0.1043930E+01  0.7957747E-01            NaN
         13   -1    0    0    0    0  0.00000000000E+00  0.00000000000E+00  0.74505805969E-08  0.10566000000E+00  0.10566000000E+00 0. -1.
     999900   -1    0    0    0    0 -0.00000000000E+00 -0.00000000000E+00 -0.74505805969E-08  0.93827000000E+00  0.93827000000E+00 0.  1.
     999902    2    1    2    0    0 -0.17453797679E-01  0.10148225951E-01 -0.12518675243E-01  0.10201741844E+01  0.10198975575E+01 0.  0.
     999903    2    3    3    0    0  0.12395853172E+00 -0.72614469406E-02 -0.26995127528E-01  0.12859686794E+00  0.19747691935E-01 0.  0.
         14    1    1    2    0    0  0.17453797679E-01 -0.10148225951E-01  0.12518675243E-01  0.23755815567E-01  0.00000000000E+00 0. -1.
     999901    1    3    3    0    0 -0.14141232940E+00  0.17409672892E-01  0.14476452285E-01  0.89157731649E+00  0.88000000000E+00 0.  1.
        -11    1    4    4    0    0  0.74093572448E-02  0.40207086048E-02 -0.68642630319E-04  0.84457388828E-02  0.51100000000E-03 0. -1.
         11    1    4    4    0    0  0.11654917447E+00 -0.11282155545E-01 -0.26926484898E-01  0.12015112906E+00  0.51100000000E-03 0.  1.
</event>
<event>
 8    1  0.1146431E+005  0.1043930E+01  0.7957747E-01            NaN
         13   -1    0    0    0    0  0.00000000000E+00  0.00000000000E+00  0.74505805969E-08  0.10566000000E+00  0.10566000000E+00 0.  1.
     999900   -1    0    0    0    0 -0.00000000000E+00 -0.00000000000E+00 -0.74505805969E-08  0.93827000000E+00  0.93827000000E+00 0.  1.
     999902    2    1    2    0    0  0.20559804749E-01 -0.69108821902E-02 -0.15860700813E-01  0.10170594270E+01  0.10167044066E+01 0.  0.
     999903    2    3    3    0    0 -0.81791845755E-01 -0.87693982637E-01  0.33387699331E-01  0.12608963255E+00  0.20092693867E-01 0.  0.
         14    1    1    2    0    0 -0.20559804749E-01  0.69108821902E-02  0.15860700813E-01  0.26870573017E-01  0.00000000000E+00 0. -1.
     999901    1    3    3    0    0  0.10235165050E+00  0.80783100447E-01 -0.49248400144E-01  0.89096979443E+00  0.88000000000E+00 0. -1.
        -11    1    4    4    0    0 -0.22621039652E-01 -0.16724827210E-01  0.14965665502E-01  0.31869476699E-01  0.51100000000E-03 0. -1.
         11    1    4    4    0    0 -0.59170806102E-01 -0.70969155428E-01  0.18422033829E-01  0.94220155850E-01  0.51100000000E-03 0.  1.
</event>
<event>
 8    1  0.1146431E+005  0.1043930E+01  0.7957747E-01            NaN
         13   -1    0    0    0    0  0.00000000000E+00  0.00000000000E+00  0.74505805969E-08  0.10566000000E+00  0.10566000000E+00 0. -1.
     999900   -1    0    0    0    0 -0.00000000000E+00 -0.00000000000E+00 -0.74505805969E-08  0.93827000000E+00  0.93827000000E+00 0. -1.
     999902    2    1    2    0    0  0.20325002204E-01  0.91589211635E-02 -0.29773333733E-02  0.10214387558E+01  0.10211911064E+01 0.  0.
     999903    2    3    3    0    0 -0.81864423060E-01 -0.44084528472E-01  0.87530625645E-01  0.12932372162E+00  0.20439792930E-01 0.  0.
         14    1    1    2    0    0 -0.20325002204E-01 -0.91589211635E-02  0.29773333733E-02  0.22491244196E-01  0.00000000000E+00 0.  1.
     999901    1    3    3    0    0  0.10218942526E+00  0.53243449635E-01 -0.90507959019E-01  0.89211503418E+00  0.88000000000E+00 0. -1.
        -11    1    4    4    0    0 -0.21244395877E-01 -0.17280883508E-01  0.36698516420E-01  0.45792963646E-01  0.51100000000E-03 0.  1.
         11    1    4    4    0    0 -0.60620027183E-01 -0.26803644964E-01  0.50832109225E-01  0.83530757978E-01  0.51100000000E-03 0. -1.
</event>
<event>
 8    1  0.1146431E+005  0.1043930E+01  0.7957747E-01            NaN
         13   -1    0    0    0    0  0.00000000000E+00  0.00000000000E+00  0.74505805969E-08  0.10566000000E+00  0.10566000000E+00 0. -1.
     999900   -1    0    0    0    0 -0.00000000000E+00 -0.00000000000E+00 -0.74505805969E-08  0.93827000000E+00  0.93827000000E+00 0.  1.
     999902    2    1    2    0    0  0.89410971755E-02 -0.12216968988E-01 -0.19193645008E-01  0.10194842732E+01  0.10191911449E+01 0.  0.
     999903    2    3    3    0    0  0.10259772083E+00 -0.81862969793E-02 -0.80623826626E-01  0.13237578114E+00  0.20732540479E-01 0.  0.
         14    1    1    2    0    0 -0.89410971755E-02  0.12216968988E-01  0.19193645008E-01  0.24445726797E-01  0.00000000000E+00 0. -1.
     999901    1    3    3    0    0 -0.93656623658E-01 -0.40306720088E-02  0.61430181619E-01  0.88710849206E+00  0.88000000000E+00 0. -1.
        -11    1    4    4    0    0  0.61180066979E-01 -0.22656867978E-02 -0.35217205930E-01  0.70630352163E-01  0.51100000000E-03 0.  1.
         11    1    4    4    0    0  0.41417653855E-01 -0.59206101816E-02 -0.45406620697E-01  0.61745428979E-01  0.51100000000E-03 0. -1.
</event>
<event>
 8    1  0.1146431E+005  0.1043930E+01  0.7957747E-01            NaN
         13   -1    0    0    0    0  0.00000000000E+00  0.00000000000E+00  0.74505805969E-08  0.10566000000E+00  0.10566000000E+00 0. -1.
     999900   -1    0    0    0    0 -0.00000000000E+00 -0.00000000000E+00 -0.74505805969E-08  0.93827000000E+00  0.93827000000E+00 0. -1.
     999902    2    1    2    0    0  0.10501524076E-01 -0.21170671577E-01 -0.25874867949E-02  0.10201566025E+01  0.10198795611E+01 0.  0.
     999903    2    3    3    0    0 -0.90075566592E-01  0.55172939573E-01  0.68741923599E-01  0.12828666636E+00  0.23965720238E-01 0.  0.
         14    1    1    2    0    0 -0.10501524076E-01  0.21170671577E-01  0.25874867949E-02  0.23773397545E-01  0.00000000000E+00 0. -1.
     999901    1    3    3    0    0  0.10057709067E+00 -0.76343611149E-01 -0.71329410394E-01  0.89186993610E+00  0.88000000000E+00 0. -1.
        -11    1    4    4    0    0 -0.27103810496E-01  0.29556673453E-01  0.29527794941E-01  0.49803265797E-01  0.51100000000E-03 0. -1.
         11    1    4    4    0    0 -0.62971756097E-01  0.25616266120E-01  0.39214128658E-01  0.78483400559E-01  0.51100000000E-03 0.  1.
</event>
<event>
 8    1  0.1146431E+005  0.1043930E+01  0.7957747E-01            NaN
         13   -1    0    0    0    0  0.00000000000E+00  0.00000000000E+00  0.74505805969E-08  0.10566000000E+00  0.10566000000E+00 0. -1.
     999900   -1    0    0    0    0 -0.00000000000E+00 -0.00000000000E+00 -0.74505805969E-08  0.93827000000E+00  0.93827000000E+00 0. -1.
     999902    2    1    2    0    0  0.71955689653E-02 -0.22456151455E-01  0.43264867772E-02  0.10199555670E+01  0.10196737641E+01 0.  0.
     999903    2    3    3    0    0 -0.10938542692E+00 -0.64687023186E-01 -0.23776512278E-01  0.13081870817E+00  0.19965702642E-01 0.  0.
         14    1    1    2    0    0 -0.71955689653E-02  0.22456151455E-01 -0.43264867772E-02  0.23974433022E-01  0.00000000000E+00 0.  1.
     999901    1    3    3    0    0  0.11658099588E+00  0.42230871731E-01  0.28102999055E-01  0.88913685880E+00  0.88000000000E+00 0. -1.
        -11    1    4    4    0    0 -0.66151264600E-01 -0.40535026839E-01 -0.46346023468E-02  0.77722704977E-01  0.51100000000E-03 0.  1.
         11    1    4    4    0    0 -0.43234162316E-01 -0.24151996347E-01 -0.19141909931E-01  0.53096003197E-01  0.51100000000E-03 0. -1.
</event>
<event>
 8    1  0.1146431E+005  0.1043930E+01  0.7957747E-01            NaN
         13   -1    0    0    0    0  0.00000000000E+00  0.00000000000E+00  0.74505805969E-08  0.10566000000E+00  0.10566000000E+00 0.  1.
     999900   -1    0    0    0    0 -0.00000000000E+00 -0.00000000000E+00 -0.74505805969E-08  0.93827000000E+00  0.93827000000E+00 0. -1.
     999902    2    1    2    0    0 -0.57387139818E-02 -0.20736811251E-01  0.97157066379E-02  0.10203218841E+01  0.10200487263E+01 0.  0.
     999903    2    3    3    0    0 -0.67950799520E-01  0.10836349346E-01 -0.10726527010E+00  0.12984349755E+00  0.24874848055E-01 0.  0.
         14    1    1    2    0    0  0.57387139818E-02  0.20736811251E-01 -0.97157066379E-02  0.23608115861E-01  0.00000000000E+00 0. -1.
     999901    1    3    3    0    0  0.62212085538E-01 -0.31573160597E-01  0.11698097673E+00  0.89047838658E+00  0.88000000000E+00 0. -1.
        -11    1    4    4    0    0 -0.22274913097E-01 -0.36092266563E-02 -0.19385995875E-01  0.29753591844E-01  0.51100000000E-03 0. -1.
         11    1    4    4    0    0 -0.45675886424E-01  0.14445576002E-01 -0.87879274221E-01  0.10008990571E+00  0.51100000000E-03 0.  1.
</event>
<event>
 8    1  0.1146431E+005  0.1043930E+01  0.7957747E-01            NaN
         13   -1    0    0    0    0  0.00000000000E+00  0.00000000000E+00  0.74505805969E-08  0.10566000000E+00  0.10566000000E+00 0.  1.
     999900   -1    0    0    0    0 -0.00000000000E+00 -0.00000000000E+00 -0.74505805969E-08  0.93827000000E+00  0.93827000000E+00 0.  1.
     999902    2    1    2    0    0 -0.12040029651E-04  0.62460541387E-02 -0.22759029917E-01  0.10203294326E+01  0.10200564515E+01 0.  0.
     999903    2    3    3    0    0 -0.11184501246E+00 -0.38881948017E-01 -0.53752467366E-01  0.13156414108E+00  0.19967042281E-01 0.  0.
         14    1    1    2    0    0  0.12040029651E-04 -0.62460541387E-02  0.22759029917E-01  0.23600567366E-01  0.00000000000E+00 0.  1.
     999901    1    3    3    0    0  0.11183297243E+00  0.45128002156E-01  0.30993437449E-01  0.88876529155E+00  0.88000000000E+00 0. -1.
        -11    1    4    4    0    0 -0.77646154708E-01 -0.20404334267E-01 -0.43716943228E-01  0.91414957441E-01  0.51100000000E-03 0.  1.
         11    1    4    4    0    0 -0.34198857751E-01 -0.18477613750E-01 -0.10035524138E-01  0.40149183642E-01  0.51100000000E-03 0. -1.
</event>
<event>
 8    1  0.1146431E+005  0.1043930E+01  0.7957747E-01            NaN
         13   -1    0    0    0    0  0.00000000000E+00  0.00000000000E+00  0.74505805969E-08  0.10566000000E+00  0.10566000000E+00 0. -1.
     999900   -1    0    0    0    0 -0.00000000000E+00 -0.00000000000E+00 -0.74505805969E-08  0.93827000000E+00  0.93827000000E+00 0.  1.
     999902    2    1    2    0    0 -0.44791791911E-02  0.23674402152E-01  0.42781281687E-02  0.10194587364E+01  0.10191649878E+01 0.  0.
     999903    2    3    3    0    0  0.71893830903E-01 -0.10149082688E+00  0.17998434546E-01  0.12722142598E+00  0.19804967042E-01 0.  0.
         14    1    1    2    0    0  0.44791791911E-02 -0.23674402152E-01 -0.42781281687E-02  0.24471263639E-01  0.00000000000E+00 0.  1.
     999901    1    3    3    0    0 -0.76373010094E-01  0.12516522903E+00 -0.13720306378E-01  0.89223731038E+00  0.88000000000E+00 0.  1.
        -11    1    4    4    0    0  0.11341136609E-01 -0.26599440033E-01  0.99134931073E-02  0.30572701160E-01  0.51100000000E-03 0. -1.
         11    1    4    4    0    0  0.60552694295E-01 -0.74891386847E-01  0.80849414390E-02  0.96648724820E-01  0.51100000000E-03 0.  1.
</event>
<event>
 8    1  0.1146431E+005  0.1043930E+01  0.7957747E-01            NaN
         13   -1    0    0    0    0  0.00000000000E+00  0.00000000000E+00  0.74505805969E-08  0.10566000000E+00  0.10566000000E+00 0.  1.
     999900   -1    0    0    0    0 -0.00000000000E+00 -0.00000000000E+00 -0.74505805969E-08  0.93827000000E+00  0.93827000000E+00 0. -1.
     999902    2    1    2    0    0  0.11249533961E-01 -0.60173584133E-02  0.18030798639E-01  0.10218422134E+01  0.10216034646E+01 0.  0.
     999903    2    3    3    0    0 -0.12445662522E+00 -0.33812233740E-01  0.80403780193E-02  0.13095023049E+00  0.21227257829E-01 0.  0.
         14    1    1    2    0    0 -0.11249533961E-01  0.60173584133E-02 -0.18030798639E-01  0.22087786584E-01  0.00000000000E+00 0. -1.
     999901    1    3    3    0    0  0.13570615918E+00  0.27794875327E-01  0.99904206195E-02  0.89089198292E+00  0.88000000000E+00 0. -1.
        -11    1    4    4    0    0 -0.91425130951E-01 -0.27615256844E-01  0.14855659892E-01  0.96654584640E-01  0.51100000000E-03 0.  1.
         11    1    4    4    0    0 -0.33031494271E-01 -0.61969768959E-02 -0.68152818723E-02  0.34295645852E-01  0.51100000000E-03 0. -1.
</event>
<event>
 8    1  0.1146431E+005  0.1043930E+01  0.7957747E-01            NaN
         13   -1    0    0    0    0  0.00000000000E+00  0.00000000000E+00  0.74505805969E-08  0.10566000000E+00  0.10566000000E+00 0. -1.
     999900   -1    0    0    0    0 -0.00000000000E+00 -0.00000000000E+00 -0.74505805969E-08  0.93827000000E+00  0.93827000000E+00 0.  1.
     999902    2    1    2    0    0  0.34896064969E-02  0.20330024533E-01  0.11878764917E-01  0.10201268005E+01  0.10198490559E+01 0.  0.
     999903    2    3    3    0    0  0.76884049727E-01 -0.99911358536E-01 -0.14309096133E-01  0.12853802837E+00  0.20587322280E-01 0.  0.
         14    1    1    2    0    0 -0.34896064969E-02 -0.20330024533E-01 -0.11878764917E-01  0.23803199511E-01  0.00000000000E+00 0.  1.
     999901    1    3    3    0    0 -0.73394443230E-01  0.12024138307E+00  0.26187861050E-01  0.89158877212E+00  0.88000000000E+00 0. -1.
        -11    1    4    4    0    0  0.69419826348E-01 -0.81531563468E-01 -0.17294242262E-01  0.10847054931E+00  0.51100000000E-03 0. -1.
         11    1    4    4    0    0  0.74642233788E-02 -0.18379795068E-01  0.29851461287E-02  0.20067479060E-01  0.51100000000E-03 0.  1.
</event>
<event>
 8    1  0.1146431E+005  0.1043930E+01  0.7957747E-01            NaN
         13   -1    0    0    0    0  0.00000000000E+00  0.00000000000E+00  0.74505805969E-08  0.10566000000E+00  0.10566000000E+00 0.  1.
     999900   -1    0    0    0    0 -0.00000000000E+00 -0.00000000000E+00 -0.74505805969E-08  0.93827000000E+00  0.93827000000E+00 0. -1.
     999902    2    1    2    0    0  0.30207117094E-02 -0.20895074797E-01  0.98084818428E-02  0.10206504990E+01  0.10203849793E+01 0.  0.
     999903    2    3    3    0    0 -0.26636186906E-01 -0.88117707306E-01 -0.92097385180E-01  0.13172799413E+00  0.19902745719E-01 0.  0.
         14    1    1    2    0    0 -0.30207117094E-02  0.20895074797E-01 -0.98084818428E-02  0.23279500984E-01  0.00000000000E+00 0. -1.
     999901    1    3    3    0    0  0.29656898615E-01  0.67222632509E-01  0.10190586702E+00  0.88892250488E+00  0.88000000000E+00 0.  1.
        -11    1    4    4    0    0 -0.16824868330E-01 -0.31151294668E-01 -0.26066220208E-01  0.43968037377E-01  0.51100000000E-03 0.  1.
         11    1    4    4    0    0 -0.98113185752E-02 -0.56966412638E-01 -0.66031164971E-01  0.87759956754E-01  0.51100000000E-03 0. -1.
</event>
<event>
 8    1  0.1146431E+005  0.1043930E+01  0.7957747E-01            NaN
         13   -1    0    0    0    0  0.00000000000E+00  0.00000000000E+00  0.74505805969E-08  0.10566000000E+00  0.10566000000E+00 0.  1.
     999900   -1    0    0    0    0 -0.00000000000E+00 -0.00000000000E+00 -0.74505805969E-08  0.93827000000E+00  0.93827000000E+00 0. -1.
     999902    2    1    2    0    0 -0.51585774122E-02  0.25449423229E-02  0.22327905270E-01  0.10208730486E+01  0.10206126388E+01 0.  0.
     999903    2    3    3    0    0 -0.12115089290E+00 -0.43688499018E-01 -0.15129992878E-01  0.13126929275E+00  0.20408006750E-01 0.  0.
         14    1    1    2    0    0  0.51585774122E-02 -0.25449423229E-02 -0.22327905270E-01  0.23056951362E-01  0.00000000000E+00 0. -1.
     999901    1    3    3    0    0  0.11599231548E+00  0.46233441341E-01  0.37457898148E-01  0.88960375588E+00  0.88000000000E+00 0.  1.
        -11    1    4    4    0    0 -0.10299195752E+00 -0.40980249865E-01 -0.66686161396E-02  0.11104708800E+00  0.51100000000E-03 0. -1.
         11    1    4    4    0    0 -0.18158935380E-01 -0.27082491530E-02 -0.84613767384E-02  0.20222204749E-01  0.51100000000E-03 0.  1.
</event>
<event>
 8    1  0.1146431E+005  0.1043930E+01  0.7957747E-01            NaN
         13   -1    0    0    0    0  0.00000000000E+00  0.00000000000E+00  0.74505805969E-08  0.10566000000E+00  0.10566000000E+00 0. -1.
     999900   -1    0    0    0    0 -0.00000000000E+00 -0.00000000000E+00 -0.74505805969E-08  0.93827000000E+00  0.93827000000E+00 0. -1.
     999902    2    1    2    0    0  0.13380091252E-02  0.41081252413E-02  0.22613141928E-01  0.10209078118E+01  0.10206481955E+01 0.  0.
     999903    2    3    3    0    0 -0.11007915644E+00  0.14382648185E-01 -0.63516895010E-01  0.12965154458E+00  0.21233129989E-01 0.  0.
         14    1    1    2    0    0 -0.13380091252E-02 -0.41081252413E-02 -0.22613141928E-01  0.23022188195E-01  0.00000000000E+00 0.  1.
     999901    1    3    3    0    0  0.11141716557E+00 -0.10274522944E-01  0.86130036938E-01  0.89125626722E+00  0.88000000000E+00 0. -1.
        -11    1    4    4    0    0 -0.57178644456E-01  0.17881081398E-01 -0.36374376993E-01  0.70089135224E-01  0.51100000000E-03 0.  1.
         11    1    4    4    0    0 -0.52900511984E-01 -0.34984332129E-02 -0.27142518016E-01  0.59562409357E-01  0.51100000000E-03 0. -1.
</event>
<event>
 8    1  0.1146431E+005  0.1043930E+01  0.7957747E-01            NaN
         13   -1    0    0    0    0  0.00000000000E+00  0.00000000000E+00  0.74505805969E-08  0.10566000000E+00  0.10566000000E+00 0. -1.
     999900   -1    0    0    0    0 -0.00000000000E+00 -0.00000000000E+00 -0.74505805969E-08  0.93827000000E+00  0.93827000000E+00 0. -1.
     999902    2    1    2    0    0 -0.53268022612E-02  0.66559690360E-03 -0.22971533285E-01  0.10203395531E+01  0.10200668089E+01 0.  0.
     999903    2    3    3    0    0 -0.70301598148E-01 -0.86172431552E-01  0.63177977412E-01  0.12950606394E+00  0.20306676385E-01 0.  0.
         14    1    1    2    0    0  0.53268022612E-02 -0.66559690360E-03  0.22971533285E-01  0.23590446859E-01  0.00000000000E+00 0. -1.
     999901    1    3    3    0    0  0.64974795887E-01  0.86838028455E-01 -0.86149510697E-01  0.89083348920E+00  0.88000000000E+00 0. -1.
        -11    1    4    4    0    0 -0.12874371409E-01 -0.14326803834E-01  0.20418948433E-01  0.28074923390E-01  0.51100000000E-03 0.  1.
         11    1    4    4    0    0 -0.57427226739E-01 -0.71845627717E-01  0.42759028979E-01  0.10143114055E+00  0.51100000000E-03 0. -1.
</event>
<event>
 8    1  0.1146431E+005  0.1043930E+01  0.7957747E-01            NaN
         13   -1    0    0    0    0  0.00000000000E+00  0.00000000000E+00  0.74505805969E-08  0.10566000000E+00  0.10566000000E+00 0. -1.
     999900   -1    0    0    0    0 -0.00000000000E+00 -0.00000000000E+00 -0.74505805969E-08  0.93827000000E+00  0.93827000000E+00 0.  1.
     999902    2    1    2    0    0  0.12671849373E-01 -0.20122281894E-01  0.51652671875E-02  0.10195956214E+01  0.10193051895E+01 0.  0.
     999903    2    3    3    0    0  0.45139666597E-01  0.13125371917E-01  0.12035039959E+00  0.13087340366E+00  0.20827006839E-01 0.  0.
         14    1    1    2    0    0 -0.12671849373E-01  0.20122281894E-01 -0.51652671875E-02  0.24334378568E-01  0.00000000000E+00 0.  1.
     999901    1    3    3    0    0 -0.32467817224E-01 -0.33247653812E-01 -0.11518513241E+00  0.88872221777E+00  0.88000000000E+00 0.  1.
        -11    1    4    4    0    0  0.12084390989E-01  0.13256876515E-01  0.34732381977E-01  0.39094459445E-01  0.51100000000E-03 0. -1.
         11    1    4    4    0    0  0.33055275608E-01 -0.13150459753E-03  0.85618017618E-01  0.91778944212E-01  0.51100000000E-03 0.  1.
</event>
<event>
 8    1  0.1146431E+005  0.1043930E+01  0.7957747E-01            NaN
         13   -1    0    0    0    0  0.00000000000E+00  0.00000000000E+00  0.74505805969E-08  0.10566000000E+00  0.10566000000E+00 0. -1.
     999900   -1    0    0    0    0 -0.00000000000E+00 -0.00000000000E+00 -0.74505805969E-08  0.93827000000E+00  0.93827000000E+00 0. -1.
     999902    2    1    2    0    0  0.14548821145E-01 -0.24574969982E-02  0.17710732973E-01  0.10208783721E+01  0.10206180838E+01 0.  0.
     999903    2    3    3    0    0  0.12571027867E+00  0.28250129334E-01 -0.19056305543E-01  0.13259258298E+00  0.24829545099E-01 0.  0.
         14    1    1    2    0    0 -0.14548821145E-01  0.24574969982E-02 -0.17710732973E-01  0.23051627939E-01  0.00000000000E+00 0.  1.
     999901    1    3    3    0    0 -0.11116145753E+00 -0.30707626332E-01  0.36767038516E-01  0.88828578908E+00  0.88000000000E+00 0.  1.
        -11    1    4    4    0    0  0.33770855791E-01 -0.81026840338E-03  0.21902015437E-02  0.33855359096E-01  0.51100000000E-03 0.  1.
         11    1    4    4    0    0  0.91939422883E-01  0.29060397737E-01 -0.21246507087E-01  0.98737223888E-01  0.51100000000E-03 0. -1.
</event>
<event>
 8    1  0.1146431E+005  0.1043930E+01  0.7957747E-01            NaN
         13   -1    0    0    0    0  0.00000000000E+00  0.00000000000E+00  0.74505805969E-08  0.10566000000E+00  0.10566000000E+00 0. -1.
     999900   -1    0    0    0    0 -0.00000000000E+00 -0.00000000000E+00 -0.74505805969E-08  0.93827000000E+00  0.93827000000E+00 0.  1.
     999902    2    1    2    0    0  0.19929536309E-02 -0.22081613313E-01  0.52458158120E-02  0.10211464951E+01  0.10208922942E+01 0.  0.
     999903    2    3    3    0    0  0.84408869206E-01 -0.83469177314E-01 -0.56141965795E-01  0.13304217925E+00  0.21362124750E-01 0.  0.
         14    1    1    2    0    0 -0.19929536309E-02  0.22081613313E-01 -0.52458158120E-02  0.22783504871E-01  0.00000000000E+00 0.  1.
     999901    1    3    3    0    0 -0.82415915576E-01  0.61387564000E-01  0.61387781607E-01  0.88810431588E+00  0.88000000000E+00 0. -1.
        -11    1    4    4    0    0  0.46596236480E-01 -0.31214079113E-01 -0.24737935134E-01  0.61300526463E-01  0.51100000000E-03 0. -1.
         11    1    4    4    0    0  0.37812632727E-01 -0.52255098201E-01 -0.31404030661E-01  0.71741652786E-01  0.51100000000E-03 0.  1.
</event>
<event>
 8    1  0.1146431E+005  0.1043930E+01  0.7957747E-01            NaN
         13   -1    0    0    0    0  0.00000000000E+00  0.00000000000E+00  0.74505805969E-08  0.10566000000E+00  0.10566000000E+00 0. -1.
     999900   -1    0    0    0    0 -0.00000000000E+00 -0.00000000000E+00 -0.74505805969E-08  0.93827000000E+00  0.93827000000E+00 0.  1.
     999902    2    1    2    0    0 -0.35709393119E-02  0.14181443868E-01 -0.18275558226E-01  0.10205235696E+01  0.10202551127E+01 0.  0.
     999903    2    3    3    0    0 -0.72342787226E-01 -0.99447777281E-01 -0.37872383545E-01  0.13034089025E+00  0.20762730237E-01 0.  0.
         14    1    1    2    0    0  0.35709393119E-02 -0.14181443868E-01  0.18275558226E-01  0.23406430445E-01  0.00000000000E+00 0. -1.
     999901    1    3    3    0    0  0.68771847914E-01  0.11362922115E+00  0.19596825319E-01  0.89018267930E+00  0.88000000000E+00 0.  1.
        -11    1    4    4    0    0 -0.22542197820E-01 -0.34638755482E-01 -0.28819835402E-02  0.41431401304E-01  0.51100000000E-03 0. -1.
         11    1    4    4    0    0 -0.49800589406E-01 -0.64809021799E-01 -0.34990400005E-01  0.88909488950E-01  0.51100000000E-03 0.  1.
</event>
<event>
 8    1  0.1146431E+005  0.1043930E+01  0.7957747E-01            NaN
         13   -1    0    0    0    0  0.00000000000E+00  0.00000000000E+00  0.74505805969E-08  0.10566000000E+00  0.10566000000E+00 0.  1.
     999900   -1    0    0    0    0 -0.00000000000E+00 -0.00000000000E+00 -0.74505805969E-08  0.93827000000E+00  0.93827000000E+00 0.  1.
     999902    2    1    2    0    0  0.88736861313E-02  0.22530935230E-01  0.32126578198E-03  0.10197124741E+01  0.10194248581E+01 0.  0.
     999903    2    3    3    0    0  0.11406816467E+00 -0.34015434743E-01  0.48875834928E-01  0.13031890744E+00  0.20629454787E-01 0.  0.
         14    1    1    2    0    0 -0.88736861313E-02 -0.22530935230E-01 -0.32126578198E-03  0.24217525877E-01  0.00000000000E+00 0.  1.
     999901    1    3    3    0    0 -0.10519447854E+00  0.56546369973E-01 -0.48554569146E-01  0.88939356668E+00  0.88000000000E+00 0.  1.
        -11    1    4    4    0    0  0.54136975623E-01 -0.17551013867E-01  0.34400136077E-01  0.66501734567E-01  0.51100000000E-03 0. -1.
         11    1    4    4    0    0  0.59931189046E-01 -0.16464420876E-01  0.14475698851E-01  0.63817172873E-01  0.51100000000E-03 0.  1.
</event>
<event>
 8    1  0.1146431E+005  0.1043930E+01  0.7957747E-01            NaN
         13   -1    0    0    0    0  0.00000000000E+00  0.00000000000E+00  0.74505805969E-08  0.10566000000E+00  0.10566000000E+00 0. -1.
     999900   -1    0    0    0    0 -0.00000000000E+00 -0.00000000000E+00 -0.74505805969E-08  0.93827000000E+00  0.93827000000E+00 0.  1.
     999902    2    1    2    0    0  0.11439646906E-01  0.35031884860E-01 -0.80607667543E-02  0.10062063411E+01  0.10054989440E+01 0.  0.
     999903    2    3    3    0    0 -0.11984201344E-01  0.45830154137E-01 -0.10870539588E+00  0.12009425981E+00  0.19019569784E-01 0.  0.
         14    1    1    2    0    0 -0.11439646906E-01 -0.35031884860E-01  0.80607667543E-02  0.37723658874E-01  0.00000000000E+00 0. -1.
     999901    1    3    3    0    0  0.23423848250E-01 -0.10798269277E-01  0.10064462913E+00  0.88611208132E+00  0.88000000000E+00 0. -1.
        -11    1    4    4    0    0 -0.61267989321E-02  0.11032918647E-01 -0.50242258378E-01  0.51805488194E-01  0.51100000000E-03 0. -1.
         11    1    4    4    0    0 -0.58574024117E-02  0.34797235490E-01 -0.58463137504E-01  0.68288771614E-01  0.51100000000E-03 0.  1.
</event>
<event>
 8    1  0.1146431E+005  0.1043930E+01  0.7957747E-01            NaN
         13   -1    0    0    0    0  0.00000000000E+00  0.00000000000E+00  0.74505805969E-08  0.10566000000E+00  0.10566000000E+00 0.  1.
     999900   -1    0    0    0    0 -0.00000000000E+00 -0.00000000000E+00 -0.74505805969E-08  0.93827000000E+00  0.93827000000E+00 0.  1.
     999902    2    1    2    0    0  0.11722099135E-01  0.78726902635E-02  0.19019840719E-01  0.10202415809E+01  0.10199665397E+01 0.  0.
     999903    2    3    3    0    0 -0.14495787170E-01  0.94176250781E-01 -0.85502453995E-01  0.12947753118E+00  0.19351159767E-01 0.  0.
         14    1    1    2    0    0 -0.11722099135E-01 -0.78726902635E-02 -0.19019840719E-01  0.23688419135E-01  0.00000000000E+00 0. -1.
     999901    1    3    3    0    0  0.26217886305E-01 -0.86303560518E-01  0.10452229471E+00  0.89076404969E+00  0.88000000000E+00 0. -1.
        -11    1    4    4    0    0 -0.13787211999E-01  0.50519057566E-01 -0.56610667018E-01  0.77118682129E-01  0.51100000000E-03 0.  1.
         11    1    4    4    0    0 -0.70857517038E-03  0.43657193215E-01 -0.28891786977E-01  0.52358849050E-01  0.51100000000E-03 0. -1.
</event>
<event>
 7    1  0.1146431E+005  0.1043930E+01  0.7957747E-01            NaN
         13   -1    0    0    0    0  0.00000000000E+00  0.00000000000E+00  0.74505805969E-08  0.10566000000E+00  0.10566000000E+00 0. -1.
     999900   -1    0    0    0    0 -0.00000000000E+00 -0.00000000000E+00 -0.74505805969E-08  0.93827000000E+00  0.93827000000E+00 0.  1.
     999903    2    1    2    0    0 -0.30027946181E-01  0.10004344255E+00 -0.14024041607E-01  0.10739525406E+00  0.20656691504E-01 0.  0.
         14    1    1    2    0    0 -0.30194560399E-01  0.32447072389E-01 -0.29388688360E-02  0.44420276163E-01  0.00000000000E+00 0.  1.
     999901    1    1    2    0    0  0.60222506581E-01 -0.13249051494E+00  0.16962910443E-01  0.89211446977E+00  0.88000000000E+00 0.  1.
        -11    1    3    3    0    0 -0.57058097537E-02  0.41051737867E-01 -0.13465060454E-01  0.43581767069E-01  0.51100000000E-03 0.  1.
         11    1    3    3    0    0 -0.24322136428E-01  0.58991704681E-01 -0.55898115287E-03  0.63813486996E-01  0.51100000000E-03 0. -1.
</event>
<event>
 8    1  0.1146431E+005  0.1043930E+01  0.7957747E-01            NaN
         13   -1    0    0    0    0  0.00000000000E+00  0.00000000000E+00  0.74505805969E-08  0.10566000000E+00  0.10566000000E+00 0.  1.
     999900   -1    0    0    0    0 -0.00000000000E+00 -0.00000000000E+00 -0.74505805969E-08  0.93827000000E+00  0.93827000000E+00 0. -1.
     999902    2    1    2    0    0  0.60268171102E-02 -0.12130133268E-02 -0.23431198182E-01  0.10197057358E+01  0.10194179578E+01 0.  0.
     999903    2    3    3    0    0 -0.17136415901E-02  0.59846474038E-01  0.11065455493E+00  0.12742373732E+00  0.20195080654E-01 0.  0.
         14    1    1    2    0    0 -0.60268171102E-02  0.12130133268E-02  0.23431198182E-01  0.24224264159E-01  0.00000000000E+00 0.  1.
     999901    1    3    3    0    0  0.77404587002E-02 -0.61059487365E-01 -0.13408575311E+00  0.89228199852E+00  0.88000000000E+00 0. -1.
        -11    1    4    4    0    0 -0.76510100196E-02  0.43778631053E-01  0.65773608690E-01  0.79382209671E-01  0.51100000000E-03 0. -1.
         11    1    4    4    0    0  0.59373684295E-02  0.16067842985E-01  0.44880946243E-01  0.48041527647E-01  0.51100000000E-03 0.  1.
</event>
<event>
 8    1  0.1146431E+005  0.1043930E+01  0.7957747E-01            NaN
         13   -1    0    0    0    0  0.00000000000E+00  0.00000000000E+00  0.74505805969E-08  0.10566000000E+00  0.10566000000E+00 0. -1.
     999900   -1    0    0    0    0 -0.00000000000E+00 -0.00000000000E+00 -0.74505805969E-08  0.93827000000E+00  0.93827000000E+00 0. -1.
     999902    2    1    2    0    0 -0.15741068780E-01 -0.28127343627E-02 -0.17552178084E-01  0.10201861234E+01  0.10199097777E+01 0.  0.
     999903    2    3    3    0    0  0.55152586185E-01 -0.91869690526E-01 -0.72915429422E-01  0.13112924031E+00  0.19909043577E-01 0.  0.
         14    1    1    2    0    0  0.15741068780E-01  0.28127343627E-02  0.17552178084E-01  0.23743876609E-01  0.00000000000E+00 0. -1.
     999901    1    3    3    0    0 -0.70893654965E-01  0.89056956163E-01  0.55363251338E-01  0.88905688308E+00  0.88000000000E+00 0.  1.
        -11    1    4    4    0    0  0.39568716147E-02 -0.21448633552E-01 -0.16959761912E-01  0.27633229260E-01  0.51100000000E-03 0.  1.
         11    1    4    4    0    0  0.51195714570E-01 -0.70421056974E-01 -0.55955667510E-01  0.10349601105E+00  0.51100000000E-03 0. -1.
</event>
<event>
 8    1  0.1146431E+005  0.1043930E+01  0.7957747E-01            NaN
         13   -1    0    0    0    0  0.00000000000E+00  0.00000000000E+00  0.74505805969E-08  0.10566000000E+00  0.10566000000E+00 0.  1.
     999900   -1    0    0    0    0 -0.00000000000E+00 -0.00000000000E+00 -0.74505805969E-08  0.93827000000E+00  0.93827000000E+00 0.  1.
     999902    2    1    2    0    0  0.12331267262E-01  0.18857369847E-01  0.44843675232E-02  0.10209567525E+01  0.10206982514E+01 0.  0.
     999903    2    3    3    0    0 -0.33242626070E-01  0.12168114142E+00  0.35912401182E-01  0.13324202969E+00  0.23502458396E-01 0.  0.
         14    1    1    2    0    0 -0.12331267262E-01 -0.18857369847E-01 -0.44843675232E-02  0.22973247526E-01  0.00000000000E+00 0. -1.
     999901    1    3    3    0    0  0.45573893333E-01 -0.10282377157E+00 -0.31428033659E-01  0.88771472279E+00  0.88000000000E+00 0. -1.
        -11    1    4    4    0    0 -0.24469089449E-01  0.86167003749E-01  0.14185993770E-01  0.90691743912E-01  0.51100000000E-03 0.  1.
         11    1    4    4    0    0 -0.87735366211E-02  0.35514137672E-01  0.21726407412E-01  0.42550285774E-01  0.51100000000E-03 0. -1.
</event>
<event>
 8    1  0.1146431E+005  0.1043930E+01  0.7957747E-01            NaN
         13   -1    0    0    0    0  0.00000000000E+00  0.00000000000E+00  0.74505805969E-08  0.10566000000E+00  0.10566000000E+00 0.  1.
     999900   -1    0    0    0    0 -0.00000000000E+00 -0.00000000000E+00 -0.74505805969E-08  0.93827000000E+00  0.93827000000E+00 0.  1.
     999902    2    1    2    0    0 -0.13148853656E-01  0.48881135719E-02  0.20286552744E-01  0.10192656486E+01  0.10189671890E+01 0.  0.
     999903    2    3    3    0    0 -0.32700333105E-02 -0.50457557600E-01 -0.11494816818E+00  0.12716186309E+00  0.20009993010E-01 0.  0.
         14    1    1    2    0    0  0.13148853656E-01 -0.48881135719E-02 -0.20286552744E-01  0.24664351380E-01  0.00000000000E+00 0. -1.
     999901    1    3    3    0    0 -0.98788203458E-02  0.55345671172E-01  0.13523472092E+00  0.89210378553E+00  0.88000000000E+00 0. -1.
        -11    1    4    4    0    0  0.38629624601E-02 -0.44842142275E-01 -0.90448451663E-01  0.10102932115E+00  0.51100000000E-03 0.  1.
         11    1    4    4    0    0 -0.71329957706E-02 -0.56154153246E-02 -0.24499716517E-01  0.26132541942E-01  0.51100000000E-03 0. -1.
</event>
<event>
 8    1  0.1146431E+005  0.1043930E+01  0.7957747E-01            NaN
         13   -1    0    0    0    0  0.00000000000E+00  0.00000000000E+00  0.74505805969E-08  0.10566000000E+00  0.10566000000E+00 0. -1.
     999900   -1    0    0    0    0 -0.00000000000E+00 -0.00000000000E+00 -0.74505805969E-08  0.93827000000E+00  0.93827000000E+00 0. -1.
     999902    2    1    2    0    0 -0.48139653892E-02 -0.22367406333E-01 -0.61506170209E-02  0.10202381191E+01  0.10199629966E+01 0.  0.
     999903    2    3    3    0    0  0.12583916627E+00  0.12110051381E-01  0.19645646650E-01  0.12955052906E+00  0.20377414830E-01 0.  0.
         14    1    1    2    0    0  0.48139653892E-02  0.22367406333E-01  0.61506170209E-02  0.23691880858E-01  0.00000000000E+00 0. -1.
     999901    1    3    3    0    0 -0.13065313166E+00 -0.34477457714E-01 -0.25796263670E-01  0.89068759008E+00  0.88000000000E+00 0.  1.
        -11    1    4    4    0    0  0.11797605392E+00  0.16053025902E-01  0.16537955856E-01  0.12020737932E+00  0.51100000000E-03 0.  1.
         11    1    4    4    0    0  0.78631123542E-02 -0.39429745210E-02  0.31076907936E-02  0.93431497385E-02  0.51100000000E-03 0. -1.
</event>
<event>
 8    1  0.1436630E+005  0.1043930E+01  0.7957747E-01            NaN
         13   -1    0    0    0    0  0.00000000000E+00  0.00000000000E+00  0.74505805969E-08  0.10566000000E+00  0.10566000000E+00 0.  1.
     999900   -1    0    0    0    0 -0.00000000000E+00 -0.00000000000E+00 -0.74505805969E-08  0.93827000000E+00  0.93827000000E+00 0. -1.
     999902    2    1    2    0    0 -0.23891000740E-02  0.15684160937E-03  0.24917778696E-01  0.10188974593E+01  0.10185899099E+01 0.  0.
     999903    2    3    3    0    0 -0.62788091049E-01 -0.99257564601E-01  0.53516574741E-01  0.13078195251E+00  0.21106558761E-01 0.  0.
         14    1    1    2    0    0  0.23891000740E-02 -0.15684160937E-03 -0.24917778696E-01  0.25032540694E-01  0.00000000000E+00 0. -1.
     999901    1    3    3    0    0  0.60398990975E-01  0.99414406210E-01 -0.28598796045E-01  0.88811550679E+00  0.88000000000E+00 0. -1.
        -11    1    4    4    0    0 -0.36296626711E-01 -0.62153470542E-01  0.43499619010E-01  0.84100992777E-01  0.51100000000E-03 0. -1.
         11    1    4    4    0    0 -0.26491464337E-01 -0.37104094059E-01  0.10016955731E-01  0.46680959735E-01  0.51100000000E-03 0.  1.
</event>
<event>
 8    1  0.1146431E+005  0.1043930E+01  0.7957747E-01            NaN
         13   -1    0    0    0    0  0.00000000000E+00  0.00000000000E+00  0.74505805969E-08  0.10566000000E+00  0.10566000000E+00 0.  1.
     999900   -1    0    0    0    0 -0.00000000000E+00 -0.00000000000E+00 -0.74505805969E-08  0.93827000000E+00  0.93827000000E+00 0.  1.
     999902    2    1    2    0    0 -0.24952543086E-02 -0.53436584752E-02  0.23581885081E-01  0.10196218474E+01  0.10193320486E+01 0.  0.
     999903    2    3    3    0    0 -0.15526572067E-01 -0.28413228158E-01  0.12752600513E+00  0.13310822629E+00  0.20162637377E-01 0.  0.
         14    1    1    2    0    0  0.24952543086E-02  0.53436584752E-02 -0.23581885081E-01  0.24308152623E-01  0.00000000000E+00 0. -1.
     999901    1    3    3    0    0  0.13031317758E-01  0.23069569682E-01 -0.10394412005E+00  0.88651362109E+00  0.88000000000E+00 0.  1.
        -11    1    4    4    0    0  0.44863881940E-02 -0.48602937307E-02  0.32867854936E-01  0.33530689573E-01  0.51100000000E-03 0.  1.
         11    1    4    4    0    0 -0.20012960261E-01 -0.23552934427E-01  0.94658150194E-01  0.99577536712E-01  0.51100000000E-03 0. -1.
</event>
<event>
 8    1  0.1146431E+005  0.1043930E+01  0.7957747E-01            NaN
         13   -1    0    0    0    0  0.00000000000E+00  0.00000000000E+00  0.74505805969E-08  0.10566000000E+00  0.10566000000E+00 0.  1.
     999900   -1    0    0    0    0 -0.00000000000E+00 -0.00000000000E+00 -0.74505805969E-08  0.93827000000E+00  0.93827000000E+00 0.  1.
     999902    2    1    2    0    0  0.13734035827E-01 -0.15347279515E-01 -0.10556570030E-01  0.10207868822E+01  0.10205245000E+01 0.  0.
     999903    2    3    3    0    0 -0.91363480054E-01  0.22981064753E-01 -0.87792534719E-01  0.13034881923E+00  0.20195808932E-01 0.  0.
         14    1    1    2    0    0 -0.13734035827E-01  0.15347279515E-01  0.10556570030E-01  0.23143117754E-01  0.00000000000E+00 0.  1.
     999901    1    3    3    0    0  0.10509751588E+00 -0.38328344267E-01  0.77235964690E-01  0.89043806301E+00  0.88000000000E+00 0. -1.
        -11    1    4    4    0    0 -0.67139636308E-01  0.24290575099E-01 -0.58453480085E-01  0.92275854141E-01  0.51100000000E-03 0.  1.
         11    1    4    4    0    0 -0.24223843746E-01 -0.13095103469E-02 -0.29339054634E-01  0.38072965093E-01  0.51100000000E-03 0. -1.
</event>
<event>
 8    1  0.1146431E+005  0.1043930E+01  0.7957747E-01            NaN
         13   -1    0    0    0    0  0.00000000000E+00  0.00000000000E+00  0.74505805969E-08  0.10566000000E+00  0.10566000000E+00 0. -1.
     999900   -1    0    0    0    0 -0.00000000000E+00 -0.00000000000E+00 -0.74505805969E-08  0.93827000000E+00  0.93827000000E+00 0. -1.
     999902    2    1    2    0    0  0.27085375750E-02  0.18740127058E-01 -0.14150567016E-01  0.10202917453E+01  0.10200178814E+01 0.  0.
     999903    2    3    3    0    0 -0.18332132008E-01  0.11892603680E+00  0.50564350937E-01  0.13199677916E+00  0.19670455735E-01 0.  0.
         14    1    1    2    0    0 -0.27085375750E-02 -0.18740127058E-01  0.14150567016E-01  0.23638254690E-01  0.00000000000E+00 0. -1.
     999901    1    3    3    0    0  0.21040669583E-01 -0.10018590974E+00 -0.64714917952E-01  0.88829496615E+00  0.88000000000E+00 0. -1.
        -11    1    4    4    0    0 -0.17941794177E-01  0.10779299815E+00  0.39254654945E-01  0.11611385570E+00  0.51100000000E-03 0.  1.
         11    1    4    4    0    0 -0.39033783123E-03  0.11133038647E-01  0.11309695992E-01  0.15882923458E-01  0.51100000000E-03 0. -1.
</event>
<event>
 8    1  0.1146431E+005  0.1043930E+01  0.7957747E-01            NaN
         13   -1    0    0    0    0  0.00000000000E+00  0.00000000000E+00  0.74505805969E-08  0.10566000000E+00  0.10566000000E+00 0.  1.
     999900   -1    0    0    0    0 -0.00000000000E+00 -0.00000000000E+00 -0.74505805969E-08  0.93827000000E+00  0.93827000000E+00 0.  1.
     999902    2    1    2    0    0 -0.25752321399E-01 -0.10666355772E-02 -0.25051871731E-04  0.10181555864E+01  0.10178292969E+01 0.  0.
     999903    2    3    3    0    0 -0.62047372892E-01 -0.16831302901E-01  0.11107520991E+00  0.13028784644E+00  0.22451089784E-01 0.  0.
         14    1    1    2    0    0  0.25752321399E-01  0.10666355772E-02  0.25051871731E-04  0.25774413601E-01  0.00000000000E+00 0. -1.
     999901    1    3    3    0    0  0.36295051493E-01  0.15764667324E-01 -0.11110026178E+00  0.88786773996E+00  0.88000000000E+00 0.  1.
        -11    1    4    4    0    0 -0.17983739665E-01 -0.15614467512E-01  0.34395675383E-01  0.41839575691E-01  0.51100000000E-03 0. -1.
         11    1    4    4    0    0 -0.44063633227E-01 -0.12168353894E-02  0.76679534527E-01  0.88448270745E-01  0.51100000000E-03 0.  1.
</event>
<event>
 8    1  0.1146431E+005  0.1043930E+01  0.7957747E-01            NaN
         13   -1    0    0    0    0  0.00000000000E+00  0.00000000000E+00  0.74505805969E-08  0.10566000000E+00  0.10566000000E+00 0.  1.
     999900   -1    0    0    0    0 -0.00000000000E+00 -0.00000000000E+00 -0.74505805969E-08  0.93827000000E+00  0.93827000000E+00 0.  1.
     999902    2    1    2    0    0 -0.16801324212E-02  0.47909514170E-02  0.23065357010E-01  0.10203124905E+01  0.10200391128E+01 0.  0.
     999903    2    3    3    0    0  0.12304218061E+00 -0.54643383346E-02 -0.34735420769E-01  0.12958146700E+00  0.20385532397E-01 0.  0.
         14    1    1    2    0    0  0.16801324212E-02 -0.47909514170E-02 -0.23065357010E-01  0.23617509488E-01  0.00000000000E+00 0. -1.
     999901    1    3    3    0    0 -0.12472231303E+00  0.10255289752E-01  0.57800777779E-01  0.89073102351E+00  0.88000000000E+00 0. -1.
        -11    1    4    4    0    0  0.30973541477E-01 -0.94293519745E-02 -0.51136506133E-02  0.32782365593E-01  0.51100000000E-03 0. -1.
         11    1    4    4    0    0  0.92068639133E-01  0.39650136398E-02 -0.29621770155E-01  0.96799101407E-01  0.51100000000E-03 0.  1.
</event>
<event>
 8    1  0.1146431E+005  0.1043930E+01  0.7957747E-01            NaN
         13   -1    0    0    0    0  0.00000000000E+00  0.00000000000E+00  0.74505805969E-08  0.10566000000E+00  0.10566000000E+00 0. -1.
     999900   -1    0    0    0    0 -0.00000000000E+00 -0.00000000000E+00 -0.74505805969E-08  0.93827000000E+00  0.93827000000E+00 0.  1.
     999902    2    1    2    0    0 -0.17553684021E-01 -0.11675715574E-01 -0.97487450831E-02  0.10207030289E+01  0.10204387199E+01 0.  0.
     999903    2    3    3    0    0  0.72685929889E-02  0.76060792326E-01 -0.10487725789E+00  0.13089222078E+00  0.17188882012E-01 0.  0.
         14    1    1    2    0    0  0.17553684021E-01  0.11675715574E-01  0.97487450831E-02  0.23226971123E-01  0.00000000000E+00 0. -1.
     999901    1    3    3    0    0 -0.24822277010E-01 -0.87736507900E-01  0.95128512809E-01  0.88981080810E+00  0.88000000000E+00 0. -1.
        -11    1    4    4    0    0  0.25406939673E-02  0.14661978891E-01 -0.33247942107E-01  0.36429596844E-01  0.51100000000E-03 0.  1.
         11    1    4    4    0    0  0.47278990216E-02  0.61398813435E-01 -0.71629315785E-01  0.94462623937E-01  0.51100000000E-03 0. -1.
</event>
<event>
 8    1  0.1146431E+005  0.1043930E+01  0.7957747E-01            NaN
         13   -1    0    0    0    0  0.00000000000E+00  0.00000000000E+00  0.74505805969E-08  0.10566000000E+00  0.10566000000E+00 0. -1.
     999900   -1    0    0    0    0 -0.00000000000E+00 -0.00000000000E+00 -0.74505805969E-08  0.93827000000E+00  0.93827000000E+00 0.  1.
     999902    2    1    2    0    0 -0.20398438715E-01  0.68583584881E-02  0.89471842765E-02  0.10206236599E+01  0.10203575205E+01 0.  0.
     999903    2    3    3    0    0 -0.74175281392E-01  0.65979833117E-01 -0.84822554086E-01  0.13204048347E+00  0.19608999105E-01 0.  0.
         14    1    1    2    0    0  0.20398438715E-01 -0.68583584881E-02 -0.89471842765E-02  0.23306340117E-01  0.00000000000E+00 0.  1.
     999901    1    3    3    0    0  0.53776842677E-01 -0.59121474629E-01  0.93769738362E-01  0.88858317641E+00  0.88000000000E+00 0.  1.
        -11    1    4    4    0    0 -0.57144100898E-01  0.60245053210E-01 -0.66643375078E-01  0.10647307296E+00  0.51100000000E-03 0. -1.
         11    1    4    4    0    0 -0.17031180495E-01  0.57347799064E-02 -0.18179179008E-01  0.25567410506E-01  0.51100000000E-03 0.  1.
</event>
<event>
 8    1  0.1146431E+005  0.1043930E+01  0.7957747E-01            NaN
         13   -1    0    0    0    0  0.00000000000E+00  0.00000000000E+00  0.74505805969E-08  0.10566000000E+00  0.10566000000E+00 0. -1.
     999900   -1    0    0    0    0 -0.00000000000E+00 -0.00000000000E+00 -0.74505805969E-08  0.93827000000E+00  0.93827000000E+00 0. -1.
     999902    2    1    2    0    0 -0.89886577247E-02 -0.15236623639E-01  0.16104886526E-01  0.10200068305E+01  0.10197262458E+01 0.  0.
     999903    2    3    3    0    0 -0.66605801682E-01 -0.39051679237E-01  0.10661978610E+00  0.13316984483E+00  0.20126159964E-01 0.  0.
         14    1    1    2    0    0  0.89886577247E-02  0.15236623639E-01 -0.16104886526E-01  0.23923169473E-01  0.00000000000E+00 0. -1.
     999901    1    3    3    0    0  0.57617143957E-01  0.23815055598E-01 -0.90514899578E-01  0.88683698569E+00  0.88000000000E+00 0. -1.
        -11    1    4    4    0    0 -0.12326562659E-01 -0.89653073834E-02  0.36337010502E-01  0.39407617750E-01  0.51100000000E-03 0. -1.
         11    1    4    4    0    0 -0.54279239023E-01 -0.30086371854E-01  0.70282775601E-01  0.93762227082E-01  0.51100000000E-03 0.  1.
</event>
<event>
 8    1  0.1146431E+005  0.1043930E+01  0.7957747E-01            NaN
         13   -1    0    0    0    0  0.00000000000E+00  0.00000000000E+00  0.74505805969E-08  0.10566000000E+00  0.10566000000E+00 0.  1.
     999900   -1    0    0    0    0 -0.00000000000E+00 -0.00000000000E+00 -0.74505805969E-08  0.93827000000E+00  0.93827000000E+00 0. -1.
     999902    2    1    2    0    0 -0.67402568969E-02  0.23058810225E-01  0.45543982934E-03  0.10199019494E+01  0.10196188695E+01 0.  0.
     999903    2    3    3    0    0 -0.51140464945E-01 -0.10319924335E+00  0.52762358824E-01  0.12824703386E+00  0.19950042659E-01 0.  0.
         14    1    1    2    0    0  0.67402568969E-02 -0.23058810225E-01 -0.45543982934E-03  0.24028050638E-01  0.00000000000E+00 0. -1.
     999901    1    3    3    0    0  0.44400208048E-01  0.12625805357E+00 -0.52306918995E-01  0.89165491550E+00  0.88000000000E+00 0. -1.
        -11    1    4    4    0    0 -0.94278395459E-02 -0.33730278992E-01  0.90507505915E-02  0.36177245427E-01  0.51100000000E-03 0.  1.
         11    1    4    4    0    0 -0.41712625399E-01 -0.69468964357E-01  0.43711608233E-01  0.92069788432E-01  0.51100000000E-03 0. -1.
</event>
<event>
 8    1  0.1146431E+005  0.1043930E+01  0.7957747E-01            NaN
         13   -1    0    0    0    0  0.00000000000E+00  0.00000000000E+00  0.74505805969E-08  0.10566000000E+00  0.10566000000E+00 0. -1.
     999900   -1    0    0    0    0 -0.00000000000E+00 -0.00000000000E+00 -0.74505805969E-08  0.93827000000E+00  0.93827000000E+00 0. -1.
     999902    2    1    2    0    0  0.99506353138E-02 -0.17223769414E-01  0.13388106195E-01  0.10199526198E+01  0.10196707468E+01 0.  0.
     999903    2    3    3    0    0  0.99572465447E-01  0.38640430561E-01 -0.71192631985E-01  0.12961179594E+00  0.17974093831E-01 0.  0.
         14    1    1    2    0    0 -0.99506353138E-02  0.17223769414E-01 -0.13388106195E-01  0.23977380246E-01  0.00000000000E+00 0.  1.
     999901    1    3    3    0    0 -0.89621830134E-01 -0.55864199974E-01  0.84580738181E-01  0.89034082381E+00  0.88000000000E+00 0. -1.
        -11    1    4    4    0    0  0.50036021976E-01  0.27895999511E-01 -0.32721139209E-01  0.65975179848E-01  0.51100000000E-03 0.  1.
         11    1    4    4    0    0  0.49536443471E-01  0.10744431050E-01 -0.38471492777E-01  0.63636616094E-01  0.51100000000E-03 0. -1.
</event>
<event>
 8    1  0.1146431E+005  0.1043930E+01  0.7957747E-01            NaN
         13   -1    0    0    0    0  0.00000000000E+00  0.00000000000E+00  0.74505805969E-08  0.10566000000E+00  0.10566000000E+00 0.  1.
     999900   -1    0    0    0    0 -0.00000000000E+00 -0.00000000000E+00 -0.74505805969E-08  0.93827000000E+00  0.93827000000E+00 0.  1.
     999902    2    1    2    0    0  0.96957178946E-02 -0.16716444528E-01 -0.12974554279E-01  0.10206537133E+01  0.10203882678E+01 0.  0.
     999903    2    3    3    0    0  0.15819633366E-02 -0.91212262207E-01 -0.95546500866E-01  0.13361730694E+00  0.20056707161E-01 0.  0.
         14    1    1    2    0    0 -0.96957178946E-02  0.16716444528E-01  0.12974554279E-01  0.23276286686E-01  0.00000000000E+00 0. -1.
     999901    1    3    3    0    0  0.81137545581E-02  0.74495817679E-01  0.82571946587E-01  0.88703640637E+00  0.88000000000E+00 0. -1.
        -11    1    4    4    0    0  0.11756958287E-02 -0.39568763147E-01 -0.27559450027E-01  0.48237471787E-01  0.51100000000E-03 0. -1.
         11    1    4    4    0    0  0.40626750789E-03 -0.51643499060E-01 -0.67987050839E-01  0.85379835156E-01  0.51100000000E-03 0.  1.
</event>
<event>
 8    1  0.1146431E+005  0.1043930E+01  0.7957747E-01            NaN
         13   -1    0    0    0    0  0.00000000000E+00  0.00000000000E+00  0.74505805969E-08  0.10566000000E+00  0.10566000000E+00 0.  1.
     999900   -1    0    0    0    0 -0.00000000000E+00 -0.00000000000E+00 -0.74505805969E-08  0.93827000000E+00  0.93827000000E+00 0.  1.
     999902    2    1    2    0    0 -0.97464089498E-02 -0.21812531563E-01  0.47241572548E-02  0.10195764236E+01  0.10192855277E+01 0.  0.
     999903    2    3    3    0    0 -0.93662875756E-01 -0.91867316055E-01 -0.52384738155E-02  0.13275688152E+00  0.19611474445E-01 0.  0.
         14    1    1    2    0    0  0.97464089498E-02  0.21812531563E-01 -0.47241572548E-02  0.24353576378E-01  0.00000000000E+00 0. -1.
     999901    1    3    3    0    0  0.83916466806E-01  0.70054784492E-01  0.99626310703E-02  0.88681954210E+00  0.88000000000E+00 0. -1.
        -11    1    4    4    0    0 -0.27278593531E-01 -0.39840019433E-01 -0.30803852647E-02  0.48384901651E-01  0.51100000000E-03 0. -1.
         11    1    4    4    0    0 -0.66384282225E-01 -0.52027296622E-01 -0.21580885508E-02  0.84371979872E-01  0.51100000000E-03 0.  1.
</event>
<event>
 8    1  0.1146431E+005  0.1043930E+01  0.7957747E-01            NaN
         13   -1    0    0    0    0  0.00000000000E+00  0.00000000000E+00  0.74505805969E-08  0.10566000000E+00  0.10566000000E+00 0. -1.
     999900   -1    0    0    0    0 -0.00000000000E+00 -0.00000000000E+00 -0.74505805969E-08  0.93827000000E+00  0.93827000000E+00 0.  1.
     999902    2    1    2    0    0 -0.87194796442E-02  0.77963869463E-02 -0.20641572680E-01  0.10202047498E+01  0.10199288426E+01 0.  0.
     999903    2    3    3    0    0 -0.26232982349E-01  0.84885952812E-01  0.92098271413E-01  0.12949728020E+00  0.19840857702E-01 0.  0.
         14    1    1    2    0    0  0.87194796442E-02 -0.77963869463E-02  0.20641572680E-01  0.23725250207E-01  0.00000000000E+00 0. -1.
     999901    1    3    3    0    0  0.17513502705E-01 -0.77089565865E-01 -0.11273984409E+00  0.89070746959E+00  0.88000000000E+00 0. -1.
        -11    1    4    4    0    0 -0.20394564271E-01  0.61055935930E-01  0.53234123443E-01  0.83533817008E-01  0.51100000000E-03 0.  1.
         11    1    4    4    0    0 -0.58384180776E-02  0.23830016881E-01  0.38864147970E-01  0.45963463192E-01  0.51100000000E-03 0. -1.
</event>
<event>
 8    1  0.1146431E+005  0.1043930E+01  0.7957747E-01            NaN
         13   -1    0    0    0    0  0.00000000000E+00  0.00000000000E+00  0.74505805969E-08  0.10566000000E+00  0.10566000000E+00 0. -1.
     999900   -1    0    0    0    0 -0.00000000000E+00 -0.00000000000E+00 -0.74505805969E-08  0.93827000000E+00  0.93827000000E+00 0.  1.
     999902    2    1    2    0    0  0.12368645436E-01 -0.51535958038E-02 -0.19031398536E-01  0.10206547541E+01  0.10203893326E+01 0.  0.
     999903    2    3    3    0    0  0.47930686212E-01  0.78710543603E-01  0.88594540973E-01  0.12943020585E+00  0.20260432878E-01 0.  0.
         14    1    1    2    0    0 -0.12368645436E-01  0.51535958038E-02  0.19031398536E-01  0.23275245861E-01  0.00000000000E+00 0. -1.
     999901    1    3    3    0    0 -0.35562040776E-01 -0.83864139407E-01 -0.10762593951E+00  0.89122454829E+00  0.88000000000E+00 0.  1.
        -11    1    4    4    0    0  0.17295038108E-01  0.47789447447E-01  0.47976994371E-01  0.69892794624E-01  0.51100000000E-03 0. -1.
         11    1    4    4    0    0  0.30635648104E-01  0.30921096156E-01  0.40617546602E-01  0.59537411224E-01  0.51100000000E-03 0.  1.
</event>
<event>
 8    1  0.1146431E+005  0.1043930E+01  0.7957747E-01            NaN
         13   -1    0    0    0    0  0.00000000000E+00  0.00000000000E+00  0.74505805969E-08  0.10566000000E+00  0.10566000000E+00 0. -1.
     999900   -1    0    0    0    0 -0.00000000000E+00 -0.00000000000E+00 -0.74505805969E-08  0.93827000000E+00  0.93827000000E+00 0.  1.
     999902    2    1    2    0    0  0.28121772132E-02  0.16241565111E-01 -0.15063212830E-01  0.10216007107E+01  0.10213566542E+01 0.  0.
     999903    2    3    3    0    0  0.81579380273E-01  0.22649401589E-01  0.97790498936E-01  0.13088117413E+00  0.19967708472E-01 0.  0.
         14    1    1    2    0    0 -0.28121772132E-02 -0.16241565111E-01  0.15063212830E-01  0.22329289256E-01  0.00000000000E+00 0.  1.
     999901    1    3    3    0    0 -0.78767203060E-01 -0.64078364780E-02 -0.11285371177E+00  0.89071953661E+00  0.88000000000E+00 0.  1.
        -11    1    4    4    0    0  0.22764867991E-01  0.16754396464E-02  0.15567903540E-01  0.27634526489E-01  0.51100000000E-03 0.  1.
         11    1    4    4    0    0  0.58814512282E-01  0.20973961942E-01  0.82222595396E-01  0.10324664764E+00  0.51100000000E-03 0. -1.
</event>
<event>
 8    1  0.1146431E+005  0.1043930E+01  0.7957747E-01            NaN
         13   -1    0    0    0    0  0.00000000000E+00  0.00000000000E+00  0.74505805969E-08  0.10566000000E+00  0.10566000000E+00 0.  1.
     999900   -1    0    0    0    0 -0.00000000000E+00 -0.00000000000E+00 -0.74505805969E-08  0.93827000000E+00  0.93827000000E+00 0. -1.
     999902    2    1    2    0    0  0.37222019513E-02  0.18725791738E-01  0.14453914415E-01  0.10199836912E+01  0.10197025569E+01 0.  0.
     999903    2    3    3    0    0 -0.97530772512E-03  0.12158688318E+00  0.50870084531E-01  0.13323197387E+00  0.19459495709E-01 0.  0.
         14    1    1    2    0    0 -0.37222019513E-02 -0.18725791738E-01 -0.14453914415E-01  0.23946308808E-01  0.00000000000E+00 0. -1.
     999901    1    3    3    0    0  0.46975096764E-02 -0.10286109145E+00 -0.36416170116E-01  0.88675171732E+00  0.88000000000E+00 0. -1.
        -11    1    4    4    0    0 -0.75750176014E-02  0.26991028704E-01  0.15390635766E-01  0.31984829411E-01  0.51100000000E-03 0. -1.
         11    1    4    4    0    0  0.65997098763E-02  0.94595854480E-01  0.35479448766E-01  0.10124714446E+00  0.51100000000E-03 0.  1.
</event>
<event>
 8    1  0.1146431E+005  0.1043930E+01  0.7957747E-01            NaN
         13   -1    0    0    0    0  0.00000000000E+00  0.00000000000E+00  0.74505805969E-08  0.10566000000E+00  0.10566000000E+00 0. -1.
     999900   -1    0    0    0    0 -0.00000000000E+00 -0.00000000000E+00 -0.74505805969E-08  0.93827000000E+00  0.93827000000E+00 0.  1.
     999902    2    1    2    0    0 -0.14417614523E-02  0.23875121619E-01 -0.46020123069E-02  0.10195726885E+01  0.10192817022E+01 0.  0.
     999903    2    3    3    0    0  0.10230805411E+00 -0.46196797287E-01  0.59286892475E-01  0.12841844243E+00  0.19372111977E-01 0.  0.
         14    1    1    2    0    0  0.14417614523E-02 -0.23875121619E-01  0.46020123069E-02  0.24357311545E-01  0.00000000000E+00 0. -1.
     999901    1    3    3    0    0 -0.10374981556E+00  0.70071918906E-01 -0.63888904782E-01  0.89115424602E+00  0.88000000000E+00 0.  1.
        -11    1    4    4    0    0  0.51421808884E-01 -0.24522696188E-01  0.19248776907E-01  0.60136025730E-01  0.51100000000E-03 0.  1.
         11    1    4    4    0    0  0.50886245226E-01 -0.21674101099E-01  0.40038115567E-01  0.68282416703E-01  0.51100000000E-03 0. -1.
</event>
<event>
 8    1  0.1146431E+005  0.1043930E+01  0.7957747E-01            NaN
         13   -1    0    0    0    0  0.00000000000E+00  0.00000000000E+00  0.74505805969E-08  0.10566000000E+00  0.10566000000E+00 0.  1.
     999900   -1    0    0    0    0 -0.00000000000E+00 -0.00000000000E+00 -0.74505805969E-08  0.93827000000E+00  0.93827000000E+00 0.  1.
     999902    2    1    2    0    0  0.17170873646E-01 -0.39162023234E-02 -0.15976763232E-01  0.10201511753E+01  0.10198740059E+01 0.  0.
     999903    2    3    3    0    0 -0.11564042090E+00  0.98356069689E-02 -0.53229962037E-01  0.12930003560E+00  0.20386864369E-01 0.  0.
         14    1    1    2    0    0 -0.17170873646E-01  0.39162023234E-02  0.15976763232E-01  0.23778824735E-01  0.00000000000E+00 0. -1.
     999901    1    3    3    0    0  0.13281129454E+00 -0.13751809292E-01  0.37253198805E-01  0.89085113966E+00  0.88000000000E+00 0.  1.
        -11    1    4    4    0    0 -0.26899553700E-01  0.11009721366E-01 -0.14023061683E-01  0.32275491225E-01  0.51100000000E-03 0.  1.
         11    1    4    4    0    0 -0.88740867196E-01 -0.11741143975E-02 -0.39206900354E-01  0.97024544378E-01  0.51100000000E-03 0. -1.
</event>
<event>
 8    1  0.1146431E+005  0.1043930E+01  0.7957747E-01            NaN
         13   -1    0    0    0    0  0.00000000000E+00  0.00000000000E+00  0.74505805969E-08  0.10566000000E+00  0.10566000000E+00 0. -1.
     999900   -1    0    0    0    0 -0.00000000000E+00 -0.00000000000E+00 -0.74505805969E-08  0.93827000000E+00  0.93827000000E+00 0. -1.
     999902    2    1    2    0    0  0.78551997203E-02  0.10773593851E-01 -0.17703159582E-01  0.10217675014E+01  0.10215271169E+01 0.  0.
     999903    2    3    3    0    0  0.40630112519E-01  0.12121996412E+00  0.30449570543E-01  0.13295296444E+00  0.20105438603E-01 0.  0.
         14    1    1    2    0    0 -0.78551997203E-02 -0.10773593851E-01  0.17703159582E-01  0.22162498648E-01  0.00000000000E+00 0. -1.
     999901    1    3    3    0    0 -0.32774912799E-01 -0.11044637027E+00 -0.48152730126E-01  0.88881453692E+00  0.88000000000E+00 0. -1.
        -11    1    4    4    0    0  0.14879077588E-01  0.47429676578E-01  0.21930595542E-01  0.54333905731E-01  0.51100000000E-03 0.  1.
         11    1    4    4    0    0  0.25751034930E-01  0.73790287542E-01  0.85189750014E-02  0.78619058705E-01  0.51100000000E-03 0. -1.
</event>
<event>
 8    1  0.1146431E+005  0.1043930E+01  0.7957747E-01            NaN
         13   -1    0    0    0    0  0.00000000000E+00  0.00000000000E+00  0.74505805969E-08  0.10566000000E+00  0.10566000000E+00 0.  1.
     999900   -1    0    0    0    0 -0.00000000000E+00 -0.00000000000E+00 -0.74505805969E-08  0.93827000000E+00  0.93827000000E+00 0. -1.
     999902    2    1    2    0    0 -0.12442119458E-01 -0.18497755319E-01 -0.55066778178E-02  0.10209670562E+01  0.10207087895E+01 0.  0.
     999903    2    3    3    0    0  0.48622408320E-01  0.11380805282E+00 -0.28856582948E-01  0.12867846974E+00  0.20224606693E-01 0.  0.
         14    1    1    2    0    0  0.12442119458E-01  0.18497755319E-01  0.55066778178E-02  0.22962943824E-01  0.00000000000E+00 0. -1.
     999901    1    3    3    0    0 -0.61064527778E-01 -0.13230580814E+00  0.23349905130E-01  0.89228858644E+00  0.88000000000E+00 0. -1.
        -11    1    4    4    0    0  0.22334049409E-01  0.46583265939E-01 -0.21343725768E-02  0.51707128095E-01  0.51100000000E-03 0.  1.
         11    1    4    4    0    0  0.26288358911E-01  0.67224786885E-01 -0.26722210371E-01  0.76971341642E-01  0.51100000000E-03 0. -1.
</event>
<event>
 8    1  0.1146431E+005  0.1043930E+01  0.7957747E-01            NaN
         13   -1    0    0    0    0  0.00000000000E+00  0.00000000000E+00  0.74505805969E-08  0.10566000000E+00  0.10566000000E+00 0.  1.
     999900   -1    0    0    0    0 -0.00000000000E+00 -0.00000000000E+00 -0.74505805969E-08  0.93827000000E+00  0.93827000000E+00 0. -1.
     999902    2    1    2    0    0  0.99564102269E-02  0.13555967211E-02 -0.25662174611E-01  0.10163707012E+01  0.10159969917E+01 0.  0.
     999903    2    3    3    0    0  0.79905206732E-01  0.77373499811E-01  0.56806653343E-01  0.12649842756E+00  0.20083719179E-01 0.  0.
         14    1    1    2    0    0 -0.99564102269E-02 -0.13555967211E-02  0.25662174611E-01  0.27559298846E-01  0.00000000000E+00 0.  1.
     999901    1    3    3    0    0 -0.69948796505E-01 -0.76017903090E-01 -0.82468827954E-01  0.88987227359E+00  0.88000000000E+00 0. -1.
        -11    1    4    4    0    0  0.41178014782E-01  0.28203665082E-01  0.19205106810E-01  0.53480584084E-01  0.51100000000E-03 0. -1.
         11    1    4    4    0    0  0.38727191950E-01  0.49169834729E-01  0.37601546533E-01  0.73017843479E-01  0.51100000000E-03 0.  1.
</event>
<event>
 8    1  0.1146431E+005  0.1043930E+01  0.7957747E-01            NaN
         13   -1    0    0    0    0  0.00000000000E+00  0.00000000000E+00  0.74505805969E-08  0.10566000000E+00  0.10566000000E+00 0.  1.
     999900   -1    0    0    0    0 -0.00000000000E+00 -0.00000000000E+00 -0.74505805969E-08  0.93827000000E+00  0.93827000000E+00 0. -1.
     999902    2    1    2    0    0 -0.17462509500E-01  0.19459028432E-01 -0.69143127634E-02  0.10168855783E+01  0.10165258868E+01 0.  0.
     999903    2    3    3    0    0  0.10820036016E+00 -0.55337753615E-01 -0.20318176334E-01  0.12471665986E+00  0.19282946980E-01 0.  0.
         14    1    1    2    0    0  0.17462509500E-01 -0.19459028432E-01  0.69143127634E-02  0.27044421727E-01  0.00000000000E+00 0.  1.
     999901    1    3    3    0    0 -0.12566286966E+00  0.74796782047E-01  0.13403863570E-01  0.89216891841E+00  0.88000000000E+00 0.  1.
        -11    1    4    4    0    0  0.61018165659E-01 -0.39383956030E-01 -0.59140633061E-02  0.72866657661E-01  0.51100000000E-03 0.  1.
         11    1    4    4    0    0  0.47182194501E-01 -0.15953797585E-01 -0.14404113028E-01  0.51850002203E-01  0.51100000000E-03 0. -1.
</event>
<event>
 8    1  0.1146431E+005  0.1043930E+01  0.7957747E-01            NaN
         13   -1    0    0    0    0  0.00000000000E+00  0.00000000000E+00  0.74505805969E-08  0.10566000000E+00  0.10566000000E+00 0. -1.
     999900   -1    0    0    0    0 -0.00000000000E+00 -0.00000000000E+00 -0.74505805969E-08  0.93827000000E+00  0.93827000000E+00 0.  1.
     999902    2    1    2    0    0  0.21810532722E-01 -0.87797913203E-02 -0.68692754566E-02  0.10194356942E+01  0.10191413854E+01 0.  0.
     999903    2    3    3    0    0 -0.42311388827E-01 -0.73007076326E-01  0.95354699925E-01  0.12888164970E+00  0.19941765558E-01 0.  0.
         14    1    1    2    0    0 -0.21810532722E-01  0.87797913203E-02  0.68692754566E-02  0.24494305839E-01  0.00000000000E+00 0. -1.
     999901    1    3    3    0    0  0.64121921549E-01  0.64227285006E-01 -0.10222397538E+00  0.89055404446E+00  0.88000000000E+00 0.  1.
        -11    1    4    4    0    0 -0.16636569733E-01 -0.14377339620E-01  0.31936939216E-01  0.38777732715E-01  0.51100000000E-03 0.  1.
         11    1    4    4    0    0 -0.25674819094E-01 -0.58629736707E-01  0.63417760709E-01  0.90103916986E-01  0.51100000000E-03 0. -1.
</event>
<event>
 8    1  0.1146431E+005  0.1043930E+01  0.7957747E-01            NaN
         13   -1    0    0    0    0  0.00000000000E+00  0.00000000000E+00  0.74505805969E-08  0.10566000000E+00  0.10566000000E+00 0. -1.
     999900   -1    0    0    0    0 -0.00000000000E+00 -0.00000000000E+00 -0.74505805969E-08  0.93827000000E+00  0.93827000000E+00 0.  1.
     999902    2    1    2    0    0 -0.23683949081E-01 -0.46740499122E-04  0.27284296190E-02  0.10200893633E+01  0.10198107340E+01 0.  0.
     999903    2    3    3    0    0  0.69977745931E-02 -0.10030594663E+00 -0.79815519420E-01  0.13002937653E+00  0.20660828680E-01 0.  0.
         14    1    1    2    0    0  0.23683949081E-01  0.46740499122E-04 -0.27284296190E-02  0.23840636672E-01  0.00000000000E+00 0. -1.
     999901    1    3    3    0    0 -0.30681723674E-01  0.10025920613E+00  0.82543949039E-01  0.89005998680E+00  0.88000000000E+00 0. -1.
        -11    1    4    4    0    0  0.62401048945E-02 -0.75957743535E-01 -0.48448138955E-01  0.90310580783E-01  0.51100000000E-03 0.  1.
         11    1    4    4    0    0  0.75766969869E-03 -0.24348203091E-01 -0.31367380465E-01  0.39718795744E-01  0.51100000000E-03 0. -1.
</event>
<event>
 8    1  0.1146431E+005  0.1043930E+01  0.7957747E-01            NaN
         13   -1    0    0    0    0  0.00000000000E+00  0.00000000000E+00  0.74505805969E-08  0.10566000000E+00  0.10566000000E+00 0.  1.
     999900   -1    0    0    0    0 -0.00000000000E+00 -0.00000000000E+00 -0.74505805969E-08  0.93827000000E+00  0.93827000000E+00 0. -1.
     999902    2    1    2    0    0 -0.30023844805E-02 -0.18575408180E-01 -0.13352440650E-02  0.10250661993E+01  0.10248926138E+01 0.  0.
     999903    2    3    3    0    0  0.22536821726E-01 -0.13379195325E+00  0.18633191836E-02  0.13718257281E+00  0.20183935096E-01 0.  0.
         14    1    1    2    0    0  0.30023844805E-02  0.18575408180E-01  0.13352440650E-02  0.18863800740E-01  0.00000000000E+00 0.  1.
     999901    1    3    3    0    0 -0.25539206207E-01  0.11521654507E+00 -0.31985632485E-02  0.88788362645E+00  0.88000000000E+00 0.  1.
        -11    1    4    4    0    0  0.10019618996E-01 -0.32160997324E-01 -0.69670653457E-02  0.34402378323E-01  0.51100000000E-03 0.  1.
         11    1    4    4    0    0  0.12517202730E-01 -0.10163095593E+00  0.88303845293E-02  0.10278019449E+00  0.51100000000E-03 0. -1.
</event>
<event>
 7    1  0.1146431E+005  0.1043930E+01  0.7957747E-01            NaN
         13   -1    0    0    0    0  0.00000000000E+00  0.00000000000E+00  0.74505805969E-08  0.10566000000E+00  0.10566000000E+00 0. -1.
     999900   -1    0    0    0    0 -0.00000000000E+00 -0.00000000000E+00 -0.74505805969E-08  0.93827000000E+00  0.93827000000E+00 0. -1.
     999903    2    1    2    0    0  0.85217644641E-01 -0.41531117139E-01 -0.47305115129E-01  0.10781075505E+00  0.19962573417E-01 0.  0.
         14    1    1    2    0    0 -0.59366180561E-02  0.34871355138E-01  0.38779292647E-01  0.52488935799E-01  0.00000000000E+00 0. -1.
     999901    1    1    2    0    0 -0.79281026585E-01  0.66597620012E-02  0.85258224822E-02  0.88363030915E+00  0.88000000000E+00 0.  1.
        -11    1    3    3    0    0  0.11868104015E-01 -0.80740371695E-02 -0.54469018058E-04  0.14363358138E-01  0.51100000000E-03 0. -1.
         11    1    3    3    0    0  0.73349540626E-01 -0.33457079969E-01 -0.47250646111E-01  0.93447396909E-01  0.51100000000E-03 0.  1.
</event>
<event>
 8    1  0.1290130E+005  0.1043930E+01  0.7957747E-01            NaN
         13   -1    0    0    0    0  0.00000000000E+00  0.00000000000E+00  0.74505805969E-08  0.10566000000E+00  0.10566000000E+00 0. -1.
     999900   -1    0    0    0    0 -0.00000000000E+00 -0.00000000000E+00 -0.74505805969E-08  0.93827000000E+00  0.93827000000E+00 0. -1.
     999902    2    1    2    0    0 -0.13180997002E-02 -0.24819336102E-01  0.17229348589E-02  0.10190160413E+01  0.10187114347E+01 0.  0.
     999903    2    3    3    0    0 -0.10506456935E+00  0.33574414245E-01 -0.62862608663E-01  0.12865406300E+00  0.20841193225E-01 0.  0.
         14    1    1    2    0    0  0.13180997002E-02  0.24819336102E-01 -0.17229348589E-02  0.24913958655E-01  0.00000000000E+00 0. -1.
     999901    1    3    3    0    0  0.10374646965E+00 -0.58393750347E-01  0.64585543522E-01  0.89036197834E+00  0.88000000000E+00 0.  1.
        -11    1    4    4    0    0 -0.68241056846E-01  0.32042977196E-01 -0.42335319330E-01  0.86464643704E-01  0.51100000000E-03 0.  1.
         11    1    4    4    0    0 -0.36823512502E-01  0.15314370485E-02 -0.20527289333E-01  0.42189419299E-01  0.51100000000E-03 0. -1.
</event>
<event>
 8    1  0.1146431E+005  0.1043930E+01  0.7957747E-01            NaN
         13   -1    0    0    0    0  0.00000000000E+00  0.00000000000E+00  0.74505805969E-08  0.10566000000E+00  0.10566000000E+00 0.  1.
     999900   -1    0    0    0    0 -0.00000000000E+00 -0.00000000000E+00 -0.74505805969E-08  0.93827000000E+00  0.93827000000E+00 0.  1.
     999902    2    1    2    0    0 -0.17732345268E-02  0.20914657695E-01 -0.12323520608E-01  0.10195899830E+01  0.10192994148E+01 0.  0.
     999903    2    3    3    0    0 -0.10616085940E+00 -0.46350649463E-01  0.52936571118E-01  0.12847816211E+00  0.16907004525E-01 0.  0.
         14    1    1    2    0    0  0.17732345268E-02 -0.20914657695E-01  0.12323520608E-01  0.24340016996E-01  0.00000000000E+00 0.  1.
     999901    1    3    3    0    0  0.10438762487E+00  0.67265307157E-01 -0.65260091726E-01  0.89111182090E+00  0.88000000000E+00 0. -1.
        -11    1    4    4    0    0 -0.46322609381E-01 -0.26962579002E-01  0.18107449520E-01  0.56576546867E-01  0.51100000000E-03 0. -1.
         11    1    4    4    0    0 -0.59838250019E-01 -0.19388070461E-01  0.34829121598E-01  0.71901615238E-01  0.51100000000E-03 0.  1.
</event>
<event>
 8    1  0.1146431E+005  0.1043930E+01  0.7957747E-01            NaN
         13   -1    0    0    0    0  0.00000000000E+00  0.00000000000E+00  0.74505805969E-08  0.10566000000E+00  0.10566000000E+00 0. -1.
     999900   -1    0    0    0    0 -0.00000000000E+00 -0.00000000000E+00 -0.74505805969E-08  0.93827000000E+00  0.93827000000E+00 0. -1.
     999902    2    1    2    0    0 -0.16508974582E-01  0.52509839846E-02  0.15141028193E-01  0.10209219621E+01  0.10206626685E+01 0.  0.
     999903    2    3    3    0    0  0.11235992993E+00 -0.76487691151E-03 -0.58896122152E-01  0.12843953381E+00  0.20065436699E-01 0.  0.
         14    1    1    2    0    0  0.16508974582E-01 -0.52509839846E-02 -0.15141028193E-01  0.23008037928E-01  0.00000000000E+00 0.  1.
     999901    1    3    3    0    0 -0.12886890451E+00  0.60158608962E-02  0.74037150345E-01  0.89248242827E+00  0.88000000000E+00 0.  1.
        -11    1    4    4    0    0  0.21916193463E-01  0.69677481005E-02 -0.79053648794E-02  0.24323341966E-01  0.51100000000E-03 0.  1.
         11    1    4    4    0    0  0.90443736464E-01 -0.77326250120E-02 -0.50990757272E-01  0.10411619184E+00  0.51100000000E-03 0. -1.
</event>
<event>
 8    1  0.1146431E+005  0.1043930E+01  0.7957747E-01            NaN
         13   -1    0    0    0    0  0.00000000000E+00  0.00000000000E+00  0.74505805969E-08  0.10566000000E+00  0.10566000000E+00 0.  1.
     999900   -1    0    0    0    0 -0.00000000000E+00 -0.00000000000E+00 -0.74505805969E-08  0.93827000000E+00  0.93827000000E+00 0. -1.
     999902    2    1    2    0    0 -0.47002789297E-02 -0.22531193342E-01  0.56055238327E-02  0.10202409900E+01  0.10199659350E+01 0.  0.
     999903    2    3    3    0    0  0.31266219179E-01  0.12106549256E+00 -0.15487935281E-01  0.12762767443E+00  0.20359695228E-01 0.  0.
         14    1    1    2    0    0  0.47002789297E-02  0.22531193342E-01 -0.56055238327E-02  0.23689009960E-01  0.00000000000E+00 0.  1.
     999901    1    3    3    0    0 -0.35966498109E-01 -0.14359668590E+00  0.21093459114E-01  0.89261331561E+00  0.88000000000E+00 0.  1.
        -11    1    4    4    0    0  0.25145693033E-02  0.26076852879E-01 -0.10587042957E-01  0.28260784038E-01  0.51100000000E-03 0.  1.
         11    1    4    4    0    0  0.28751649876E-01  0.94988639684E-01 -0.49008923245E-02  0.99366890391E-01  0.51100000000E-03 0. -1.
</event>
<event>
 8    1  0.1146431E+005  0.1043930E+01  0.7957747E-01            NaN
         13   -1    0    0    0    0  0.00000000000E+00  0.00000000000E+00  0.74505805969E-08  0.10566000000E+00  0.10566000000E+00 0. -1.
     999900   -1    0    0    0    0 -0.00000000000E+00 -0.00000000000E+00 -0.74505805969E-08  0.93827000000E+00  0.93827000000E+00 0. -1.
     999902    2    1    2    0    0 -0.55005039238E-02  0.85205126149E-02 -0.21933066595E-01  0.10197656856E+01  0.10194793473E+01 0.  0.
     999903    2    3    3    0    0  0.15384580566E-01 -0.12458642060E+00 -0.22814043718E-01  0.12951043092E+00  0.22226326908E-01 0.  0.
         14    1    1    2    0    0  0.55005039238E-02 -0.85205126149E-02  0.21933066595E-01  0.24164314368E-01  0.00000000000E+00 0. -1.
     999901    1    3    3    0    0 -0.20885084490E-01  0.13310693322E+00  0.88097712353E-03  0.89025525471E+00  0.88000000000E+00 0.  1.
        -11    1    4    4    0    0  0.16343545008E-01 -0.85160654515E-01 -0.24251287953E-01  0.90043515199E-01  0.51100000000E-03 0. -1.
         11    1    4    4    0    0 -0.95896444142E-03 -0.39425766088E-01  0.14372442350E-02  0.39466915719E-01  0.51100000000E-03 0.  1.
</event>
<event>
 8    1  0.1146431E+005  0.1043930E+01  0.7957747E-01            NaN
         13   -1    0    0    0    0  0.00000000000E+00  0.00000000000E+00  0.74505805969E-08  0.10566000000E+00  0.10566000000E+00 0.  1.
     999900   -1    0    0    0    0 -0.00000000000E+00 -0.00000000000E+00 -0.74505805969E-08  0.93827000000E+00  0.93827000000E+00 0.  1.
     999902    2    1    2    0    0 -0.59260489053E-02  0.10806320523E-01  0.20166611356E-01  0.10202955583E+01  0.10200217839E+01 0.  0.
     999903    2    3    3    0    0  0.11323161490E+00  0.41384594332E-02 -0.58018003017E-01  0.12880476022E+00  0.19648209131E-01 0.  0.
         14    1    1    2    0    0  0.59260489053E-02 -0.10806320523E-01 -0.20166611356E-01  0.23634441657E-01  0.00000000000E+00 0. -1.
     999901    1    3    3    0    0 -0.11915766380E+00  0.66678610900E-02  0.78184614373E-01  0.89149079812E+00  0.88000000000E+00 0. -1.
        -11    1    4    4    0    0  0.68419912592E-01 -0.61257406883E-02 -0.29961763894E-01  0.74945163651E-01  0.51100000000E-03 0.  1.
         11    1    4    4    0    0  0.44811702307E-01  0.10264200121E-01 -0.28056239123E-01  0.53859596568E-01  0.51100000000E-03 0. -1.
</event>
<event>
 8    1  0.1146431E+005  0.1043930E+01  0.7957747E-01            NaN
         13   -1    0    0    0    0  0.00000000000E+00  0.00000000000E+00  0.74505805969E-08  0.10566000000E+00  0.10566000000E+00 0.  1.
     999900   -1    0    0    0    0 -0.00000000000E+00 -0.00000000000E+00 -0.74505805969E-08  0.93827000000E+00  0.93827000000E+00 0. -1.
     999902    2    1    2    0    0  0.14454256677E-01 -0.65340596225E-03 -0.17686957483E-01  0.10210787213E+01  0.10208229886E+01 0.  0.
     999903    2    3    3    0    0 -0.46936447975E-01  0.10512258415E+00 -0.60578725826E-01  0.13158612292E+00  0.19782261598E-01 0.  0.
         14    1    1    2    0    0 -0.14454256677E-01  0.65340596225E-03  0.17686957483E-01  0.22851278749E-01  0.00000000000E+00 0. -1.
     999901    1    3    3    0    0  0.61390704652E-01 -0.10577599011E+00  0.42891768343E-01  0.88949259834E+00  0.88000000000E+00 0. -1.
        -11    1    4    4    0    0 -0.22718588471E-01  0.72525864237E-01 -0.35801278848E-01  0.84012665317E-01  0.51100000000E-03 0.  1.
         11    1    4    4    0    0 -0.24217859504E-01  0.32596719915E-01 -0.24777446978E-01  0.47573457599E-01  0.51100000000E-03 0. -1.
</event>
<event>
 8    1  0.1146431E+005  0.1043930E+01  0.7957747E-01            NaN
         13   -1    0    0    0    0  0.00000000000E+00  0.00000000000E+00  0.74505805969E-08  0.10566000000E+00  0.10566000000E+00 0. -1.
     999900   -1    0    0    0    0 -0.00000000000E+00 -0.00000000000E+00 -0.74505805969E-08  0.93827000000E+00  0.93827000000E+00 0.  1.
     999902    2    1    2    0    0 -0.37707840104E-02 -0.21005259256E-01  0.87833025004E-02  0.10208521723E+01  0.10205912853E+01 0.  0.
     999903    2    3    3    0    0 -0.45243943708E-01 -0.26108054910E-01  0.12048193679E+00  0.13280789052E+00  0.19834155387E-01 0.  0.
         14    1    1    2    0    0  0.37707840104E-02  0.21005259256E-01 -0.87833025004E-02  0.23077827698E-01  0.00000000000E+00 0.  1.
     999901    1    3    3    0    0  0.41473159698E-01  0.51027956541E-02 -0.11169863429E+00  0.88804428178E+00  0.88000000000E+00 0.  1.
        -11    1    4    4    0    0 -0.34862625698E-01 -0.15257273452E-01  0.64951064918E-01  0.75280070528E-01  0.51100000000E-03 0.  1.
         11    1    4    4    0    0 -0.10381318010E-01 -0.10850781458E-01  0.55530871869E-01  0.57527819995E-01  0.51100000000E-03 0. -1.
</event>
<event>
 8    1  0.1146431E+005  0.1043930E+01  0.7957747E-01            NaN
         13   -1    0    0    0    0  0.00000000000E+00  0.00000000000E+00  0.74505805969E-08  0.10566000000E+00  0.10566000000E+00 0. -1.
     999900   -1    0    0    0    0 -0.00000000000E+00 -0.00000000000E+00 -0.74505805969E-08  0.93827000000E+00  0.93827000000E+00 0. -1.
     999902    2    1    2    0    0  0.86577796733E-02  0.18092505900E-01  0.11392652493E-01  0.10208629575E+01  0.10206023170E+01 0.  0.
     999903    2    3    3    0    0 -0.73014828827E-01 -0.57835890008E-01  0.89118140496E-01  0.13042666682E+00  0.19822135375E-01 0.  0.
         14    1    1    2    0    0 -0.86577796733E-02 -0.18092505900E-01 -0.11392652493E-01  0.23067042494E-01  0.00000000000E+00 0. -1.
     999901    1    3    3    0    0  0.81672608500E-01  0.75928395908E-01 -0.77725488002E-01  0.89043629069E+00  0.88000000000E+00 0. -1.
        -11    1    4    4    0    0 -0.35262144732E-01 -0.17785424594E-01  0.45088186665E-01  0.59941186815E-01  0.51100000000E-03 0.  1.
         11    1    4    4    0    0 -0.37752684095E-01 -0.40050465413E-01  0.44029953831E-01  0.70485480005E-01  0.51100000000E-03 0. -1.
</event>
<event>
 8    1  0.1146431E+005  0.1043930E+01  0.7957747E-01            NaN
         13   -1    0    0    0    0  0.00000000000E+00  0.00000000000E+00  0.74505805969E-08  0.10566000000E+00  0.10566000000E+00 0. -1.
     999900   -1    0    0    0    0 -0.00000000000E+00 -0.00000000000E+00 -0.74505805969E-08  0.93827000000E+00  0.93827000000E+00 0.  1.
     999902    2    1    2    0    0 -0.19803102146E-01  0.69224882715E-02  0.10764541463E-01  0.10203512161E+01  0.10200787446E+01 0.  0.
     999903    2    3    3    0    0 -0.22928105764E-02 -0.12763043934E+00 -0.10543889465E-01  0.12969687804E+00  0.20379414627E-01 0.  0.
         14    1    1    2    0    0  0.19803102146E-01 -0.69224882715E-02 -0.10764541463E-01  0.23578783925E-01  0.00000000000E+00 0. -1.
     999901    1    3    3    0    0 -0.17510291570E-01  0.13455292761E+00  0.21308430928E-01  0.89065433804E+00  0.88000000000E+00 0. -1.
        -11    1    4    4    0    0 -0.57853638100E-02 -0.76117751888E-01 -0.15257146559E-01  0.77848726573E-01  0.51100000000E-03 0.  1.
         11    1    4    4    0    0  0.34925532336E-02 -0.51512687452E-01  0.47132570937E-02  0.51848151462E-01  0.51100000000E-03 0. -1.
</event>
<event>
 8    1  0.1146431E+005  0.1043930E+01  0.7957747E-01            NaN
         13   -1    0    0    0    0  0.00000000000E+00  0.00000000000E+00  0.74505805969E-08  0.10566000000E+00  0.10566000000E+00 0. -1.
     999900   -1    0    0    0    0 -0.00000000000E+00 -0.00000000000E+00 -0.74505805969E-08  0.93827000000E+00  0.93827000000E+00 0.  1.
     999902    2    1    2    0    0 -0.12575410089E-01  0.94990056594E-02 -0.18056090369E-01  0.10199634724E+01  0.10196818575E+01 0.  0.
     999903    2    3    3    0    0 -0.86886768690E-01  0.66719460584E-01 -0.73100990378E-01  0.13326944425E+00  0.20400808379E-01 0.  0.
         14    1    1    2    0    0  0.12575410089E-01 -0.94990056594E-02  0.18056090369E-01  0.23966527634E-01  0.00000000000E+00 0.  1.
     999901    1    3    3    0    0  0.74311358601E-01 -0.57220454925E-01  0.55044900009E-01  0.88669402812E+00  0.88000000000E+00 0. -1.
        -11    1    4    4    0    0 -0.70209857744E-01  0.44886147710E-01 -0.48697657977E-01  0.96518979450E-01  0.51100000000E-03 0.  1.
         11    1    4    4    0    0 -0.16676910946E-01  0.21833312875E-01 -0.24403332400E-01  0.36750464800E-01  0.51100000000E-03 0. -1.
</event>
<event>
 8    1  0.1146431E+005  0.1043930E+01  0.7957747E-01            NaN
         13   -1    0    0    0    0  0.00000000000E+00  0.00000000000E+00  0.74505805969E-08  0.10566000000E+00  0.10566000000E+00 0.  1.
     999900   -1    0    0    0    0 -0.00000000000E+00 -0.00000000000E+00 -0.74505805969E-08  0.93827000000E+00  0.93827000000E+00 0. -1.
     999902    2    1    2    0    0 -0.10765662157E-01 -0.16441791502E-01 -0.13306827022E-01  0.10201959815E+01  0.10199198679E+01 0.  0.
     999903    2    3    3    0    0  0.69910242053E-01  0.53650180096E-01  0.90141112933E-01  0.12771463026E+00  0.20489577193E-01 0.  0.
         14    1    1    2    0    0  0.10765662157E-01  0.16441791502E-01  0.13306827022E-01  0.23734018514E-01  0.00000000000E+00 0.  1.
     999901    1    3    3    0    0 -0.80675904210E-01 -0.70091971598E-01 -0.10344793996E+00  0.89248135122E+00  0.88000000000E+00 0. -1.
        -11    1    4    4    0    0  0.51934578855E-01  0.38050742565E-01  0.77518253294E-01  0.10076904388E+00  0.51100000000E-03 0.  1.
         11    1    4    4    0    0  0.17975663199E-01  0.15599437532E-01  0.12622859639E-01  0.26945586377E-01  0.51100000000E-03 0. -1.
</event>
<event>
 8    1  0.1146431E+005  0.1043930E+01  0.7957747E-01            NaN
         13   -1    0    0    0    0  0.00000000000E+00  0.00000000000E+00  0.74505805969E-08  0.10566000000E+00  0.10566000000E+00 0.  1.
     999900   -1    0    0    0    0 -0.00000000000E+00 -0.00000000000E+00 -0.74505805969E-08  0.93827000000E+00  0.93827000000E+00 0.  1.
     999902    2    1    2    0    0  0.23675202029E-01 -0.63357443839E-02 -0.60255023135E-03  0.10194142925E+01  0.10191194630E+01 0.  0.
     999903    2    3    3    0    0  0.27021592293E-01 -0.10614714382E+00  0.70383959082E-01  0.13092535148E+00  0.13789973624E-01 0.  0.
         14    1    1    2    0    0 -0.23675202029E-01  0.63357443839E-02  0.60255023135E-03  0.24515707512E-01  0.00000000000E+00 0. -1.
     999901    1    3    3    0    0 -0.33463902638E-02  0.99811399440E-01 -0.70986509313E-01  0.88848894101E+00  0.88000000000E+00 0.  1.
        -11    1    4    4    0    0  0.31232910267E-02 -0.21510595682E-01  0.20144705265E-01  0.29640022682E-01  0.51100000000E-03 0. -1.
         11    1    4    4    0    0  0.23898301266E-01 -0.84636548143E-01  0.50239253817E-01  0.10128532880E+00  0.51100000000E-03 0.  1.
</event>
<event>
 8    1  0.1146431E+005  0.1043930E+01  0.7957747E-01            NaN
         13   -1    0    0    0    0  0.00000000000E+00  0.00000000000E+00  0.74505805969E-08  0.10566000000E+00  0.10566000000E+00 0. -1.
     999900   -1    0    0    0    0 -0.00000000000E+00 -0.00000000000E+00 -0.74505805969E-08  0.93827000000E+00  0.93827000000E+00 0. -1.
     999902    2    1    2    0    0 -0.86896320136E-02 -0.21764839354E-01 -0.15457981875E-02  0.10204436757E+01  0.10201733617E+01 0.  0.
     999903    2    3    3    0    0 -0.44773952460E-01 -0.12264888156E+00 -0.21016756511E-01  0.13373132868E+00  0.19872323700E-01 0.  0.
         14    1    1    2    0    0  0.86896320136E-02  0.21764839354E-01  0.15457981875E-02  0.23486324290E-01  0.00000000000E+00 0.  1.
     999901    1    3    3    0    0  0.36084320447E-01  0.10088404221E+00  0.19470958324E-01  0.88671234703E+00  0.88000000000E+00 0.  1.
        -11    1    4    4    0    0 -0.29496222746E-01 -0.57380532446E-01 -0.16208093137E-01  0.66524552341E-01  0.51100000000E-03 0.  1.
         11    1    4    4    0    0 -0.15277729714E-01 -0.65268349116E-01 -0.48086633746E-02  0.67206776340E-01  0.51100000000E-03 0. -1.
</event>
<event>
 8    1  0.1146431E+005  0.1043930E+01  0.7957747E-01            NaN
         13   -1    0    0    0    0  0.00000000000E+00  0.00000000000E+00  0.74505805969E-08  0.10566000000E+00  0.10566000000E+00 0. -1.
     999900   -1    0    0    0    0 -0.00000000000E+00 -0.00000000000E+00 -0.74505805969E-08  0.93827000000E+00  0.93827000000E+00 0.  1.
     999902    2    1    2    0    0  0.19606259328E-01 -0.12920088091E-01 -0.21490976049E-02  0.10203513507E+01  0.10200788824E+01 0.  0.
     999903    2    3    3    0    0  0.12578812392E+00  0.33404293735E-01 -0.89186668241E-03  0.13275790925E+00  0.26179535558E-01 0.  0.
         14    1    1    2    0    0 -0.19606259328E-01  0.12920088091E-01  0.21490976049E-02  0.23578649275E-01  0.00000000000E+00 0.  1.
     999901    1    3    3    0    0 -0.10618186459E+00 -0.46324381826E-01 -0.12572309225E-02  0.88759344148E+00  0.88000000000E+00 0.  1.
        -11    1    4    4    0    0  0.25911636776E-01  0.17593407312E-01 -0.40639387220E-02  0.31586668393E-01  0.51100000000E-03 0. -1.
         11    1    4    4    0    0  0.99876487148E-01  0.15810886423E-01  0.31720720396E-02  0.10117124086E+00  0.51100000000E-03 0.  1.
</event>
<event>
 8    1  0.1146431E+005  0.1043930E+01  0.7957747E-01            NaN
         13   -1    0    0    0    0  0.00000000000E+00  0.00000000000E+00  0.74505805969E-08  0.10566000000E+00  0.10566000000E+00 0. -1.
     999900   -1    0    0    0    0 -0.00000000000E+00 -0.00000000000E+00 -0.74505805969E-08  0.93827000000E+00  0.93827000000E+00 0.  1.
     999902    2    1    2    0    0  0.13109755995E-01 -0.14529556817E-01  0.12984062225E-01  0.10204446941E+01  0.10201744037E+01 0.  0.
     999903    2    3    3    0    0  0.64729784709E-02  0.12253948517E+00 -0.34099947417E-01  0.12856528906E+00  0.17561385527E-01 0.  0.
         14    1    1    2    0    0 -0.13109755995E-01  0.14529556817E-01 -0.12984062225E-01  0.23485305947E-01  0.00000000000E+00 0.  1.
     999901    1    3    3    0    0  0.66367775243E-02 -0.13706904199E+00  0.47084009641E-01  0.89187940499E+00  0.88000000000E+00 0. -1.
        -11    1    4    4    0    0  0.11656313766E-01  0.85326736548E-01 -0.27573663767E-01  0.90427261791E-01  0.51100000000E-03 0.  1.
         11    1    4    4    0    0 -0.51833352948E-02  0.37212748621E-01 -0.65262836495E-02  0.38138027269E-01  0.51100000000E-03 0. -1.
</event>
<event>
 8    1  0.1146431E+005  0.1043930E+01  0.7957747E-01            NaN
         13   -1    0    0    0    0  0.00000000000E+00  0.00000000000E+00  0.74505805969E-08  0.10566000000E+00  0.10566000000E+00 0. -1.
     999900   -1    0    0    0    0 -0.00000000000E+00 -0.00000000000E+00 -0.74505805969E-08  0.93827000000E+00  0.93827000000E+00 0.  1.
     999902    2    1    2    0    0 -0.11302497292E-01  0.11750780856E-01  0.16896729128E-01  0.10204496518E+01  0.10201794769E+01 0.  0.
     999903    2    3    3    0    0 -0.81399196593E-01  0.10162200694E+00  0.18533358731E-01  0.13309793852E+00  0.20462510849E-01 0.  0.
         14    1    1    2    0    0  0.11302497292E-01 -0.11750780856E-01 -0.16896729128E-01  0.23480348187E-01  0.00000000000E+00 0.  1.
     999901    1    3    3    0    0  0.70096699301E-01 -0.89871226088E-01 -0.16366296032E-02  0.88735171330E+00  0.88000000000E+00 0.  1.
        -11    1    4    4    0    0 -0.59421796816E-01  0.62515033779E-01  0.57169947842E-02  0.86440873061E-01  0.51100000000E-03 0.  1.
         11    1    4    4    0    0 -0.21977399777E-01  0.39106973166E-01  0.12816363947E-01  0.46657065456E-01  0.51100000000E-03 0. -1.
</event>
<event>
 8    1  0.1146431E+005  0.1043930E+01  0.7957747E-01            NaN
         13   -1    0    0    0    0  0.00000000000E+00  0.00000000000E+00  0.74505805969E-08  0.10566000000E+00  0.10566000000E+00 0. -1.
     999900   -1    0    0    0    0 -0.00000000000E+00 -0.00000000000E+00 -0.74505805969E-08  0.93827000000E+00  0.93827000000E+00 0. -1.
     999902    2    1    2    0    0 -0.64272034183E-02 -0.71310488805E-02  0.21227167583E-01  0.10206329305E+01  0.10203670053E+01 0.  0.
     999903    2    3    3    0    0  0.12623852307E+00  0.26521540759E-01 -0.83521810328E-03  0.12977972117E+00  0.14231008660E-01 0.  0.
         14    1    1    2    0    0  0.64272034183E-02  0.71310488805E-02 -0.21227167583E-01  0.23297069462E-01  0.00000000000E+00 0. -1.
     999901    1    3    3    0    0 -0.13266572649E+00 -0.33652589640E-01  0.22062385686E-01  0.89085320937E+00  0.88000000000E+00 0.  1.
        -11    1    4    4    0    0  0.36811828329E-01  0.12076350519E-02 -0.23018610407E-03  0.36835895455E-01  0.51100000000E-03 0. -1.
         11    1    4    4    0    0  0.89426694740E-01  0.25313905707E-01 -0.60503199920E-03  0.92943825718E-01  0.51100000000E-03 0.  1.
</event>
<event>
 8    1  0.1146431E+005  0.1043930E+01  0.7957747E-01            NaN
         13   -1    0    0    0    0  0.00000000000E+00  0.00000000000E+00  0.74505805969E-08  0.10566000000E+00  0.10566000000E+00 0.  1.
     999900   -1    0    0    0    0 -0.00000000000E+00 -0.00000000000E+00 -0.74505805969E-08  0.93827000000E+00  0.93827000000E+00 0. -1.
     999902    2    1    2    0    0  0.68411010878E-02  0.12293799384E-01 -0.14370038062E-02  0.10297877531E+01  0.10296906396E+01 0.  0.
     999903    2    3    3    0    0 -0.42131063908E-01  0.32414431354E-01  0.12679841798E+00  0.13891883111E+00  0.19871611078E-01 0.  0.
         14    1    1    2    0    0 -0.68411010878E-02 -0.12293799384E-01  0.14370038062E-02  0.14142246898E-01  0.00000000000E+00 0. -1.
     999901    1    3    3    0    0  0.48972164995E-01 -0.20120631970E-01 -0.12823542179E+00  0.89086892200E+00  0.88000000000E+00 0. -1.
        -11    1    4    4    0    0 -0.22633580839E-01  0.62541397724E-02  0.63501732430E-01  0.67706162116E-01  0.51100000000E-03 0.  1.
         11    1    4    4    0    0 -0.19497483068E-01  0.26160291581E-01  0.63296685554E-01  0.71212668990E-01  0.51100000000E-03 0. -1.
</event>
<event>
 8    1  0.1374263E+005  0.1043930E+01  0.7957747E-01            NaN
         13   -1    0    0    0    0  0.00000000000E+00  0.00000000000E+00  0.74505805969E-08  0.10566000000E+00  0.10566000000E+00 0.  1.
     999900   -1    0    0    0    0 -0.00000000000E+00 -0.00000000000E+00 -0.74505805969E-08  0.93827000000E+00  0.93827000000E+00 0.  1.
     999902    2    1    2    0    0 -0.14336978097E-02 -0.21833947282E-03 -0.24376300631E-01  0.10195105980E+01  0.10192181083E+01 0.  0.
     999903    2    3    3    0    0 -0.75281426257E-02 -0.12100185819E+00  0.38845842824E-01  0.12899229944E+00  0.20781992038E-01 0.  0.
         14    1    1    2    0    0  0.14336978097E-02  0.21833947282E-03  0.24376300631E-01  0.24419401999E-01  0.00000000000E+00 0.  1.
     999901    1    3    3    0    0  0.60944448160E-02  0.12078351872E+00 -0.63222143455E-01  0.89051829856E+00  0.88000000000E+00 0.  1.
        -11    1    4    4    0    0  0.11979307372E-03 -0.81591486053E-01  0.34576696828E-01  0.88617120418E-01  0.51100000000E-03 0. -1.
         11    1    4    4    0    0 -0.76479356994E-02 -0.39410372137E-01  0.42691459969E-02  0.40375179021E-01  0.51100000000E-03 0.  1.
</event>
<event>
 8    1  0.1146431E+005  0.1043930E+01  0.7957747E-01            NaN
         13   -1    0    0    0    0  0.00000000000E+00  0.00000000000E+00  0.74505805969E-08  0.10566000000E+00  0.10566000000E+00 0. -1.
     999900   -1    0    0    0    0 -0.00000000000E+00 -0.00000000000E+00 -0.74505805969E-08  0.93827000000E+00  0.93827000000E+00 0. -1.
     999902    2    1    2    0    0  0.15461203743E-01 -0.35499585563E-02 -0.16160593703E-01  0.10212845630E+01  0.10210334680E+01 0.  0.
     999903    2    3    3    0    0 -0.84323278842E-01  0.62972466763E-01  0.71580373585E-01  0.12882691508E+00  0.19916757809E-01 0.  0.
         14    1    1    2    0    0 -0.15461203743E-01  0.35499585563E-02  0.16160593703E-01  0.22645436975E-01  0.00000000000E+00 0. -1.
     999901    1    3    3    0    0  0.99784482585E-01 -0.66522425319E-01 -0.87740967288E-01  0.89245764795E+00  0.88000000000E+00 0.  1.
        -11    1    4    4    0    0 -0.66204620112E-01  0.54438641480E-01  0.65546316454E-01  0.10790365208E+00  0.51100000000E-03 0.  1.
         11    1    4    4    0    0 -0.18118658730E-01  0.85338252832E-02  0.60340571307E-02  0.20923263001E-01  0.51100000000E-03 0. -1.
</event>
<event>
 8    1  0.1146431E+005  0.1043930E+01  0.7957747E-01            NaN
         13   -1    0    0    0    0  0.00000000000E+00  0.00000000000E+00  0.74505805969E-08  0.10566000000E+00  0.10566000000E+00 0. -1.
     999900   -1    0    0    0    0 -0.00000000000E+00 -0.00000000000E+00 -0.74505805969E-08  0.93827000000E+00  0.93827000000E+00 0. -1.
     999902    2    1    2    0    0  0.65389160294E-02  0.22868263623E-01 -0.94906130524E-02  0.10183216685E+01  0.10179996238E+01 0.  0.
     999903    2    3    3    0    0  0.20772888632E-01  0.81191799884E-01  0.97922838428E-01  0.12975997096E+00  0.15004882743E-01 0.  0.
         14    1    1    2    0    0 -0.65389160294E-02 -0.22868263623E-01  0.94906130524E-02  0.25608331458E-01  0.00000000000E+00 0. -1.
     999901    1    3    3    0    0 -0.14233972603E-01 -0.58323536261E-01 -0.10741345148E+00  0.88856169759E+00  0.88000000000E+00 0. -1.
        -11    1    4    4    0    0  0.30234805054E-02  0.20934976565E-01  0.16011952666E-01  0.26534099331E-01  0.51100000000E-03 0.  1.
         11    1    4    4    0    0  0.17749408127E-01  0.60256823319E-01  0.81910885762E-01  0.10322587162E+00  0.51100000000E-03 0. -1.
</event>
<event>
 8    1  0.1146431E+005  0.1043930E+01  0.7957747E-01            NaN
         13   -1    0    0    0    0  0.00000000000E+00  0.00000000000E+00  0.74505805969E-08  0.10566000000E+00  0.10566000000E+00 0. -1.
     999900   -1    0    0    0    0 -0.00000000000E+00 -0.00000000000E+00 -0.74505805969E-08  0.93827000000E+00  0.93827000000E+00 0.  1.
     999902    2    1    2    0    0  0.24311603381E-01  0.21480929541E-02 -0.16763736111E-02  0.10194661779E+01  0.10191726102E+01 0.  0.
     999903    2    3    3    0    0 -0.80012393328E-01  0.88982234728E-01 -0.41596793137E-01  0.12816527230E+00  0.19396459491E-01 0.  0.
         14    1    1    2    0    0 -0.24311603381E-01 -0.21480929541E-02  0.16763736111E-02  0.24463822080E-01  0.00000000000E+00 0. -1.
     999901    1    3    3    0    0  0.10432399671E+00 -0.86834141774E-01  0.39920419526E-01  0.89130090562E+00  0.88000000000E+00 0. -1.
        -11    1    4    4    0    0 -0.14524814755E-01  0.14233221718E-01 -0.15039949224E-01  0.25298538254E-01  0.51100000000E-03 0.  1.
         11    1    4    4    0    0 -0.65487578573E-01  0.74749013010E-01 -0.26556843913E-01  0.10286673404E+00  0.51100000000E-03 0. -1.
</event>
<event>
 8    1  0.1146431E+005  0.1043930E+01  0.7957747E-01            NaN
         13   -1    0    0    0    0  0.00000000000E+00  0.00000000000E+00  0.74505805969E-08  0.10566000000E+00  0.10566000000E+00 0. -1.
     999900   -1    0    0    0    0 -0.00000000000E+00 -0.00000000000E+00 -0.74505805969E-08  0.93827000000E+00  0.93827000000E+00 0.  1.
     999902    2    1    2    0    0 -0.38648710376E-02 -0.26600447363E-01  0.75694771897E-02  0.10160047782E+01  0.10156209388E+01 0.  0.
     999903    2    3    3    0    0 -0.11101968765E+00  0.26883999571E-01 -0.48601391471E-01  0.12611832068E+00  0.22262414009E-01 0.  0.
         14    1    1    2    0    0  0.38648710376E-02  0.26600447363E-01 -0.75694771897E-02  0.27925221807E-01  0.00000000000E+00 0. -1.
     999901    1    3    3    0    0  0.10715481662E+00 -0.53484446934E-01  0.56170868661E-01  0.88988645752E+00  0.88000000000E+00 0. -1.
        -11    1    4    4    0    0 -0.94245354778E-01  0.27198185865E-01 -0.48279377100E-01  0.10933017692E+00  0.51100000000E-03 0.  1.
         11    1    4    4    0    0 -0.16774332875E-01 -0.31418629356E-03 -0.32201437060E-03  0.16788143753E-01  0.51100000000E-03 0. -1.
</event>
<event>
 8    1  0.1146431E+005  0.1043930E+01  0.7957747E-01            NaN
         13   -1    0    0    0    0  0.00000000000E+00  0.00000000000E+00  0.74505805969E-08  0.10566000000E+00  0.10566000000E+00 0.  1.
     999900   -1    0    0    0    0 -0.00000000000E+00 -0.00000000000E+00 -0.74505805969E-08  0.93827000000E+00  0.93827000000E+00 0.  1.
     999902    2    1    2    0    0 -0.20230687980E-01 -0.12243274423E-01  0.81521308365E-03  0.10202689967E+01  0.10199945993E+01 0.  0.
     999903    2    3    3    0    0  0.47692835916E-01 -0.12014735628E+00  0.44287475120E-02  0.13107275649E+00  0.21224039928E-01 0.  0.
         14    1    1    2    0    0  0.20230687980E-01  0.12243274423E-01 -0.81521308365E-03  0.23661003299E-01  0.00000000000E+00 0.  1.
     999901    1    3    3    0    0 -0.67923523896E-01  0.10790408185E+00 -0.36135344284E-02  0.88919624021E+00  0.88000000000E+00 0. -1.
        -11    1    4    4    0    0  0.15508815258E-01 -0.59913533656E-01  0.93869370413E-02  0.62598167496E-01  0.51100000000E-03 0.  1.
         11    1    4    4    0    0  0.32184020658E-01 -0.60233822620E-01 -0.49581895293E-02  0.68474588991E-01  0.51100000000E-03 0. -1.
</event>
<event>
 8    1  0.1146431E+005  0.1043930E+01  0.7957747E-01            NaN
         13   -1    0    0    0    0  0.00000000000E+00  0.00000000000E+00  0.74505805969E-08  0.10566000000E+00  0.10566000000E+00 0. -1.
     999900   -1    0    0    0    0 -0.00000000000E+00 -0.00000000000E+00 -0.74505805969E-08  0.93827000000E+00  0.93827000000E+00 0. -1.
     999902    2    1    2    0    0 -0.23508336261E-01  0.20305062844E-02  0.52348893994E-03  0.10203283291E+01  0.10200553222E+01 0.  0.
     999903    2    3    3    0    0  0.42051303963E-01  0.93396603159E-01 -0.77145742180E-01  0.12977886973E+00  0.19996295792E-01 0.  0.
         14    1    1    2    0    0  0.23508336261E-01 -0.20305062844E-02 -0.52348893994E-03  0.23601670920E-01  0.00000000000E+00 0.  1.
     999901    1    3    3    0    0 -0.65559640224E-01 -0.91366096875E-01  0.77669231120E-01  0.89054945935E+00  0.88000000000E+00 0.  1.
        -11    1    4    4    0    0  0.25717033156E-01  0.63898760260E-01 -0.62511560101E-01  0.93018135998E-01  0.51100000000E-03 0.  1.
         11    1    4    4    0    0  0.16334270807E-01  0.29497842899E-01 -0.14634182079E-01  0.36760733733E-01  0.51100000000E-03 0. -1.
</event>
<event>
 8    1  0.1146431E+005  0.1043930E+01  0.7957747E-01            NaN
         13   -1    0    0    0    0  0.00000000000E+00  0.00000000000E+00  0.74505805969E-08  0.10566000000E+00  0.10566000000E+00 0.  1.
     999900   -1    0    0    0    0 -0.00000000000E+00 -0.00000000000E+00 -0.74505805969E-08  0.93827000000E+00  0.93827000000E+00 0.  1.
     999902    2    1    2    0    0 -0.19851156041E-01  0.12400915135E-01  0.28504345888E-02  0.10203508552E+01  0.10200783752E+01 0.  0.
     999903    2    3    3    0    0 -0.69841750614E-01 -0.10606117948E+00  0.23976069781E-01  0.13075621725E+00  0.19886993380E-01 0.  0.
         14    1    1    2    0    0  0.19851156041E-01 -0.12400915135E-01 -0.28504345888E-02  0.23579144804E-01  0.00000000000E+00 0. -1.
     999901    1    3    3    0    0  0.49990594573E-01  0.11846209461E+00 -0.21125635192E-01  0.88959463795E+00  0.88000000000E+00 0.  1.
        -11    1    4    4    0    0 -0.22140622947E-01 -0.40351105854E-01  0.17695838226E-01  0.49313514777E-01  0.51100000000E-03 0.  1.
         11    1    4    4    0    0 -0.47701127667E-01 -0.65710073623E-01  0.62802315549E-02  0.81442702470E-01  0.51100000000E-03 0. -1.
</event>
<event>
 8    1  0.1146431E+005  0.1043930E+01  0.7957747E-01            NaN
         13   -1    0    0    0    0  0.00000000000E+00  0.00000000000E+00  0.74505805969E-08  0.10566000000E+00  0.10566000000E+00 0. -1.
     999900   -1    0    0    0    0 -0.00000000000E+00 -0.00000000000E+00 -0.74505805969E-08  0.93827000000E+00  0.93827000000E+00 0. -1.
     999902    2    1    2    0    0 -0.81850664253E-02 -0.72154282245E-03 -0.21740743668E-01  0.10206883161E+01  0.10204236682E+01 0.  0.
     999903    2    3    3    0    0  0.59686479653E-01  0.11367451611E+00  0.91795833256E-02  0.13015528935E+00  0.19281159978E-01 0.  0.
         14    1    1    2    0    0  0.81850664253E-02  0.72154282245E-03  0.21740743668E-01  0.23241683925E-01  0.00000000000E+00 0. -1.
     999901    1    3    3    0    0 -0.67871546078E-01 -0.11439605893E+00 -0.30920326994E-01  0.89053302672E+00  0.88000000000E+00 0.  1.
        -11    1    4    4    0    0  0.50918700101E-01  0.10715475484E+00  0.61155076509E-02  0.11879611130E+00  0.51100000000E-03 0.  1.
         11    1    4    4    0    0  0.87677795521E-02  0.65197612663E-02  0.30640756747E-02  0.11359178051E-01  0.51100000000E-03 0. -1.
</event>
<event>
 8    1  0.1146431E+005  0.1043930E+01  0.7957747E-01            NaN
         13   -1    0    0    0    0  0.00000000000E+00  0.00000000000E+00  0.74505805969E-08  0.10566000000E+00  0.10566000000E+00 0. -1.
     999900   -1    0    0    0    0 -0.00000000000E+00 -0.00000000000E+00 -0.74505805969E-08  0.93827000000E+00  0.93827000000E+00 0.  1.
     999902    2    1    2    0    0  0.67202582239E-02 -0.61048487384E-02  0.23869202994E-01  0.10183923826E+01  0.10180721365E+01 0.  0.
     999903    2    3    3    0    0 -0.12101780458E+00 -0.36353883959E-01  0.13299007977E-01  0.12859254794E+00  0.19805702868E-01 0.  0.
         14    1    1    2    0    0 -0.67202582239E-02  0.61048487384E-02 -0.23869202994E-01  0.25537617357E-01  0.00000000000E+00 0.  1.
     999901    1    3    3    0    0  0.12773806281E+00  0.30249035220E-01  0.10570195017E-01  0.88979983471E+00  0.88000000000E+00 0.  1.
        -11    1    4    4    0    0 -0.11503783807E+00 -0.29985930363E-01  0.14485011735E-01  0.11976200105E+00  0.51100000000E-03 0. -1.
         11    1    4    4    0    0 -0.59799665099E-02 -0.63679535956E-02 -0.11860037578E-02  0.88305468895E-02  0.51100000000E-03 0.  1.
</event>
<event>
 7    1  0.1146431E+005  0.1043930E+01  0.7957747E-01            NaN
         13   -1    0    0    0    0  0.00000000000E+00  0.00000000000E+00  0.74505805969E-08  0.10566000000E+00  0.10566000000E+00 0. -1.
     999900   -1    0    0    0    0 -0.00000000000E+00 -0.00000000000E+00 -0.74505805969E-08  0.93827000000E+00  0.93827000000E+00 0. -1.
     999903    2    1    2    0    0  0.50605894746E-01 -0.10692209742E-01 -0.98589493380E-01  0.11298031950E+00  0.19219377157E-01 0.  0.
         14    1    1    2    0    0  0.32562886046E-01  0.23737511397E-01 -0.60965106657E-02  0.40755103205E-01  0.00000000000E+00 0. -1.
     999901    1    1    2    0    0 -0.83168780792E-01 -0.13045301655E-01  0.10468600405E+00  0.89019457729E+00  0.88000000000E+00 0.  1.
        -11    1    3    3    0    0  0.22286066357E-01 -0.11210733170E-01 -0.31723661786E-01  0.40360886140E-01  0.51100000000E-03 0. -1.
         11    1    3    3    0    0  0.28319828389E-01  0.51852342780E-03 -0.66865831594E-01  0.72619433365E-01  0.51100000000E-03 0.  1.
</event>
<event>
 8    1  0.1146431E+005  0.1043930E+01  0.7957747E-01            NaN
         13   -1    0    0    0    0  0.00000000000E+00  0.00000000000E+00  0.74505805969E-08  0.10566000000E+00  0.10566000000E+00 0. -1.
     999900   -1    0    0    0    0 -0.00000000000E+00 -0.00000000000E+00 -0.74505805969E-08  0.93827000000E+00  0.93827000000E+00 0.  1.
     999902    2    1    2    0    0 -0.82610064211E-02  0.74559106372E-02  0.20290875422E-01  0.10207879505E+01  0.10205255927E+01 0.  0.
     999903    2    3    3    0    0 -0.11979516969E+00 -0.19624627741E-01  0.50397378509E-01  0.13282419747E+00  0.19140610670E-01 0.  0.
         14    1    1    2    0    0  0.82610064211E-02 -0.74559106372E-02 -0.20290875422E-01  0.23142049519E-01  0.00000000000E+00 0.  1.
     999901    1    3    3    0    0  0.11153416327E+00  0.27080538378E-01 -0.30106503087E-01  0.88796375301E+00  0.88000000000E+00 0.  1.
        -11    1    4    4    0    0 -0.49399004130E-01 -0.16933094414E-01  0.25388643626E-01  0.58067509346E-01  0.51100000000E-03 0. -1.
         11    1    4    4    0    0 -0.70396165563E-01 -0.26915333272E-02  0.25008734883E-01  0.74756688123E-01  0.51100000000E-03 0.  1.
</event>
<event>
 7    1  0.1146431E+005  0.1043930E+01  0.7957747E-01            NaN
         13   -1    0    0    0    0  0.00000000000E+00  0.00000000000E+00  0.74505805969E-08  0.10566000000E+00  0.10566000000E+00 0. -1.
     999900   -1    0    0    0    0 -0.00000000000E+00 -0.00000000000E+00 -0.74505805969E-08  0.93827000000E+00  0.93827000000E+00 0.  1.
     999902    2    1    2    0    0 -0.10423476609E-01  0.17406247423E-01 -0.12417088856E-01  0.10201432304E+01  0.10198658736E+01 0.  0.
         14    1    1    2    0    0  0.10423476609E-01 -0.17406247423E-01  0.12417088856E-01  0.23786769634E-01  0.00000000000E+00 0. -1.
     999901    1    3    3    0    0 -0.11100562413E-01 -0.10154703869E+00  0.35416830028E-01  0.88661681430E+00  0.88000000000E+00 0. -1.
        -11    1    3    3    0    0  0.14579633789E-01  0.93716470246E-01 -0.43647949413E-01  0.10440664311E+00  0.51100000000E-03 0. -1.
         11    1    3    3    0    0 -0.13902547985E-01  0.25236815865E-01 -0.41859694706E-02  0.29119772954E-01  0.51100000000E-03 0.  1.
</event>
<event>
 8    1  0.1146431E+005  0.1043930E+01  0.7957747E-01            NaN
         13   -1    0    0    0    0  0.00000000000E+00  0.00000000000E+00  0.74505805969E-08  0.10566000000E+00  0.10566000000E+00 0. -1.
     999900   -1    0    0    0    0 -0.00000000000E+00 -0.00000000000E+00 -0.74505805969E-08  0.93827000000E+00  0.93827000000E+00 0. -1.
     999902    2    1    2    0    0  0.24134188132E-01  0.94920481284E-03  0.56960690450E-03  0.10197704371E+01  0.10194842127E+01 0.  0.
     999903    2    3    3    0    0  0.50435024268E-01 -0.21440287910E-01 -0.11749963793E+00  0.13121353408E+00  0.20185365780E-01 0.  0.
         14    1    1    2    0    0 -0.24134188132E-01 -0.94920481284E-03 -0.56960690450E-03  0.24159562881E-01  0.00000000000E+00 0. -1.
     999901    1    3    3    0    0 -0.26300836135E-01  0.22389492723E-01  0.11806924484E+00  0.88855690304E+00  0.88000000000E+00 0.  1.
        -11    1    4    4    0    0  0.44132240729E-01 -0.18404238690E-01 -0.81131577050E-01  0.94175180324E-01  0.51100000000E-03 0. -1.
         11    1    4    4    0    0  0.63027835390E-02 -0.30360492199E-02 -0.36368060885E-01  0.37038353753E-01  0.51100000000E-03 0.  1.
</event>
<event>
 8    1  0.1146431E+005  0.1043930E+01  0.7957747E-01            NaN
         13   -1    0    0    0    0  0.00000000000E+00  0.00000000000E+00  0.74505805969E-08  0.10566000000E+00  0.10566000000E+00 0. -1.
     999900   -1    0    0    0    0 -0.00000000000E+00 -0.00000000000E+00 -0.74505805969E-08  0.93827000000E+00  0.93827000000E+00 0.  1.
     999902    2    1    2    0    0 -0.20195328462E-01  0.10261110237E-02 -0.12364426058E-01  0.10202280333E+01  0.10199526737E+01 0.  0.
     999903    2    3    3    0    0 -0.44960378027E-01 -0.43162997713E-02  0.11967214805E+00  0.13001709987E+00  0.23301442081E-01 0.  0.
         14    1    1    2    0    0  0.20195328462E-01 -0.10261110237E-02  0.12364426058E-01  0.23701966738E-01  0.00000000000E+00 0. -1.
     999901    1    3    3    0    0  0.24765049565E-01  0.53424107950E-02 -0.13203657411E+00  0.89021093339E+00  0.88000000000E+00 0.  1.
        -11    1    4    4    0    0 -0.17592108241E-01 -0.13169705292E-01  0.55303371052E-01  0.59511741535E-01  0.51100000000E-03 0.  1.
         11    1    4    4    0    0 -0.27368269787E-01  0.88534055202E-02  0.64368776997E-01  0.70505358332E-01  0.51100000000E-03 0. -1.
</event>
<event>
 8    1  0.1146431E+005  0.1043930E+01  0.7957747E-01            NaN
         13   -1    0    0    0    0  0.00000000000E+00  0.00000000000E+00  0.74505805969E-08  0.10566000000E+00  0.10566000000E+00 0. -1.
     999900   -1    0    0    0    0 -0.00000000000E+00 -0.00000000000E+00 -0.74505805969E-08  0.93827000000E+00  0.93827000000E+00 0.  1.
     999902    2    1    2    0    0  0.78640341245E-02  0.11236930427E-02 -0.21074386485E-01  0.10214081110E+01  0.10211597787E+01 0.  0.
     999903    2    3    3    0    0 -0.21400763191E-01 -0.12784072590E+00  0.18134503994E-02  0.13123278961E+00  0.20433125135E-01 0.  0.
         14    1    1    2    0    0 -0.78640341245E-02 -0.11236930427E-02  0.21074386485E-01  0.22521889008E-01  0.00000000000E+00 0. -1.
     999901    1    3    3    0    0  0.29264797316E-01  0.12896441894E+00 -0.22887836885E-01  0.89017532138E+00  0.88000000000E+00 0.  1.
        -11    1    4    4    0    0 -0.20588789999E-01 -0.94123591418E-01 -0.62454581999E-02  0.96552657157E-01  0.51100000000E-03 0. -1.
         11    1    4    4    0    0 -0.81197319253E-03 -0.33717134484E-01  0.80589085993E-02  0.34680132455E-01  0.51100000000E-03 0.  1.
</event>
<event>
 8    1  0.1146431E+005  0.1043930E+01  0.7957747E-01            NaN
         13   -1    0    0    0    0  0.00000000000E+00  0.00000000000E+00  0.74505805969E-08  0.10566000000E+00  0.10566000000E+00 0.  1.
     999900   -1    0    0    0    0 -0.00000000000E+00 -0.00000000000E+00 -0.74505805969E-08  0.93827000000E+00  0.93827000000E+00 0. -1.
     999902    2    1    2    0    0 -0.15884710582E-01  0.68008538732E-02  0.16563621468E-01  0.10199940605E+01  0.10197131725E+01 0.  0.
     999903    2    3    3    0    0 -0.12851470740E+00  0.11913713738E-01 -0.15932686336E-01  0.13220598469E+00  0.23803472483E-01 0.  0.
         14    1    1    2    0    0  0.15884710582E-01 -0.68008538732E-02 -0.16563621468E-01  0.23935939501E-01  0.00000000000E+00 0. -1.
     999901    1    3    3    0    0  0.11262999682E+00 -0.51128598651E-02  0.32496307803E-01  0.88778807580E+00  0.88000000000E+00 0.  1.
        -11    1    4    4    0    0 -0.45758415258E-01  0.14368178736E-01 -0.39024495748E-03  0.47965514062E-01  0.51100000000E-03 0. -1.
         11    1    4    4    0    0 -0.82756292141E-01 -0.24544649980E-02 -0.15542441378E-01  0.84240470633E-01  0.51100000000E-03 0.  1.
</event>
<event>
 8    1  0.1146431E+005  0.1043930E+01  0.7957747E-01            NaN
         13   -1    0    0    0    0  0.00000000000E+00  0.00000000000E+00  0.74505805969E-08  0.10566000000E+00  0.10566000000E+00 0. -1.
     999900   -1    0    0    0    0 -0.00000000000E+00 -0.00000000000E+00 -0.74505805969E-08  0.93827000000E+00  0.93827000000E+00 0.  1.
     999902    2    1    2    0    0 -0.24229041749E-01 -0.81116343083E-02 -0.28232081598E-02  0.10182236665E+01  0.10178991205E+01 0.  0.
     999903    2    3    3    0    0 -0.65510796007E-02 -0.76787171457E-01 -0.10252414503E+00  0.12975919536E+00  0.19673894421E-01 0.  0.
         14    1    1    2    0    0  0.24229041749E-01  0.81116343083E-02  0.28232081598E-02  0.25706333452E-01  0.00000000000E+00 0. -1.
     999901    1    3    3    0    0 -0.17677962148E-01  0.68675537148E-01  0.99700936873E-01  0.88846447119E+00  0.88000000000E+00 0. -1.
        -11    1    4    4    0    0 -0.13265820896E-01 -0.59963836466E-01 -0.79409979969E-01  0.10038849400E+00  0.51100000000E-03 0.  1.
         11    1    4    4    0    0  0.67147412948E-02 -0.16823334991E-01 -0.23114165064E-01  0.29370701362E-01  0.51100000000E-03 0. -1.
</event>
<event>
 8    1  0.1146431E+005  0.1043930E+01  0.7957747E-01            NaN
         13   -1    0    0    0    0  0.00000000000E+00  0.00000000000E+00  0.74505805969E-08  0.10566000000E+00  0.10566000000E+00 0. -1.
     999900   -1    0    0    0    0 -0.00000000000E+00 -0.00000000000E+00 -0.74505805969E-08  0.93827000000E+00  0.93827000000E+00 0. -1.
     999902    2    1    2    0    0 -0.38166788674E-02 -0.33334002239E-02 -0.26214565288E-01  0.10172301493E+01  0.10168796854E+01 0.  0.
     999903    2    3    3    0    0  0.13574056148E-01  0.95640591264E-01 -0.82735843838E-01  0.12970947709E+00  0.25454879564E-01 0.  0.
         14    1    1    2    0    0  0.38166788674E-02  0.33334002239E-02  0.26214565288E-01  0.26699850709E-01  0.00000000000E+00 0. -1.
     999901    1    3    3    0    0 -0.17390735015E-01 -0.98973991488E-01  0.56521278550E-01  0.88752067220E+00  0.88000000000E+00 0.  1.
        -11    1    4    4    0    0 -0.52666792690E-02  0.48269514125E-01 -0.34906187964E-01  0.59802901130E-01  0.51100000000E-03 0.  1.
         11    1    4    4    0    0  0.18840735417E-01  0.47371077139E-01 -0.47829655874E-01  0.69906575960E-01  0.51100000000E-03 0. -1.
</event>
<event>
 8    1  0.1146431E+005  0.1043930E+01  0.7957747E-01            NaN
         13   -1    0    0    0    0  0.00000000000E+00  0.00000000000E+00  0.74505805969E-08  0.10566000000E+00  0.10566000000E+00 0.  1.
     999900   -1    0    0    0    0 -0.00000000000E+00 -0.00000000000E+00 -0.74505805969E-08  0.93827000000E+00  0.93827000000E+00 0. -1.
     999902    2    1    2    0    0 -0.13411667593E-01 -0.26424808141E-02 -0.10725820115E-01  0.10265547662E+01  0.10264077110E+01 0.  0.
     999903    2    3    3    0    0  0.15909335022E-01 -0.12024867040E+00 -0.60065927892E-01  0.13687764316E+00  0.20364769308E-01 0.  0.
         14    1    1    2    0    0  0.13411667593E-01  0.26424808141E-02  0.10725820115E-01  0.17375233800E-01  0.00000000000E+00 0.  1.
     999901    1    3    3    0    0 -0.29321002615E-01  0.11760618959E+00  0.49340107776E-01  0.88967712304E+00  0.88000000000E+00 0. -1.
        -11    1    4    4    0    0  0.70455439177E-03 -0.16075641664E-01 -0.16160866199E-01  0.22811342992E-01  0.51100000000E-03 0.  1.
         11    1    4    4    0    0  0.15204780630E-01 -0.10417302874E+00 -0.43905061692E-01  0.11406630017E+00  0.51100000000E-03 0. -1.
</event>
<event>
 8    1  0.1146431E+005  0.1043930E+01  0.7957747E-01            NaN
         13   -1    0    0    0    0  0.00000000000E+00  0.00000000000E+00  0.74505805969E-08  0.10566000000E+00  0.10566000000E+00 0.  1.
     999900   -1    0    0    0    0 -0.00000000000E+00 -0.00000000000E+00 -0.74505805969E-08  0.93827000000E+00  0.93827000000E+00 0. -1.
     999902    2    1    2    0    0  0.33961703234E-02  0.22647982951E-01  0.31747958494E-02  0.10208097830E+01  0.10205479257E+01 0.  0.
     999903    2    3    3    0    0  0.89315148187E-01 -0.85887377716E-01  0.31606166307E-01  0.12953522482E+00  0.20653991693E-01 0.  0.
         14    1    1    2    0    0 -0.33961703234E-02 -0.22647982951E-01 -0.31747958494E-02  0.23120216982E-01  0.00000000000E+00 0.  1.
     999901    1    3    3    0    0 -0.85918977864E-01  0.10853536067E+00 -0.28431370457E-01  0.89127455820E+00  0.88000000000E+00 0.  1.
        -11    1    4    4    0    0  0.53511956120E-01 -0.64683160131E-01  0.22935610266E-01  0.87027260049E-01  0.51100000000E-03 0. -1.
         11    1    4    4    0    0  0.35803192067E-01 -0.21204217585E-01  0.86705560406E-02  0.42507964767E-01  0.51100000000E-03 0.  1.
</event>
<event>
 8    1  0.1146431E+005  0.1043930E+01  0.7957747E-01            NaN
         13   -1    0    0    0    0  0.00000000000E+00  0.00000000000E+00  0.74505805969E-08  0.10566000000E+00  0.10566000000E+00 0.  1.
     999900   -1    0    0    0    0 -0.00000000000E+00 -0.00000000000E+00 -0.74505805969E-08  0.93827000000E+00  0.93827000000E+00 0.  1.
     999902    2    1    2    0    0 -0.13836670866E-01 -0.18982517307E-01  0.60290604077E-02  0.10196784229E+01  0.10193899877E+01 0.  0.
     999903    2    3    3    0    0 -0.67537450853E-01 -0.66631532544E-01 -0.89177231285E-01  0.13163650922E+00  0.19352611768E-01 0.  0.
         14    1    1    2    0    0  0.13836670866E-01  0.18982517307E-01 -0.60290604077E-02  0.24251577131E-01  0.00000000000E+00 0. -1.
     999901    1    3    3    0    0  0.53700779987E-01  0.47649015237E-01  0.95206291692E-01  0.88804191365E+00  0.88000000000E+00 0. -1.
        -11    1    4    4    0    0 -0.33357896634E-01 -0.45318894846E-01 -0.47087116231E-01  0.73375807551E-01  0.51100000000E-03 0.  1.
         11    1    4    4    0    0 -0.34179554220E-01 -0.21312637699E-01 -0.42090115054E-01  0.58260701665E-01  0.51100000000E-03 0. -1.
</event>
<event>
 8    1  0.1146431E+005  0.1043930E+01  0.7957747E-01            NaN
         13   -1    0    0    0    0  0.00000000000E+00  0.00000000000E+00  0.74505805969E-08  0.10566000000E+00  0.10566000000E+00 0.  1.
     999900   -1    0    0    0    0 -0.00000000000E+00 -0.00000000000E+00 -0.74505805969E-08  0.93827000000E+00  0.93827000000E+00 0.  1.
     999902    2    1    2    0    0 -0.11853486454E-02 -0.12152138147E-01  0.20933928141E-01  0.10196955439E+01  0.10194075208E+01 0.  0.
     999903    2    3    3    0    0  0.61893123703E-01  0.10618473480E+00 -0.29955380631E-01  0.12808339120E+00  0.20051773169E-01 0.  0.
         14    1    1    2    0    0  0.11853486454E-02  0.12152138147E-01 -0.20933928141E-01  0.24234456057E-01  0.00000000000E+00 0. -1.
     999901    1    3    3    0    0 -0.63078472349E-01 -0.11833687294E+00  0.50889308772E-01  0.89161215274E+00  0.88000000000E+00 0. -1.
        -11    1    4    4    0    0  0.14700861093E-01  0.39695833795E-01 -0.16544547075E-01  0.45451707299E-01  0.51100000000E-03 0.  1.
         11    1    4    4    0    0  0.47192262610E-01  0.66488901001E-01 -0.13410833556E-01  0.82631683901E-01  0.51100000000E-03 0. -1.
</event>
<event>
 8    1  0.1343506E+005  0.1043930E+01  0.7957747E-01            NaN
         13   -1    0    0    0    0  0.00000000000E+00  0.00000000000E+00  0.74505805969E-08  0.10566000000E+00  0.10566000000E+00 0.  1.
     999900   -1    0    0    0    0 -0.00000000000E+00 -0.00000000000E+00 -0.74505805969E-08  0.93827000000E+00  0.93827000000E+00 0.  1.
     999902    2    1    2    0    0 -0.14330078315E-01 -0.17136787394E-01 -0.55778417536E-02  0.10209053839E+01  0.10206457123E+01 0.  0.
     999903    2    3    3    0    0 -0.94457209093E-02 -0.13226530752E+00 -0.72967325997E-03  0.13337964468E+00  0.14361893128E-01 0.  0.
         14    1    1    2    0    0  0.14330078315E-01  0.17136787394E-01  0.55778417536E-02  0.23024616073E-01  0.00000000000E+00 0.  1.
     999901    1    3    3    0    0 -0.48843574053E-02  0.11512852013E+00 -0.48481684936E-02  0.88752573925E+00  0.88000000000E+00 0.  1.
        -11    1    4    4    0    0  0.17179039143E-02 -0.66669216028E-01  0.27233693256E-02  0.66748883295E-01  0.51100000000E-03 0. -1.
         11    1    4    4    0    0 -0.11163624824E-01 -0.65596091492E-01 -0.34530425856E-02  0.66630761381E-01  0.51100000000E-03 0.  1.
</event>
<event>
 8    1  0.1146431E+005  0.1043930E+01  0.7957747E-01            NaN
         13   -1    0    0    0    0  0.00000000000E+00  0.00000000000E+00  0.74505805969E-08  0.10566000000E+00  0.10566000000E+00 0. -1.
     999900   -1    0    0    0    0 -0.00000000000E+00 -0.00000000000E+00 -0.74505805969E-08  0.93827000000E+00  0.93827000000E+00 0. -1.
     999902    2    1    2    0    0  0.16674662492E-02 -0.67892030049E-02  0.22542868617E-01  0.10203279949E+01  0.10200549801E+01 0.  0.
     999903    2    3    3    0    0  0.85049999230E-01  0.53184113654E-01  0.83770175883E-01  0.13224115864E+00  0.20204686489E-01 0.  0.
         14    1    1    2    0    0 -0.16674662492E-02  0.67892030049E-02 -0.22542868617E-01  0.23602005140E-01  0.00000000000E+00 0.  1.
     999901    1    3    3    0    0 -0.83382532981E-01 -0.59973316659E-01 -0.61227307265E-01  0.88808683622E+00  0.88000000000E+00 0.  1.
        -11    1    4    4    0    0  0.52645833644E-01  0.28887496866E-01  0.61758572449E-01  0.86142055159E-01  0.51100000000E-03 0. -1.
         11    1    4    4    0    0  0.32404165586E-01  0.24296616788E-01  0.22011603434E-01  0.46099103478E-01  0.51100000000E-03 0.  1.
</event>
<event>
 8    1  0.1146431E+005  0.1043930E+01  0.7957747E-01            NaN
         13   -1    0    0    0    0  0.00000000000E+00  0.00000000000E+00  0.74505805969E-08  0.10566000000E+00  0.10566000000E+00 0. -1.
     999900   -1    0    0    0    0 -0.00000000000E+00 -0.00000000000E+00 -0.74505805969E-08  0.93827000000E+00  0.93827000000E+00 0. -1.
     999902    2    1    2    0    0  0.16205910389E-01  0.16984087051E-01  0.62840586076E-02  0.10196281454E+01  0.10193384986E+01 0.  0.
     999903    2    3    3    0    0  0.30222604710E-01  0.12148097083E+00  0.41065169062E-01  0.13265250194E+00  0.15469520113E-01 0.  0.
         14    1    1    2    0    0 -0.16205910389E-01 -0.16984087051E-01 -0.62840586076E-02  0.24301854602E-01  0.00000000000E+00 0.  1.
     999901    1    3    3    0    0 -0.14016694321E-01 -0.10449688378E+00 -0.34781110454E-01  0.88697564346E+00  0.88000000000E+00 0.  1.
        -11    1    4    4    0    0  0.15950557970E-01  0.71242386992E-01  0.16093076822E-01  0.74760592871E-01  0.51100000000E-03 0. -1.
         11    1    4    4    0    0  0.14272046740E-01  0.50238583838E-01  0.24972092239E-01  0.57891909072E-01  0.51100000000E-03 0.  1.
</event>
<event>
 8    1  0.1146431E+005  0.1043930E+01  0.7957747E-01            NaN
         13   -1    0    0    0    0  0.00000000000E+00  0.00000000000E+00  0.74505805969E-08  0.10566000000E+00  0.10566000000E+00 0.  1.
     999900   -1    0    0    0    0 -0.00000000000E+00 -0.00000000000E+00 -0.74505805969E-08  0.93827000000E+00  0.93827000000E+00 0.  1.
     999902    2    1    2    0    0 -0.80084548196E-02 -0.17077374793E-01 -0.15304017106E-01  0.10196403928E+01  0.10193510414E+01 0.  0.
     999903    2    3    3    0    0 -0.10728523347E+00 -0.36578633410E-01  0.62384784608E-01  0.13044315496E+00  0.16596312321E-01 0.  0.
         14    1    1    2    0    0  0.80084548196E-02  0.17077374793E-01  0.15304017106E-01  0.24289607201E-01  0.00000000000E+00 0.  1.
     999901    1    3    3    0    0  0.99276778650E-01  0.19501258617E-01 -0.77688801715E-01  0.88919723784E+00  0.88000000000E+00 0.  1.
        -11    1    4    4    0    0 -0.81937966651E-01 -0.24106392066E-01  0.53673703158E-01  0.10087653865E+00  0.51100000000E-03 0.  1.
         11    1    4    4    0    0 -0.25347266818E-01 -0.12472241343E-01  0.87110814505E-02  0.29566616315E-01  0.51100000000E-03 0. -1.
</event>
<event>
 8    1  0.1146431E+005  0.1043930E+01  0.7957747E-01            NaN
         13   -1    0    0    0    0  0.00000000000E+00  0.00000000000E+00  0.74505805969E-08  0.10566000000E+00  0.10566000000E+00 0.  1.
     999900   -1    0    0    0    0 -0.00000000000E+00 -0.00000000000E+00 -0.74505805969E-08  0.93827000000E+00  0.93827000000E+00 0.  1.
     999902    2    1    2    0    0  0.20633656924E-01 -0.14419152943E-02 -0.12007317576E-01  0.10200134243E+01  0.10197329960E+01 0.  0.
     999903    2    3    3    0    0 -0.33174164186E-02 -0.12069792310E+00 -0.46429550879E-01  0.13097993817E+00  0.20519432670E-01 0.  0.
         14    1    1    2    0    0 -0.20633656924E-01  0.14419152943E-02  0.12007317576E-01  0.23916575699E-01  0.00000000000E+00 0.  1.
     999901    1    3    3    0    0  0.23951073343E-01  0.11925600780E+00  0.34422233303E-01  0.88903348613E+00  0.88000000000E+00 0. -1.
        -11    1    4    4    0    0  0.86232149355E-02 -0.54741704601E-01 -0.19690389301E-01  0.58813149978E-01  0.51100000000E-03 0.  1.
         11    1    4    4    0    0 -0.11940631354E-01 -0.65956218497E-01 -0.26739161579E-01  0.72166788195E-01  0.51100000000E-03 0. -1.
</event>
<event>
 8    1  0.1146431E+005  0.1043930E+01  0.7957747E-01            NaN
         13   -1    0    0    0    0  0.00000000000E+00  0.00000000000E+00  0.74505805969E-08  0.10566000000E+00  0.10566000000E+00 0.  1.
     999900   -1    0    0    0    0 -0.00000000000E+00 -0.00000000000E+00 -0.74505805969E-08  0.93827000000E+00  0.93827000000E+00 0.  1.
     999902    2    1    2    0    0  0.17701844439E-01 -0.97673544001E-02  0.11891843679E-01  0.10204742447E+01  0.10202046421E+01 0.  0.
     999903    2    3    3    0    0  0.80902818166E-01 -0.10981861515E-01  0.10372893242E+00  0.13343992242E+00  0.19510361485E-01 0.  0.
         14    1    1    2    0    0 -0.17701844439E-01  0.97673544001E-02 -0.11891843679E-01  0.23455755256E-01  0.00000000000E+00 0. -1.
     999901    1    3    3    0    0 -0.63200973726E-01  0.12145071145E-02 -0.91837088743E-01  0.88703432232E+00  0.88000000000E+00 0.  1.
        -11    1    4    4    0    0  0.23939379259E-01 -0.82834110244E-02  0.44569760981E-01  0.51268250335E-01  0.51100000000E-03 0. -1.
         11    1    4    4    0    0  0.56963438906E-01 -0.26984504902E-02  0.59159171441E-01  0.82171672088E-01  0.51100000000E-03 0.  1.
</event>
<event>
 8    1  0.1146431E+005  0.1043930E+01  0.7957747E-01            NaN
         13   -1    0    0    0    0  0.00000000000E+00  0.00000000000E+00  0.74505805969E-08  0.10566000000E+00  0.10566000000E+00 0. -1.
     999900   -1    0    0    0    0 -0.00000000000E+00 -0.00000000000E+00 -0.74505805969E-08  0.93827000000E+00  0.93827000000E+00 0.  1.
     999902    2    1    2    0    0 -0.18853731043E-01  0.14533951527E-01  0.30869858499E-02  0.10199252421E+01  0.10196427173E+01 0.  0.
     999903    2    3    3    0    0 -0.10651807726E+00  0.22594263802E-01  0.73102166454E-01  0.13276565568E+00  0.20644395064E-01 0.  0.
         14    1    1    2    0    0  0.18853731043E-01 -0.14533951527E-01 -0.30869858499E-02  0.24004757921E-01  0.00000000000E+00 0.  1.
     999901    1    3    3    0    0  0.87664346214E-01 -0.80603122754E-02 -0.70015180604E-01  0.88715958640E+00  0.88000000000E+00 0.  1.
        -11    1    4    4    0    0 -0.35146372032E-01 -0.22723519065E-02  0.24503838175E-01  0.42908393777E-01  0.51100000000E-03 0. -1.
         11    1    4    4    0    0 -0.71371705225E-01  0.24866615709E-01  0.48598328279E-01  0.89857261899E-01  0.51100000000E-03 0.  1.
</event>
<event>
 8    1  0.1146431E+005  0.1043930E+01  0.7957747E-01            NaN
         13   -1    0    0    0    0  0.00000000000E+00  0.00000000000E+00  0.74505805969E-08  0.10566000000E+00  0.10566000000E+00 0.  1.
     999900   -1    0    0    0    0 -0.00000000000E+00 -0.00000000000E+00 -0.74505805969E-08  0.93827000000E+00  0.93827000000E+00 0.  1.
     999902    2    1    2    0    0 -0.21452416715E-01 -0.89668417373E-02 -0.32474578586E-02  0.10204532793E+01  0.10201831888E+01 0.  0.
     999903    2    3    3    0    0  0.29384038974E-01 -0.54392688086E-01 -0.11361933266E+00  0.13094228806E+00  0.20360348303E-01 0.  0.
         14    1    1    2    0    0  0.21452416715E-01  0.89668417373E-02  0.32474578586E-02  0.23476720729E-01  0.00000000000E+00 0. -1.
     999901    1    3    3    0    0 -0.50836455690E-01  0.45425846349E-01  0.11037187480E+00  0.88951099121E+00  0.88000000000E+00 0. -1.
        -11    1    4    4    0    0 -0.11366815928E-02 -0.15959672812E-01 -0.27839802923E-01  0.32114154965E-01  0.51100000000E-03 0. -1.
         11    1    4    4    0    0  0.30520720567E-01 -0.38433015275E-01 -0.85779529739E-01  0.98828133091E-01  0.51100000000E-03 0.  1.
</event>
<event>
 8    1  0.1146431E+005  0.1043930E+01  0.7957747E-01            NaN
         13   -1    0    0    0    0  0.00000000000E+00  0.00000000000E+00  0.74505805969E-08  0.10566000000E+00  0.10566000000E+00 0.  1.
     999900   -1    0    0    0    0 -0.00000000000E+00 -0.00000000000E+00 -0.74505805969E-08  0.93827000000E+00  0.93827000000E+00 0. -1.
     999902    2    1    2    0    0 -0.24235068092E-01 -0.36689829160E-02  0.12613147047E-01  0.10163638715E+01  0.10159899743E+01 0.  0.
     999903    2    3    3    0    0  0.39335372952E-01 -0.55622871924E-01 -0.10290403888E+00  0.12502519974E+00  0.20022085493E-01 0.  0.
         14    1    1    2    0    0  0.24235068092E-01  0.36689829160E-02 -0.12613147047E-01  0.27566128482E-01  0.00000000000E+00 0. -1.
     999901    1    3    3    0    0 -0.63570441044E-01  0.51953889008E-01  0.11551718592E+00  0.89133867177E+00  0.88000000000E+00 0.  1.
        -11    1    4    4    0    0  0.24240174076E-01 -0.34734316983E-01 -0.45872469435E-01  0.62438797142E-01  0.51100000000E-03 0. -1.
         11    1    4    4    0    0  0.15095198876E-01 -0.20888554941E-01 -0.57031569441E-01  0.62586402601E-01  0.51100000000E-03 0.  1.
</event>
<event>
 8    1  0.1146431E+005  0.1043930E+01  0.7957747E-01            NaN
         13   -1    0    0    0    0  0.00000000000E+00  0.00000000000E+00  0.74505805969E-08  0.10566000000E+00  0.10566000000E+00 0.  1.
     999900   -1    0    0    0    0 -0.00000000000E+00 -0.00000000000E+00 -0.74505805969E-08  0.93827000000E+00  0.93827000000E+00 0. -1.
     999902    2    1    2    0    0  0.13032354824E-01  0.15588218124E-01 -0.11860640525E-01  0.10204032150E+01  0.10201319580E+01 0.  0.
     999903    2    3    3    0    0  0.12429041991E+00  0.38710559712E-01 -0.18860435587E-01  0.13306900695E+00  0.20125323979E-01 0.  0.
         14    1    1    2    0    0 -0.13032354824E-01 -0.15588218124E-01  0.11860640525E-01  0.23526784953E-01  0.00000000000E+00 0.  1.
     999901    1    3    3    0    0 -0.11125806509E+00 -0.23122341588E-01  0.69997950619E-02  0.88733420810E+00  0.88000000000E+00 0.  1.
        -11    1    4    4    0    0  0.51185638009E-01  0.22540425019E-01 -0.31156174912E-03  0.55932088197E-01  0.51100000000E-03 0.  1.
         11    1    4    4    0    0  0.73104781903E-01  0.16170134692E-01 -0.18548873838E-01  0.77136918753E-01  0.51100000000E-03 0. -1.
</event>
<event>
 8    1  0.1146431E+005  0.1043930E+01  0.7957747E-01            NaN
         13   -1    0    0    0    0  0.00000000000E+00  0.00000000000E+00  0.74505805969E-08  0.10566000000E+00  0.10566000000E+00 0. -1.
     999900   -1    0    0    0    0 -0.00000000000E+00 -0.00000000000E+00 -0.74505805969E-08  0.93827000000E+00  0.93827000000E+00 0. -1.
     999902    2    1    2    0    0  0.22463866357E-01 -0.60302269050E-02  0.38424772274E-02  0.10203555740E+01  0.10200832044E+01 0.  0.
     999903    2    3    3    0    0  0.44884564792E-01  0.84519721218E-01  0.87537662303E-01  0.13147601818E+00  0.21561391481E-01 0.  0.
         14    1    1    2    0    0 -0.22463866357E-01  0.60302269050E-02 -0.38424772274E-02  0.23574425963E-01  0.00000000000E+00 0.  1.
     999901    1    3    3    0    0 -0.22420698435E-01 -0.90549948123E-01 -0.83695185075E-01  0.88887955586E+00  0.88000000000E+00 0. -1.
        -11    1    4    4    0    0  0.18216023373E-01  0.48931098132E-01  0.58236100459E-01  0.78216241213E-01  0.51100000000E-03 0.  1.
         11    1    4    4    0    0  0.26668541419E-01  0.35588623086E-01  0.29301561844E-01  0.53259776962E-01  0.51100000000E-03 0. -1.
</event>
<event>
 8    1  0.1146431E+005  0.1043930E+01  0.7957747E-01            NaN
         13   -1    0    0    0    0  0.00000000000E+00  0.00000000000E+00  0.74505805969E-08  0.10566000000E+00  0.10566000000E+00 0. -1.
     999900   -1    0    0    0    0 -0.00000000000E+00 -0.00000000000E+00 -0.74505805969E-08  0.93827000000E+00  0.93827000000E+00 0. -1.
     999902    2    1    2    0    0  0.91565275166E-02  0.21098314577E-01 -0.18282438243E-02  0.10208578664E+01  0.10205971095E+01 0.  0.
     999903    2    3    3    0    0  0.10578400517E+00  0.50513921582E-01  0.59286007433E-01  0.13297437229E+00  0.20626220832E-01 0.  0.
         14    1    1    2    0    0 -0.91565275166E-02 -0.21098314577E-01  0.18282438243E-02  0.23072133617E-01  0.00000000000E+00 0. -1.
     999901    1    3    3    0    0 -0.96627477653E-01 -0.29415607004E-01 -0.61114251257E-01  0.88788349409E+00  0.88000000000E+00 0.  1.
        -11    1    4    4    0    0  0.76659719863E-01  0.40186067202E-01  0.52820875958E-01  0.10139989499E+00  0.51100000000E-03 0.  1.
         11    1    4    4    0    0  0.29124285306E-01  0.10327854380E-01  0.64651314746E-02  0.31574477298E-01  0.51100000000E-03 0. -1.
</event>
<event>
 8    1  0.1146431E+005  0.1043930E+01  0.7957747E-01            NaN
         13   -1    0    0    0    0  0.00000000000E+00  0.00000000000E+00  0.74505805969E-08  0.10566000000E+00  0.10566000000E+00 0. -1.
     999900   -1    0    0    0    0 -0.00000000000E+00 -0.00000000000E+00 -0.74505805969E-08  0.93827000000E+00  0.93827000000E+00 0.  1.
     999902    2    1    2    0    0 -0.12790062688E-01  0.17196030592E-01  0.11691340943E-01  0.10195173675E+01  0.10192250419E+01 0.  0.
     999903    2    3    3    0    0  0.69293880518E-02 -0.12398829451E+00 -0.19935898684E-01  0.12748477132E+00  0.20828184490E-01 0.  0.
         14    1    1    2    0    0  0.12790062688E-01 -0.17196030592E-01 -0.11691340943E-01  0.24412632483E-01  0.00000000000E+00 0. -1.
     999901    1    3    3    0    0 -0.19719450740E-01  0.14118432510E+00  0.31627239627E-01  0.89203259620E+00  0.88000000000E+00 0. -1.
        -11    1    4    4    0    0 -0.24330667171E-02 -0.83252011840E-01 -0.63495022546E-02  0.83530800241E-01  0.51100000000E-03 0. -1.
         11    1    4    4    0    0  0.93624547689E-02 -0.40736282666E-01 -0.13586396429E-01  0.43953971079E-01  0.51100000000E-03 0.  1.
</event>
<event>
 8    1  0.1146431E+005  0.1043930E+01  0.7957747E-01            NaN
         13   -1    0    0    0    0  0.00000000000E+00  0.00000000000E+00  0.74505805969E-08  0.10566000000E+00  0.10566000000E+00 0. -1.
     999900   -1    0    0    0    0 -0.00000000000E+00 -0.00000000000E+00 -0.74505805969E-08  0.93827000000E+00  0.93827000000E+00 0.  1.
     999902    2    1    2    0    0  0.98428719231E-02 -0.43543519058E-02 -0.21487134651E-01  0.10198979492E+01  0.10196147740E+01 0.  0.
     999903    2    3    3    0    0 -0.10423418562E+00  0.31642486098E-01  0.63603380053E-01  0.12773779372E+00  0.20138063770E-01 0.  0.
         14    1    1    2    0    0 -0.98428719231E-02  0.43543519058E-02  0.21487134651E-01  0.24032050760E-01  0.00000000000E+00 0. -1.
     999901    1    3    3    0    0  0.11407705754E+00 -0.35996838004E-01 -0.85090514705E-01  0.89216015552E+00  0.88000000000E+00 0.  1.
        -11    1    4    4    0    0 -0.70133837508E-01  0.30575574062E-01  0.40931349107E-01  0.86771293373E-01  0.51100000000E-03 0. -1.
         11    1    4    4    0    0 -0.34100348109E-01  0.10669120360E-02  0.22672030946E-01  0.40966500347E-01  0.51100000000E-03 0.  1.
</event>
<event>
 8    1  0.1146431E+005  0.1043930E+01  0.7957747E-01            NaN
         13   -1    0    0    0    0  0.00000000000E+00  0.00000000000E+00  0.74505805969E-08  0.10566000000E+00  0.10566000000E+00 0.  1.
     999900   -1    0    0    0    0 -0.00000000000E+00 -0.00000000000E+00 -0.74505805969E-08  0.93827000000E+00  0.93827000000E+00 0. -1.
     999902    2    1    2    0    0  0.14423188868E-01 -0.16068427430E-01  0.95833015050E-02  0.10203066555E+01  0.10200331411E+01 0.  0.
     999903    2    3    3    0    0 -0.12182732704E-01 -0.27592360673E-02  0.12958842043E+00  0.13166373611E+00  0.19650657379E-01 0.  0.
         14    1    1    2    0    0 -0.14423188868E-01  0.16068427430E-01 -0.95833015050E-02  0.23623344491E-01  0.00000000000E+00 0. -1.
     999901    1    3    3    0    0  0.26605921571E-01 -0.13309191363E-01 -0.12000511893E+00  0.88864291940E+00  0.88000000000E+00 0. -1.
        -11    1    4    4    0    0  0.37184303702E-02 -0.18185701092E-02  0.78742761976E-02  0.89106267062E-02  0.51100000000E-03 0.  1.
         11    1    4    4    0    0 -0.15901163074E-01 -0.94066595812E-03  0.12171414423E+00  0.12275310940E+00  0.51100000000E-03 0. -1.
</event>
<event>
 8    1  0.1146431E+005  0.1043930E+01  0.7957747E-01            NaN
         13   -1    0    0    0    0  0.00000000000E+00  0.00000000000E+00  0.74505805969E-08  0.10566000000E+00  0.10566000000E+00 0.  1.
     999900   -1    0    0    0    0 -0.00000000000E+00 -0.00000000000E+00 -0.74505805969E-08  0.93827000000E+00  0.93827000000E+00 0. -1.
     999902    2    1    2    0    0 -0.10564713170E-01 -0.15159755167E-01  0.14919463761E-01  0.10201808581E+01  0.10199043884E+01 0.  0.
     999903    2    3    3    0    0 -0.63216964671E-01  0.84109072589E-01 -0.71621389862E-01  0.12882465598E+00  0.19885869055E-01 0.  0.
         14    1    1    2    0    0  0.10564713170E-01  0.15159755167E-01 -0.14919463761E-01  0.23749141879E-01  0.00000000000E+00 0. -1.
     999901    1    3    3    0    0  0.52652251501E-01 -0.99268827757E-01  0.86540853623E-01  0.89135620214E+00  0.88000000000E+00 0.  1.
        -11    1    4    4    0    0 -0.54042706751E-01  0.67191704675E-01 -0.66527379009E-01  0.10891047979E+00  0.51100000000E-03 0. -1.
         11    1    4    4    0    0 -0.91742579198E-02  0.16917367915E-01 -0.50940108531E-02  0.19914176185E-01  0.51100000000E-03 0.  1.
</event>
<event>
 8    1  0.1146431E+005  0.1043930E+01  0.7957747E-01            NaN
         13   -1    0    0    0    0  0.00000000000E+00  0.00000000000E+00  0.74505805969E-08  0.10566000000E+00  0.10566000000E+00 0.  1.
     999900   -1    0    0    0    0 -0.00000000000E+00 -0.00000000000E+00 -0.74505805969E-08  0.93827000000E+00  0.93827000000E+00 0. -1.
     999902    2    1    2    0    0 -0.21445192237E-01  0.61798675827E-02 -0.10228615102E-01  0.10193798147E+01  0.10190841452E+01 0.  0.
     999903    2    3    3    0    0  0.64382968061E-01  0.10993280898E+00 -0.68245800393E-02  0.12913112277E+00  0.19947002514E-01 0.  0.
         14    1    1    2    0    0  0.21445192237E-01 -0.61798675827E-02  0.10228615102E-01  0.24550185342E-01  0.00000000000E+00 0.  1.
     999901    1    3    3    0    0 -0.85828160299E-01 -0.10375294140E+00 -0.34040350628E-02  0.89024869189E+00  0.88000000000E+00 0.  1.
        -11    1    4    4    0    0  0.95667919793E-02  0.14730990854E-01  0.59086093182E-02  0.18539104223E-01  0.51100000000E-03 0.  1.
         11    1    4    4    0    0  0.54816176082E-01  0.95201818126E-01 -0.12733189357E-01  0.11059201855E+00  0.51100000000E-03 0. -1.
</event>
<event>
 8    1  0.1146431E+005  0.1043930E+01  0.7957747E-01            NaN
         13   -1    0    0    0    0  0.00000000000E+00  0.00000000000E+00  0.74505805969E-08  0.10566000000E+00  0.10566000000E+00 0.  1.
     999900   -1    0    0    0    0 -0.00000000000E+00 -0.00000000000E+00 -0.74505805969E-08  0.93827000000E+00  0.93827000000E+00 0. -1.
     999902    2    1    2    0    0 -0.46550489239E-02 -0.22785960402E-01 -0.54837055354E-02  0.10200356388E+01  0.10197557374E+01 0.  0.
     999903    2    3    3    0    0 -0.59813369936E-01  0.10500044157E+00 -0.38713719230E-01  0.12847743051E+00  0.20123770572E-01 0.  0.
         14    1    1    2    0    0  0.46550489239E-02  0.22785960402E-01  0.54837055354E-02  0.23894361225E-01  0.00000000000E+00 0.  1.
     999901    1    3    3    0    0  0.55158321012E-01 -0.12778640197E+00  0.33230013694E-01  0.89155820826E+00  0.88000000000E+00 0.  1.
        -11    1    4    4    0    0 -0.39119371289E-01  0.81650391412E-01 -0.22415377319E-01  0.93272835751E-01  0.51100000000E-03 0. -1.
         11    1    4    4    0    0 -0.20693998647E-01  0.23350050158E-01 -0.16298341911E-01  0.35204594764E-01  0.51100000000E-03 0.  1.
</event>
<event>
 8    1  0.1146431E+005  0.1043930E+01  0.7957747E-01            NaN
         13   -1    0    0    0    0  0.00000000000E+00  0.00000000000E+00  0.74505805969E-08  0.10566000000E+00  0.10566000000E+00 0.  1.
     999900   -1    0    0    0    0 -0.00000000000E+00 -0.00000000000E+00 -0.74505805969E-08  0.93827000000E+00  0.93827000000E+00 0.  1.
     999902    2    1    2    0    0 -0.19887218993E-01 -0.30786244100E-02 -0.10521653229E-01  0.10212213102E+01  0.10209687947E+01 0.  0.
     999903    2    3    3    0    0 -0.88680835720E-01 -0.94836456770E-01 -0.24786858463E-01  0.13366536399E+00  0.19844319634E-01 0.  0.
         14    1    1    2    0    0  0.19887218993E-01  0.30786244100E-02  0.10521653229E-01  0.22708689839E-01  0.00000000000E+00 0.  1.
     999901    1    3    3    0    0  0.68793616727E-01  0.91757832360E-01  0.14265205234E-01  0.88755594617E+00  0.88000000000E+00 0.  1.
        -11    1    4    4    0    0 -0.37676419454E-01 -0.30365300819E-01 -0.23472556848E-02  0.48449301408E-01  0.51100000000E-03 0. -1.
         11    1    4    4    0    0 -0.51004416266E-01 -0.64471155951E-01 -0.22439602779E-01  0.85216062583E-01  0.51100000000E-03 0.  1.
</event>
<event>
 8    1  0.1146431E+005  0.1043930E+01  0.7957747E-01            NaN
         13   -1    0    0    0    0  0.00000000000E+00  0.00000000000E+00  0.74505805969E-08  0.10566000000E+00  0.10566000000E+00 0.  1.
     999900   -1    0    0    0    0 -0.00000000000E+00 -0.00000000000E+00 -0.74505805969E-08  0.93827000000E+00  0.93827000000E+00 0.  1.
     999902    2    1    2    0    0  0.22725867421E-01  0.38439995828E-02 -0.47049722754E-02  0.10204060091E+01  0.10201348172E+01 0.  0.
     999903    2    3    3    0    0  0.86522267613E-01 -0.38711380644E-01 -0.92058307383E-01  0.13276219192E+00  0.12899374412E-01 0.  0.
         14    1    1    2    0    0 -0.22725867421E-01 -0.38439995828E-02  0.47049722754E-02  0.23523990880E-01  0.00000000000E+00 0.  1.
     999901    1    3    3    0    0 -0.63796400192E-01  0.42555380227E-01  0.87353335107E-01  0.88764381720E+00  0.88000000000E+00 0. -1.
        -11    1    4    4    0    0  0.36292852826E-01 -0.19490191987E-01 -0.47842752499E-01  0.63136588739E-01  0.51100000000E-03 0. -1.
         11    1    4    4    0    0  0.50229414787E-01 -0.19221188657E-01 -0.44215554884E-01  0.69625603178E-01  0.51100000000E-03 0.  1.
</event>
<event>
 8    1  0.1146431E+005  0.1043930E+01  0.7957747E-01            NaN
         13   -1    0    0    0    0  0.00000000000E+00  0.00000000000E+00  0.74505805969E-08  0.10566000000E+00  0.10566000000E+00 0. -1.
     999900   -1    0    0    0    0 -0.00000000000E+00 -0.00000000000E+00 -0.74505805969E-08  0.93827000000E+00  0.93827000000E+00 0. -1.
     999902    2    1    2    0    0  0.74461291921E-02 -0.13308319979E-01  0.18170228315E-01  0.10202084187E+01  0.10199325979E+01 0.  0.
     999903    2    3    3    0    0 -0.10721166463E+00  0.27562492665E-01 -0.61593627716E-01  0.12825600647E+00  0.20044854375E-01 0.  0.
         14    1    1    2    0    0 -0.74461291921E-02  0.13308319979E-01 -0.18170228315E-01  0.23721581263E-01  0.00000000000E+00 0.  1.
     999901    1    3    3    0    0  0.11465779382E+00 -0.40870812644E-01  0.79763856032E-01  0.89195241226E+00  0.88000000000E+00 0.  1.
        -11    1    4    4    0    0 -0.77072655060E-01  0.28922932459E-01 -0.45377053849E-01  0.94000363388E-01  0.51100000000E-03 0.  1.
         11    1    4    4    0    0 -0.30139009571E-01 -0.13604397938E-02 -0.16216573867E-01  0.34255643087E-01  0.51100000000E-03 0. -1.
</event>
<event>
 8    1  0.1146431E+005  0.1043930E+01  0.7957747E-01            NaN
         13   -1    0    0    0    0  0.00000000000E+00  0.00000000000E+00  0.74505805969E-08  0.10566000000E+00  0.10566000000E+00 0.  1.
     999900   -1    0    0    0    0 -0.00000000000E+00 -0.00000000000E+00 -0.74505805969E-08  0.93827000000E+00  0.93827000000E+00 0.  1.
     999902    2    1    2    0    0  0.22619435715E-01  0.20766321883E-02 -0.76717032204E-02  0.10199548816E+01  0.10196730624E+01 0.  0.
     999903    2    3    3    0    0  0.10258857717E+00 -0.70433918770E-01  0.38412571976E-01  0.13216177279E+00  0.22491229893E-01 0.  0.
         14    1    1    2    0    0 -0.22619435715E-01 -0.20766321883E-02  0.76717032204E-02  0.23975118427E-01  0.00000000000E+00 0.  1.
     999901    1    3    3    0    0 -0.79969141453E-01  0.72510550958E-01 -0.46084275196E-01  0.88779310878E+00  0.88000000000E+00 0.  1.
        -11    1    4    4    0    0  0.74888724763E-01 -0.61687339891E-01  0.33807698610E-01  0.10274663306E+00  0.51100000000E-03 0. -1.
         11    1    4    4    0    0  0.27699852405E-01 -0.87465788792E-02  0.46048733653E-02  0.29415139725E-01  0.51100000000E-03 0.  1.
</event>
<event>
 8    1  0.1146431E+005  0.1043930E+01  0.7957747E-01            NaN
         13   -1    0    0    0    0  0.00000000000E+00  0.00000000000E+00  0.74505805969E-08  0.10566000000E+00  0.10566000000E+00 0.  1.
     999900   -1    0    0    0    0 -0.00000000000E+00 -0.00000000000E+00 -0.74505805969E-08  0.93827000000E+00  0.93827000000E+00 0.  1.
     999902    2    1    2    0    0 -0.71982618847E-02  0.23402592271E-01 -0.70282239005E-02  0.10184566368E+01  0.10181380206E+01 0.  0.
     999903    2    3    3    0    0  0.84026224348E-01  0.56737045871E-01  0.76530632550E-01  0.12917874149E+00  0.23467227808E-01 0.  0.
         14    1    1    2    0    0  0.71982618847E-02 -0.23402592271E-01  0.70282239005E-02  0.25473363154E-01  0.00000000000E+00 0.  1.
     999901    1    3    3    0    0 -0.91224486233E-01 -0.33334453600E-01 -0.83558856451E-01  0.88927789536E+00  0.88000000000E+00 0. -1.
        -11    1    4    4    0    0  0.13037610379E-01  0.15145754761E-01  0.25343040263E-01  0.32278537489E-01  0.51100000000E-03 0.  1.
         11    1    4    4    0    0  0.70988613969E-01  0.41591291110E-01  0.51187592288E-01  0.96900203997E-01  0.51100000000E-03 0. -1.
</event>
<event>
 8    1  0.1146431E+005  0.1043930E+01  0.7957747E-01            NaN
         13   -1    0    0    0    0  0.00000000000E+00  0.00000000000E+00  0.74505805969E-08  0.10566000000E+00  0.10566000000E+00 0. -1.
     999900   -1    0    0    0    0 -0.00000000000E+00 -0.00000000000E+00 -0.74505805969E-08  0.93827000000E+00  0.93827000000E+00 0. -1.
     999902    2    1    2    0    0  0.32903279655E-02  0.10802509820E-01  0.20517973537E-01  0.10205097584E+01  0.10202409810E+01 0.  0.
     999903    2    3    3    0    0 -0.50207913050E-02  0.41004840780E-01 -0.12039144159E+00  0.12874929802E+00  0.19382394586E-01 0.  0.
         14    1    1    2    0    0 -0.32903279655E-02 -0.10802509820E-01 -0.20517973537E-01  0.23420241558E-01  0.00000000000E+00 0.  1.
     999901    1    3    3    0    0  0.83111192705E-02 -0.30202330959E-01  0.14090941513E+00  0.89176046042E+00  0.88000000000E+00 0.  1.
        -11    1    4    4    0    0 -0.80259397898E-02  0.41362704967E-01 -0.10671978875E+00  0.11473736751E+00  0.51100000000E-03 0.  1.
         11    1    4    4    0    0  0.30051484848E-02 -0.35786418758E-03 -0.13671652841E-01  0.14011930509E-01  0.51100000000E-03 0. -1.
</event>
<event>
 8    1  0.1146431E+005  0.1043930E+01  0.7957747E-01            NaN
         13   -1    0    0    0    0  0.00000000000E+00  0.00000000000E+00  0.74505805969E-08  0.10566000000E+00  0.10566000000E+00 0.  1.
     999900   -1    0    0    0    0 -0.00000000000E+00 -0.00000000000E+00 -0.74505805969E-08  0.93827000000E+00  0.93827000000E+00 0.  1.
     999902    2    1    2    0    0  0.20898863405E-01  0.25222782669E-02  0.11040298743E-01  0.10201600068E+01  0.10198830457E+01 0.  0.
     999903    2    3    3    0    0  0.49452376435E-01 -0.98639873227E-01 -0.66783799417E-01  0.13049396035E+00  0.19830171377E-01 0.  0.
         14    1    1    2    0    0 -0.20898863405E-01 -0.25222782669E-02 -0.11040298743E-01  0.23769993177E-01  0.00000000000E+00 0. -1.
     999901    1    3    3    0    0 -0.28553513030E-01  0.10116215149E+00  0.77824098159E-01  0.88966604648E+00  0.88000000000E+00 0.  1.
        -11    1    4    4    0    0  0.29432614077E-01 -0.71531195832E-01 -0.38045884086E-01  0.86201746882E-01  0.51100000000E-03 0.  1.
         11    1    4    4    0    0  0.20019762358E-01 -0.27108677395E-01 -0.28737915331E-01  0.44292213464E-01  0.51100000000E-03 0. -1.
</event>
<event>
 8    1  0.1146431E+005  0.1043930E+01  0.7957747E-01            NaN
         13   -1    0    0    0    0  0.00000000000E+00  0.00000000000E+00  0.74505805969E-08  0.10566000000E+00  0.10566000000E+00 0. -1.
     999900   -1    0    0    0    0 -0.00000000000E+00 -0.00000000000E+00 -0.74505805969E-08  0.93827000000E+00  0.93827000000E+00 0.  1.
     999902    2    1    2    0    0  0.12502206031E-01  0.18785070560E-01  0.45286794708E-03  0.10213603496E+01  0.10211109511E+01 0.  0.
     999903    2    3    3    0    0 -0.67980890342E-01 -0.98954904688E-01 -0.42160234256E-01  0.12886042964E+00  0.20348227481E-01 0.  0.
         14    1    1    2    0    0 -0.12502206031E-01 -0.18785070560E-01 -0.45286794708E-03  0.22569650440E-01  0.00000000000E+00 0. -1.
     999901    1    3    3    0    0  0.80483096374E-01  0.11773997525E+00  0.42613102203E-01  0.89249991992E+00  0.88000000000E+00 0. -1.
        -11    1    4    4    0    0 -0.41302903594E-01 -0.63236855711E-01 -0.36594826578E-01  0.83930162748E-01  0.51100000000E-03 0. -1.
         11    1    4    4    0    0 -0.26677986748E-01 -0.35718048977E-01 -0.55654076780E-02  0.44930266895E-01  0.51100000000E-03 0.  1.
</event>
<event>
 8    1  0.1146431E+005  0.1043930E+01  0.7957747E-01            NaN
         13   -1    0    0    0    0  0.00000000000E+00  0.00000000000E+00  0.74505805969E-08  0.10566000000E+00  0.10566000000E+00 0. -1.
     999900   -1    0    0    0    0 -0.00000000000E+00 -0.00000000000E+00 -0.74505805969E-08  0.93827000000E+00  0.93827000000E+00 0.  1.
     999902    2    1    2    0    0  0.23639832739E-01 -0.25087787723E-02  0.24569823415E-02  0.10200307861E+01  0.10197507696E+01 0.  0.
     999903    2    3    3    0    0  0.12027243309E+00  0.10770115600E-01 -0.52103645302E-01  0.13296198912E+00  0.19561368687E-01 0.  0.
         14    1    1    2    0    0 -0.23639832739E-01  0.25087787723E-02 -0.24569823415E-02  0.23899213901E-01  0.00000000000E+00 0. -1.
     999901    1    3    3    0    0 -0.96632600352E-01 -0.13278894372E-01  0.54560627644E-01  0.88706879698E+00  0.88000000000E+00 0. -1.
        -11    1    4    4    0    0  0.97523035659E-01  0.15074528698E-01 -0.37411814259E-01  0.10553619695E+00  0.51100000000E-03 0. -1.
         11    1    4    4    0    0  0.22749397432E-01 -0.43044130982E-02 -0.14691831044E-01  0.27425792168E-01  0.51100000000E-03 0.  1.
</event>
<event>
 8    1  0.1146431E+005  0.1043930E+01  0.7957747E-01            NaN
         13   -1    0    0    0    0  0.00000000000E+00  0.00000000000E+00  0.74505805969E-08  0.10566000000E+00  0.10566000000E+00 0. -1.
     999900   -1    0    0    0    0 -0.00000000000E+00 -0.00000000000E+00 -0.74505805969E-08  0.93827000000E+00  0.93827000000E+00 0. -1.
     999902    2    1    2    0    0  0.22725387595E-03 -0.19729661770E-01 -0.13453654592E-01  0.10200487936E+01  0.10197692039E+01 0.  0.
     999903    2    3    3    0    0  0.10853705518E-01  0.90259457252E-01  0.87124788378E-01  0.12745339198E+00  0.19724751724E-01 0.  0.
         14    1    1    2    0    0 -0.22725387595E-03  0.19729661770E-01  0.13453654592E-01  0.23881206413E-01  0.00000000000E+00 0. -1.
     999901    1    3    3    0    0 -0.10626451642E-01 -0.10998911902E+00 -0.10057844297E+00  0.89259540161E+00  0.88000000000E+00 0. -1.
        -11    1    4    4    0    0  0.14613689174E-01  0.72688217795E-01  0.76675100220E-01  0.10666053175E+00  0.51100000000E-03 0.  1.
         11    1    4    4    0    0 -0.37599836564E-02  0.17571239457E-01  0.10449688157E-01  0.20792860235E-01  0.51100000000E-03 0. -1.
</event>
<event>
 8    1  0.1146431E+005  0.1043930E+01  0.7957747E-01            NaN
         13   -1    0    0    0    0  0.00000000000E+00  0.00000000000E+00  0.74505805969E-08  0.10566000000E+00  0.10566000000E+00 0. -1.
     999900   -1    0    0    0    0 -0.00000000000E+00 -0.00000000000E+00 -0.74505805969E-08  0.93827000000E+00  0.93827000000E+00 0. -1.
     999902    2    1    2    0    0  0.29336802542E-02  0.87514088405E-03  0.23468630056E-01  0.10202625340E+01  0.10199879849E+01 0.  0.
     999903    2    3    3    0    0  0.11226196639E+00 -0.32871762234E-01  0.58208726367E-01  0.13217560022E+00  0.19970769092E-01 0.  0.
         14    1    1    2    0    0 -0.29336802542E-02 -0.87514088405E-03 -0.23468630056E-01  0.23667466027E-01  0.00000000000E+00 0.  1.
     999901    1    3    3    0    0 -0.10932828613E+00  0.33746903118E-01 -0.34740096310E-01  0.88808693376E+00  0.88000000000E+00 0. -1.
        -11    1    4    4    0    0  0.22900864974E-01 -0.24279464045E-02  0.19354938730E-01  0.30086862823E-01  0.51100000000E-03 0.  1.
         11    1    4    4    0    0  0.89361101412E-01 -0.30443815829E-01  0.38853787637E-01  0.10208873739E+00  0.51100000000E-03 0. -1.
</event>
<event>
 8    1  0.1146431E+005  0.1043930E+01  0.7957747E-01            NaN
         13   -1    0    0    0    0  0.00000000000E+00  0.00000000000E+00  0.74505805969E-08  0.10566000000E+00  0.10566000000E+00 0. -1.
     999900   -1    0    0    0    0 -0.00000000000E+00 -0.00000000000E+00 -0.74505805969E-08  0.93827000000E+00  0.93827000000E+00 0.  1.
     999902    2    1    2    0    0 -0.21547219099E-01 -0.11341802175E-01  0.44385081302E-02  0.10191788489E+01  0.10188782589E+01 0.  0.
     999903    2    3    3    0    0 -0.77140601944E-01  0.56809810585E-02 -0.10336613985E+00  0.13069573621E+00  0.20343809413E-01 0.  0.
         14    1    1    2    0    0  0.21547219099E-01  0.11341802175E-01 -0.44385081302E-02  0.24751151122E-01  0.00000000000E+00 0. -1.
     999901    1    3    3    0    0  0.55593382845E-01 -0.17022783233E-01  0.10780464798E+00  0.88848311267E+00  0.88000000000E+00 0. -1.
        -11    1    4    4    0    0 -0.31241726143E-01 -0.37952910476E-02 -0.54838058180E-01  0.63229134365E-01  0.51100000000E-03 0.  1.
         11    1    4    4    0    0 -0.45898875800E-01  0.94762721061E-02 -0.48528081675E-01  0.67466601847E-01  0.51100000000E-03 0. -1.
</event>
<event>
 8    1  0.1146431E+005  0.1043930E+01  0.7957747E-01            NaN
         13   -1    0    0    0    0  0.00000000000E+00  0.00000000000E+00  0.74505805969E-08  0.10566000000E+00  0.10566000000E+00 0. -1.
     999900   -1    0    0    0    0 -0.00000000000E+00 -0.00000000000E+00 -0.74505805969E-08  0.93827000000E+00  0.93827000000E+00 0.  1.
     999902    2    1    2    0    0  0.17068311726E-01 -0.17123180303E-01  0.54664677401E-02  0.10191426476E+01  0.10188411669E+01 0.  0.
     999903    2    3    3    0    0  0.96388537731E-01 -0.50432899384E-01 -0.69984564097E-01  0.13173400789E+00  0.24935558508E-01 0.  0.
         14    1    1    2    0    0 -0.17068311726E-01  0.17123180303E-01 -0.54664677401E-02  0.24787352388E-01  0.00000000000E+00 0.  1.
     999901    1    3    3    0    0 -0.79320226005E-01  0.33309719081E-01  0.75451031837E-01  0.88740863972E+00  0.88000000000E+00 0. -1.
        -11    1    4    4    0    0  0.89918473667E-01 -0.39520827128E-01 -0.56948403745E-01  0.11353681999E+00  0.51100000000E-03 0. -1.
         11    1    4    4    0    0  0.64700640640E-02 -0.10912072256E-01 -0.13036160352E-01  0.18197187904E-01  0.51100000000E-03 0.  1.
</event>
<event>
 8    1  0.1146431E+005  0.1043930E+01  0.7957747E-01            NaN
         13   -1    0    0    0    0  0.00000000000E+00  0.00000000000E+00  0.74505805969E-08  0.10566000000E+00  0.10566000000E+00 0.  1.
     999900   -1    0    0    0    0 -0.00000000000E+00 -0.00000000000E+00 -0.74505805969E-08  0.93827000000E+00  0.93827000000E+00 0. -1.
     999902    2    1    2    0    0 -0.91907318420E-02  0.10806042445E-01  0.20056108314E-01  0.10193640157E+01  0.10190679609E+01 0.  0.
     999903    2    3    3    0    0 -0.12375509460E+00  0.25624369916E-01  0.32510590605E-01  0.13172687688E+00  0.17974977549E-01 0.  0.
         14    1    1    2    0    0  0.91907318420E-02 -0.10806042445E-01 -0.20056108314E-01  0.24565984325E-01  0.00000000000E+00 0.  1.
     999901    1    3    3    0    0  0.11456436276E+00 -0.14818327471E-01 -0.12454482291E-01  0.88763713880E+00  0.88000000000E+00 0. -1.
        -11    1    4    4    0    0 -0.58844660234E-01  0.31824893181E-02  0.16590567195E-01  0.61223609149E-01  0.51100000000E-03 0. -1.
         11    1    4    4    0    0 -0.64910434364E-01  0.22441880598E-01  0.15920023410E-01  0.70503267729E-01  0.51100000000E-03 0.  1.
</event>
<event>
 8    1  0.1146431E+005  0.1043930E+01  0.7957747E-01            NaN
         13   -1    0    0    0    0  0.00000000000E+00  0.00000000000E+00  0.74505805969E-08  0.10566000000E+00  0.10566000000E+00 0. -1.
     999900   -1    0    0    0    0 -0.00000000000E+00 -0.00000000000E+00 -0.74505805969E-08  0.93827000000E+00  0.93827000000E+00 0.  1.
     999902    2    1    2    0    0  0.11281110869E-01 -0.57206929413E-02 -0.20022831311E-01  0.10202465973E+01  0.10199716740E+01 0.  0.
     999903    2    3    3    0    0  0.14534690922E-01  0.10180625230E+00 -0.79817532171E-01  0.13168144156E+00  0.19834146349E-01 0.  0.
         14    1    1    2    0    0 -0.11281110869E-01  0.57206929413E-02  0.20022831311E-01  0.23683402709E-01  0.00000000000E+00 0. -1.
     999901    1    3    3    0    0 -0.32535800527E-02 -0.10752694524E+00  0.59794700861E-01  0.88856515574E+00  0.88000000000E+00 0. -1.
        -11    1    4    4    0    0  0.49561964737E-02  0.65947550885E-01 -0.40215648622E-01  0.77402860841E-01  0.51100000000E-03 0.  1.
         11    1    4    4    0    0  0.95784944481E-02  0.35858701412E-01 -0.39601883549E-01  0.54278580716E-01  0.51100000000E-03 0. -1.
</event>
<event>
 8    1  0.1146431E+005  0.1043930E+01  0.7957747E-01            NaN
         13   -1    0    0    0    0  0.00000000000E+00  0.00000000000E+00  0.74505805969E-08  0.10566000000E+00  0.10566000000E+00 0.  1.
     999900   -1    0    0    0    0 -0.00000000000E+00 -0.00000000000E+00 -0.74505805969E-08  0.93827000000E+00  0.93827000000E+00 0.  1.
     999902    2    1    2    0    0  0.94850717773E-02  0.13533741720E-01  0.16548102100E-01  0.10205426437E+01  0.10202746293E+01 0.  0.
     999903    2    3    3    0    0 -0.89788040545E-01 -0.37153272232E-01 -0.80877909714E-01  0.12817716253E+00  0.21116127751E-01 0.  0.
         14    1    1    2    0    0 -0.94850717773E-02 -0.13533741720E-01 -0.16548102100E-01  0.23387356299E-01  0.00000000000E+00 0. -1.
     999901    1    3    3    0    0  0.99273112322E-01  0.50687013952E-01  0.97426011814E-01  0.89236548117E+00  0.88000000000E+00 0.  1.
        -11    1    4    4    0    0 -0.58003899471E-01 -0.30527028379E-01 -0.63872734839E-01  0.91522342585E-01  0.51100000000E-03 0.  1.
         11    1    4    4    0    0 -0.31784141073E-01 -0.66262438535E-02 -0.17005174875E-01  0.36654819941E-01  0.51100000000E-03 0. -1.
</event>
<event>
 8    1  0.1146431E+005  0.1043930E+01  0.7957747E-01            NaN
         13   -1    0    0    0    0  0.00000000000E+00  0.00000000000E+00  0.74505805969E-08  0.10566000000E+00  0.10566000000E+00 0. -1.
     999900   -1    0    0    0    0 -0.00000000000E+00 -0.00000000000E+00 -0.74505805969E-08  0.93827000000E+00  0.93827000000E+00 0.  1.
     999902    2    1    2    0    0 -0.47876541521E-02  0.15662185514E-01  0.17457190247E-01  0.10199930165E+01  0.10197121038E+01 0.  0.
     999903    2    3    3    0    0 -0.12121671162E+00  0.40717749603E-01  0.22783557368E-01  0.13195479836E+00  0.23271270158E-01 0.  0.
         14    1    1    2    0    0  0.47876541521E-02 -0.15662185514E-01 -0.17457190247E-01  0.23936983492E-01  0.00000000000E+00 0.  1.
     999901    1    3    3    0    0  0.11642905746E+00 -0.25055564090E-01 -0.53263671206E-02  0.88803821815E+00  0.88000000000E+00 0.  1.
        -11    1    4    4    0    0 -0.87273816774E-01  0.28581221178E-01  0.55694679993E-02  0.92004811793E-01  0.51100000000E-03 0. -1.
         11    1    4    4    0    0 -0.33942894843E-01  0.12136528425E-01  0.17214089369E-01  0.39949986562E-01  0.51100000000E-03 0.  1.
</event>
<event>
 8    1  0.1146431E+005  0.1043930E+01  0.7957747E-01            NaN
         13   -1    0    0    0    0  0.00000000000E+00  0.00000000000E+00  0.74505805969E-08  0.10566000000E+00  0.10566000000E+00 0.  1.
     999900   -1    0    0    0    0 -0.00000000000E+00 -0.00000000000E+00 -0.74505805969E-08  0.93827000000E+00  0.93827000000E+00 0. -1.
     999902    2    1    2    0    0  0.86449702427E-02 -0.10343546045E-01  0.19448216408E-01  0.10202665772E+01  0.10199921230E+01 0.  0.
     999903    2    3    3    0    0  0.99562183905E-01  0.50154977532E-01 -0.63483347107E-01  0.12964676199E+00  0.18708214732E-01 0.  0.
         14    1    1    2    0    0 -0.86449702427E-02  0.10343546045E-01 -0.19448216408E-01  0.23663422760E-01  0.00000000000E+00 0. -1.
     999901    1    3    3    0    0 -0.90917213662E-01 -0.60498523577E-01  0.82931563515E-01  0.89061981525E+00  0.88000000000E+00 0. -1.
        -11    1    4    4    0    0  0.35240288885E-01  0.23825659086E-01 -0.15904156143E-01  0.45417433825E-01  0.51100000000E-03 0. -1.
         11    1    4    4    0    0  0.64321895020E-01  0.26329318446E-01 -0.47579190964E-01  0.84229328162E-01  0.51100000000E-03 0.  1.
</event>
<event>
 8    1  0.1146431E+005  0.1043930E+01  0.7957747E-01            NaN
         13   -1    0    0    0    0  0.00000000000E+00  0.00000000000E+00  0.74505805969E-08  0.10566000000E+00  0.10566000000E+00 0.  1.
     999900   -1    0    0    0    0 -0.00000000000E+00 -0.00000000000E+00 -0.74505805969E-08  0.93827000000E+00  0.93827000000E+00 0.  1.
     999902    2    1    2    0    0  0.99073273359E-03 -0.13669087609E-02 -0.23609532482E-01  0.10202601877E+01  0.10199855835E+01 0.  0.
     999903    2    3    3    0    0  0.75327466760E-01  0.98591116135E-01 -0.38609342272E-01  0.13136055834E+00  0.19247845237E-01 0.  0.
         14    1    1    2    0    0 -0.99073273359E-03  0.13669087609E-02  0.23609532482E-01  0.23669812313E-01  0.00000000000E+00 0.  1.
     999901    1    3    3    0    0 -0.74336734027E-01 -0.99958024896E-01  0.14999809790E-01  0.88889962935E+00  0.88000000000E+00 0. -1.
        -11    1    4    4    0    0  0.32667395083E-01  0.57757652314E-01 -0.17271916226E-01  0.68568836314E-01  0.51100000000E-03 0. -1.
         11    1    4    4    0    0  0.42660071678E-01  0.40833463821E-01 -0.21337426047E-01  0.62791722022E-01  0.51100000000E-03 0.  1.
</event>
<event>
 8    1  0.1146431E+005  0.1043930E+01  0.7957747E-01            NaN
         13   -1    0    0    0    0  0.00000000000E+00  0.00000000000E+00  0.74505805969E-08  0.10566000000E+00  0.10566000000E+00 0. -1.
     999900   -1    0    0    0    0 -0.00000000000E+00 -0.00000000000E+00 -0.74505805969E-08  0.93827000000E+00  0.93827000000E+00 0.  1.
     999902    2    1    2    0    0 -0.20608772934E-01  0.37795150535E-03  0.12773369194E-01  0.10196808076E+01  0.10193924299E+01 0.  0.
     999903    2    3    3    0    0  0.80975873336E-01 -0.12036315017E-01 -0.95219293540E-01  0.12719216930E+00  0.20227929400E-01 0.  0.
         14    1    1    2    0    0  0.20608772934E-01 -0.37795150535E-03 -0.12773369194E-01  0.24249192353E-01  0.00000000000E+00 0.  1.
     999901    1    3    3    0    0 -0.10158464627E+00  0.12414266523E-01  0.10799266273E+00  0.89248863835E+00  0.88000000000E+00 0. -1.
        -11    1    4    4    0    0  0.50193471947E-01 -0.17170891002E-01 -0.62322266793E-01  0.81844671074E-01  0.51100000000E-03 0.  1.
         11    1    4    4    0    0  0.30782401389E-01  0.51345759848E-02 -0.32897026747E-01  0.45347498228E-01  0.51100000000E-03 0. -1.
</event>
<event>
 8    1  0.1146431E+005  0.1043930E+01  0.7957747E-01            NaN
         13   -1    0    0    0    0  0.00000000000E+00  0.00000000000E+00  0.74505805969E-08  0.10566000000E+00  0.10566000000E+00 0. -1.
     999900   -1    0    0    0    0 -0.00000000000E+00 -0.00000000000E+00 -0.74505805969E-08  0.93827000000E+00  0.93827000000E+00 0. -1.
     999902    2    1    2    0    0 -0.51350547557E-02  0.44054742782E-02  0.21301895235E-01  0.10215794355E+01  0.10213349085E+01 0.  0.
     999903    2    3    3    0    0  0.66630668455E-01  0.97256094027E-01  0.58473075462E-01  0.13301134403E+00  0.19352604020E-01 0.  0.
         14    1    1    2    0    0  0.51350547557E-02 -0.44054742782E-02 -0.21301895235E-01  0.22350564458E-01  0.00000000000E+00 0.  1.
     999901    1    3    3    0    0 -0.71765723211E-01 -0.92850619749E-01 -0.37171180227E-01  0.88856809151E+00  0.88000000000E+00 0. -1.
        -11    1    4    4    0    0  0.46442765477E-01  0.50902611330E-01  0.33850654852E-01  0.76773265271E-01  0.51100000000E-03 0. -1.
         11    1    4    4    0    0  0.20187902978E-01  0.46353482697E-01  0.24622420610E-01  0.56238078759E-01  0.51100000000E-03 0.  1.
</event>
<event>
 8    1  0.1146431E+005  0.1043930E+01  0.7957747E-01            NaN
         13   -1    0    0    0    0  0.00000000000E+00  0.00000000000E+00  0.74505805969E-08  0.10566000000E+00  0.10566000000E+00 0.  1.
     999900   -1    0    0    0    0 -0.00000000000E+00 -0.00000000000E+00 -0.74505805969E-08  0.93827000000E+00  0.93827000000E+00 0.  1.
     999902    2    1    2    0    0 -0.67710388307E-02  0.13944166135E-01 -0.16622304188E-01  0.10212014336E+01  0.10209484709E+01 0.  0.
     999903    2    3    3    0    0  0.44335871245E-01 -0.11992673432E+00  0.34569678573E-02  0.12938502229E+00  0.19504929646E-01 0.  0.
         14    1    1    2    0    0  0.67710388307E-02 -0.13944166135E-01  0.16622304188E-01  0.22728566443E-01  0.00000000000E+00 0.  1.
     999901    1    3    3    0    0 -0.51106910075E-01  0.13387090046E+00 -0.20079272045E-01  0.89181641127E+00  0.88000000000E+00 0.  1.
        -11    1    4    4    0    0  0.24266612255E-01 -0.39144615785E-01 -0.31885283087E-03  0.46060093394E-01  0.51100000000E-03 0. -1.
         11    1    4    4    0    0  0.20069258989E-01 -0.80782118538E-01  0.37758206882E-02  0.83324928891E-01  0.51100000000E-03 0.  1.
</event>
<event>
 8    1  0.1146431E+005  0.1043930E+01  0.7957747E-01            NaN
         13   -1    0    0    0    0  0.00000000000E+00  0.00000000000E+00  0.74505805969E-08  0.10566000000E+00  0.10566000000E+00 0.  1.
     999900   -1    0    0    0    0 -0.00000000000E+00 -0.00000000000E+00 -0.74505805969E-08  0.93827000000E+00  0.93827000000E+00 0.  1.
     999902    2    1    2    0    0  0.72479582866E-02 -0.22032217175E-01  0.34172626250E-02  0.10204858285E+01  0.10202164952E+01 0.  0.
     999903    2    3    3    0    0  0.31997913124E-01 -0.72550518130E-01  0.10490581658E+00  0.13286846411E+00  0.19009320837E-01 0.  0.
         14    1    1    2    0    0 -0.72479582866E-02  0.22032217175E-01 -0.34172626250E-02  0.23444171490E-01  0.00000000000E+00 0.  1.
     999901    1    3    3    0    0 -0.24749954837E-01  0.50518300954E-01 -0.10148855395E+00  0.88761736440E+00  0.88000000000E+00 0.  1.
        -11    1    4    4    0    0  0.18112185858E-01 -0.42997651514E-01  0.46033288609E-01  0.65545206487E-01  0.51100000000E-03 0.  1.
         11    1    4    4    0    0  0.13885727265E-01 -0.29552866615E-01  0.58872527969E-01  0.67323257626E-01  0.51100000000E-03 0. -1.
</event>
<event>
 8    1  0.1146431E+005  0.1043930E+01  0.7957747E-01            NaN
         13   -1    0    0    0    0  0.00000000000E+00  0.00000000000E+00  0.74505805969E-08  0.10566000000E+00  0.10566000000E+00 0. -1.
     999900   -1    0    0    0    0 -0.00000000000E+00 -0.00000000000E+00 -0.74505805969E-08  0.93827000000E+00  0.93827000000E+00 0.  1.
     999902    2    1    2    0    0  0.12166681131E-01 -0.15859683764E-01  0.12743534502E-01  0.10202244021E+01  0.10199489572E+01 0.  0.
     999903    2    3    3    0    0 -0.57156626320E-01  0.10773044942E+00  0.35673711224E-01  0.12859329288E+00  0.19770979639E-01 0.  0.
         14    1    1    2    0    0 -0.12166681131E-01  0.15859683764E-01 -0.12743534502E-01  0.23705597871E-01  0.00000000000E+00 0. -1.
     999901    1    3    3    0    0  0.69323307451E-01 -0.12359013319E+00 -0.22930176722E-01  0.89163110925E+00  0.88000000000E+00 0.  1.
        -11    1    4    4    0    0 -0.28746745397E-01  0.59214039812E-01  0.29152127562E-01  0.71991565786E-01  0.51100000000E-03 0.  1.
         11    1    4    4    0    0 -0.28409880923E-01  0.48516409610E-01  0.65215836618E-02  0.56601727094E-01  0.51100000000E-03 0. -1.
</event>
<event>
 8    1  0.1146431E+005  0.1043930E+01  0.7957747E-01            NaN
         13   -1    0    0    0    0  0.00000000000E+00  0.00000000000E+00  0.74505805969E-08  0.10566000000E+00  0.10566000000E+00 0. -1.
     999900   -1    0    0    0    0 -0.00000000000E+00 -0.00000000000E+00 -0.74505805969E-08  0.93827000000E+00  0.93827000000E+00 0. -1.
     999902    2    1    2    0    0 -0.46946248266E-03  0.11257624651E-01  0.22548993760E-01  0.10187226275E+01  0.10184107129E+01 0.  0.
     999903    2    3    3    0    0  0.11494420617E+00  0.34016274905E-02  0.58458311743E-01  0.13042565537E+00  0.19228514379E-01 0.  0.
         14    1    1    2    0    0  0.46946248266E-03 -0.11257624651E-01 -0.22548993760E-01  0.25207372481E-01  0.00000000000E+00 0.  1.
     999901    1    3    3    0    0 -0.11541366866E+00  0.78559971609E-02 -0.35909317983E-01  0.88829697215E+00  0.88000000000E+00 0. -1.
        -11    1    4    4    0    0  0.37054310269E-01 -0.37562752128E-02  0.27512153175E-01  0.46306708005E-01  0.51100000000E-03 0. -1.
         11    1    4    4    0    0  0.77889895905E-01  0.71579027033E-02  0.30946158569E-01  0.84118947368E-01  0.51100000000E-03 0.  1.
</event>
<event>
 8    1  0.1146431E+005  0.1043930E+01  0.7957747E-01            NaN
         13   -1    0    0    0    0  0.00000000000E+00  0.00000000000E+00  0.74505805969E-08  0.10566000000E+00  0.10566000000E+00 0. -1.
     999900   -1    0    0    0    0 -0.00000000000E+00 -0.00000000000E+00 -0.74505805969E-08  0.93827000000E+00  0.93827000000E+00 0. -1.
     999902    2    1    2    0    0 -0.10457206318E-01 -0.13357398059E-01 -0.13052206817E-01  0.10225259502E+01  0.10223019052E+01 0.  0.
     999903    2    3    3    0    0  0.12019923696E+00 -0.42356987872E-01 -0.29219158165E-01  0.13226000523E+00  0.19924326656E-01 0.  0.
         14    1    1    2    0    0  0.10457206318E-01  0.13357398059E-01  0.13052206817E-01  0.21404049843E-01  0.00000000000E+00 0. -1.
     999901    1    3    3    0    0 -0.13065644328E+00  0.28999589813E-01  0.16166951348E-01  0.89026594493E+00  0.88000000000E+00 0.  1.
        -11    1    4    4    0    0  0.11327167489E+00 -0.43453501325E-01 -0.30535708428E-01  0.12510543442E+00  0.51100000000E-03 0.  1.
         11    1    4    4    0    0  0.69275620677E-02  0.10965134534E-02  0.13165502630E-02  0.71545708153E-02  0.51100000000E-03 0. -1.
</event>
<event>
 8    1  0.1146431E+005  0.1043930E+01  0.7957747E-01            NaN
         13   -1    0    0    0    0  0.00000000000E+00  0.00000000000E+00  0.74505805969E-08  0.10566000000E+00  0.10566000000E+00 0. -1.
     999900   -1    0    0    0    0 -0.00000000000E+00 -0.00000000000E+00 -0.74505805969E-08  0.93827000000E+00  0.93827000000E+00 0.  1.
     999902    2    1    2    0    0  0.99325421356E-02  0.28898698204E-02  0.20054545731E-01  0.10213647270E+01  0.10211154264E+01 0.  0.
     999903    2    3    3    0    0  0.35952392601E-01  0.11287713736E+00  0.57705453977E-01  0.13333780031E+00  0.20377117093E-01 0.  0.
         14    1    1    2    0    0 -0.99325421356E-02 -0.28898698204E-02 -0.20054545731E-01  0.22565272994E-01  0.00000000000E+00 0.  1.
     999901    1    3    3    0    0 -0.26019850466E-01 -0.10998726754E+00 -0.37650908246E-01  0.88802692669E+00  0.88000000000E+00 0.  1.
        -11    1    4    4    0    0  0.27682566172E-01  0.76980626537E-01  0.49421252873E-01  0.95577521879E-01  0.51100000000E-03 0.  1.
         11    1    4    4    0    0  0.82698264293E-02  0.35896510824E-01  0.82842011038E-02  0.37760278434E-01  0.51100000000E-03 0. -1.
</event>
<event>
 8    1  0.1146431E+005  0.1043930E+01  0.7957747E-01            NaN
         13   -1    0    0    0    0  0.00000000000E+00  0.00000000000E+00  0.74505805969E-08  0.10566000000E+00  0.10566000000E+00 0. -1.
     999900   -1    0    0    0    0 -0.00000000000E+00 -0.00000000000E+00 -0.74505805969E-08  0.93827000000E+00  0.93827000000E+00 0.  1.
     999902    2    1    2    0    0 -0.12876033236E-01 -0.63508697647E-02 -0.18410797050E-01  0.10205829825E+01  0.10203159025E+01 0.  0.
     999903    2    3    3    0    0 -0.11410480637E+00 -0.56397411172E-01  0.29333563148E-01  0.13208343564E+00  0.19621447947E-01 0.  0.
         14    1    1    2    0    0  0.12876033236E-01  0.63508697647E-02  0.18410797050E-01  0.23347017511E-01  0.00000000000E+00 0. -1.
     999901    1    3    3    0    0  0.10122877314E+00  0.50046541408E-01 -0.47744360198E-01  0.88849954685E+00  0.88000000000E+00 0.  1.
        -11    1    4    4    0    0 -0.48486823560E-01 -0.33146024013E-01  0.18814831940E-01  0.61675683934E-01  0.51100000000E-03 0.  1.
         11    1    4    4    0    0 -0.65617982813E-01 -0.23251387160E-01  0.10518731208E-01  0.70407751707E-01  0.51100000000E-03 0. -1.
</event>
<event>
 8    1  0.1146431E+005  0.1043930E+01  0.7957747E-01            NaN
         13   -1    0    0    0    0  0.00000000000E+00  0.00000000000E+00  0.74505805969E-08  0.10566000000E+00  0.10566000000E+00 0.  1.
     999900   -1    0    0    0    0 -0.00000000000E+00 -0.00000000000E+00 -0.74505805969E-08  0.93827000000E+00  0.93827000000E+00 0. -1.
     999902    2    1    2    0    0  0.11590676610E-01 -0.16342663273E-01 -0.13606450486E-01  0.10197109595E+01  0.10194233071E+01 0.  0.
     999903    2    3    3    0    0  0.92985226680E-02  0.56356438439E-01  0.11266674637E+00  0.12772702827E+00  0.18917910459E-01 0.  0.
         14    1    1    2    0    0 -0.11590676610E-01  0.16342663273E-01  0.13606450486E-01  0.24219040484E-01  0.00000000000E+00 0. -1.
     999901    1    3    3    0    0  0.22921539417E-02 -0.72699101712E-01 -0.12627319685E+00  0.89198393125E+00  0.88000000000E+00 0. -1.
        -11    1    4    4    0    0 -0.17553605968E-02  0.17662233775E-01  0.20280375658E-01  0.26955343637E-01  0.51100000000E-03 0.  1.
         11    1    4    4    0    0  0.11053883265E-01  0.38694204664E-01  0.92386370709E-01  0.10077168463E+00  0.51100000000E-03 0. -1.
</event>
<event>
 8    1  0.1146431E+005  0.1043930E+01  0.7957747E-01            NaN
         13   -1    0    0    0    0  0.00000000000E+00  0.00000000000E+00  0.74505805969E-08  0.10566000000E+00  0.10566000000E+00 0.  1.
     999900   -1    0    0    0    0 -0.00000000000E+00 -0.00000000000E+00 -0.74505805969E-08  0.93827000000E+00  0.93827000000E+00 0.  1.
     999902    2    1    2    0    0 -0.20956704661E-01  0.62553467937E-02  0.95464699119E-02  0.10200668920E+01  0.10197877310E+01 0.  0.
     999903    2    3    3    0    0 -0.64990509140E-01 -0.10156802950E+00  0.47454621873E-01  0.13158398033E+00  0.22859830443E-01 0.  0.
         14    1    1    2    0    0  0.20956704661E-01 -0.62553467937E-02 -0.95464699119E-02  0.23863107961E-01  0.00000000000E+00 0. -1.
     999901    1    3    3    0    0  0.44033804479E-01  0.10782337629E+00 -0.37908151961E-01  0.88848291171E+00  0.88000000000E+00 0.  1.
        -11    1    4    4    0    0 -0.49726402938E-01 -0.60492997741E-01  0.24142167365E-01  0.81946466006E-01  0.51100000000E-03 0.  1.
         11    1    4    4    0    0 -0.15264106202E-01 -0.41075031760E-01  0.23312454508E-01  0.49637514325E-01  0.51100000000E-03 0. -1.
</event>
<event>
 7    1  0.1146431E+005  0.1043930E+01  0.7957747E-01            NaN
         13   -1    0    0    0    0  0.00000000000E+00  0.00000000000E+00  0.74505805969E-08  0.10566000000E+00  0.10566000000E+00 0. -1.
     999900   -1    0    0    0    0 -0.00000000000E+00 -0.00000000000E+00 -0.74505805969E-08  0.93827000000E+00  0.93827000000E+00 0. -1.
     999903    2    1    2    0    0 -0.23998120631E-01 -0.19588404778E-01  0.78028565682E-01  0.86328869617E-01  0.20114702864E-01 0.  0.
         14    1    1    2    0    0 -0.20883152490E-01  0.25687989793E-01 -0.68841878337E-01  0.76388370126E-01  0.00000000000E+00 0.  1.
     999901    1    1    2    0    0  0.44881273122E-01 -0.60995850150E-02 -0.91866873451E-02  0.88121276026E+00  0.88000000000E+00 0.  1.
        -11    1    3    3    0    0 -0.75926546590E-02  0.36829798675E-02  0.18383941164E-01  0.20234701856E-01  0.51100000000E-03 0. -1.
         11    1    3    3    0    0 -0.16405465972E-01 -0.23271384646E-01  0.59644624519E-01  0.66094167761E-01  0.51100000000E-03 0.  1.
</event>
<event>
 8    1  0.1146431E+005  0.1043930E+01  0.7957747E-01            NaN
         13   -1    0    0    0    0  0.00000000000E+00  0.00000000000E+00  0.74505805969E-08  0.10566000000E+00  0.10566000000E+00 0.  1.
     999900   -1    0    0    0    0 -0.00000000000E+00 -0.00000000000E+00 -0.74505805969E-08  0.93827000000E+00  0.93827000000E+00 0. -1.
     999902    2    1    2    0    0 -0.10348722972E-01 -0.14769098945E-01 -0.26058228737E-02  0.10257087853E+01  0.10255469271E+01 0.  0.
     999903    2    3    3    0    0 -0.47757178150E-01 -0.12065257286E+00 -0.41510130857E-01  0.13771990717E+00  0.20146723441E-01 0.  0.
         14    1    1    2    0    0  0.10348722972E-01  0.14769098945E-01  0.26058228737E-02  0.18221214659E-01  0.00000000000E+00 0.  1.
     999901    1    3    3    0    0  0.37408455178E-01  0.10588347392E+00  0.38904307983E-01  0.88798887817E+00  0.88000000000E+00 0.  1.
        -11    1    4    4    0    0 -0.35381326526E-01 -0.10770178493E+00 -0.34843521148E-01  0.11859951446E+00  0.51100000000E-03 0.  1.
         11    1    4    4    0    0 -0.12375851624E-01 -0.12950787936E-01 -0.66666097090E-02  0.19120392716E-01  0.51100000000E-03 0. -1.
</event>
<event>
 8    1  0.1146431E+005  0.1043930E+01  0.7957747E-01            NaN
         13   -1    0    0    0    0  0.00000000000E+00  0.00000000000E+00  0.74505805969E-08  0.10566000000E+00  0.10566000000E+00 0. -1.
     999900   -1    0    0    0    0 -0.00000000000E+00 -0.00000000000E+00 -0.74505805969E-08  0.93827000000E+00  0.93827000000E+00 0. -1.
     999902    2    1    2    0    0  0.21415281541E-01  0.16441242474E-02  0.99960768823E-02  0.10202395171E+01  0.10199644274E+01 0.  0.
     999903    2    3    3    0    0  0.56599672212E-01  0.10790186315E+00 -0.44919561796E-01  0.13145136696E+00  0.20380379734E-01 0.  0.
         14    1    1    2    0    0 -0.21415281541E-01 -0.16441242474E-02 -0.99960768823E-02  0.23690482922E-01  0.00000000000E+00 0.  1.
     999901    1    3    3    0    0 -0.35184390671E-01 -0.10625773890E+00  0.54915638678E-01  0.88878815012E+00  0.88000000000E+00 0.  1.
        -11    1    4    4    0    0  0.40642665045E-01  0.76142325313E-01 -0.41411383768E-01  0.95732145868E-01  0.51100000000E-03 0.  1.
         11    1    4    4    0    0  0.15957007168E-01  0.31759537834E-01 -0.35081780282E-02  0.35719221090E-01  0.51100000000E-03 0. -1.
</event>
<event>
 8    1  0.1146431E+005  0.1043930E+01  0.7957747E-01            NaN
         13   -1    0    0    0    0  0.00000000000E+00  0.00000000000E+00  0.74505805969E-08  0.10566000000E+00  0.10566000000E+00 0.  1.
     999900   -1    0    0    0    0 -0.00000000000E+00 -0.00000000000E+00 -0.74505805969E-08  0.93827000000E+00  0.93827000000E+00 0. -1.
     999902    2    1    2    0    0  0.13156269759E-01  0.14040116130E-01  0.12636802863E-01  0.10209104196E+01  0.10206508628E+01 0.  0.
     999903    2    3    3    0    0  0.10401342196E+00  0.33369956544E-01 -0.71416930381E-01  0.13203827193E+00  0.20034504290E-01 0.  0.
         14    1    1    2    0    0 -0.13156269759E-01 -0.14040116130E-01 -0.12636802863E-01  0.23019580394E-01  0.00000000000E+00 0. -1.
     999901    1    3    3    0    0 -0.90857152202E-01 -0.19329840415E-01  0.84053733244E-01  0.88887214767E+00  0.88000000000E+00 0.  1.
        -11    1    4    4    0    0  0.10275681968E+00  0.31871600495E-01 -0.65907560284E-01  0.12616984795E+00  0.51100000000E-03 0. -1.
         11    1    4    4    0    0  0.12566022814E-02  0.14983560492E-02 -0.55093700974E-02  0.58684239804E-02  0.51100000000E-03 0.  1.
</event>
<event>
 8    1  0.1146431E+005  0.1043930E+01  0.7957747E-01            NaN
         13   -1    0    0    0    0  0.00000000000E+00  0.00000000000E+00  0.74505805969E-08  0.10566000000E+00  0.10566000000E+00 0. -1.
     999900   -1    0    0    0    0 -0.00000000000E+00 -0.00000000000E+00 -0.74505805969E-08  0.93827000000E+00  0.93827000000E+00 0.  1.
     999902    2    1    2    0    0  0.73095188568E-02 -0.39618469530E-03 -0.23363826184E-01  0.10194462421E+01  0.10191521899E+01 0.  0.
     999903    2    3    3    0    0 -0.44624258341E-01 -0.11989871401E+00 -0.31447684732E-02  0.12962222463E+00  0.20615661426E-01 0.  0.
         14    1    1    2    0    0 -0.73095188568E-02  0.39618469530E-03  0.23363826184E-01  0.24483757926E-01  0.00000000000E+00 0. -1.
     999901    1    3    3    0    0  0.51933777198E-01  0.11950252931E+00 -0.20219057711E-01  0.88982401744E+00  0.88000000000E+00 0.  1.
        -11    1    4    4    0    0 -0.22302673094E-01 -0.73262684605E-01 -0.10840764803E-01  0.77347356032E-01  0.51100000000E-03 0.  1.
         11    1    4    4    0    0 -0.22321585247E-01 -0.46636029402E-01  0.76959963297E-02  0.52274868597E-01  0.51100000000E-03 0. -1.
</event>
<event>
 8    1  0.1146431E+005  0.1043930E+01  0.7957747E-01            NaN
         13   -1    0    0    0    0  0.00000000000E+00  0.00000000000E+00  0.74505805969E-08  0.10566000000E+00  0.10566000000E+00 0. -1.
     999900   -1    0    0    0    0 -0.00000000000E+00 -0.00000000000E+00 -0.74505805969E-08  0.93827000000E+00  0.93827000000E+00 0.  1.
     999902    2    1    2    0    0  0.16066898325E-01  0.13570189502E-01  0.51836595686E-03  0.10228927956E+01  0.10226764431E+01 0.  0.
     999903    2    3    3    0    0  0.10163467202E+00 -0.84201919753E-01  0.41094097741E-02  0.13334564968E+00  0.18563544764E-01 0.  0.
         14    1    1    2    0    0 -0.16066898325E-01 -0.13570189502E-01 -0.51836595686E-03  0.21037204381E-01  0.00000000000E+00 0. -1.
     999901    1    3    3    0    0 -0.85567773697E-01  0.97772109255E-01 -0.35910438173E-02  0.88954714593E+00  0.88000000000E+00 0. -1.
        -11    1    4    4    0    0  0.52646480801E-01 -0.55306111146E-01  0.62711962772E-03  0.76361458019E-01  0.51100000000E-03 0.  1.
         11    1    4    4    0    0  0.48988191220E-01 -0.28895808607E-01  0.34822901464E-02  0.56984191665E-01  0.51100000000E-03 0. -1.
</event>
<event>
 8    1  0.1146431E+005  0.1043930E+01  0.7957747E-01            NaN
         13   -1    0    0    0    0  0.00000000000E+00  0.00000000000E+00  0.74505805969E-08  0.10566000000E+00  0.10566000000E+00 0. -1.
     999900   -1    0    0    0    0 -0.00000000000E+00 -0.00000000000E+00 -0.74505805969E-08  0.93827000000E+00  0.93827000000E+00 0. -1.
     999902    2    1    2    0    0 -0.10692949426E-01  0.24442771489E-02 -0.21679696851E-01  0.10196334382E+01  0.10193439191E+01 0.  0.
     999903    2    3    3    0    0 -0.77680919499E-01  0.18899592648E-03 -0.10623736342E+00  0.13304307431E+00  0.19486437855E-01 0.  0.
         14    1    1    2    0    0  0.10692949426E-01 -0.24442771489E-02  0.21679696851E-01  0.24296561768E-01  0.00000000000E+00 0. -1.
     999901    1    3    3    0    0  0.66987970073E-01  0.22552812224E-02  0.84557666573E-01  0.88659036392E+00  0.88000000000E+00 0. -1.
        -11    1    4    4    0    0 -0.61812644331E-01 -0.56009856911E-02 -0.91815153692E-01  0.11082624964E+00  0.51100000000E-03 0. -1.
         11    1    4    4    0    0 -0.15868275167E-01  0.57899816176E-02 -0.14422209732E-01  0.22216824671E-01  0.51100000000E-03 0.  1.
</event>
<event>
 7    1  0.1146431E+005  0.1043930E+01  0.7957747E-01            NaN
         13   -1    0    0    0    0  0.00000000000E+00  0.00000000000E+00  0.74505805969E-08  0.10566000000E+00  0.10566000000E+00 0.  1.
     999900   -1    0    0    0    0 -0.00000000000E+00 -0.00000000000E+00 -0.74505805969E-08  0.93827000000E+00  0.93827000000E+00 0. -1.
     999902    2    1    2    0    0  0.44836018020E-02  0.13575013764E-01 -0.19264339422E-01  0.10199404511E+01  0.10196582885E+01 0.  0.
         14    1    1    2    0    0 -0.44836018020E-02 -0.13575013764E-01  0.19264339422E-01  0.23989548915E-01  0.00000000000E+00 0.  1.
     999901    1    3    3    0    0 -0.20809792704E-01 -0.52114105052E-01 -0.12124748942E+00  0.89008419889E+00  0.88000000000E+00 0. -1.
        -11    1    3    3    0    0  0.13685845840E-01  0.35783908034E-01  0.23201662844E-01  0.44792507524E-01  0.51100000000E-03 0. -1.
         11    1    3    3    0    0  0.11607548667E-01  0.29905210783E-01  0.78781487158E-01  0.85063744673E-01  0.51100000000E-03 0.  1.
</event>
<event>
 8    1  0.1146431E+005  0.1043930E+01  0.7957747E-01            NaN
         13   -1    0    0    0    0  0.00000000000E+00  0.00000000000E+00  0.74505805969E-08  0.10566000000E+00  0.10566000000E+00 0.  1.
     999900   -1    0    0    0    0 -0.00000000000E+00 -0.00000000000E+00 -0.74505805969E-08  0.93827000000E+00  0.93827000000E+00 0.  1.
     999902    2    1    2    0    0 -0.21108195035E-01  0.10511592597E-02 -0.10366807659E-01  0.10203900014E+01  0.10201184360E+01 0.  0.
     999903    2    3    3    0    0 -0.11491928024E+00 -0.32025199582E-01 -0.56445877632E-01  0.13358796829E+00  0.20677373901E-01 0.  0.
         14    1    1    2    0    0  0.21108195035E-01 -0.10511592597E-02  0.10366807659E-01  0.23539998608E-01  0.00000000000E+00 0. -1.
     999901    1    3    3    0    0  0.93811085205E-01  0.33076358842E-01  0.46079069973E-01  0.88680203310E+00  0.88000000000E+00 0. -1.
        -11    1    4    4    0    0 -0.17896152016E-01 -0.99994192176E-02 -0.16712506407E-01  0.26454293282E-01  0.51100000000E-03 0. -1.
         11    1    4    4    0    0 -0.97023128224E-01 -0.22025780364E-01 -0.39733371225E-01  0.10713367501E+00  0.51100000000E-03 0.  1.
</event>
<event>
 8    1  0.1146431E+005  0.1043930E+01  0.7957747E-01            NaN
         13   -1    0    0    0    0  0.00000000000E+00  0.00000000000E+00  0.74505805969E-08  0.10566000000E+00  0.10566000000E+00 0.  1.
     999900   -1    0    0    0    0 -0.00000000000E+00 -0.00000000000E+00 -0.74505805969E-08  0.93827000000E+00  0.93827000000E+00 0.  1.
     999902    2    1    2    0    0  0.79197830765E-02 -0.16021474334E-01  0.14670352757E-01  0.10208079358E+01  0.10205460361E+01 0.  0.
     999903    2    3    3    0    0  0.24091840575E-01  0.71571746825E-01 -0.10220340149E+00  0.12862321148E+00  0.19886264868E-01 0.  0.
         14    1    1    2    0    0 -0.79197830765E-02  0.16021474334E-01 -0.14670352757E-01  0.23122064220E-01  0.00000000000E+00 0. -1.
     999901    1    3    3    0    0 -0.16172057499E-01 -0.87593221158E-01  0.11687375425E+00  0.89218472430E+00  0.88000000000E+00 0. -1.
        -11    1    4    4    0    0  0.16962475589E-01  0.39843608853E-01 -0.42734853594E-01  0.60842152964E-01  0.51100000000E-03 0.  1.
         11    1    4    4    0    0  0.71293649866E-02  0.31728137971E-01 -0.59468547895E-01  0.67781058519E-01  0.51100000000E-03 0. -1.
</event>
<event>
 8    1  0.1146431E+005  0.1043930E+01  0.7957747E-01            NaN
         13   -1    0    0    0    0  0.00000000000E+00  0.00000000000E+00  0.74505805969E-08  0.10566000000E+00  0.10566000000E+00 0.  1.
     999900   -1    0    0    0    0 -0.00000000000E+00 -0.00000000000E+00 -0.74505805969E-08  0.93827000000E+00  0.93827000000E+00 0. -1.
     999902    2    1    2    0    0  0.44658246054E-02  0.21959512711E-01  0.52299153754E-02  0.10209187896E+01  0.10206594237E+01 0.  0.
     999903    2    3    3    0    0  0.41799390878E-01 -0.70384146496E-01 -0.98016844979E-01  0.12930169688E+00  0.20261040437E-01 0.  0.
         14    1    1    2    0    0 -0.44658246054E-02 -0.21959512711E-01 -0.52299153754E-02  0.23011210371E-01  0.00000000000E+00 0.  1.
     999901    1    3    3    0    0 -0.37333566272E-01  0.92343659207E-01  0.10324676035E+00  0.89161709275E+00  0.88000000000E+00 0.  1.
        -11    1    4    4    0    0  0.88024387449E-02 -0.16365645398E-01 -0.36865030565E-01  0.41286909266E-01  0.51100000000E-03 0.  1.
         11    1    4    4    0    0  0.32996952133E-01 -0.54018501098E-01 -0.61151814414E-01  0.88014787610E-01  0.51100000000E-03 0. -1.
</event>
<event>
 8    1  0.1146431E+005  0.1043930E+01  0.7957747E-01            NaN
         13   -1    0    0    0    0  0.00000000000E+00  0.00000000000E+00  0.74505805969E-08  0.10566000000E+00  0.10566000000E+00 0. -1.
     999900   -1    0    0    0    0 -0.00000000000E+00 -0.00000000000E+00 -0.74505805969E-08  0.93827000000E+00  0.93827000000E+00 0.  1.
     999902    2    1    2    0    0 -0.10034880546E-01  0.20397598610E-02  0.22391337615E-01  0.10193082322E+01  0.10190108149E+01 0.  0.
     999903    2    3    3    0    0 -0.12135791365E+00 -0.57794676300E-02  0.47471763172E-01  0.13190585125E+00  0.19607137605E-01 0.  0.
         14    1    1    2    0    0  0.10034880546E-01 -0.20397598610E-02 -0.22391337615E-01  0.24621767769E-01  0.00000000000E+00 0.  1.
     999901    1    3    3    0    0  0.11132303310E+00  0.78192274910E-02 -0.25080425557E-01  0.88740238098E+00  0.88000000000E+00 0.  1.
        -11    1    4    4    0    0 -0.77738921852E-01  0.51608843545E-02  0.26617927715E-01  0.82333164004E-01  0.51100000000E-03 0. -1.
         11    1    4    4    0    0 -0.43618991797E-01 -0.10940351985E-01  0.20853835457E-01  0.49572687250E-01  0.51100000000E-03 0.  1.
</event>
<event>
 8    1  0.1146431E+005  0.1043930E+01  0.7957747E-01            NaN
         13   -1    0    0    0    0  0.00000000000E+00  0.00000000000E+00  0.74505805969E-08  0.10566000000E+00  0.10566000000E+00 0. -1.
     999900   -1    0    0    0    0 -0.00000000000E+00 -0.00000000000E+00 -0.74505805969E-08  0.93827000000E+00  0.93827000000E+00 0.  1.
     999902    2    1    2    0    0  0.11726080710E-02 -0.10164253909E-01  0.19700793563E-01  0.10217307132E+01  0.10214895212E+01 0.  0.
     999903    2    3    3    0    0 -0.77530504780E-01 -0.26638889595E-01  0.10568757108E+00  0.13389102075E+00  0.60276982472E-02 0.  0.
         14    1    1    2    0    0 -0.11726080710E-02  0.10164253909E-01 -0.19700793563E-01  0.22199286795E-01  0.00000000000E+00 0.  1.
     999901    1    3    3    0    0  0.78703112851E-01  0.16474635686E-01 -0.85986777516E-01  0.88783969246E+00  0.88000000000E+00 0.  1.
        -11    1    4    4    0    0 -0.33727369855E-01 -0.87918632231E-02  0.46919774129E-01  0.58451335841E-01  0.51100000000E-03 0. -1.
         11    1    4    4    0    0 -0.43803134925E-01 -0.17847026372E-01  0.58767796950E-01  0.75439684908E-01  0.51100000000E-03 0.  1.
</event>
<event>
 8    1  0.1146431E+005  0.1043930E+01  0.7957747E-01            NaN
         13   -1    0    0    0    0  0.00000000000E+00  0.00000000000E+00  0.74505805969E-08  0.10566000000E+00  0.10566000000E+00 0.  1.
     999900   -1    0    0    0    0 -0.00000000000E+00 -0.00000000000E+00 -0.74505805969E-08  0.93827000000E+00  0.93827000000E+00 0. -1.
     999902    2    1    2    0    0 -0.21749007070E-01 -0.49438307185E-03 -0.66851330701E-02  0.10211713813E+01  0.10209177416E+01 0.  0.
     999903    2    3    3    0    0 -0.68282884694E-01  0.58247303482E-01  0.94773557249E-01  0.13217765048E+00  0.20823146459E-01 0.  0.
         14    1    1    2    0    0  0.21749007070E-01  0.49438307185E-03  0.66851330701E-02  0.22758618748E-01  0.00000000000E+00 0. -1.
     999901    1    3    3    0    0  0.46533877623E-01 -0.58741686554E-01 -0.10145869032E+00  0.88899373077E+00  0.88000000000E+00 0. -1.
        -11    1    4    4    0    0 -0.56827277317E-01  0.36675756671E-01  0.71845193920E-01  0.98673418838E-01  0.51100000000E-03 0. -1.
         11    1    4    4    0    0 -0.11455607377E-01  0.21571546811E-01  0.22928363329E-01  0.33504231645E-01  0.51100000000E-03 0.  1.
</event>
<event>
 8    1  0.1146431E+005  0.1043930E+01  0.7957747E-01            NaN
         13   -1    0    0    0    0  0.00000000000E+00  0.00000000000E+00  0.74505805969E-08  0.10566000000E+00  0.10566000000E+00 0. -1.
     999900   -1    0    0    0    0 -0.00000000000E+00 -0.00000000000E+00 -0.74505805969E-08  0.93827000000E+00  0.93827000000E+00 0.  1.
     999902    2    1    2    0    0  0.18354554066E-01  0.28061880828E-02  0.19942655203E-01  0.10166816268E+01  0.10163164155E+01 0.  0.
     999903    2    3    3    0    0  0.12135888248E-01  0.76567450365E-01 -0.97058742588E-01  0.12585688380E+00  0.20241083195E-01 0.  0.
         14    1    1    2    0    0 -0.18354554066E-01 -0.28061880828E-02 -0.19942655203E-01  0.27248373219E-01  0.00000000000E+00 0.  1.
     999901    1    3    3    0    0  0.62186658181E-02 -0.73761262282E-01  0.11700139779E+00  0.89082474298E+00  0.88000000000E+00 0. -1.
        -11    1    4    4    0    0  0.10088664361E-02  0.19194593219E-01 -0.38969531468E-01  0.43454985033E-01  0.51100000000E-03 0.  1.
         11    1    4    4    0    0  0.11127021812E-01  0.57372857145E-01 -0.58089211120E-01  0.82401898770E-01  0.51100000000E-03 0. -1.
</event>
<event>
 8    1  0.1146431E+005  0.1043930E+01  0.7957747E-01            NaN
         13   -1    0    0    0    0  0.00000000000E+00  0.00000000000E+00  0.74505805969E-08  0.10566000000E+00  0.10566000000E+00 0. -1.
     999900   -1    0    0    0    0 -0.00000000000E+00 -0.00000000000E+00 -0.74505805969E-08  0.93827000000E+00  0.93827000000E+00 0.  1.
     999902    2    1    2    0    0  0.11943093121E-01 -0.64617192117E-02 -0.19578614744E-01  0.10201032620E+01  0.10198249613E+01 0.  0.
     999903    2    3    3    0    0  0.98868377426E-01 -0.77275098715E-01  0.33605852310E-01  0.13139682717E+00  0.19732611201E-01 0.  0.
         14    1    1    2    0    0 -0.11943093121E-01  0.64617192117E-02  0.19578614744E-01  0.23826738001E-01  0.00000000000E+00 0. -1.
     999901    1    3    3    0    0 -0.86925284305E-01  0.70813379504E-01 -0.53184467054E-01  0.88870643483E+00  0.88000000000E+00 0.  1.
        -11    1    4    4    0    0  0.28882729599E-01 -0.18440279764E-01  0.87308396616E-03  0.34282347986E-01  0.51100000000E-03 0. -1.
         11    1    4    4    0    0  0.69985647827E-01 -0.58834818952E-01  0.32732768344E-01  0.97114479185E-01  0.51100000000E-03 0.  1.
</event>
<event>
 8    1  0.1146431E+005  0.1043930E+01  0.7957747E-01            NaN
         13   -1    0    0    0    0  0.00000000000E+00  0.00000000000E+00  0.74505805969E-08  0.10566000000E+00  0.10566000000E+00 0. -1.
     999900   -1    0    0    0    0 -0.00000000000E+00 -0.00000000000E+00 -0.74505805969E-08  0.93827000000E+00  0.93827000000E+00 0.  1.
     999902    2    1    2    0    0 -0.13771360759E-01  0.11253520682E-01  0.15385354830E-01  0.10204140214E+01  0.10201430164E+01 0.  0.
     999903    2    3    3    0    0 -0.11591032214E+00 -0.39667090708E-01  0.42351522580E-01  0.13263451598E+00  0.28099510684E-01 0.  0.
         14    1    1    2    0    0  0.13771360759E-01 -0.11253520682E-01 -0.15385354830E-01  0.23515978571E-01  0.00000000000E+00 0.  1.
     999901    1    3    3    0    0  0.10213896138E+00  0.50920611390E-01 -0.26966167750E-01  0.88777950545E+00  0.88000000000E+00 0.  1.
        -11    1    4    4    0    0 -0.83175356065E-01 -0.14639149146E-01  0.27190545231E-01  0.88724469090E-01  0.51100000000E-03 0.  1.
         11    1    4    4    0    0 -0.32734966073E-01 -0.25027941562E-01  0.15160977348E-01  0.43910046889E-01  0.51100000000E-03 0. -1.
</event>
<event>
 8    1  0.1146431E+005  0.1043930E+01  0.7957747E-01            NaN
         13   -1    0    0    0    0  0.00000000000E+00  0.00000000000E+00  0.74505805969E-08  0.10566000000E+00  0.10566000000E+00 0. -1.
     999900   -1    0    0    0    0 -0.00000000000E+00 -0.00000000000E+00 -0.74505805969E-08  0.93827000000E+00  0.93827000000E+00 0. -1.
     999902    2    1    2    0    0  0.21736114403E-01  0.75166441856E-02 -0.55231014222E-02  0.10202770243E+01  0.10200028152E+01 0.  0.
     999903    2    3    3    0    0  0.73340147540E-01 -0.72118730469E-01 -0.80465866493E-01  0.13200837849E+00  0.19276093871E-01 0.  0.
         14    1    1    2    0    0 -0.21736114403E-01 -0.75166441856E-02  0.55231014222E-02  0.23652975679E-01  0.00000000000E+00 0. -1.
     999901    1    3    3    0    0 -0.51604033137E-01  0.79635374655E-01  0.74942765071E-01  0.88826864583E+00  0.88000000000E+00 0. -1.
        -11    1    4    4    0    0  0.39603276715E-01 -0.38363525468E-01 -0.55133345042E-01  0.77975165722E-01  0.51100000000E-03 0. -1.
         11    1    4    4    0    0  0.33736870825E-01 -0.33755205001E-01 -0.25332521451E-01  0.54033212766E-01  0.51100000000E-03 0.  1.
</event>
<event>
 8    1  0.1146431E+005  0.1043930E+01  0.7957747E-01            NaN
         13   -1    0    0    0    0  0.00000000000E+00  0.00000000000E+00  0.74505805969E-08  0.10566000000E+00  0.10566000000E+00 0.  1.
     999900   -1    0    0    0    0 -0.00000000000E+00 -0.00000000000E+00 -0.74505805969E-08  0.93827000000E+00  0.93827000000E+00 0. -1.
     999902    2    1    2    0    0  0.22832598314E-01 -0.29133936319E-02 -0.52708794317E-02  0.10203164959E+01  0.10200432119E+01 0.  0.
     999903    2    3    3    0    0  0.10438443002E+00 -0.70833396798E-01 -0.37965809651E-01  0.13333690953E+00  0.20587603300E-01 0.  0.
         14    1    1    2    0    0 -0.22832598314E-01  0.29133936319E-02  0.52708794317E-02  0.23613504149E-01  0.00000000000E+00 0. -1.
     999901    1    3    3    0    0 -0.81551831702E-01  0.67920003166E-01  0.32694930220E-01  0.88697958632E+00  0.88000000000E+00 0. -1.
        -11    1    4    4    0    0  0.52852444744E-01 -0.40773781634E-01 -0.10190561728E-01  0.67527704341E-01  0.51100000000E-03 0.  1.
         11    1    4    4    0    0  0.51531985271E-01 -0.30059615163E-01 -0.27775247923E-01  0.65809205191E-01  0.51100000000E-03 0. -1.
</event>
<event>
 8    1  0.1146431E+005  0.1043930E+01  0.7957747E-01            NaN
         13   -1    0    0    0    0  0.00000000000E+00  0.00000000000E+00  0.74505805969E-08  0.10566000000E+00  0.10566000000E+00 0. -1.
     999900   -1    0    0    0    0 -0.00000000000E+00 -0.00000000000E+00 -0.74505805969E-08  0.93827000000E+00  0.93827000000E+00 0.  1.
     999902    2    1    2    0    0  0.56328716068E-02 -0.22679641311E-01 -0.67128226635E-02  0.10196162722E+01  0.10193263389E+01 0.  0.
     999903    2    3    3    0    0 -0.82152708015E-01 -0.32058032598E-01  0.92872584749E-01  0.12960980277E+00  0.19914795721E-01 0.  0.
         14    1    1    2    0    0 -0.56328716068E-02  0.22679641311E-01  0.67128226635E-02  0.24313727822E-01  0.00000000000E+00 0.  1.
     999901    1    3    3    0    0  0.87785579622E-01  0.93783912879E-02 -0.99585407412E-01  0.89000646940E+00  0.88000000000E+00 0.  1.
        -11    1    4    4    0    0 -0.74572759930E-02 -0.89540580951E-02  0.76246189785E-02  0.13934922216E-01  0.51100000000E-03 0. -1.
         11    1    4    4    0    0 -0.74695432022E-01 -0.23103974503E-01  0.85247965770E-01  0.11567488056E+00  0.51100000000E-03 0.  1.
</event>
<event>
 8    1  0.1146431E+005  0.1043930E+01  0.7957747E-01            NaN
         13   -1    0    0    0    0  0.00000000000E+00  0.00000000000E+00  0.74505805969E-08  0.10566000000E+00  0.10566000000E+00 0.  1.
     999900   -1    0    0    0    0 -0.00000000000E+00 -0.00000000000E+00 -0.74505805969E-08  0.93827000000E+00  0.93827000000E+00 0.  1.
     999902    2    1    2    0    0 -0.18665294803E-01 -0.10613030316E-01  0.49864767208E-02  0.10218869831E+01  0.10216492117E+01 0.  0.
     999903    2    3    3    0    0 -0.11944449894E+00 -0.54499047108E-01  0.23442910002E-01  0.13485650429E+00  0.19989303594E-01 0.  0.
         14    1    1    2    0    0  0.18665294803E-01  0.10613030316E-01 -0.49864767208E-02  0.22043016869E-01  0.00000000000E+00 0.  1.
     999901    1    3    3    0    0  0.10077920414E+00  0.43886016792E-01 -0.18456433281E-01  0.88703047884E+00  0.88000000000E+00 0. -1.
        -11    1    4    4    0    0 -0.89076631261E-01 -0.30740997612E-01  0.17364749936E-01  0.95819887458E-01  0.51100000000E-03 0. -1.
         11    1    4    4    0    0 -0.30367867679E-01 -0.23758049496E-01  0.60781600660E-02  0.39036616837E-01  0.51100000000E-03 0.  1.
</event>
<event>
 8    1  0.1146431E+005  0.1043930E+01  0.7957747E-01            NaN
         13   -1    0    0    0    0  0.00000000000E+00  0.00000000000E+00  0.74505805969E-08  0.10566000000E+00  0.10566000000E+00 0. -1.
     999900   -1    0    0    0    0 -0.00000000000E+00 -0.00000000000E+00 -0.74505805969E-08  0.93827000000E+00  0.93827000000E+00 0. -1.
     999902    2    1    2    0    0  0.20495806995E-01  0.51516829957E-02  0.97064314979E-02  0.10206741888E+01  0.10204092154E+01 0.  0.
     999903    2    3    3    0    0 -0.61192868789E-01  0.11261281555E+00 -0.11487387572E-01  0.13012934842E+00  0.19377147138E-01 0.  0.
         14    1    1    2    0    0 -0.20495806995E-01 -0.51516829957E-02 -0.97064314979E-02  0.23255811198E-01  0.00000000000E+00 0.  1.
     999901    1    3    3    0    0  0.81688675784E-01 -0.10746113255E+00  0.21193819070E-01  0.89054484038E+00  0.88000000000E+00 0. -1.
        -11    1    4    4    0    0 -0.24452134126E-01  0.27025972057E-01 -0.19582432102E-02  0.36502135094E-01  0.51100000000E-03 0. -1.
         11    1    4    4    0    0 -0.36740734663E-01  0.85586843491E-01 -0.95291443620E-02  0.93627213328E-01  0.51100000000E-03 0.  1.
</event>
<event>
 8    1  0.1146431E+005  0.1043930E+01  0.7957747E-01            NaN
         13   -1    0    0    0    0  0.00000000000E+00  0.00000000000E+00  0.74505805969E-08  0.10566000000E+00  0.10566000000E+00 0.  1.
     999900   -1    0    0    0    0 -0.00000000000E+00 -0.00000000000E+00 -0.74505805969E-08  0.93827000000E+00  0.93827000000E+00 0. -1.
     999902    2    1    2    0    0  0.16964533642E-01 -0.95099919740E-02 -0.13349658552E-01  0.10203408344E+01  0.10200681201E+01 0.  0.
     999903    2    3    3    0    0  0.96250511886E-01  0.27495575694E-01  0.82189396192E-01  0.13085593328E+00  0.18655045092E-01 0.  0.
         14    1    1    2    0    0 -0.16964533642E-01  0.95099919740E-02  0.13349658552E-01  0.23589165574E-01  0.00000000000E+00 0.  1.
     999901    1    3    3    0    0 -0.79285978244E-01 -0.37005567668E-01 -0.95539054744E-01  0.88948490115E+00  0.88000000000E+00 0. -1.
        -11    1    4    4    0    0  0.22708844706E-01  0.15012983871E-01  0.22280394977E-01  0.35181791226E-01  0.51100000000E-03 0.  1.
         11    1    4    4    0    0  0.73541667180E-01  0.12482591823E-01  0.59909001215E-01  0.95674142054E-01  0.51100000000E-03 0. -1.
</event>
<event>
 8    1  0.1146431E+005  0.1043930E+01  0.7957747E-01            NaN
         13   -1    0    0    0    0  0.00000000000E+00  0.00000000000E+00  0.74505805969E-08  0.10566000000E+00  0.10566000000E+00 0. -1.
     999900   -1    0    0    0    0 -0.00000000000E+00 -0.00000000000E+00 -0.74505805969E-08  0.93827000000E+00  0.93827000000E+00 0.  1.
     999902    2    1    2    0    0  0.10037099062E-01 -0.57127276323E-02  0.16863320101E-01  0.10234910622E+01  0.10232869608E+01 0.  0.
     999903    2    3    3    0    0  0.67635319867E-01 -0.89354569221E-01  0.74016700218E-01  0.13580867440E+00  0.20168009260E-01 0.  0.
         14    1    1    2    0    0 -0.10037099062E-01  0.57127276323E-02 -0.16863320101E-01  0.20438937825E-01  0.00000000000E+00 0.  1.
     999901    1    3    3    0    0 -0.57598220805E-01  0.83641841588E-01 -0.57153380117E-01  0.88768238777E+00  0.88000000000E+00 0.  1.
        -11    1    4    4    0    0  0.32391698319E-01 -0.49442253923E-01  0.27888797325E-01  0.65359044747E-01  0.51100000000E-03 0.  1.
         11    1    4    4    0    0  0.35243621549E-01 -0.39912315298E-01  0.46127902893E-01  0.70449629655E-01  0.51100000000E-03 0. -1.
</event>
<event>
 8    1  0.1146431E+005  0.1043930E+01  0.7957747E-01            NaN
         13   -1    0    0    0    0  0.00000000000E+00  0.00000000000E+00  0.74505805969E-08  0.10566000000E+00  0.10566000000E+00 0. -1.
     999900   -1    0    0    0    0 -0.00000000000E+00 -0.00000000000E+00 -0.74505805969E-08  0.93827000000E+00  0.93827000000E+00 0. -1.
     999902    2    1    2    0    0 -0.61282740598E-02 -0.94000846905E-02  0.20332438999E-01  0.10207066193E+01  0.10204423929E+01 0.  0.
     999903    2    3    3    0    0 -0.92127186864E-02 -0.11191590219E+00  0.69373290549E-01  0.13339381553E+00  0.19266894684E-01 0.  0.
         14    1    1    2    0    0  0.61282740598E-02  0.94000846905E-02 -0.20332438999E-01  0.23223380692E-01  0.00000000000E+00 0.  1.
     999901    1    3    3    0    0  0.30844446265E-02  0.10251581750E+00 -0.49040851551E-01  0.88731280378E+00  0.88000000000E+00 0. -1.
        -11    1    4    4    0    0  0.35791698127E-02 -0.57016291276E-01  0.40719030359E-01  0.70156742240E-01  0.51100000000E-03 0. -1.
         11    1    4    4    0    0 -0.12791888499E-01 -0.54899610911E-01  0.28654260191E-01  0.63237073285E-01  0.51100000000E-03 0.  1.
</event>
<event>
 8    1  0.1146431E+005  0.1043930E+01  0.7957747E-01            NaN
         13   -1    0    0    0    0  0.00000000000E+00  0.00000000000E+00  0.74505805969E-08  0.10566000000E+00  0.10566000000E+00 0.  1.
     999900   -1    0    0    0    0 -0.00000000000E+00 -0.00000000000E+00 -0.74505805969E-08  0.93827000000E+00  0.93827000000E+00 0.  1.
     999902    2    1    2    0    0  0.14558246269E-01 -0.39464443527E-02 -0.18477781005E-01  0.10200774247E+01  0.10197985130E+01 0.  0.
     999903    2    3    3    0    0  0.72241920072E-01 -0.25244552260E-01 -0.10761315443E+00  0.13343988296E+00  0.19220533939E-01 0.  0.
         14    1    1    2    0    0 -0.14558246269E-01  0.39464443527E-02  0.18477781005E-01  0.23852575298E-01  0.00000000000E+00 0.  1.
     999901    1    3    3    0    0 -0.57683673803E-01  0.21298107908E-01  0.89135373423E-01  0.88663754174E+00  0.88000000000E+00 0. -1.
        -11    1    4    4    0    0  0.52024462603E-01 -0.11870372005E-01 -0.62160055474E-01  0.81924258057E-01  0.51100000000E-03 0.  1.
         11    1    4    4    0    0  0.20217457470E-01 -0.13374180256E-01 -0.45453098954E-01  0.51515624907E-01  0.51100000000E-03 0. -1.
</event>
<event>
 8    1  0.1146431E+005  0.1043930E+01  0.7957747E-01            NaN
         13   -1    0    0    0    0  0.00000000000E+00  0.00000000000E+00  0.74505805969E-08  0.10566000000E+00  0.10566000000E+00 0.  1.
     999900   -1    0    0    0    0 -0.00000000000E+00 -0.00000000000E+00 -0.74505805969E-08  0.93827000000E+00  0.93827000000E+00 0.  1.
     999902    2    1    2    0    0 -0.18667353957E-01  0.12888593476E-01  0.76308020843E-02  0.10199964444E+01  0.10197156130E+01 0.  0.
     999903    2    3    3    0    0  0.12554634601E+00  0.15983557963E-01 -0.42990327368E-02  0.12817275605E+00  0.19809457008E-01 0.  0.
         14    1    1    2    0    0  0.18667353957E-01 -0.12888593476E-01 -0.76308020843E-02  0.23933555649E-01  0.00000000000E+00 0.  1.
     999901    1    3    3    0    0 -0.14421369997E+00 -0.30949644876E-02  0.11929834821E-01  0.89182368831E+00  0.88000000000E+00 0.  1.
        -11    1    4    4    0    0  0.74989645020E-01  0.40255410506E-02 -0.10577507251E-01  0.75840600087E-01  0.51100000000E-03 0. -1.
         11    1    4    4    0    0  0.50556700995E-01  0.11958016913E-01  0.62784745146E-02  0.52332155958E-01  0.51100000000E-03 0.  1.
</event>
<event>
 7    1  0.1146431E+005  0.1043930E+01  0.7957747E-01            NaN
         13   -1    0    0    0    0  0.00000000000E+00  0.00000000000E+00  0.74505805969E-08  0.10566000000E+00  0.10566000000E+00 0.  1.
     999900   -1    0    0    0    0 -0.00000000000E+00 -0.00000000000E+00 -0.74505805969E-08  0.93827000000E+00  0.93827000000E+00 0. -1.
     999903    2    1    2    0    0  0.69783190586E-01  0.42307528987E-01  0.27521202227E-01  0.88376181819E-01  0.19832101338E-01 0.  0.
         14    1    1    2    0    0 -0.53212334832E-01  0.38665446453E-01 -0.28487122041E-01  0.71680439799E-01  0.00000000000E+00 0. -1.
     999901    1    1    2    0    0 -0.16570855754E-01 -0.80972975440E-01  0.96591981318E-03  0.88387337838E+00  0.88000000000E+00 0. -1.
        -11    1    3    3    0    0  0.82554574501E-02 -0.61638169160E-03 -0.45615514629E-03  0.83067263479E-02  0.51100000000E-03 0. -1.
         11    1    3    3    0    0  0.61527733136E-01  0.42923910679E-01  0.27977357374E-01  0.80069455471E-01  0.51100000000E-03 0.  1.
</event>
<event>
 8    1  0.1146431E+005  0.1043930E+01  0.7957747E-01            NaN
         13   -1    0    0    0    0  0.00000000000E+00  0.00000000000E+00  0.74505805969E-08  0.10566000000E+00  0.10566000000E+00 0. -1.
     999900   -1    0    0    0    0 -0.00000000000E+00 -0.00000000000E+00 -0.74505805969E-08  0.93827000000E+00  0.93827000000E+00 0.  1.
     999902    2    1    2    0    0  0.17329858032E-01  0.13554142220E-01 -0.66830681522E-02  0.10209364759E+01  0.10206775131E+01 0.  0.
     999903    2    3    3    0    0  0.10791334576E+00  0.17334533994E-01  0.72690991147E-01  0.13272484520E+00  0.19650141949E-01 0.  0.
         14    1    1    2    0    0 -0.17329858032E-01 -0.13554142220E-01  0.66830681522E-02  0.22993524102E-01  0.00000000000E+00 0. -1.
     999901    1    3    3    0    0 -0.90583487727E-01 -0.37803917749E-02 -0.79374059299E-01  0.88821163069E+00  0.88000000000E+00 0.  1.
        -11    1    4    4    0    0  0.38919170695E-01  0.15875711426E-01  0.27893914837E-01  0.50448703322E-01  0.51100000000E-03 0.  1.
         11    1    4    4    0    0  0.68994175064E-01  0.14588225680E-02  0.44797076310E-01  0.82276141882E-01  0.51100000000E-03 0. -1.
</event>
<event>
 8    1  0.1146431E+005  0.1043930E+01  0.7957747E-01            NaN
         13   -1    0    0    0    0  0.00000000000E+00  0.00000000000E+00  0.74505805969E-08  0.10566000000E+00  0.10566000000E+00 0. -1.
     999900   -1    0    0    0    0 -0.00000000000E+00 -0.00000000000E+00 -0.74505805969E-08  0.93827000000E+00  0.93827000000E+00 0.  1.
     999902    2    1    2    0    0 -0.19841776815E-01 -0.10218103314E-01 -0.69289174411E-02  0.10205608828E+01  0.10202932911E+01 0.  0.
     999903    2    3    3    0    0 -0.18979220298E-01  0.91528098414E-01 -0.89751244835E-01  0.13083476117E+00  0.18023461889E-01 0.  0.
         14    1    1    2    0    0  0.19841776815E-01  0.10218103314E-01  0.69289174411E-02  0.23369117215E-01  0.00000000000E+00 0. -1.
     999901    1    3    3    0    0 -0.86255651745E-03 -0.10174620173E+00  0.82822327393E-01  0.88972612162E+00  0.88000000000E+00 0.  1.
        -11    1    4    4    0    0 -0.79622759364E-02  0.71756114672E-01 -0.63305556109E-01  0.96021832862E-01  0.51100000000E-03 0. -1.
         11    1    4    4    0    0 -0.11016944361E-01  0.19771983742E-01 -0.26445688725E-01  0.34812928307E-01  0.51100000000E-03 0.  1.
</event>
<event>
 8    1  0.1146431E+005  0.1043930E+01  0.7957747E-01            NaN
         13   -1    0    0    0    0  0.00000000000E+00  0.00000000000E+00  0.74505805969E-08  0.10566000000E+00  0.10566000000E+00 0.  1.
     999900   -1    0    0    0    0 -0.00000000000E+00 -0.00000000000E+00 -0.74505805969E-08  0.93827000000E+00  0.93827000000E+00 0.  1.
     999902    2    1    2    0    0  0.61203004444E-02  0.10164612180E-01 -0.21432658553E-01  0.10194323211E+01  0.10191379303E+01 0.  0.
     999903    2    3    3    0    0 -0.11932203948E+00 -0.24324537785E-01  0.34471439392E-01  0.12811276546E+00  0.19878840413E-01 0.  0.
         14    1    1    2    0    0 -0.61203004444E-02 -0.10164612180E-01  0.21432658553E-01  0.24497678889E-01  0.00000000000E+00 0.  1.
     999901    1    3    3    0    0  0.12544233993E+00  0.34489149965E-01 -0.55904097945E-01  0.89131955565E+00  0.88000000000E+00 0. -1.
        -11    1    4    4    0    0 -0.62942939618E-01 -0.22908727760E-01  0.18162729880E-01  0.69402949023E-01  0.51100000000E-03 0.  1.
         11    1    4    4    0    0 -0.56379099864E-01 -0.14158100252E-02  0.16308709512E-01  0.58709816441E-01  0.51100000000E-03 0. -1.
</event>
<event>
 8    1  0.1146431E+005  0.1043930E+01  0.7957747E-01            NaN
         13   -1    0    0    0    0  0.00000000000E+00  0.00000000000E+00  0.74505805969E-08  0.10566000000E+00  0.10566000000E+00 0. -1.
     999900   -1    0    0    0    0 -0.00000000000E+00 -0.00000000000E+00 -0.74505805969E-08  0.93827000000E+00  0.93827000000E+00 0. -1.
     999902    2    1    2    0    0  0.11025076229E-01  0.16437757825E-02  0.20819797828E-01  0.10203139401E+01  0.10200405963E+01 0.  0.
     999903    2    3    3    0    0  0.42992089506E-01 -0.76893138770E-01 -0.92159391973E-01  0.12904841611E+00  0.19981632107E-01 0.  0.
         14    1    1    2    0    0 -0.11025076229E-01 -0.16437757825E-02 -0.20819797828E-01  0.23616059923E-01  0.00000000000E+00 0.  1.
     999901    1    3    3    0    0 -0.31967013277E-01  0.78536914552E-01  0.11297918980E+00  0.89126552397E+00  0.88000000000E+00 0.  1.
        -11    1    4    4    0    0  0.30508749016E-01 -0.39167067213E-01 -0.60322463456E-01  0.78127483251E-01  0.51100000000E-03 0. -1.
         11    1    4    4    0    0  0.12483340490E-01 -0.37726071557E-01 -0.31836928516E-01  0.50920932859E-01  0.51100000000E-03 0.  1.
</event>
<event>
 8    1  0.1146431E+005  0.1043930E+01  0.7957747E-01            NaN
         13   -1    0    0    0    0  0.00000000000E+00  0.00000000000E+00  0.74505805969E-08  0.10566000000E+00  0.10566000000E+00 0.  1.
     999900   -1    0    0    0    0 -0.00000000000E+00 -0.00000000000E+00 -0.74505805969E-08  0.93827000000E+00  0.93827000000E+00 0.  1.
     999902    2    1    2    0    0  0.21454855707E-01 -0.11876608210E-02  0.94171824145E-02  0.10204692946E+01  0.10201995768E+01 0.  0.
     999903    2    3    3    0    0 -0.14193576348E-01  0.12784749162E+00 -0.60127280519E-03  0.13028883500E+00  0.20697349433E-01 0.  0.
         14    1    1    2    0    0 -0.21454855707E-01  0.11876608210E-02 -0.94171824145E-02  0.23460705366E-01  0.00000000000E+00 0. -1.
     999901    1    3    3    0    0  0.35648432054E-01 -0.12903515244E+00  0.10018455220E-01  0.89018045964E+00  0.88000000000E+00 0.  1.
        -11    1    4    4    0    0  0.45612517232E-03  0.60311956127E-01 -0.77513611092E-02  0.60811880600E-01  0.51100000000E-03 0. -1.
         11    1    4    4    0    0 -0.14649701520E-01  0.67535535491E-01  0.71500883040E-02  0.69476954398E-01  0.51100000000E-03 0.  1.
</event>
<event>
 8    1  0.1146431E+005  0.1043930E+01  0.7957747E-01            NaN
         13   -1    0    0    0    0  0.00000000000E+00  0.00000000000E+00  0.74505805969E-08  0.10566000000E+00  0.10566000000E+00 0. -1.
     999900   -1    0    0    0    0 -0.00000000000E+00 -0.00000000000E+00 -0.74505805969E-08  0.93827000000E+00  0.93827000000E+00 0. -1.
     999902    2    1    2    0    0 -0.34183123716E-02 -0.22818394174E-01 -0.58525594166E-02  0.10201262939E+01  0.10198485373E+01 0.  0.
     999903    2    3    3    0    0 -0.91524139222E-01  0.69796113963E-01 -0.55767207278E-01  0.12949081521E+00  0.20241645957E-01 0.  0.
         14    1    1    2    0    0  0.34183123716E-02  0.22818394174E-01  0.58525594166E-02  0.23803706095E-01  0.00000000000E+00 0. -1.
     999901    1    3    3    0    0  0.88105826850E-01 -0.92614508137E-01  0.49914647861E-01  0.89063547870E+00  0.88000000000E+00 0.  1.
        -11    1    4    4    0    0 -0.43273978364E-01  0.40958223404E-01 -0.19953137410E-01  0.62837903222E-01  0.51100000000E-03 0. -1.
         11    1    4    4    0    0 -0.48250160858E-01  0.28837890559E-01 -0.35814069868E-01  0.66652911986E-01  0.51100000000E-03 0.  1.
</event>
<event>
 8    1  0.1146431E+005  0.1043930E+01  0.7957747E-01            NaN
         13   -1    0    0    0    0  0.00000000000E+00  0.00000000000E+00  0.74505805969E-08  0.10566000000E+00  0.10566000000E+00 0. -1.
     999900   -1    0    0    0    0 -0.00000000000E+00 -0.00000000000E+00 -0.74505805969E-08  0.93827000000E+00  0.93827000000E+00 0. -1.
     999902    2    1    2    0    0  0.11677132041E-02 -0.17697583710E-01  0.15343379469E-01  0.10204781916E+01  0.10202086807E+01 0.  0.
     999903    2    3    3    0    0 -0.41528925594E-01  0.11665388652E+00 -0.24865629908E-01  0.12835147138E+00  0.22869625107E-01 0.  0.
         14    1    1    2    0    0 -0.11677132041E-02  0.17697583710E-01 -0.15343379469E-01  0.23451808391E-01  0.00000000000E+00 0.  1.
     999901    1    3    3    0    0  0.42696638798E-01 -0.13435147023E+00  0.40209009377E-01  0.89212672023E+00  0.88000000000E+00 0.  1.
        -11    1    4    4    0    0 -0.18358864703E-01  0.67226485248E-01 -0.24149537838E-01  0.73755742358E-01  0.51100000000E-03 0.  1.
         11    1    4    4    0    0 -0.23170060890E-01  0.49427401272E-01 -0.71609207002E-03  0.54595729018E-01  0.51100000000E-03 0. -1.
</event>
<event>
 8    1  0.1146431E+005  0.1043930E+01  0.7957747E-01            NaN
         13   -1    0    0    0    0  0.00000000000E+00  0.00000000000E+00  0.74505805969E-08  0.10566000000E+00  0.10566000000E+00 0.  1.
     999900   -1    0    0    0    0 -0.00000000000E+00 -0.00000000000E+00 -0.74505805969E-08  0.93827000000E+00  0.93827000000E+00 0.  1.
     999902    2    1    2    0    0  0.18848063767E-01 -0.44669120494E-02  0.13187166927E-01  0.10204970279E+01  0.10202279548E+01 0.  0.
     999903    2    3    3    0    0  0.59188880508E-01 -0.13756629784E-01 -0.11373961698E+00  0.13042731778E+00  0.19545237646E-01 0.  0.
         14    1    1    2    0    0 -0.18848063767E-01  0.44669120494E-02 -0.13187166927E-01  0.23432972125E-01  0.00000000000E+00 0. -1.
     999901    1    3    3    0    0 -0.40340816740E-01  0.92897177350E-02  0.12692678391E+00  0.89006971009E+00  0.88000000000E+00 0. -1.
        -11    1    4    4    0    0  0.33596676944E-01  0.16824463720E-02 -0.53923459619E-01  0.63557595501E-01  0.51100000000E-03 0.  1.
         11    1    4    4    0    0  0.25592203564E-01 -0.15439076156E-01 -0.59816157360E-01  0.66869722282E-01  0.51100000000E-03 0. -1.
</event>
<event>
 8    1  0.1146431E+005  0.1043930E+01  0.7957747E-01            NaN
         13   -1    0    0    0    0  0.00000000000E+00  0.00000000000E+00  0.74505805969E-08  0.10566000000E+00  0.10566000000E+00 0.  1.
     999900   -1    0    0    0    0 -0.00000000000E+00 -0.00000000000E+00 -0.74505805969E-08  0.93827000000E+00  0.93827000000E+00 0.  1.
     999902    2    1    2    0    0 -0.10284470996E-01  0.83749884905E-02  0.18878934065E-01  0.10208578322E+01  0.10205970746E+01 0.  0.
     999903    2    3    3    0    0  0.83586451147E-01 -0.73326932284E-01 -0.62295218827E-01  0.12840268095E+00  0.15589110718E-01 0.  0.
         14    1    1    2    0    0  0.10284470996E-01 -0.83749884905E-02 -0.18878934065E-01  0.23072167807E-01  0.00000000000E+00 0. -1.
     999901    1    3    3    0    0 -0.93870922143E-01  0.81701920774E-01  0.81174152892E-01  0.89245515124E+00  0.88000000000E+00 0. -1.
        -11    1    4    4    0    0  0.32460744350E-01 -0.26431834683E-01 -0.32026540462E-01  0.52709602763E-01  0.51100000000E-03 0.  1.
         11    1    4    4    0    0  0.51125706797E-01 -0.46895097601E-01 -0.30268678365E-01  0.75693078187E-01  0.51100000000E-03 0. -1.
</event>
<event>
 8    1  0.1146431E+005  0.1043930E+01  0.7957747E-01            NaN
         13   -1    0    0    0    0  0.00000000000E+00  0.00000000000E+00  0.74505805969E-08  0.10566000000E+00  0.10566000000E+00 0.  1.
     999900   -1    0    0    0    0 -0.00000000000E+00 -0.00000000000E+00 -0.74505805969E-08  0.93827000000E+00  0.93827000000E+00 0. -1.
     999902    2    1    2    0    0  0.18352175607E-01 -0.18239063056E-01 -0.27610077070E-02  0.10179090674E+01  0.10175764249E+01 0.  0.
     999903    2    3    3    0    0 -0.70179051419E-01  0.79981682002E-01 -0.64125821489E-01  0.12591650391E+00  0.20510393996E-01 0.  0.
         14    1    1    2    0    0 -0.18352175607E-01  0.18239063056E-01  0.27610077070E-02  0.26020932616E-01  0.00000000000E+00 0. -1.
     999901    1    3    3    0    0  0.88531227026E-01 -0.98220745057E-01  0.61364813782E-01  0.89199256347E+00  0.88000000000E+00 0. -1.
        -11    1    4    4    0    0 -0.31602544845E-01  0.33318195926E-01 -0.16202739279E-01  0.48699208429E-01  0.51100000000E-03 0. -1.
         11    1    4    4    0    0 -0.38576506574E-01  0.46663486075E-01 -0.47923082211E-01  0.77217295483E-01  0.51100000000E-03 0.  1.
</event>
<event>
 8    1  0.1146431E+005  0.1043930E+01  0.7957747E-01            NaN
         13   -1    0    0    0    0  0.00000000000E+00  0.00000000000E+00  0.74505805969E-08  0.10566000000E+00  0.10566000000E+00 0.  1.
     999900   -1    0    0    0    0 -0.00000000000E+00 -0.00000000000E+00 -0.74505805969E-08  0.93827000000E+00  0.93827000000E+00 0.  1.
     999902    2    1    2    0    0  0.12683585797E-01  0.13959532462E-01 -0.23269685701E-01  0.10139763664E+01  0.10135338432E+01 0.  0.
     999903    2    3    3    0    0  0.63687224098E-02  0.43428734490E-01  0.11304709112E+00  0.12297099320E+00  0.20386386443E-01 0.  0.
         14    1    1    2    0    0 -0.12683585797E-01 -0.13959532462E-01  0.23269685701E-01  0.29953633633E-01  0.00000000000E+00 0.  1.
     999901    1    3    3    0    0  0.63148633873E-02 -0.29469202028E-01 -0.13631677683E+00  0.89100537317E+00  0.88000000000E+00 0.  1.
        -11    1    4    4    0    0  0.30900701748E-02  0.79642099872E-02  0.68569555001E-02  0.10966135789E-01  0.51100000000E-03 0. -1.
         11    1    4    4    0    0  0.32786522350E-02  0.35464524503E-01  0.10619013562E+00  0.11200485741E+00  0.51100000000E-03 0.  1.
</event>
<event>
 8    1  0.1146431E+005  0.1043930E+01  0.7957747E-01            NaN
         13   -1    0    0    0    0  0.00000000000E+00  0.00000000000E+00  0.74505805969E-08  0.10566000000E+00  0.10566000000E+00 0.  1.
     999900   -1    0    0    0    0 -0.00000000000E+00 -0.00000000000E+00 -0.74505805969E-08  0.93827000000E+00  0.93827000000E+00 0.  1.
     999902    2    1    2    0    0 -0.21384928698E-01 -0.86185610295E-02  0.46209608587E-02  0.10204151526E+01  0.10201441739E+01 0.  0.
     999903    2    3    3    0    0  0.65010408227E-01  0.14589157433E-01 -0.10796386882E+00  0.12874363442E+00  0.21898167537E-01 0.  0.
         14    1    1    2    0    0  0.21384928698E-01  0.86185610295E-02 -0.46209608587E-02  0.23514847413E-01  0.00000000000E+00 0.  1.
     999901    1    3    3    0    0 -0.86395336924E-01 -0.23207718463E-01  0.11258482967E+00  0.89167151817E+00  0.88000000000E+00 0. -1.
        -11    1    4    4    0    0  0.45923496073E-01  0.83830017009E-02 -0.55233507475E-01  0.72320423658E-01  0.51100000000E-03 0. -1.
         11    1    4    4    0    0  0.19086912154E-01  0.62061557324E-02 -0.52730361340E-01  0.56423210761E-01  0.51100000000E-03 0.  1.
</event>
<event>
 8    1  0.1146431E+005  0.1043930E+01  0.7957747E-01            NaN
         13   -1    0    0    0    0  0.00000000000E+00  0.00000000000E+00  0.74505805969E-08  0.10566000000E+00  0.10566000000E+00 0.  1.
     999900   -1    0    0    0    0 -0.00000000000E+00 -0.00000000000E+00 -0.74505805969E-08  0.93827000000E+00  0.93827000000E+00 0.  1.
     999902    2    1    2    0    0 -0.50461571352E-02  0.38460557807E-02  0.24722262053E-01  0.10184065581E+01  0.10180866719E+01 0.  0.
     999903    2    3    3    0    0 -0.57403300489E-01  0.23498133911E-01 -0.10970767566E+00  0.12644305950E+00  0.10235819079E-01 0.  0.
         14    1    1    2    0    0  0.50461571352E-02 -0.38460557807E-02 -0.24722262053E-01  0.25523441929E-01  0.00000000000E+00 0. -1.
     999901    1    3    3    0    0  0.52357143353E-01 -0.19652078130E-01  0.13442993771E+00  0.89196349857E+00  0.88000000000E+00 0. -1.
        -11    1    4    4    0    0 -0.20620449901E-01  0.89460653901E-02 -0.49956249713E-01  0.54782506756E-01  0.51100000000E-03 0. -1.
         11    1    4    4    0    0 -0.36782850588E-01  0.14552068521E-01 -0.59751425946E-01  0.71660552741E-01  0.51100000000E-03 0.  1.
</event>
<event>
 8    1  0.1146431E+005  0.1043930E+01  0.7957747E-01            NaN
         13   -1    0    0    0    0  0.00000000000E+00  0.00000000000E+00  0.74505805969E-08  0.10566000000E+00  0.10566000000E+00 0.  1.
     999900   -1    0    0    0    0 -0.00000000000E+00 -0.00000000000E+00 -0.74505805969E-08  0.93827000000E+00  0.93827000000E+00 0. -1.
     999902    2    1    2    0    0  0.11235458706E-01  0.15292835478E-01 -0.68526354246E-02  0.10237541491E+01  0.10235553198E+01 0.  0.
     999903    2    3    3    0    0  0.35175305268E-01 -0.10839236114E+00 -0.65256374756E-01  0.13286574926E+00  0.20216498830E-01 0.  0.
         14    1    1    2    0    0 -0.11235458706E-01 -0.15292835478E-01  0.68526354246E-02  0.20175850950E-01  0.00000000000E+00 0.  1.
     999901    1    3    3    0    0 -0.23939846562E-01  0.12368519662E+00  0.58403739331E-01  0.89088839979E+00  0.88000000000E+00 0.  1.
        -11    1    4    4    0    0  0.35787372787E-01 -0.93184617312E-01 -0.61264465947E-01  0.11712260612E+00  0.51100000000E-03 0.  1.
         11    1    4    4    0    0 -0.61206751910E-03 -0.15207743831E-01 -0.39919088086E-02  0.15743143142E-01  0.51100000000E-03 0. -1.
</event>
<event>
 8    1  0.1146431E+005  0.1043930E+01  0.7957747E-01            NaN
         13   -1    0    0    0    0  0.00000000000E+00  0.00000000000E+00  0.74505805969E-08  0.10566000000E+00  0.10566000000E+00 0.  1.
     999900   -1    0    0    0    0 -0.00000000000E+00 -0.00000000000E+00 -0.74505805969E-08  0.93827000000E+00  0.93827000000E+00 0.  1.
     999902    2    1    2    0    0  0.19571305939E-01  0.32496934185E-02  0.12938651603E-01  0.10202444511E+01  0.10199694773E+01 0.  0.
     999903    2    3    3    0    0  0.96728300151E-01 -0.15980758333E-02 -0.86424728497E-01  0.13128450599E+00  0.20185884216E-01 0.  0.
         14    1    1    2    0    0 -0.19571305939E-01 -0.32496934185E-02 -0.12938651603E-01  0.23685548944E-01  0.00000000000E+00 0. -1.
     999901    1    3    3    0    0 -0.77156994212E-01  0.48477692518E-02  0.99363380099E-01  0.88895994506E+00  0.88000000000E+00 0. -1.
        -11    1    4    4    0    0  0.40772278543E-01  0.77947841873E-02 -0.43548436829E-01  0.60165312510E-01  0.51100000000E-03 0.  1.
         11    1    4    4    0    0  0.55956021607E-01 -0.93928600206E-02 -0.42876291668E-01  0.71119193483E-01  0.51100000000E-03 0. -1.
</event>
<event>
 8    1  0.1146431E+005  0.1043930E+01  0.7957747E-01            NaN
         13   -1    0    0    0    0  0.00000000000E+00  0.00000000000E+00  0.74505805969E-08  0.10566000000E+00  0.10566000000E+00 0.  1.
     999900   -1    0    0    0    0 -0.00000000000E+00 -0.00000000000E+00 -0.74505805969E-08  0.93827000000E+00  0.93827000000E+00 0.  1.
     999902    2    1    2    0    0  0.21987885447E-01 -0.34065627258E-02 -0.76760004961E-02  0.10203929492E+01  0.10201214526E+01 0.  0.
     999903    2    3    3    0    0  0.98485451670E-01 -0.80240026965E-01  0.31879161096E-01  0.13285710787E+00  0.22290896823E-01 0.  0.
         14    1    1    2    0    0 -0.21987885447E-01  0.34065627258E-02  0.76760004961E-02  0.23537050785E-01  0.00000000000E+00 0.  1.
     999901    1    3    3    0    0 -0.76497566223E-01  0.76833464239E-01 -0.39555161592E-01  0.88753584135E+00  0.88000000000E+00 0.  1.
        -11    1    4    4    0    0  0.66796398151E-01 -0.48281641301E-01  0.30322499147E-01  0.87821357130E-01  0.51100000000E-03 0. -1.
         11    1    4    4    0    0  0.31689053520E-01 -0.31958385664E-01  0.15566619484E-02  0.45035750739E-01  0.51100000000E-03 0.  1.
</event>
<event>
 8    1  0.1146431E+005  0.1043930E+01  0.7957747E-01            NaN
         13   -1    0    0    0    0  0.00000000000E+00  0.00000000000E+00  0.74505805969E-08  0.10566000000E+00  0.10566000000E+00 0. -1.
     999900   -1    0    0    0    0 -0.00000000000E+00 -0.00000000000E+00 -0.74505805969E-08  0.93827000000E+00  0.93827000000E+00 0. -1.
     999902    2    1    2    0    0 -0.15760035541E-01 -0.16358271059E-01  0.43111591727E-02  0.10208094930E+01  0.10205476290E+01 0.  0.
     999903    2    3    3    0    0 -0.28737216441E-01 -0.12584180826E+00  0.28301198236E-01  0.13360569782E+00  0.19685943023E-01 0.  0.
         14    1    1    2    0    0  0.15760035541E-01  0.16358271059E-01 -0.43111591727E-02  0.23120507038E-01  0.00000000000E+00 0.  1.
     999901    1    3    3    0    0  0.12977180900E-01  0.10948353720E+00 -0.23990039063E-01  0.88720379514E+00  0.88000000000E+00 0. -1.
        -11    1    4    4    0    0 -0.28407382807E-01 -0.87776182817E-01  0.16303040228E-01  0.93689315877E-01  0.51100000000E-03 0. -1.
         11    1    4    4    0    0 -0.32983363389E-03 -0.38065625445E-01  0.11998158008E-01  0.39916381942E-01  0.51100000000E-03 0.  1.
</event>
<event>
 8    1  0.1146431E+005  0.1043930E+01  0.7957747E-01            NaN
         13   -1    0    0    0    0  0.00000000000E+00  0.00000000000E+00  0.74505805969E-08  0.10566000000E+00  0.10566000000E+00 0.  1.
     999900   -1    0    0    0    0 -0.00000000000E+00 -0.00000000000E+00 -0.74505805969E-08  0.93827000000E+00  0.93827000000E+00 0.  1.
     999902    2    1    2    0    0  0.21139699948E-02  0.20107293355E-01  0.20592321475E-01  0.10150714515E+01  0.10146611434E+01 0.  0.
     999903    2    3    3    0    0  0.33422743669E-01 -0.54104810509E-01  0.10816393653E+00  0.12706443387E+00  0.20038035743E-01 0.  0.
         14    1    1    2    0    0 -0.21139699948E-02 -0.20107293355E-01 -0.20592321475E-01  0.28858548455E-01  0.00000000000E+00 0. -1.
     999901    1    3    3    0    0 -0.31308773674E-01  0.74212103864E-01 -0.87571615052E-01  0.88800701767E+00  0.88000000000E+00 0.  1.
        -11    1    4    4    0    0  0.12147547087E-01 -0.34651853923E-01  0.71900503028E-01  0.80735725285E-01  0.51100000000E-03 0.  1.
         11    1    4    4    0    0  0.21275196582E-01 -0.19452956585E-01  0.36263433498E-01  0.46328708590E-01  0.51100000000E-03 0. -1.
</event>
<event>
 8    1  0.1146431E+005  0.1043930E+01  0.7957747E-01            NaN
         13   -1    0    0    0    0  0.00000000000E+00  0.00000000000E+00  0.74505805969E-08  0.10566000000E+00  0.10566000000E+00 0. -1.
     999900   -1    0    0    0    0 -0.00000000000E+00 -0.00000000000E+00 -0.74505805969E-08  0.93827000000E+00  0.93827000000E+00 0. -1.
     999902    2    1    2    0    0 -0.22063804117E-01 -0.57098603210E-02 -0.67863890670E-02  0.10201504072E+01  0.10198732197E+01 0.  0.
     999903    2    3    3    0    0 -0.50994764583E-01  0.11589669384E+00 -0.27664342889E-01  0.13107164610E+00  0.19543563811E-01 0.  0.
         14    1    1    2    0    0  0.22063804117E-01  0.57098603210E-02  0.67863890670E-02  0.23779592797E-01  0.00000000000E+00 0. -1.
     999901    1    3    3    0    0  0.28930960466E-01 -0.12160655416E+00  0.20877953822E-01  0.88907876110E+00  0.88000000000E+00 0.  1.
        -11    1    4    4    0    0 -0.34705691300E-01  0.80229090057E-01 -0.28206441847E-01  0.91853450575E-01  0.51100000000E-03 0. -1.
         11    1    4    4    0    0 -0.16289073283E-01  0.35667603782E-01  0.54209895855E-03  0.39218195525E-01  0.51100000000E-03 0.  1.
</event>
<event>
 8    1  0.1146431E+005  0.1043930E+01  0.7957747E-01            NaN
         13   -1    0    0    0    0  0.00000000000E+00  0.00000000000E+00  0.74505805969E-08  0.10566000000E+00  0.10566000000E+00 0.  1.
     999900   -1    0    0    0    0 -0.00000000000E+00 -0.00000000000E+00 -0.74505805969E-08  0.93827000000E+00  0.93827000000E+00 0. -1.
     999902    2    1    2    0    0 -0.27914550029E-02  0.31229242861E-02 -0.23462924132E-01  0.10200961231E+01  0.10198176537E+01 0.  0.
     999903    2    3    3    0    0  0.26972914182E-01 -0.32369345576E-02  0.12278045808E+00  0.12750803656E+00  0.21100773828E-01 0.  0.
         14    1    1    2    0    0  0.27914550029E-02 -0.31229242861E-02  0.23462924132E-01  0.23833876856E-01  0.00000000000E+00 0.  1.
     999901    1    3    3    0    0 -0.29764369185E-01  0.63598588436E-02 -0.14624338221E+00  0.89258808659E+00  0.88000000000E+00 0. -1.
        -11    1    4    4    0    0  0.17307224886E-01 -0.89581328652E-02  0.46767557963E-01  0.50668074530E-01  0.51100000000E-03 0.  1.
         11    1    4    4    0    0  0.96656892963E-02  0.57211983077E-02  0.76012900114E-01  0.76839962027E-01  0.51100000000E-03 0. -1.
</event>
<event>
 8    1  0.1146431E+005  0.1043930E+01  0.7957747E-01            NaN
         13   -1    0    0    0    0  0.00000000000E+00  0.00000000000E+00  0.74505805969E-08  0.10566000000E+00  0.10566000000E+00 0.  1.
     999900   -1    0    0    0    0 -0.00000000000E+00 -0.00000000000E+00 -0.74505805969E-08  0.93827000000E+00  0.93827000000E+00 0.  1.
     999902    2    1    2    0    0 -0.84721672216E-02 -0.18577769937E-01  0.10260825585E-01  0.10210783984E+01  0.10208226585E+01 0.  0.
     999903    2    3    3    0    0  0.10492499376E-01  0.18081171429E-01 -0.12637293359E+00  0.12957835876E+00  0.19580894058E-01 0.  0.
         14    1    1    2    0    0  0.84721672216E-02  0.18577769937E-01 -0.10260825585E-01  0.22851601584E-01  0.00000000000E+00 0. -1.
     999901    1    3    3    0    0 -0.18964666598E-01 -0.36658941366E-01  0.13663375917E+00  0.89150003966E+00  0.88000000000E+00 0. -1.
        -11    1    4    4    0    0  0.13024103178E-01  0.72033862490E-02 -0.44039282003E-01  0.46489090305E-01  0.51100000000E-03 0.  1.
         11    1    4    4    0    0 -0.25316038016E-02  0.10877785180E-01 -0.82333651584E-01  0.83089268455E-01  0.51100000000E-03 0. -1.
</event>
<event>
 8    1  0.1146431E+005  0.1043930E+01  0.7957747E-01            NaN
         13   -1    0    0    0    0  0.00000000000E+00  0.00000000000E+00  0.74505805969E-08  0.10566000000E+00  0.10566000000E+00 0.  1.
     999900   -1    0    0    0    0 -0.00000000000E+00 -0.00000000000E+00 -0.74505805969E-08  0.93827000000E+00  0.93827000000E+00 0. -1.
     999902    2    1    2    0    0  0.36587217588E-02  0.18056299771E-01 -0.15412614159E-01  0.10199099067E+01  0.10196270166E+01 0.  0.
     999903    2    3    3    0    0  0.15998593598E-01  0.76501139851E-01 -0.10606880151E+00  0.13323825606E+00  0.19835897483E-01 0.  0.
         14    1    1    2    0    0 -0.36587217588E-02 -0.18056299771E-01  0.15412614159E-01  0.24020093288E-01  0.00000000000E+00 0.  1.
     999901    1    3    3    0    0 -0.12339871840E-01 -0.58444840080E-01  0.90656187346E-01  0.88667165065E+00  0.88000000000E+00 0.  1.
        -11    1    4    4    0    0  0.20162945429E-01  0.53120301219E-01 -0.72439172542E-01  0.92065224757E-01  0.51100000000E-03 0. -1.
         11    1    4    4    0    0 -0.41643518307E-02  0.23380838633E-01 -0.33629628963E-01  0.41173031301E-01  0.51100000000E-03 0.  1.
</event>
<event>
 8    1  0.1146431E+005  0.1043930E+01  0.7957747E-01            NaN
         13   -1    0    0    0    0  0.00000000000E+00  0.00000000000E+00  0.74505805969E-08  0.10566000000E+00  0.10566000000E+00 0. -1.
     999900   -1    0    0    0    0 -0.00000000000E+00 -0.00000000000E+00 -0.74505805969E-08  0.93827000000E+00  0.93827000000E+00 0. -1.
     999902    2    1    2    0    0 -0.68217935614E-02  0.23413279658E-01 -0.43313074534E-03  0.10195393023E+01  0.10192475081E+01 0.  0.
     999903    2    3    3    0    0  0.89610436480E-01  0.12632526027E-01 -0.90655165417E-01  0.12962053344E+00  0.19837152835E-01 0.  0.
         14    1    1    2    0    0  0.68217935614E-02 -0.23413279658E-01  0.43313074534E-03  0.24390697694E-01  0.00000000000E+00 0. -1.
     999901    1    3    3    0    0 -0.96432230042E-01  0.10780753631E-01  0.90222034672E-01  0.88991876887E+00  0.88000000000E+00 0.  1.
        -11    1    4    4    0    0  0.39275343234E-01 -0.18576090959E-02 -0.48124122961E-01  0.62146565709E-01  0.51100000000E-03 0.  1.
         11    1    4    4    0    0  0.50335093246E-01  0.14490135123E-01 -0.42531042456E-01  0.67473967731E-01  0.51100000000E-03 0. -1.
</event>
<event>
 8    1  0.1146431E+005  0.1043930E+01  0.7957747E-01            NaN
         13   -1    0    0    0    0  0.00000000000E+00  0.00000000000E+00  0.74505805969E-08  0.10566000000E+00  0.10566000000E+00 0.  1.
     999900   -1    0    0    0    0 -0.00000000000E+00 -0.00000000000E+00 -0.74505805969E-08  0.93827000000E+00  0.93827000000E+00 0. -1.
     999902    2    1    2    0    0 -0.28086634764E-02 -0.83967617511E-03 -0.22193077022E-01  0.10215441492E+01  0.10212988410E+01 0.  0.
     999903    2    3    3    0    0 -0.35214857605E-01 -0.32490206261E-01  0.11835297028E+00  0.12924088863E+00  0.20002050413E-01 0.  0.
         14    1    1    2    0    0  0.28086634764E-02  0.83967617511E-03  0.22193077022E-01  0.22385850761E-01  0.00000000000E+00 0.  1.
     999901    1    3    3    0    0  0.32406194128E-01  0.31650530086E-01 -0.14054604731E+00  0.89230326060E+00  0.88000000000E+00 0. -1.
        -11    1    4    4    0    0 -0.15589105455E-01 -0.19269584474E-01  0.83562819588E-01  0.87162738789E-01  0.51100000000E-03 0. -1.
         11    1    4    4    0    0 -0.19625752150E-01 -0.13220621787E-01  0.34790150696E-01  0.42078149845E-01  0.51100000000E-03 0.  1.
</event>
<event>
 8    1  0.1146431E+005  0.1043930E+01  0.7957747E-01            NaN
         13   -1    0    0    0    0  0.00000000000E+00  0.00000000000E+00  0.74505805969E-08  0.10566000000E+00  0.10566000000E+00 0.  1.
     999900   -1    0    0    0    0 -0.00000000000E+00 -0.00000000000E+00 -0.74505805969E-08  0.93827000000E+00  0.93827000000E+00 0.  1.
     999902    2    1    2    0    0 -0.21988218644E-01 -0.58523142640E-02  0.52900159861E-02  0.10205694433E+01  0.10203020499E+01 0.  0.
     999903    2    3    3    0    0 -0.36858478002E-01  0.72637125440E-01  0.10169913734E+00  0.13170700429E+00  0.19217727496E-01 0.  0.
         14    1    1    2    0    0  0.21988218644E-01  0.58523142640E-02 -0.52900159861E-02  0.23360556725E-01  0.00000000000E+00 0.  1.
     999901    1    3    3    0    0  0.14870259358E-01 -0.78489439704E-01 -0.96409121355E-01  0.88886243899E+00  0.88000000000E+00 0.  1.
        -11    1    4    4    0    0 -0.24687466788E-01  0.58713064538E-01  0.67388361478E-01  0.92726195585E-01  0.51100000000E-03 0. -1.
         11    1    4    4    0    0 -0.12171011213E-01  0.13924060902E-01  0.34310775863E-01  0.38980808705E-01  0.51100000000E-03 0.  1.
</event>
<event>
 8    1  0.1146431E+005  0.1043930E+01  0.7957747E-01            NaN
         13   -1    0    0    0    0  0.00000000000E+00  0.00000000000E+00  0.74505805969E-08  0.10566000000E+00  0.10566000000E+00 0.  1.
     999900   -1    0    0    0    0 -0.00000000000E+00 -0.00000000000E+00 -0.74505805969E-08  0.93827000000E+00  0.93827000000E+00 0. -1.
     999902    2    1    2    0    0 -0.16733831898E-01 -0.13242941857E-01  0.97532118947E-02  0.10204667994E+01  0.10201970236E+01 0.  0.
     999903    2    3    3    0    0  0.28025351159E-01  0.10754997154E+00  0.63301598011E-01  0.12947760642E+00  0.20123159995E-01 0.  0.
         14    1    1    2    0    0  0.16733831898E-01  0.13242941857E-01 -0.97532118947E-02  0.23463200576E-01  0.00000000000E+00 0. -1.
     999901    1    3    3    0    0 -0.44759183058E-01 -0.12079291339E+00 -0.53548386117E-01  0.89098919300E+00  0.88000000000E+00 0. -1.
        -11    1    4    4    0    0  0.92738839197E-02  0.68023141814E-01  0.32416561986E-01  0.75922640610E-01  0.51100000000E-03 0.  1.
         11    1    4    4    0    0  0.18751467240E-01  0.39526829723E-01  0.30885036025E-01  0.53554965809E-01  0.51100000000E-03 0. -1.
</event>
<event>
 8    1  0.1146431E+005  0.1043930E+01  0.7957747E-01            NaN
         13   -1    0    0    0    0  0.00000000000E+00  0.00000000000E+00  0.74505805969E-08  0.10566000000E+00  0.10566000000E+00 0. -1.
     999900   -1    0    0    0    0 -0.00000000000E+00 -0.00000000000E+00 -0.74505805969E-08  0.93827000000E+00  0.93827000000E+00 0. -1.
     999902    2    1    2    0    0 -0.10005171555E-01 -0.21905674309E-01 -0.61871503454E-03  0.10198396527E+01  0.10195550855E+01 0.  0.
     999903    2    3    3    0    0  0.14362604271E-01 -0.44913306324E-01 -0.12065831643E+00  0.13105810162E+00  0.19857169768E-01 0.  0.
         14    1    1    2    0    0  0.10005171555E-01  0.21905674309E-01  0.61871503454E-03  0.24090347301E-01  0.00000000000E+00 0. -1.
     999901    1    3    3    0    0 -0.24367775825E-01  0.23007632014E-01  0.12003960139E+00  0.88878155108E+00  0.88000000000E+00 0.  1.
        -11    1    4    4    0    0  0.84735759548E-03 -0.10938436100E-04 -0.19864523187E-01  0.19889156266E-01  0.51100000000E-03 0.  1.
         11    1    4    4    0    0  0.13515246675E-01 -0.44902367888E-01 -0.10079379324E+00  0.11116894536E+00  0.51100000000E-03 0. -1.
</event>
<event>
 8    1  0.1146431E+005  0.1043930E+01  0.7957747E-01            NaN
         13   -1    0    0    0    0  0.00000000000E+00  0.00000000000E+00  0.74505805969E-08  0.10566000000E+00  0.10566000000E+00 0.  1.
     999900   -1    0    0    0    0 -0.00000000000E+00 -0.00000000000E+00 -0.74505805969E-08  0.93827000000E+00  0.93827000000E+00 0. -1.
     999902    2    1    2    0    0  0.20647765217E-01  0.69084220472E-02 -0.65951742602E-02  0.10211802126E+01  0.10209267720E+01 0.  0.
     999903    2    3    3    0    0 -0.28221165752E-01 -0.12224497672E+00  0.26555335825E-01  0.12979492600E+00  0.20031685519E-01 0.  0.
         14    1    1    2    0    0 -0.20647765217E-01 -0.69084220472E-02  0.65951742602E-02  0.22749787409E-01  0.00000000000E+00 0. -1.
     999901    1    3    3    0    0  0.48868930970E-01  0.12915339877E+00 -0.33150510085E-01  0.89138528659E+00  0.88000000000E+00 0. -1.
        -11    1    4    4    0    0 -0.10096153517E-01 -0.85241038860E-01  0.17501454578E-01  0.87604389473E-01  0.51100000000E-03 0. -1.
         11    1    4    4    0    0 -0.18125012236E-01 -0.37003937863E-01  0.90538812470E-02  0.42190536528E-01  0.51100000000E-03 0.  1.
</event>
<event>
 8    1  0.1146431E+005  0.1043930E+01  0.7957747E-01            NaN
         13   -1    0    0    0    0  0.00000000000E+00  0.00000000000E+00  0.74505805969E-08  0.10566000000E+00  0.10566000000E+00 0. -1.
     999900   -1    0    0    0    0 -0.00000000000E+00 -0.00000000000E+00 -0.74505805969E-08  0.93827000000E+00  0.93827000000E+00 0. -1.
     999902    2    1    2    0    0 -0.71321682240E-02 -0.11606796495E-01 -0.20912460569E-01  0.10189717037E+01  0.10186659984E+01 0.  0.
     999903    2    3    3    0    0 -0.99185608407E-01  0.80013336768E-01  0.45828172105E-02  0.12907390400E+00  0.19978776373E-01 0.  0.
         14    1    1    2    0    0  0.71321682240E-02  0.11606796495E-01  0.20912460569E-01  0.24958296326E-01  0.00000000000E+00 0. -1.
     999901    1    3    3    0    0  0.92053440182E-01 -0.91620133263E-01 -0.25495277780E-01  0.88989779967E+00  0.88000000000E+00 0.  1.
        -11    1    4    4    0    0 -0.84842602129E-01  0.61727005875E-01  0.93700608817E-02  0.10534016115E+00  0.51100000000E-03 0.  1.
         11    1    4    4    0    0 -0.14343006278E-01  0.18286330894E-01 -0.47872436712E-02  0.23733742849E-01  0.51100000000E-03 0. -1.
</event>
<event>
 7    1  0.1146431E+005  0.1043930E+01  0.7957747E-01            NaN
         13   -1    0    0    0    0  0.00000000000E+00  0.00000000000E+00  0.74505805969E-08  0.10566000000E+00  0.10566000000E+00 0. -1.
     999900   -1    0    0    0    0 -0.00000000000E+00 -0.00000000000E+00 -0.74505805969E-08  0.93827000000E+00  0.93827000000E+00 0.  1.
     999903    2    1    2    0    0  0.12741554508E-01  0.26710448931E-01 -0.84857852411E-01  0.92189666468E-01  0.20549554604E-01 0.  0.
         14    1    1    2    0    0  0.29249649601E-01  0.18177108466E-01  0.60078096625E-01  0.69248299387E-01  0.00000000000E+00 0. -1.
     999901    1    1    2    0    0 -0.41991204108E-01 -0.44887557397E-01  0.24779755786E-01  0.88249203414E+00  0.88000000000E+00 0. -1.
        -11    1    3    3    0    0 -0.98898764417E-04 -0.25629686416E-02 -0.16735061980E-01  0.16938182007E-01  0.51100000000E-03 0. -1.
         11    1    3    3    0    0  0.12840453272E-01  0.29273417572E-01 -0.68122790431E-01  0.75251484462E-01  0.51100000000E-03 0.  1.
</event>
<event>
 8    1  0.1146431E+005  0.1043930E+01  0.7957747E-01            NaN
         13   -1    0    0    0    0  0.00000000000E+00  0.00000000000E+00  0.74505805969E-08  0.10566000000E+00  0.10566000000E+00 0. -1.
     999900   -1    0    0    0    0 -0.00000000000E+00 -0.00000000000E+00 -0.74505805969E-08  0.93827000000E+00  0.93827000000E+00 0.  1.
     999902    2    1    2    0    0 -0.54290942359E-02  0.64319740516E-02 -0.22007377782E-01  0.10203679536E+01  0.10200958733E+01 0.  0.
     999903    2    3    3    0    0  0.59589056257E-01 -0.92524583588E-01  0.63034899618E-01  0.12837470858E+00  0.19874934937E-01 0.  0.
         14    1    1    2    0    0  0.54290942359E-02 -0.64319740516E-02  0.22007377782E-01  0.23562046415E-01  0.00000000000E+00 0. -1.
     999901    1    3    3    0    0 -0.65018150493E-01  0.98956557640E-01 -0.85042277400E-01  0.89199324501E+00  0.88000000000E+00 0. -1.
        -11    1    4    4    0    0  0.33717452959E-01 -0.67317444360E-01  0.37325945988E-01  0.84035660967E-01  0.51100000000E-03 0.  1.
         11    1    4    4    0    0  0.25871603299E-01 -0.25207139228E-01  0.25708953630E-01  0.44339047611E-01  0.51100000000E-03 0. -1.
</event>
<event>
 8    1  0.1146431E+005  0.1043930E+01  0.7957747E-01            NaN
         13   -1    0    0    0    0  0.00000000000E+00  0.00000000000E+00  0.74505805969E-08  0.10566000000E+00  0.10566000000E+00 0.  1.
     999900   -1    0    0    0    0 -0.00000000000E+00 -0.00000000000E+00 -0.74505805969E-08  0.93827000000E+00  0.93827000000E+00 0.  1.
     999902    2    1    2    0    0  0.79620360292E-02  0.22296330339E-01 -0.18167706218E-02  0.10201850843E+01  0.10199087142E+01 0.  0.
     999903    2    3    3    0    0  0.90687018260E-01  0.56770609594E-01  0.75501249524E-01  0.13226055215E+00  0.18584336995E-01 0.  0.
         14    1    1    2    0    0 -0.79620360292E-02 -0.22296330339E-01  0.18167706218E-02  0.23744915662E-01  0.00000000000E+00 0.  1.
     999901    1    3    3    0    0 -0.82724982231E-01 -0.34474279255E-01 -0.77318020146E-01  0.88792453218E+00  0.88000000000E+00 0.  1.
        -11    1    4    4    0    0  0.60972966722E-01  0.28954485924E-01  0.41626747452E-01  0.79303922668E-01  0.51100000000E-03 0. -1.
         11    1    4    4    0    0  0.29714051538E-01  0.27816123670E-01  0.33874502072E-01  0.52956629486E-01  0.51100000000E-03 0.  1.
</event>
<event>
 8    1  0.1146431E+005  0.1043930E+01  0.7957747E-01            NaN
         13   -1    0    0    0    0  0.00000000000E+00  0.00000000000E+00  0.74505805969E-08  0.10566000000E+00  0.10566000000E+00 0.  1.
     999900   -1    0    0    0    0 -0.00000000000E+00 -0.00000000000E+00 -0.74505805969E-08  0.93827000000E+00  0.93827000000E+00 0.  1.
     999902    2    1    2    0    0 -0.57478835637E-02 -0.20106805784E-01 -0.11722368412E-01  0.10199563535E+01  0.10196745693E+01 0.  0.
     999903    2    3    3    0    0  0.91290970542E-01 -0.25470426707E-01 -0.87611721815E-01  0.13135942488E+00  0.24427459256E-01 0.  0.
         14    1    1    2    0    0  0.57478835637E-02  0.20106805784E-01  0.11722368412E-01  0.23973646479E-01  0.00000000000E+00 0. -1.
     999901    1    3    3    0    0 -0.97038854105E-01  0.53636209230E-02  0.75889353403E-01  0.88859692864E+00  0.88000000000E+00 0.  1.
        -11    1    4    4    0    0  0.59727876271E-01 -0.19360562026E-01 -0.41952215794E-01  0.75514899833E-01  0.51100000000E-03 0.  1.
         11    1    4    4    0    0  0.31563094271E-01 -0.61098646809E-02 -0.45659506020E-01  0.55844525044E-01  0.51100000000E-03 0. -1.
</event>
<event>
 8    1  0.1146431E+005  0.1043930E+01  0.7957747E-01            NaN
         13   -1    0    0    0    0  0.00000000000E+00  0.00000000000E+00  0.74505805969E-08  0.10566000000E+00  0.10566000000E+00 0. -1.
     999900   -1    0    0    0    0 -0.00000000000E+00 -0.00000000000E+00 -0.74505805969E-08  0.93827000000E+00  0.93827000000E+00 0.  1.
     999902    2    1    2    0    0 -0.13775109740E-01  0.17148777779E-01 -0.60908927697E-02  0.10211060389E+01  0.10208509242E+01 0.  0.
     999903    2    3    3    0    0  0.32683300599E-01 -0.51114800972E-01  0.11254217712E+00  0.12931452435E+00  0.19379978350E-01 0.  0.
         14    1    1    2    0    0  0.13775109740E-01 -0.17148777779E-01  0.60908927697E-02  0.22823961146E-01  0.00000000000E+00 0.  1.
     999901    1    3    3    0    0 -0.46458410339E-01  0.68263578751E-01 -0.11863306989E+00  0.89179151451E+00  0.88000000000E+00 0.  1.
        -11    1    4    4    0    0  0.88732706869E-03 -0.15936444263E-01  0.34067359768E-01  0.37624509666E-01  0.51100000000E-03 0. -1.
         11    1    4    4    0    0  0.31795973530E-01 -0.35178356709E-01  0.78474817348E-01  0.91690014681E-01  0.51100000000E-03 0.  1.
</event>
<event>
 8    1  0.1146431E+005  0.1043930E+01  0.7957747E-01            NaN
         13   -1    0    0    0    0  0.00000000000E+00  0.00000000000E+00  0.74505805969E-08  0.10566000000E+00  0.10566000000E+00 0. -1.
     999900   -1    0    0    0    0 -0.00000000000E+00 -0.00000000000E+00 -0.74505805969E-08  0.93827000000E+00  0.93827000000E+00 0. -1.
     999902    2    1    2    0    0 -0.33122047599E-02  0.17681600759E-01 -0.15835268770E-01  0.10199640775E+01  0.10196824770E+01 0.  0.
     999903    2    3    3    0    0  0.72164012832E-01  0.60986168499E-01  0.86625528765E-01  0.12975614668E+00  0.20142439548E-01 0.  0.
         14    1    1    2    0    0  0.33122047599E-02 -0.17681600759E-01  0.15835268770E-01  0.23965922532E-01  0.00000000000E+00 0. -1.
     999901    1    3    3    0    0 -0.75476217592E-01 -0.43304567740E-01 -0.10246079753E+00  0.89020793079E+00  0.88000000000E+00 0. -1.
        -11    1    4    4    0    0  0.10018124726E-01  0.12168127710E-01  0.24920870868E-01  0.29491305173E-01  0.51100000000E-03 0. -1.
         11    1    4    4    0    0  0.62145888106E-01  0.48818040790E-01  0.61704657897E-01  0.10026484151E+00  0.51100000000E-03 0.  1.
</event>
<event>
 8    1  0.1146431E+005  0.1043930E+01  0.7957747E-01            NaN
         13   -1    0    0    0    0  0.00000000000E+00  0.00000000000E+00  0.74505805969E-08  0.10566000000E+00  0.10566000000E+00 0.  1.
     999900   -1    0    0    0    0 -0.00000000000E+00 -0.00000000000E+00 -0.74505805969E-08  0.93827000000E+00  0.93827000000E+00 0.  1.
     999902    2    1    2    0    0  0.15405422641E-01 -0.11533517091E-01 -0.13160763509E-01  0.10206157391E+01  0.10203494167E+01 0.  0.
     999903    2    3    3    0    0 -0.88334598085E-02  0.78898457953E-01 -0.10233245857E+00  0.13116812588E+00  0.20740021487E-01 0.  0.
         14    1    1    2    0    0 -0.15405422641E-01  0.11533517091E-01  0.13160763509E-01  0.23314260859E-01  0.00000000000E+00 0.  1.
     999901    1    3    3    0    0  0.24238882450E-01 -0.90431975044E-01  0.89171695059E-01  0.88944761326E+00  0.88000000000E+00 0. -1.
        -11    1    4    4    0    0 -0.15065467524E-01  0.63055177879E-01 -0.77265367938E-01  0.10086189554E+00  0.51100000000E-03 0.  1.
         11    1    4    4    0    0  0.62320077153E-02  0.15843280073E-01 -0.25067090631E-01  0.30306230339E-01  0.51100000000E-03 0. -1.
</event>
<event>
 8    1  0.1146431E+005  0.1043930E+01  0.7957747E-01            NaN
         13   -1    0    0    0    0  0.00000000000E+00  0.00000000000E+00  0.74505805969E-08  0.10566000000E+00  0.10566000000E+00 0. -1.
     999900   -1    0    0    0    0 -0.00000000000E+00 -0.00000000000E+00 -0.74505805969E-08  0.93827000000E+00  0.93827000000E+00 0. -1.
     999902    2    1    2    0    0  0.77069584678E-02  0.25894181763E-02 -0.22552063022E-01  0.10199571436E+01  0.10196753783E+01 0.  0.
     999903    2    3    3    0    0 -0.12461953119E+00 -0.15588170312E-01 -0.26248540723E-01  0.12987041274E+00  0.20107700170E-01 0.  0.
         14    1    1    2    0    0 -0.77069584678E-02 -0.25894181763E-02  0.22552063022E-01  0.23972856356E-01  0.00000000000E+00 0. -1.
     999901    1    3    3    0    0  0.13232648966E+00  0.18177588488E-01  0.36964777013E-02  0.89008673091E+00  0.88000000000E+00 0.  1.
        -11    1    4    4    0    0 -0.77159648215E-01 -0.19436814453E-01 -0.16440323772E-01  0.81252362645E-01  0.51100000000E-03 0. -1.
         11    1    4    4    0    0 -0.47459882978E-01  0.38486441412E-02 -0.98082169514E-02  0.48618050092E-01  0.51100000000E-03 0.  1.
</event>
<event>
 8    1  0.1146431E+005  0.1043930E+01  0.7957747E-01            NaN
         13   -1    0    0    0    0  0.00000000000E+00  0.00000000000E+00  0.74505805969E-08  0.10566000000E+00  0.10566000000E+00 0. -1.
     999900   -1    0    0    0    0 -0.00000000000E+00 -0.00000000000E+00 -0.74505805969E-08  0.93827000000E+00  0.93827000000E+00 0.  1.
     999902    2    1    2    0    0  0.17562739419E-02  0.13203799001E-02  0.18230786456E-01  0.10255672803E+01  0.10254028754E+01 0.  0.
     999903    2    3    3    0    0 -0.32282984183E-01 -0.10067066960E+00 -0.79279730804E-01  0.13367650991E+00  0.20183131558E-01 0.  0.
         14    1    1    2    0    0 -0.17562739419E-02 -0.13203799001E-02 -0.18230786456E-01  0.18362719734E-01  0.00000000000E+00 0.  1.
     999901    1    3    3    0    0  0.34039258125E-01  0.10199104950E+00  0.97510517260E-01  0.89189077036E+00  0.88000000000E+00 0. -1.
        -11    1    4    4    0    0 -0.29655496230E-02 -0.40512432632E-01 -0.27434174793E-01  0.49019860770E-01  0.51100000000E-03 0. -1.
         11    1    4    4    0    0 -0.29317434560E-01 -0.60158236968E-01 -0.51845556011E-01  0.84656649139E-01  0.51100000000E-03 0.  1.
</event>
<event>
 8    1  0.1146431E+005  0.1043930E+01  0.7957747E-01            NaN
         13   -1    0    0    0    0  0.00000000000E+00  0.00000000000E+00  0.74505805969E-08  0.10566000000E+00  0.10566000000E+00 0.  1.
     999900   -1    0    0    0    0 -0.00000000000E+00 -0.00000000000E+00 -0.74505805969E-08  0.93827000000E+00  0.93827000000E+00 0. -1.
     999902    2    1    2    0    0 -0.13575992105E-01 -0.16605511328E-01  0.97169565622E-02  0.10203828173E+01  0.10201110842E+01 0.  0.
     999903    2    3    3    0    0 -0.71578712798E-01  0.95911312899E-01 -0.45587742812E-01  0.12960621169E+00  0.19925755824E-01 0.  0.
         14    1    1    2    0    0  0.13575992105E-01  0.16605511328E-01 -0.97169565622E-02  0.23547182696E-01  0.00000000000E+00 0. -1.
     999901    1    3    3    0    0  0.58002720693E-01 -0.11251682423E+00  0.55304699374E-01  0.89077660562E+00  0.88000000000E+00 0.  1.
        -11    1    4    4    0    0 -0.27993187061E-01  0.31214354774E-01 -0.67793601989E-02  0.42475584887E-01  0.51100000000E-03 0. -1.
         11    1    4    4    0    0 -0.43585525737E-01  0.64696958126E-01 -0.38808382613E-01  0.87130626800E-01  0.51100000000E-03 0.  1.
</event>
<event>
 8    1  0.1146431E+005  0.1043930E+01  0.7957747E-01            NaN
         13   -1    0    0    0    0  0.00000000000E+00  0.00000000000E+00  0.74505805969E-08  0.10566000000E+00  0.10566000000E+00 0. -1.
     999900   -1    0    0    0    0 -0.00000000000E+00 -0.00000000000E+00 -0.74505805969E-08  0.93827000000E+00  0.93827000000E+00 0.  1.
     999902    2    1    2    0    0 -0.21454714124E-01 -0.16795678729E-02  0.13891366830E-01  0.10183156334E+01  0.10179934348E+01 0.  0.
     999903    2    3    3    0    0 -0.63042250330E-01  0.62451140795E-01  0.94584230871E-01  0.13132430912E+00  0.20625884756E-01 0.  0.
         14    1    1    2    0    0  0.21454714124E-01  0.16795678729E-02 -0.13891366830E-01  0.25614366648E-01  0.00000000000E+00 0. -1.
     999901    1    3    3    0    0  0.41587536206E-01 -0.64130708668E-01 -0.80692864042E-01  0.88699132424E+00  0.88000000000E+00 0.  1.
        -11    1    4    4    0    0 -0.24149122133E-01  0.14753875612E-01  0.40378944057E-01  0.49311025030E-01  0.51100000000E-03 0.  1.
         11    1    4    4    0    0 -0.38893128197E-01  0.47697265183E-01  0.54205286814E-01  0.82013284086E-01  0.51100000000E-03 0. -1.
</event>
<event>
 8    1  0.1146431E+005  0.1043930E+01  0.7957747E-01            NaN
         13   -1    0    0    0    0  0.00000000000E+00  0.00000000000E+00  0.74505805969E-08  0.10566000000E+00  0.10566000000E+00 0. -1.
     999900   -1    0    0    0    0 -0.00000000000E+00 -0.00000000000E+00 -0.74505805969E-08  0.93827000000E+00  0.93827000000E+00 0. -1.
     999902    2    1    2    0    0  0.10578962008E-01  0.14134277179E-01 -0.14815526324E-01  0.10208823960E+01  0.10206221997E+01 0.  0.
     999903    2    3    3    0    0 -0.50386026651E-01  0.62740359321E-02  0.11665233059E+00  0.12899545777E+00  0.21306024621E-01 0.  0.
         14    1    1    2    0    0 -0.10578962008E-01 -0.14134277179E-01  0.14815526324E-01  0.23047603971E-01  0.00000000000E+00 0. -1.
     999901    1    3    3    0    0  0.60964988659E-01  0.78602412469E-02 -0.13146785691E+00  0.89188693826E+00  0.88000000000E+00 0. -1.
        -11    1    4    4    0    0 -0.40947494056E-01  0.12176512225E-01  0.80088302505E-01  0.90770931683E-01  0.51100000000E-03 0. -1.
         11    1    4    4    0    0 -0.94385325951E-02 -0.59024762930E-02  0.36564028083E-01  0.38224526087E-01  0.51100000000E-03 0.  1.
</event>
<event>
 8    1  0.1146431E+005  0.1043930E+01  0.7957747E-01            NaN
         13   -1    0    0    0    0  0.00000000000E+00  0.00000000000E+00  0.74505805969E-08  0.10566000000E+00  0.10566000000E+00 0.  1.
     999900   -1    0    0    0    0 -0.00000000000E+00 -0.00000000000E+00 -0.74505805969E-08  0.93827000000E+00  0.93827000000E+00 0.  1.
     999902    2    1    2    0    0  0.40324475018E-02  0.19742761081E-01  0.11625298721E-01  0.10206666207E+01  0.10204014728E+01 0.  0.
     999903    2    3    3    0    0 -0.19727568383E-01 -0.73435253142E-01 -0.10213736273E+00  0.12814848424E+00  0.14424971055E-01 0.  0.
         14    1    1    2    0    0 -0.40324475018E-02 -0.19742761081E-01 -0.11625298721E-01  0.23263379340E-01  0.00000000000E+00 0. -1.
     999901    1    3    3    0    0  0.23760015885E-01  0.93178014224E-01  0.11376266145E+00  0.89251813642E+00  0.88000000000E+00 0. -1.
        -11    1    4    4    0    0 -0.20462224167E-01 -0.51423300021E-01 -0.71812862771E-01  0.90666458976E-01  0.51100000000E-03 0.  1.
         11    1    4    4    0    0  0.73465578349E-03 -0.22011953121E-01 -0.30324499961E-01  0.37482025268E-01  0.51100000000E-03 0. -1.
</event>
<event>
 8    1  0.1146431E+005  0.1043930E+01  0.7957747E-01            NaN
         13   -1    0    0    0    0  0.00000000000E+00  0.00000000000E+00  0.74505805969E-08  0.10566000000E+00  0.10566000000E+00 0.  1.
     999900   -1    0    0    0    0 -0.00000000000E+00 -0.00000000000E+00 -0.74505805969E-08  0.93827000000E+00  0.93827000000E+00 0.  1.
     999902    2    1    2    0    0  0.53294652550E-02 -0.12722800311E-01  0.19147323426E-01  0.10203314229E+01  0.10200584884E+01 0.  0.
     999903    2    3    3    0    0 -0.25875400845E-02  0.12243745859E+00 -0.33557877804E-01  0.12841841547E+00  0.19171114718E-01 0.  0.
         14    1    1    2    0    0 -0.53294652550E-02  0.12722800311E-01 -0.19147323426E-01  0.23598577119E-01  0.00000000000E+00 0.  1.
     999901    1    3    3    0    0  0.79170053394E-02 -0.13516025890E+00  0.52705201229E-01  0.89191300741E+00  0.88000000000E+00 0. -1.
        -11    1    4    4    0    0  0.20462263670E-02  0.40204795827E-01 -0.19968716710E-01  0.44940220492E-01  0.51100000000E-03 0.  1.
         11    1    4    4    0    0 -0.46337664514E-02  0.82232662759E-01 -0.13589161094E-01  0.83478194975E-01  0.51100000000E-03 0. -1.
</event>
<event>
 8    1  0.1146431E+005  0.1043930E+01  0.7957747E-01            NaN
         13   -1    0    0    0    0  0.00000000000E+00  0.00000000000E+00  0.74505805969E-08  0.10566000000E+00  0.10566000000E+00 0. -1.
     999900   -1    0    0    0    0 -0.00000000000E+00 -0.00000000000E+00 -0.74505805969E-08  0.93827000000E+00  0.93827000000E+00 0. -1.
     999902    2    1    2    0    0  0.17047303877E-01 -0.15902792273E-01  0.59502361766E-02  0.10198693541E+01  0.10195854965E+01 0.  0.
     999903    2    3    3    0    0 -0.63648071420E-01  0.27789370327E-01 -0.10578382918E+00  0.12807046979E+00  0.19710418983E-01 0.  0.
         14    1    1    2    0    0 -0.17047303877E-01  0.15902792273E-01 -0.59502361766E-02  0.24060645921E-01  0.00000000000E+00 0.  1.
     999901    1    3    3    0    0  0.80695375297E-01 -0.43692162600E-01  0.11173406536E+00  0.89179888429E+00  0.88000000000E+00 0.  1.
        -11    1    4    4    0    0 -0.29066125001E-01  0.23420124349E-01 -0.54306691822E-01  0.65900073936E-01  0.51100000000E-03 0.  1.
         11    1    4    4    0    0 -0.34581946419E-01  0.43692459778E-02 -0.51477137357E-01  0.62170395849E-01  0.51100000000E-03 0. -1.
</event>
<event>
 8    1  0.1146431E+005  0.1043930E+01  0.7957747E-01            NaN
         13   -1    0    0    0    0  0.00000000000E+00  0.00000000000E+00  0.74505805969E-08  0.10566000000E+00  0.10566000000E+00 0. -1.
     999900   -1    0    0    0    0 -0.00000000000E+00 -0.00000000000E+00 -0.74505805969E-08  0.93827000000E+00  0.93827000000E+00 0.  1.
     999902    2    1    2    0    0  0.75397838772E-02  0.10775095017E-01  0.19729290266E-01  0.10202193292E+01  0.10199437650E+01 0.  0.
     999903    2    3    3    0    0 -0.63078518894E-01  0.33585144167E-01  0.11001589498E+00  0.13249250526E+00  0.18544685091E-01 0.  0.
         14    1    1    2    0    0 -0.75397838772E-02 -0.10775095017E-01 -0.19729290266E-01  0.23710670761E-01  0.00000000000E+00 0.  1.
     999901    1    3    3    0    0  0.70618302771E-01 -0.22810049150E-01 -0.90286604717E-01  0.88772682398E+00  0.88000000000E+00 0.  1.
        -11    1    4    4    0    0 -0.20236370876E-01  0.16297657325E-01  0.53636031886E-01  0.59600414244E-01  0.51100000000E-03 0.  1.
         11    1    4    4    0    0 -0.42842148018E-01  0.17287486842E-01  0.56379863098E-01  0.72892091012E-01  0.51100000000E-03 0. -1.
</event>
<event>
 8    1  0.1146431E+005  0.1043930E+01  0.7957747E-01            NaN
         13   -1    0    0    0    0  0.00000000000E+00  0.00000000000E+00  0.74505805969E-08  0.10566000000E+00  0.10566000000E+00 0.  1.
     999900   -1    0    0    0    0 -0.00000000000E+00 -0.00000000000E+00 -0.74505805969E-08  0.93827000000E+00  0.93827000000E+00 0.  1.
     999902    2    1    2    0    0 -0.11346751634E-01 -0.11261740322E-01 -0.18082416668E-01  0.10197939407E+01  0.10195082795E+01 0.  0.
     999903    2    3    3    0    0  0.12117953599E+00  0.20075698832E-01 -0.34525485433E-01  0.12916740473E+00  0.20117049311E-01 0.  0.
         14    1    1    2    0    0  0.11346751634E-01  0.11261740322E-01  0.18082416668E-01  0.24136059336E-01  0.00000000000E+00 0.  1.
     999901    1    3    3    0    0 -0.13252628762E+00 -0.31337439155E-01  0.16443068766E-01  0.89062653594E+00  0.88000000000E+00 0.  1.
        -11    1    4    4    0    0  0.44340334539E-01  0.98236156970E-02 -0.22610683609E-01  0.50735321292E-01  0.51100000000E-03 0. -1.
         11    1    4    4    0    0  0.76839201452E-01  0.10252083135E-01 -0.11914801824E-01  0.78432083435E-01  0.51100000000E-03 0.  1.
</event>
<event>
 8    1  0.1146431E+005  0.1043930E+01  0.7957747E-01            NaN
         13   -1    0    0    0    0  0.00000000000E+00  0.00000000000E+00  0.74505805969E-08  0.10566000000E+00  0.10566000000E+00 0. -1.
     999900   -1    0    0    0    0 -0.00000000000E+00 -0.00000000000E+00 -0.74505805969E-08  0.93827000000E+00  0.93827000000E+00 0. -1.
     999902    2    1    2    0    0  0.17668068315E-01 -0.13246222958E-01  0.81901483207E-02  0.10203778963E+01  0.10201060482E+01 0.  0.
     999903    2    3    3    0    0 -0.88260357061E-01 -0.93365098178E-01  0.78889203666E-02  0.13041162938E+00  0.20929066527E-01 0.  0.
         14    1    1    2    0    0 -0.17668068315E-01  0.13246222958E-01 -0.81901483207E-02  0.23552103731E-01  0.00000000000E+00 0.  1.
     999901    1    3    3    0    0  0.10592842538E+00  0.80118875219E-01  0.30122795416E-03  0.88996626689E+00  0.88000000000E+00 0.  1.
        -11    1    4    4    0    0 -0.54979966802E-01 -0.51372176921E-01  0.13800845670E-01  0.76502429852E-01  0.51100000000E-03 0. -1.
         11    1    4    4    0    0 -0.33280390260E-01 -0.41992921257E-01 -0.59119253030E-02  0.53909199524E-01  0.51100000000E-03 0.  1.
</event>
<event>
 8    1  0.1146431E+005  0.1043930E+01  0.7957747E-01            NaN
         13   -1    0    0    0    0  0.00000000000E+00  0.00000000000E+00  0.74505805969E-08  0.10566000000E+00  0.10566000000E+00 0. -1.
     999900   -1    0    0    0    0 -0.00000000000E+00 -0.00000000000E+00 -0.74505805969E-08  0.93827000000E+00  0.93827000000E+00 0. -1.
     999902    2    1    2    0    0 -0.79384056245E-02 -0.25098890943E-01 -0.20021652603E-01  0.10108567603E+01  0.10103155699E+01 0.  0.
     999903    2    3    3    0    0  0.64492200053E-01  0.98080977975E-01 -0.12408538161E-02  0.11913248053E+00  0.20294977007E-01 0.  0.
         14    1    1    2    0    0  0.79384056245E-02  0.25098890943E-01  0.20021652603E-01  0.33073239687E-01  0.00000000000E+00 0. -1.
     999901    1    3    3    0    0 -0.72430605677E-01 -0.12317986892E+00 -0.18780798787E-01  0.89172427978E+00  0.88000000000E+00 0.  1.
        -11    1    4    4    0    0  0.13066421205E-01  0.78059514066E-02 -0.28156055519E-03  0.15231698455E-01  0.51100000000E-03 0. -1.
         11    1    4    4    0    0  0.51425778847E-01  0.90275026568E-01 -0.95929326089E-03  0.10390078208E+00  0.51100000000E-03 0.  1.
</event>
<event>
 8    1  0.1146431E+005  0.1043930E+01  0.7957747E-01            NaN
         13   -1    0    0    0    0  0.00000000000E+00  0.00000000000E+00  0.74505805969E-08  0.10566000000E+00  0.10566000000E+00 0.  1.
     999900   -1    0    0    0    0 -0.00000000000E+00 -0.00000000000E+00 -0.74505805969E-08  0.93827000000E+00  0.93827000000E+00 0. -1.
     999902    2    1    2    0    0  0.16324232765E-02  0.12140239508E-01  0.14547082243E-01  0.10249124338E+01  0.10247359802E+01 0.  0.
     999903    2    3    3    0    0  0.55789484232E-01  0.49242102119E-01  0.11324640576E+00  0.13696474848E+00  0.19933457709E-01 0.  0.
         14    1    1    2    0    0 -0.16324232765E-02 -0.12140239508E-01 -0.14547082243E-01  0.19017566166E-01  0.00000000000E+00 0. -1.
     999901    1    3    3    0    0 -0.54157060956E-01 -0.37101862611E-01 -0.98699323520E-01  0.88794768535E+00  0.88000000000E+00 0. -1.
        -11    1    4    4    0    0  0.25431412348E-02  0.21132148866E-02  0.16845271743E-01  0.17174328097E-01  0.51100000000E-03 0. -1.
         11    1    4    4    0    0  0.53246342998E-01  0.47128887233E-01  0.96401134020E-01  0.11979042038E+00  0.51100000000E-03 0.  1.
</event>
<event>
 8    1  0.1146431E+005  0.1043930E+01  0.7957747E-01            NaN
         13   -1    0    0    0    0  0.00000000000E+00  0.00000000000E+00  0.74505805969E-08  0.10566000000E+00  0.10566000000E+00 0.  1.
     999900   -1    0    0    0    0 -0.00000000000E+00 -0.00000000000E+00 -0.74505805969E-08  0.93827000000E+00  0.93827000000E+00 0.  1.
     999902    2    1    2    0    0 -0.56824819875E-02  0.20881748434E-01  0.92301262281E-02  0.10204027127E+01  0.10201314439E+01 0.  0.
     999903    2    3    3    0    0  0.38963356670E-02  0.12787626870E+00  0.33006808341E-01  0.13355159115E+00  0.19469375289E-01 0.  0.
         14    1    1    2    0    0  0.56824819875E-02 -0.20881748434E-01 -0.92301262281E-02  0.23527287336E-01  0.00000000000E+00 0. -1.
     999901    1    3    3    0    0 -0.95788176545E-02 -0.10699452027E+00 -0.23776682113E-01  0.88685112151E+00  0.88000000000E+00 0.  1.
        -11    1    4    4    0    0 -0.59602470734E-02  0.90090440389E-01  0.24994565212E-01  0.93684584676E-01  0.51100000000E-03 0. -1.
         11    1    4    4    0    0  0.98565827404E-02  0.37785828311E-01  0.80122431294E-02  0.39867006477E-01  0.51100000000E-03 0.  1.
</event>
<event>
 8    1  0.1146431E+005  0.1043930E+01  0.7957747E-01            NaN
         13   -1    0    0    0    0  0.00000000000E+00  0.00000000000E+00  0.74505805969E-08  0.10566000000E+00  0.10566000000E+00 0. -1.
     999900   -1    0    0    0    0 -0.00000000000E+00 -0.00000000000E+00 -0.74505805969E-08  0.93827000000E+00  0.93827000000E+00 0. -1.
     999902    2    1    2    0    0 -0.76248201176E-02  0.19364084126E-01  0.11100692299E-01  0.10203433299E+01  0.10200706740E+01 0.  0.
     999903    2    3    3    0    0  0.11766796763E+00 -0.20625905093E-01 -0.43814790595E-01  0.12887645327E+00  0.20450568887E-01 0.  0.
         14    1    1    2    0    0  0.76248201176E-02 -0.19364084126E-01 -0.11100692299E-01  0.23586670078E-01  0.00000000000E+00 0.  1.
     999901    1    3    3    0    0 -0.12529278774E+00  0.39989989219E-01  0.54915482894E-01  0.89146687665E+00  0.88000000000E+00 0. -1.
        -11    1    4    4    0    0  0.10838783372E+00 -0.16108142735E-01 -0.45030617977E-01  0.11847114601E+00  0.51100000000E-03 0.  1.
         11    1    4    4    0    0  0.92801339048E-02 -0.45177623579E-02  0.12158273815E-02  0.10405307263E-01  0.51100000000E-03 0. -1.
</event>
<event>
 8    1  0.1146431E+005  0.1043930E+01  0.7957747E-01            NaN
         13   -1    0    0    0    0  0.00000000000E+00  0.00000000000E+00  0.74505805969E-08  0.10566000000E+00  0.10566000000E+00 0.  1.
     999900   -1    0    0    0    0 -0.00000000000E+00 -0.00000000000E+00 -0.74505805969E-08  0.93827000000E+00  0.93827000000E+00 0. -1.
     999902    2    1    2    0    0 -0.16356313700E-01  0.83404202189E-02 -0.14890334375E-01  0.10202907601E+01  0.10200168731E+01 0.  0.
     999903    2    3    3    0    0  0.59065653265E-01  0.11460190656E+00  0.26128964525E-02  0.13052318385E+00  0.20177361395E-01 0.  0.
         14    1    1    2    0    0  0.16356313700E-01 -0.83404202189E-02  0.14890334375E-01  0.23639239943E-01  0.00000000000E+00 0.  1.
     999901    1    3    3    0    0 -0.75421966964E-01 -0.10626148634E+00 -0.17503230828E-01  0.88976757621E+00  0.88000000000E+00 0.  1.
        -11    1    4    4    0    0  0.41342726168E-01  0.83852996820E-01 -0.69881972270E-02  0.93753091171E-01  0.51100000000E-03 0.  1.
         11    1    4    4    0    0  0.17722927097E-01  0.30748909736E-01  0.96010936795E-02  0.36770092679E-01  0.51100000000E-03 0. -1.
</event>
<event>
 8    1  0.1146431E+005  0.1043930E+01  0.7957747E-01            NaN
         13   -1    0    0    0    0  0.00000000000E+00  0.00000000000E+00  0.74505805969E-08  0.10566000000E+00  0.10566000000E+00 0. -1.
     999900   -1    0    0    0    0 -0.00000000000E+00 -0.00000000000E+00 -0.74505805969E-08  0.93827000000E+00  0.93827000000E+00 0. -1.
     999902    2    1    2    0    0  0.20787329989E-01  0.68326923652E-02 -0.98238032278E-02  0.10199444651E+01  0.10196623981E+01 0.  0.
     999903    2    3    3    0    0 -0.35680711947E-03 -0.11268453281E+00 -0.61892216475E-01  0.13008910537E+00  0.19864481592E-01 0.  0.
         14    1    1    2    0    0 -0.20787329989E-01 -0.68326923652E-02  0.98238032278E-02  0.23985534868E-01  0.00000000000E+00 0. -1.
     999901    1    3    3    0    0  0.21144137109E-01  0.11951722517E+00  0.52068413247E-01  0.88985535977E+00  0.88000000000E+00 0.  1.
        -11    1    4    4    0    0  0.62321405776E-02 -0.44590878210E-01 -0.32998470137E-01  0.55824243372E-01  0.51100000000E-03 0.  1.
         11    1    4    4    0    0 -0.65889476971E-02 -0.68093654599E-01 -0.28893746338E-01  0.74264861993E-01  0.51100000000E-03 0. -1.
</event>
<event>
 8    1  0.1146431E+005  0.1043930E+01  0.7957747E-01            NaN
         13   -1    0    0    0    0  0.00000000000E+00  0.00000000000E+00  0.74505805969E-08  0.10566000000E+00  0.10566000000E+00 0. -1.
     999900   -1    0    0    0    0 -0.00000000000E+00 -0.00000000000E+00 -0.74505805969E-08  0.93827000000E+00  0.93827000000E+00 0.  1.
     999902    2    1    2    0    0 -0.18663946571E-01 -0.17556543317E-02 -0.13268492646E-01  0.10209631082E+01  0.10207047517E+01 0.  0.
     999903    2    3    3    0    0 -0.12762375127E+00 -0.12229407817E-01  0.29885310731E-01  0.13313193654E+00  0.19839365534E-01 0.  0.
         14    1    1    2    0    0  0.18663946571E-01  0.17556543317E-02  0.13268492646E-01  0.22966891841E-01  0.00000000000E+00 0. -1.
     999901    1    3    3    0    0  0.10895980470E+00  0.10473753485E-01 -0.43153803378E-01  0.88783117162E+00  0.88000000000E+00 0.  1.
        -11    1    4    4    0    0 -0.42303351088E-01  0.35445051024E-02  0.15410660913E-01  0.45165104013E-01  0.51100000000E-03 0.  1.
         11    1    4    4    0    0 -0.85320400184E-01 -0.15773912919E-01  0.14474649818E-01  0.87966832527E-01  0.51100000000E-03 0. -1.
</event>
<event>
 8    1  0.1146431E+005  0.1043930E+01  0.7957747E-01            NaN
         13   -1    0    0    0    0  0.00000000000E+00  0.00000000000E+00  0.74505805969E-08  0.10566000000E+00  0.10566000000E+00 0. -1.
     999900   -1    0    0    0    0 -0.00000000000E+00 -0.00000000000E+00 -0.74505805969E-08  0.93827000000E+00  0.93827000000E+00 0. -1.
     999902    2    1    2    0    0 -0.15201450575E-01 -0.22111385640E-01 -0.89560579510E-02  0.10156420441E+01  0.10152480255E+01 0.  0.
     999903    2    3    3    0    0  0.10301412676E+00 -0.57140737464E-01  0.39296362211E-01  0.12573740075E+00  0.19715873682E-01 0.  0.
         14    1    1    2    0    0  0.15201450575E-01  0.22111385640E-01  0.89560579510E-02  0.28287955891E-01  0.00000000000E+00 0. -1.
     999901    1    3    3    0    0 -0.11821557734E+00  0.35029351824E-01 -0.48252420162E-01  0.88990464336E+00  0.88000000000E+00 0. -1.
        -11    1    4    4    0    0  0.29159380545E-01 -0.12295094716E-01  0.19225696156E-01  0.37031437206E-01  0.51100000000E-03 0.  1.
         11    1    4    4    0    0  0.73854746216E-01 -0.44845642748E-01  0.20070666055E-01  0.88705963548E-01  0.51100000000E-03 0. -1.
</event>
<event>
 8    1  0.1146431E+005  0.1043930E+01  0.7957747E-01            NaN
         13   -1    0    0    0    0  0.00000000000E+00  0.00000000000E+00  0.74505805969E-08  0.10566000000E+00  0.10566000000E+00 0.  1.
     999900   -1    0    0    0    0 -0.00000000000E+00 -0.00000000000E+00 -0.74505805969E-08  0.93827000000E+00  0.93827000000E+00 0.  1.
     999902    2    1    2    0    0  0.11175404790E-01  0.14921711457E-01  0.13081568610E-02  0.10252415432E+01  0.10250711992E+01 0.  0.
     999903    2    3    3    0    0 -0.98433070980E-02  0.10542007670E-01 -0.13261800700E+00  0.13484995210E+00  0.19721794550E-01 0.  0.
         14    1    1    2    0    0 -0.11175404790E-01 -0.14921711457E-01 -0.13081568610E-02  0.18688456849E-01  0.00000000000E+00 0. -1.
     999901    1    3    3    0    0  0.21018711887E-01  0.43797037875E-02  0.13392616386E+00  0.89039159105E+00  0.88000000000E+00 0. -1.
        -11    1    4    4    0    0 -0.23692978654E-03  0.39490128428E-02 -0.10212429646E+00  0.10220217164E+00  0.51100000000E-03 0.  1.
         11    1    4    4    0    0 -0.96063773114E-02  0.65929948269E-02 -0.30493710534E-01  0.32647780460E-01  0.51100000000E-03 0. -1.
</event>
<event>
 8    1  0.1146431E+005  0.1043930E+01  0.7957747E-01            NaN
         13   -1    0    0    0    0  0.00000000000E+00  0.00000000000E+00  0.74505805969E-08  0.10566000000E+00  0.10566000000E+00 0.  1.
     999900   -1    0    0    0    0 -0.00000000000E+00 -0.00000000000E+00 -0.74505805969E-08  0.93827000000E+00  0.93827000000E+00 0.  1.
     999902    2    1    2    0    0  0.19903728407E-01 -0.11044825819E-02  0.12660927945E-01  0.10203148061E+01  0.10200414826E+01 0.  0.
     999903    2    3    3    0    0  0.48262368567E-01  0.11654852607E+00 -0.29287774980E-01  0.13104199274E+00  0.20035342486E-01 0.  0.
         14    1    1    2    0    0 -0.19903728407E-01  0.11044825819E-02 -0.12660927945E-01  0.23615193895E-01  0.00000000000E+00 0.  1.
     999901    1    3    3    0    0 -0.28358640160E-01 -0.11765300865E+00  0.41948702925E-01  0.88927281337E+00  0.88000000000E+00 0. -1.
        -11    1    4    4    0    0  0.22131668312E-01  0.43695983282E-01 -0.21758234144E-02  0.49032081597E-01  0.51100000000E-03 0. -1.
         11    1    4    4    0    0  0.26130700255E-01  0.72852542789E-01 -0.27111951565E-01  0.82009911141E-01  0.51100000000E-03 0.  1.
</event>
<event>
 8    1  0.1146431E+005  0.1043930E+01  0.7957747E-01            NaN
         13   -1    0    0    0    0  0.00000000000E+00  0.00000000000E+00  0.74505805969E-08  0.10566000000E+00  0.10566000000E+00 0.  1.
     999900   -1    0    0    0    0 -0.00000000000E+00 -0.00000000000E+00 -0.74505805969E-08  0.93827000000E+00  0.93827000000E+00 0.  1.
     999902    2    1    2    0    0  0.13722735309E-01 -0.16925931584E-01  0.10559002143E-01  0.10197165089E+01  0.10194289899E+01 0.  0.
     999903    2    3    3    0    0 -0.46080535864E-01 -0.64543432004E-01  0.10257566338E+00  0.13162252541E+00  0.22659480960E-01 0.  0.
         14    1    1    2    0    0 -0.13722735309E-01  0.16925931584E-01 -0.10559002143E-01  0.24213491086E-01  0.00000000000E+00 0. -1.
     999901    1    3    3    0    0  0.59803271173E-01  0.47617500420E-01 -0.92016661237E-01  0.88809398350E+00  0.88000000000E+00 0.  1.
        -11    1    4    4    0    0 -0.13022207131E-01 -0.37639669280E-01  0.48058170010E-01  0.62419319187E-01  0.51100000000E-03 0. -1.
         11    1    4    4    0    0 -0.33058328733E-01 -0.26903762724E-01  0.54517493370E-01  0.69203206224E-01  0.51100000000E-03 0.  1.
</event>
<event>
 8    1  0.1146431E+005  0.1043930E+01  0.7957747E-01            NaN
         13   -1    0    0    0    0  0.00000000000E+00  0.00000000000E+00  0.74505805969E-08  0.10566000000E+00  0.10566000000E+00 0. -1.
     999900   -1    0    0    0    0 -0.00000000000E+00 -0.00000000000E+00 -0.74505805969E-08  0.93827000000E+00  0.93827000000E+00 0. -1.
     999902    2    1    2    0    0 -0.49848007983E-02 -0.17007850801E-01  0.15530498675E-01  0.10203649492E+01  0.10200927987E+01 0.  0.
     999903    2    3    3    0    0  0.88345030165E-01  0.36332710307E-02  0.95395105908E-01  0.13159339888E+00  0.19963751743E-01 0.  0.
         14    1    1    2    0    0  0.49848007983E-02  0.17007850801E-01 -0.15530498675E-01  0.23565050753E-01  0.00000000000E+00 0. -1.
     999901    1    3    3    0    0 -0.93329830963E-01 -0.20641121832E-01 -0.79864607233E-01  0.88877155037E+00  0.88000000000E+00 0. -1.
        -11    1    4    4    0    0  0.56548613749E-01 -0.62150354027E-02  0.53637031911E-01  0.78189287599E-01  0.51100000000E-03 0.  1.
         11    1    4    4    0    0  0.31796416416E-01  0.98483064334E-02  0.41758073997E-01  0.53404111279E-01  0.51100000000E-03 0. -1.
</event>
<event>
 8    1  0.1146431E+005  0.1043930E+01  0.7957747E-01            NaN
         13   -1    0    0    0    0  0.00000000000E+00  0.00000000000E+00  0.74505805969E-08  0.10566000000E+00  0.10566000000E+00 0.  1.
     999900   -1    0    0    0    0 -0.00000000000E+00 -0.00000000000E+00 -0.74505805969E-08  0.93827000000E+00  0.93827000000E+00 0. -1.
     999902    2    1    2    0    0 -0.16975311710E-01  0.56958842868E-02  0.15742918830E-01  0.10200879406E+01  0.10198092776E+01 0.  0.
     999903    2    3    3    0    0 -0.71332013384E-01  0.10633310881E+00 -0.23884846684E-01  0.13180146549E+00  0.20153268753E-01 0.  0.
         14    1    1    2    0    0  0.16975311710E-01 -0.56958842868E-02 -0.15742918830E-01  0.23842059448E-01  0.00000000000E+00 0. -1.
     999901    1    3    3    0    0  0.54356701674E-01 -0.10063722452E+00  0.39627765514E-01  0.88828647506E+00  0.88000000000E+00 0.  1.
        -11    1    4    4    0    0 -0.31362802514E-01  0.64495153644E-01 -0.14787953906E-01  0.73227009544E-01  0.51100000000E-03 0.  1.
         11    1    4    4    0    0 -0.39969210871E-01  0.41837955167E-01 -0.90968927778E-02  0.58574455946E-01  0.51100000000E-03 0. -1.
</event>
