<event>
 8    1  0.1099921E+005  0.1043930E+01  0.7957747E-01            NaN
         13   -1    0    0    0    0  0.00000000000E+00  0.00000000000E+00  0.74505805969E-08  0.10566000000E+00  0.10566000000E+00 0. -1.
     999900   -1    0    0    0    0 -0.00000000000E+00 -0.00000000000E+00 -0.74505805969E-08  0.93827000000E+00  0.93827000000E+00 0. -1.
     999902    2    1    2    0    0  0.93966299683E-02 -0.65316739199E-02 -0.21043941890E-01  0.10199757330E+01  0.10196944096E+01 0.  0.
     999903    2    3    3    0    0  0.89231587647E-01 -0.24221573551E-01 -0.93966776014E-01  0.13318134149E+00  0.18935518654E-01 0.  0.
         14    1    1    2    0    0 -0.93966299683E-02  0.65316739199E-02  0.21043941890E-01  0.23954267036E-01  0.00000000000E+00 0. -1.
     999901    1    3    3    0    0 -0.79834957679E-01  0.17689899631E-01  0.72922834124E-01  0.88679439148E+00  0.88000000000E+00 0.  1.
        -11    1    4    4    0    0  0.25907749585E-01  0.12301181091E-02 -0.29723842044E-01  0.39452409128E-01  0.51100000000E-03 0.  1.
         11    1    4    4    0    0  0.63323838063E-01 -0.25451691660E-01 -0.64242933970E-01  0.93728932360E-01  0.51100000000E-03 0. -1.
</event>
<event>
 8    1  0.1099921E+005  0.1043930E+01  0.7957747E-01            NaN
         13   -1    0    0    0    0  0.00000000000E+00  0.00000000000E+00  0.74505805969E-08  0.10566000000E+00  0.10566000000E+00 0.  1.
     999900   -1    0    0    0    0 -0.00000000000E+00 -0.00000000000E+00 -0.74505805969E-08  0.93827000000E+00  0.93827000000E+00 0.  1.
     999902    2    1    2    0    0 -0.15776026565E-01 -0.89152646119E-03 -0.21356935734E-01  0.10173631685E+01  0.10170162339E+01 0.  0.
     999903    2    3    3    0    0 -0.66052805769E-01  0.22808459900E-01 -0.10930491093E+00  0.13123434588E+00  0.19791184713E-01 0.  0.
         14    1    1    2    0    0  0.15776026565E-01  0.89152646119E-03  0.21356935734E-01  0.26566831530E-01  0.00000000000E+00 0.  1.
     999901    1    3    3    0    0  0.50276779204E-01 -0.23699986361E-01  0.87947975197E-01  0.88612882259E+00  0.88000000000E+00 0. -1.
        -11    1    4    4    0    0 -0.43790297059E-01  0.70448742341E-02 -0.56835711251E-01  0.72095627911E-01  0.51100000000E-03 0. -1.
         11    1    4    4    0    0 -0.22262508710E-01  0.15763585666E-01 -0.52469199680E-01  0.59138717970E-01  0.51100000000E-03 0.  1.
</event>
<event>
 8    1  0.1099921E+005  0.1043930E+01  0.7957747E-01            NaN
         13   -1    0    0    0    0  0.00000000000E+00  0.00000000000E+00  0.74505805969E-08  0.10566000000E+00  0.10566000000E+00 0. -1.
     999900   -1    0    0    0    0 -0.00000000000E+00 -0.00000000000E+00 -0.74505805969E-08  0.93827000000E+00  0.93827000000E+00 0.  1.
     999902    2    1    2    0    0 -0.26732792252E-02  0.22182193520E-01 -0.11886327484E-03  0.10215869863E+01  0.10213426263E+01 0.  0.
     999903    2    3    3    0    0 -0.88499938890E-01 -0.92519889186E-01 -0.97968482580E-02  0.12995003854E+00  0.19971609878E-01 0.  0.
         14    1    1    2    0    0  0.26732792252E-02 -0.22182193520E-01  0.11886327484E-03  0.22343013666E-01  0.00000000000E+00 0.  1.
     999901    1    3    3    0    0  0.85826659665E-01  0.11470208271E+00  0.96779849832E-02  0.89163694780E+00  0.88000000000E+00 0. -1.
        -11    1    4    4    0    0 -0.27233795749E-01 -0.33986691840E-01 -0.12031046274E-01  0.45186082466E-01  0.51100000000E-03 0. -1.
         11    1    4    4    0    0 -0.61266143141E-01 -0.58533197346E-01  0.22341980161E-02  0.84763956070E-01  0.51100000000E-03 0.  1.
</event>
<event>
 8    1  0.1099921E+005  0.1043930E+01  0.7957747E-01            NaN
         13   -1    0    0    0    0  0.00000000000E+00  0.00000000000E+00  0.74505805969E-08  0.10566000000E+00  0.10566000000E+00 0. -1.
     999900   -1    0    0    0    0 -0.00000000000E+00 -0.00000000000E+00 -0.74505805969E-08  0.93827000000E+00  0.93827000000E+00 0.  1.
     999902    2    1    2    0    0 -0.37591921868E-02  0.23446870118E-01  0.45566066949E-02  0.10197504651E+01  0.10194637616E+01 0.  0.
     999903    2    3    3    0    0 -0.26883133011E-01  0.71292411324E-01 -0.10510923402E+00  0.13135274499E+00  0.20007043414E-01 0.  0.
         14    1    1    2    0    0  0.37591921868E-02 -0.23446870118E-01 -0.45566066949E-02  0.24179534917E-01  0.00000000000E+00 0.  1.
     999901    1    3    3    0    0  0.23123940824E-01 -0.47845541205E-01  0.10966584072E+00  0.88839772010E+00  0.88000000000E+00 0. -1.
        -11    1    4    4    0    0 -0.23665095353E-01  0.39701156863E-01 -0.71253296617E-01  0.84932396611E-01  0.51100000000E-03 0.  1.
         11    1    4    4    0    0 -0.32180376572E-02  0.31591254461E-01 -0.33855937404E-01  0.46420348375E-01  0.51100000000E-03 0. -1.
</event>
<event>
 8    1  0.1099921E+005  0.1043930E+01  0.7957747E-01            NaN
         13   -1    0    0    0    0  0.00000000000E+00  0.00000000000E+00  0.74505805969E-08  0.10566000000E+00  0.10566000000E+00 0. -1.
     999900   -1    0    0    0    0 -0.00000000000E+00 -0.00000000000E+00 -0.74505805969E-08  0.93827000000E+00  0.93827000000E+00 0.  1.
     999902    2    1    2    0    0 -0.73661510266E-02 -0.28370346147E-02  0.22333598641E-01  0.10202424806E+01  0.10199674606E+01 0.  0.
     999903    2    3    3    0    0  0.58285551616E-01 -0.11249347866E+00 -0.21866349188E-01  0.12991202670E+00  0.18628182597E-01 0.  0.
         14    1    1    2    0    0  0.73661510266E-02  0.28370346147E-02 -0.22333598641E-01  0.23687519385E-01  0.00000000000E+00 0.  1.
     999901    1    3    3    0    0 -0.65651702643E-01  0.10965644404E+00  0.44199947829E-01  0.89033045391E+00  0.88000000000E+00 0. -1.
        -11    1    4    4    0    0  0.48419847593E-01 -0.89116246287E-01 -0.10055303415E-01  0.10191936637E+00  0.51100000000E-03 0.  1.
         11    1    4    4    0    0  0.98657040230E-02 -0.23377232371E-01 -0.11811045774E-01  0.27992660332E-01  0.51100000000E-03 0. -1.
</event>
<event>
 8    1  0.1099921E+005  0.1043930E+01  0.7957747E-01            NaN
         13   -1    0    0    0    0  0.00000000000E+00  0.00000000000E+00  0.74505805969E-08  0.10566000000E+00  0.10566000000E+00 0.  1.
     999900   -1    0    0    0    0 -0.00000000000E+00 -0.00000000000E+00 -0.74505805969E-08  0.93827000000E+00  0.93827000000E+00 0. -1.
     999902    2    1    2    0    0 -0.67804946135E-02  0.20685199356E-01  0.96047124861E-02  0.10201370792E+01  0.10198595772E+01 0.  0.
     999903    2    3    3    0    0 -0.80908618696E-01 -0.62412670942E-01  0.78487902272E-01  0.13044885925E+00  0.20371745237E-01 0.  0.
         14    1    1    2    0    0  0.67804946135E-02 -0.20685199356E-01 -0.96047124861E-02  0.23792920828E-01  0.00000000000E+00 0.  1.
     999901    1    3    3    0    0  0.74128124082E-01  0.83097870298E-01 -0.68883189786E-01  0.88968821992E+00  0.88000000000E+00 0. -1.
        -11    1    4    4    0    0 -0.66379301201E-01 -0.50963753067E-01  0.53398436014E-01  0.99273208089E-01  0.51100000000E-03 0.  1.
         11    1    4    4    0    0 -0.14529317495E-01 -0.11448917875E-01  0.25089466258E-01  0.31175651164E-01  0.51100000000E-03 0. -1.
</event>
<event>
 8    1  0.1099921E+005  0.1043930E+01  0.7957747E-01            NaN
         13   -1    0    0    0    0  0.00000000000E+00  0.00000000000E+00  0.74505805969E-08  0.10566000000E+00  0.10566000000E+00 0.  1.
     999900   -1    0    0    0    0 -0.00000000000E+00 -0.00000000000E+00 -0.74505805969E-08  0.93827000000E+00  0.93827000000E+00 0.  1.
     999902    2    1    2    0    0 -0.23530256803E-01  0.48885588940E-02 -0.83606823555E-02  0.10184845288E+01  0.10181666187E+01 0.  0.
     999903    2    3    3    0    0  0.57933997340E-01  0.11203924088E+00  0.92640666636E-02  0.12807545143E+00  0.20207889096E-01 0.  0.
         14    1    1    2    0    0  0.23530256803E-01 -0.48885588940E-02  0.83606823555E-02  0.25445471163E-01  0.00000000000E+00 0.  1.
     999901    1    3    3    0    0 -0.81464254143E-01 -0.10715068199E+00 -0.17624749019E-01  0.89040907741E+00  0.88000000000E+00 0.  1.
        -11    1    4    4    0    0  0.34597134669E-01  0.74295750861E-01  0.15028372197E-01  0.83324266665E-01  0.51100000000E-03 0. -1.
         11    1    4    4    0    0  0.23336862671E-01  0.37743490023E-01 -0.57643055337E-02  0.44751184763E-01  0.51100000000E-03 0.  1.
</event>
<event>
 8    1  0.1099921E+005  0.1043930E+01  0.7957747E-01            NaN
         13   -1    0    0    0    0  0.00000000000E+00  0.00000000000E+00  0.74505805969E-08  0.10566000000E+00  0.10566000000E+00 0.  1.
     999900   -1    0    0    0    0 -0.00000000000E+00 -0.00000000000E+00 -0.74505805969E-08  0.93827000000E+00  0.93827000000E+00 0. -1.
     999902    2    1    2    0    0 -0.25602022701E-02  0.13949470432E-01  0.18448414999E-01  0.10206601402E+01  0.10203948429E+01 0.  0.
     999903    2    3    3    0    0  0.64724664187E-01  0.11044676578E+00  0.28772576790E-01  0.13277187603E+00  0.20315995259E-01 0.  0.
         14    1    1    2    0    0  0.25602022701E-02 -0.13949470432E-01 -0.18448414999E-01  0.23269859840E-01  0.00000000000E+00 0. -1.
     999901    1    3    3    0    0 -0.67284866457E-01 -0.96497295349E-01 -0.10324161791E-01  0.88788826413E+00  0.88000000000E+00 0. -1.
        -11    1    4    4    0    0  0.13971212902E-02  0.32540766471E-02 -0.25449958264E-02  0.43907957685E-02  0.51100000000E-03 0. -1.
         11    1    4    4    0    0  0.63327542897E-01  0.10719268913E+00  0.31317572617E-01  0.12838108026E+00  0.51100000000E-03 0.  1.
</event>
<event>
 8    1  0.1099921E+005  0.1043930E+01  0.7957747E-01            NaN
         13   -1    0    0    0    0  0.00000000000E+00  0.00000000000E+00  0.74505805969E-08  0.10566000000E+00  0.10566000000E+00 0. -1.
     999900   -1    0    0    0    0 -0.00000000000E+00 -0.00000000000E+00 -0.74505805969E-08  0.93827000000E+00  0.93827000000E+00 0.  1.
     999902    2    1    2    0    0  0.24198769018E-01  0.36482731539E-02  0.50821422383E-02  0.10189356309E+01  0.10186290303E+01 0.  0.
     999903    2    3    3    0    0 -0.72044756264E-01  0.10347405069E+00 -0.69502374973E-02  0.12799636234E+00  0.20914992224E-01 0.  0.
         14    1    1    2    0    0 -0.24198769018E-01 -0.36482731539E-02 -0.50821422383E-02  0.24994369140E-01  0.00000000000E+00 0.  1.
     999901    1    3    3    0    0  0.96243525282E-01 -0.99825777541E-01  0.12032379736E-01  0.89093926852E+00  0.88000000000E+00 0. -1.
        -11    1    4    4    0    0 -0.64740936329E-01  0.10120093137E+00 -0.67242330661E-02  0.12032661293E+00  0.51100000000E-03 0. -1.
         11    1    4    4    0    0 -0.73038199347E-02  0.22731193213E-02 -0.22600443120E-03  0.76697494151E-02  0.51100000000E-03 0.  1.
</event>
<event>
 8    1  0.1099921E+005  0.1043930E+01  0.7957747E-01            NaN
         13   -1    0    0    0    0  0.00000000000E+00  0.00000000000E+00  0.74505805969E-08  0.10566000000E+00  0.10566000000E+00 0.  1.
     999900   -1    0    0    0    0 -0.00000000000E+00 -0.00000000000E+00 -0.74505805969E-08  0.93827000000E+00  0.93827000000E+00 0.  1.
     999902    2    1    2    0    0 -0.17697019816E-01  0.74324107280E-02 -0.13716266670E-01  0.10203384504E+01  0.10200656803E+01 0.  0.
     999903    2    3    3    0    0  0.11025787957E+00 -0.14883155178E-01  0.59747854527E-01  0.12777617369E+00  0.19458574642E-01 0.  0.
         14    1    1    2    0    0  0.17697019816E-01 -0.74324107280E-02  0.13716266670E-01  0.23591549567E-01  0.00000000000E+00 0. -1.
     999901    1    3    3    0    0 -0.12795489939E+00  0.22315565906E-01 -0.73464121197E-01  0.89256227674E+00  0.88000000000E+00 0.  1.
        -11    1    4    4    0    0  0.97643714856E-01 -0.19343141317E-01  0.51985750090E-01  0.11229973954E+00  0.51100000000E-03 0. -1.
         11    1    4    4    0    0  0.12614164714E-01  0.44599861386E-02  0.77621044371E-02  0.15476434153E-01  0.51100000000E-03 0.  1.
</event>
<event>
 8    1  0.1099921E+005  0.1043930E+01  0.7957747E-01            NaN
         13   -1    0    0    0    0  0.00000000000E+00  0.00000000000E+00  0.74505805969E-08  0.10566000000E+00  0.10566000000E+00 0.  1.
     999900   -1    0    0    0    0 -0.00000000000E+00 -0.00000000000E+00 -0.74505805969E-08  0.93827000000E+00  0.93827000000E+00 0.  1.
     999902    2    1    2    0    0 -0.84651616122E-03 -0.23269059173E-01 -0.43344975172E-02  0.10202455415E+01  0.10199705934E+01 0.  0.
     999903    2    3    3    0    0  0.12160465455E+00  0.81725756211E-02 -0.42181425925E-01  0.13040552467E+00  0.19283287367E-01 0.  0.
         14    1    1    2    0    0  0.84651616122E-03  0.23269059173E-01  0.43344975172E-02  0.23684458472E-01  0.00000000000E+00 0. -1.
     999901    1    3    3    0    0 -0.12245117071E+00 -0.31441634794E-01  0.37846928408E-01  0.88984001686E+00  0.88000000000E+00 0. -1.
        -11    1    4    4    0    0  0.36735311429E-01  0.26056020564E-02 -0.35870841315E-02  0.37005412597E-01  0.51100000000E-03 0. -1.
         11    1    4    4    0    0  0.84869343120E-01  0.55669735647E-02 -0.38594341794E-01  0.93400112076E-01  0.51100000000E-03 0.  1.
</event>
<event>
 8    1  0.1099921E+005  0.1043930E+01  0.7957747E-01            NaN
         13   -1    0    0    0    0  0.00000000000E+00  0.00000000000E+00  0.74505805969E-08  0.10566000000E+00  0.10566000000E+00 0.  1.
     999900   -1    0    0    0    0 -0.00000000000E+00 -0.00000000000E+00 -0.74505805969E-08  0.93827000000E+00  0.93827000000E+00 0. -1.
     999902    2    1    2    0    0 -0.88406681958E-02  0.73748095762E-04 -0.21412597802E-01  0.10207640293E+01  0.10205011227E+01 0.  0.
     999903    2    3    3    0    0  0.92751213317E-01  0.21765728590E-01  0.83662662006E-01  0.12844555331E+00  0.20549565391E-01 0.  0.
         14    1    1    2    0    0  0.88406681958E-02 -0.73748095762E-04  0.21412597802E-01  0.23165970681E-01  0.00000000000E+00 0.  1.
     999901    1    3    3    0    0 -0.10159188151E+00 -0.21691980495E-01 -0.10507525981E+00  0.89231847601E+00  0.88000000000E+00 0. -1.
        -11    1    4    4    0    0  0.23791581701E-01  0.48490053774E-02  0.10398568752E-01  0.26418621577E-01  0.51100000000E-03 0.  1.
         11    1    4    4    0    0  0.68959631616E-01  0.16916723213E-01  0.73264093255E-01  0.10202693173E+00  0.51100000000E-03 0. -1.
</event>
<event>
 8    1  0.1099921E+005  0.1043930E+01  0.7957747E-01            NaN
         13   -1    0    0    0    0  0.00000000000E+00  0.00000000000E+00  0.74505805969E-08  0.10566000000E+00  0.10566000000E+00 0. -1.
     999900   -1    0    0    0    0 -0.00000000000E+00 -0.00000000000E+00 -0.74505805969E-08  0.93827000000E+00  0.93827000000E+00 0. -1.
     999902    2    1    2    0    0 -0.22004848169E-01  0.10858630962E-01  0.88920624186E-02  0.10178303451E+01  0.10174956607E+01 0.  0.
     999903    2    3    3    0    0 -0.47025536503E-01  0.71681610013E-01  0.96637098936E-01  0.13102446951E+00  0.21886717968E-01 0.  0.
         14    1    1    2    0    0  0.22004848169E-01 -0.10858630962E-01 -0.88920624186E-02  0.26099654851E-01  0.00000000000E+00 0.  1.
     999901    1    3    3    0    0  0.25020688335E-01 -0.60822979051E-01 -0.87745036518E-01  0.88680587563E+00  0.88000000000E+00 0. -1.
        -11    1    4    4    0    0 -0.73470715426E-02  0.22689588791E-02  0.14361864003E-01  0.16298831041E-01  0.51100000000E-03 0. -1.
         11    1    4    4    0    0 -0.39678464961E-01  0.69412651134E-01  0.82275234933E-01  0.11472563847E+00  0.51100000000E-03 0.  1.
</event>
<event>
 8    1  0.1099921E+005  0.1043930E+01  0.7957747E-01            NaN
         13   -1    0    0    0    0  0.00000000000E+00  0.00000000000E+00  0.74505805969E-08  0.10566000000E+00  0.10566000000E+00 0.  1.
     999900   -1    0    0    0    0 -0.00000000000E+00 -0.00000000000E+00 -0.74505805969E-08  0.93827000000E+00  0.93827000000E+00 0. -1.
     999902    2    1    2    0    0  0.25653921124E-02 -0.22100348469E-01  0.15655274999E-01  0.10167253262E+01  0.10163613013E+01 0.  0.
     999903    2    3    3    0    0  0.10532317157E+00  0.31265587433E-02 -0.67111035882E-01  0.12653106637E+00  0.20086656762E-01 0.  0.
         14    1    1    2    0    0 -0.25653921124E-02  0.22100348469E-01 -0.15655274999E-01  0.27204673761E-01  0.00000000000E+00 0. -1.
     999901    1    3    3    0    0 -0.10275777946E+00 -0.25226907212E-01  0.82766310881E-01  0.89019425987E+00  0.88000000000E+00 0.  1.
        -11    1    4    4    0    0  0.51670794647E-01 -0.12755605483E-02 -0.44251114308E-01  0.68043517786E-01  0.51100000000E-03 0. -1.
         11    1    4    4    0    0  0.53652376925E-01  0.44021192916E-02 -0.22859921574E-01  0.58487548584E-01  0.51100000000E-03 0.  1.
</event>
<event>
 8    1  0.1099921E+005  0.1043930E+01  0.7957747E-01            NaN
         13   -1    0    0    0    0  0.00000000000E+00  0.00000000000E+00  0.74505805969E-08  0.10566000000E+00  0.10566000000E+00 0.  1.
     999900   -1    0    0    0    0 -0.00000000000E+00 -0.00000000000E+00 -0.74505805969E-08  0.93827000000E+00  0.93827000000E+00 0. -1.
     999902    2    1    2    0    0 -0.14633023447E-02  0.13664995025E-01 -0.64783249907E-02  0.10287365133E+01  0.10286243103E+01 0.  0.
     999903    2    3    3    0    0 -0.92994687172E-01 -0.53137468812E-01 -0.84685388785E-01  0.13803066490E+00  0.20229852822E-01 0.  0.
         14    1    1    2    0    0  0.14633023447E-02 -0.13664995025E-01  0.64783249907E-02  0.15193486679E-01  0.00000000000E+00 0. -1.
     999901    1    3    3    0    0  0.91531384827E-01  0.66802463837E-01  0.78207063794E-01  0.89070584842E+00  0.88000000000E+00 0.  1.
        -11    1    4    4    0    0 -0.53467355903E-01 -0.22824988280E-01 -0.36031166207E-01  0.68397692187E-01  0.51100000000E-03 0. -1.
         11    1    4    4    0    0 -0.39527331269E-01 -0.30312480531E-01 -0.48654222579E-01  0.69632972713E-01  0.51100000000E-03 0.  1.
</event>
<event>
 8    1  0.1099921E+005  0.1043930E+01  0.7957747E-01            NaN
         13   -1    0    0    0    0  0.00000000000E+00  0.00000000000E+00  0.74505805969E-08  0.10566000000E+00  0.10566000000E+00 0.  1.
     999900   -1    0    0    0    0 -0.00000000000E+00 -0.00000000000E+00 -0.74505805969E-08  0.93827000000E+00  0.93827000000E+00 0. -1.
     999902    2    1    2    0    0  0.39430832548E-02 -0.16633438682E-01 -0.16198711809E-01  0.10203796825E+01  0.10201078762E+01 0.  0.
     999903    2    3    3    0    0  0.47647573875E-02 -0.41711785325E-01  0.12054464312E+00  0.12946535236E+00  0.21626153811E-01 0.  0.
         14    1    1    2    0    0 -0.39430832548E-02  0.16633438682E-01  0.16198711809E-01  0.23550317454E-01  0.00000000000E+00 0.  1.
     999901    1    3    3    0    0 -0.82167413274E-03  0.25078346643E-01 -0.13674335493E+00  0.89091433019E+00  0.88000000000E+00 0. -1.
        -11    1    4    4    0    0  0.10955064602E-01 -0.21174968913E-01  0.81463064741E-01  0.84881592745E-01  0.51100000000E-03 0.  1.
         11    1    4    4    0    0 -0.61903072145E-02 -0.20536816412E-01  0.39081578376E-01  0.44583759612E-01  0.51100000000E-03 0. -1.
</event>
<event>
 8    1  0.1099921E+005  0.1043930E+01  0.7957747E-01            NaN
         13   -1    0    0    0    0  0.00000000000E+00  0.00000000000E+00  0.74505805969E-08  0.10566000000E+00  0.10566000000E+00 0.  1.
     999900   -1    0    0    0    0 -0.00000000000E+00 -0.00000000000E+00 -0.74505805969E-08  0.93827000000E+00  0.93827000000E+00 0.  1.
     999902    2    1    2    0    0  0.21938137803E-01 -0.87133092201E-02  0.31482148374E-02  0.10201158256E+01  0.10198378217E+01 0.  0.
     999903    2    3    3    0    0 -0.10952122639E+00  0.46526393877E-01  0.42645517127E-01  0.12776330210E+00  0.18580012755E-01 0.  0.
         14    1    1    2    0    0 -0.21938137803E-01  0.87133092201E-02 -0.31482148374E-02  0.23814174444E-01  0.00000000000E+00 0.  1.
     999901    1    3    3    0    0  0.13145936420E+00 -0.55239703097E-01 -0.39497302289E-01  0.89235252346E+00  0.88000000000E+00 0.  1.
        -11    1    4    4    0    0 -0.71733203779E-01  0.22114164475E-01  0.21726789352E-01  0.78147317877E-01  0.51100000000E-03 0. -1.
         11    1    4    4    0    0 -0.37788022614E-01  0.24412229401E-01  0.20918727775E-01  0.49615984220E-01  0.51100000000E-03 0.  1.
</event>
<event>
 8    1  0.1099921E+005  0.1043930E+01  0.7957747E-01            NaN
         13   -1    0    0    0    0  0.00000000000E+00  0.00000000000E+00  0.74505805969E-08  0.10566000000E+00  0.10566000000E+00 0.  1.
     999900   -1    0    0    0    0 -0.00000000000E+00 -0.00000000000E+00 -0.74505805969E-08  0.93827000000E+00  0.93827000000E+00 0. -1.
     999902    2    1    2    0    0  0.17940854459E-01 -0.92656305867E-02  0.13476633904E-01  0.10196535540E+01  0.10193645199E+01 0.  0.
     999903    2    3    3    0    0 -0.44047946866E-01 -0.11304836842E+00 -0.38903859545E-01  0.12984616796E+00  0.25027221599E-01 0.  0.
         14    1    1    2    0    0 -0.17940854459E-01  0.92656305867E-02 -0.13476633904E-01  0.24276445998E-01  0.00000000000E+00 0.  1.
     999901    1    3    3    0    0  0.61988801325E-01  0.10378273783E+00  0.52380493449E-01  0.88980738604E+00  0.88000000000E+00 0.  1.
        -11    1    4    4    0    0 -0.18317562879E-01 -0.75830702604E-01 -0.18321177553E-01  0.80135854866E-01  0.51100000000E-03 0. -1.
         11    1    4    4    0    0 -0.25730383987E-01 -0.37217665815E-01 -0.20582681992E-01  0.49710313093E-01  0.51100000000E-03 0.  1.
</event>
<event>
 8    1  0.1099921E+005  0.1043930E+01  0.7957747E-01            NaN
         13   -1    0    0    0    0  0.00000000000E+00  0.00000000000E+00  0.74505805969E-08  0.10566000000E+00  0.10566000000E+00 0.  1.
     999900   -1    0    0    0    0 -0.00000000000E+00 -0.00000000000E+00 -0.74505805969E-08  0.93827000000E+00  0.93827000000E+00 0. -1.
     999902    2    1    2    0    0 -0.91737430078E-02  0.44177456386E-02  0.22981332571E-01  0.10187940559E+01  0.10184839286E+01 0.  0.
     999903    2    3    3    0    0 -0.78636213326E-01  0.10168023034E+00  0.81414134872E-02  0.13059067331E+00  0.21566595743E-01 0.  0.
         14    1    1    2    0    0  0.91737430078E-02 -0.44177456386E-02 -0.22981332571E-01  0.25135944065E-01  0.00000000000E+00 0. -1.
     999901    1    3    3    0    0  0.69462470318E-01 -0.97262484706E-01  0.14839919084E-01  0.88820338263E+00  0.88000000000E+00 0. -1.
        -11    1    4    4    0    0 -0.33006285218E-01  0.30698390499E-01  0.10046885242E-01  0.46184489466E-01  0.51100000000E-03 0.  1.
         11    1    4    4    0    0 -0.45629928107E-01  0.70981839846E-01 -0.19054717552E-02  0.84406183841E-01  0.51100000000E-03 0. -1.
</event>
<event>
 8    1  0.1264333E+005  0.1043930E+01  0.7957747E-01            NaN
         13   -1    0    0    0    0  0.00000000000E+00  0.00000000000E+00  0.74505805969E-08  0.10566000000E+00  0.10566000000E+00 0.  1.
     999900   -1    0    0    0    0 -0.00000000000E+00 -0.00000000000E+00 -0.74505805969E-08  0.93827000000E+00  0.93827000000E+00 0. -1.
     999902    2    1    2    0    0 -0.12199654482E-01 -0.22058676408E-01  0.76996988771E-02  0.10175727972E+01  0.10172313874E+01 0.  0.
     999903    2    3    3    0    0 -0.49454438225E-01  0.14083793954E-01  0.11681761122E+00  0.12931556205E+00  0.20786187365E-01 0.  0.
         14    1    1    2    0    0  0.12199654482E-01  0.22058676408E-01 -0.76996988771E-02  0.26357202756E-01  0.00000000000E+00 0.  1.
     999901    1    3    3    0    0  0.37254783744E-01 -0.36142470362E-01 -0.10911791234E+00  0.88825723519E+00  0.88000000000E+00 0. -1.
        -11    1    4    4    0    0 -0.13897840545E-01  0.14237049027E-01  0.41767372576E-01  0.46266813914E-01  0.51100000000E-03 0. -1.
         11    1    4    4    0    0 -0.35556597680E-01 -0.15325507324E-03  0.75050238645E-01  0.83048748139E-01  0.51100000000E-03 0.  1.
</event>
<event>
 8    1  0.1099921E+005  0.1043930E+01  0.7957747E-01            NaN
         13   -1    0    0    0    0  0.00000000000E+00  0.00000000000E+00  0.74505805969E-08  0.10566000000E+00  0.10566000000E+00 0.  1.
     999900   -1    0    0    0    0 -0.00000000000E+00 -0.00000000000E+00 -0.74505805969E-08  0.93827000000E+00  0.93827000000E+00 0. -1.
     999902    2    1    2    0    0 -0.14274650785E-01 -0.15965009334E-01  0.11500445364E-01  0.10196214126E+01  0.10193316034E+01 0.  0.
     999903    2    3    3    0    0 -0.55247926007E-01  0.58508148274E-01 -0.98308761691E-01  0.12873246192E+00  0.20782140969E-01 0.  0.
         14    1    1    2    0    0  0.14274650785E-01  0.15965009334E-01 -0.11500445364E-01  0.24308587406E-01  0.00000000000E+00 0. -1.
     999901    1    3    3    0    0  0.40973275222E-01 -0.74473157608E-01  0.10980920706E+00  0.89088895068E+00  0.88000000000E+00 0.  1.
        -11    1    4    4    0    0 -0.40923774873E-01  0.37654369555E-01 -0.80283524779E-01  0.97664283996E-01  0.51100000000E-03 0. -1.
         11    1    4    4    0    0 -0.14324151134E-01  0.20853778718E-01 -0.18025236912E-01  0.31068177920E-01  0.51100000000E-03 0.  1.
</event>
<event>
 8    1  0.1099921E+005  0.1043930E+01  0.7957747E-01            NaN
         13   -1    0    0    0    0  0.00000000000E+00  0.00000000000E+00  0.74505805969E-08  0.10566000000E+00  0.10566000000E+00 0. -1.
     999900   -1    0    0    0    0 -0.00000000000E+00 -0.00000000000E+00 -0.74505805969E-08  0.93827000000E+00  0.93827000000E+00 0.  1.
     999902    2    1    2    0    0  0.18527812140E-01 -0.97545804560E-02  0.10655989919E-01  0.10204357074E+01  0.10201652078E+01 0.  0.
     999903    2    3    3    0    0  0.22656265469E-01  0.11004913317E+00  0.63743420245E-01  0.13072325433E+00  0.20030664524E-01 0.  0.
         14    1    1    2    0    0 -0.18527812140E-01  0.97545804560E-02 -0.10655989919E-01  0.23494292577E-01  0.00000000000E+00 0.  1.
     999901    1    3    3    0    0 -0.41284533290E-02 -0.11980371363E+00 -0.53087430326E-01  0.88971245309E+00  0.88000000000E+00 0. -1.
        -11    1    4    4    0    0  0.26712987037E-04  0.32468424855E-01  0.11297090114E-01  0.34381458553E-01  0.51100000000E-03 0.  1.
         11    1    4    4    0    0  0.22629552482E-01  0.77580708318E-01  0.52446330131E-01  0.96341795779E-01  0.51100000000E-03 0. -1.
</event>
<event>
 8    1  0.1099921E+005  0.1043930E+01  0.7957747E-01            NaN
         13   -1    0    0    0    0  0.00000000000E+00  0.00000000000E+00  0.74505805969E-08  0.10566000000E+00  0.10566000000E+00 0. -1.
     999900   -1    0    0    0    0 -0.00000000000E+00 -0.00000000000E+00 -0.74505805969E-08  0.93827000000E+00  0.93827000000E+00 0.  1.
     999902    2    1    2    0    0 -0.22009254305E-01  0.10547710937E-01  0.20477689928E-02  0.10194380658E+01  0.10191438148E+01 0.  0.
     999903    2    3    3    0    0  0.19093260606E-01  0.11058668060E+00 -0.63045909476E-01  0.13043052979E+00  0.21056349940E-01 0.  0.
         14    1    1    2    0    0  0.22009254305E-01 -0.10547710937E-01 -0.20477689928E-02  0.24491934161E-01  0.00000000000E+00 0. -1.
     999901    1    3    3    0    0 -0.41102514911E-01 -0.10003896966E+00  0.65093678469E-01  0.88900753605E+00  0.88000000000E+00 0. -1.
        -11    1    4    4    0    0  0.11871059699E-01  0.25496669936E-01 -0.97719252797E-02  0.29778413002E-01  0.51100000000E-03 0. -1.
         11    1    4    4    0    0  0.72222009063E-02  0.85090010660E-01 -0.53273984197E-01  0.10065211678E+00  0.51100000000E-03 0.  1.
</event>
<event>
 8    1  0.1099921E+005  0.1043930E+01  0.7957747E-01            NaN
         13   -1    0    0    0    0  0.00000000000E+00  0.00000000000E+00  0.74505805969E-08  0.10566000000E+00  0.10566000000E+00 0.  1.
     999900   -1    0    0    0    0 -0.00000000000E+00 -0.00000000000E+00 -0.74505805969E-08  0.93827000000E+00  0.93827000000E+00 0. -1.
     999902    2    1    2    0    0  0.28330496995E-01  0.92147443262E-03  0.89654612978E-03  0.10155703461E+01  0.10151742993E+01 0.  0.
     999903    2    3    3    0    0  0.17467530046E-02  0.59589505804E-01 -0.10951969365E+00  0.12633450597E+00  0.20294919359E-01 0.  0.
         14    1    1    2    0    0 -0.28330496995E-01 -0.92147443262E-03 -0.89654612978E-03  0.28359653913E-01  0.00000000000E+00 0. -1.
     999901    1    3    3    0    0  0.26583743990E-01 -0.58668031372E-01  0.11041623978E+00  0.88923584012E+00  0.88000000000E+00 0.  1.
        -11    1    4    4    0    0  0.93260447703E-02  0.46679343143E-01 -0.88964897408E-01  0.10090069514E+00  0.51100000000E-03 0.  1.
         11    1    4    4    0    0 -0.75792917656E-02  0.12910162661E-01 -0.20554796244E-01  0.25433810828E-01  0.51100000000E-03 0. -1.
</event>
<event>
 8    1  0.1099921E+005  0.1043930E+01  0.7957747E-01            NaN
         13   -1    0    0    0    0  0.00000000000E+00  0.00000000000E+00  0.74505805969E-08  0.10566000000E+00  0.10566000000E+00 0. -1.
     999900   -1    0    0    0    0 -0.00000000000E+00 -0.00000000000E+00 -0.74505805969E-08  0.93827000000E+00  0.93827000000E+00 0. -1.
     999902    2    1    2    0    0 -0.85118029826E-02  0.22221366199E-01 -0.13022085058E-02  0.10200985994E+01  0.10198201885E+01 0.  0.
     999903    2    3    3    0    0 -0.31402011284E-02  0.13011831791E+00 -0.17729587022E-01  0.13334019657E+00  0.22904852014E-01 0.  0.
         14    1    1    2    0    0  0.85118029826E-02 -0.22221366199E-01  0.13022085058E-02  0.23831400563E-01  0.00000000000E+00 0.  1.
     999901    1    3    3    0    0 -0.53716018542E-02 -0.10789695171E+00  0.16427378516E-01  0.88675840287E+00  0.88000000000E+00 0. -1.
        -11    1    4    4    0    0 -0.17815112867E-02  0.10707151578E+00 -0.23282831005E-01  0.10958939098E+00  0.51100000000E-03 0. -1.
         11    1    4    4    0    0 -0.13586898417E-02  0.23046802129E-01  0.55532439827E-02  0.23750805590E-01  0.51100000000E-03 0.  1.
</event>
<event>
 8    1  0.1099921E+005  0.1043930E+01  0.7957747E-01            NaN
         13   -1    0    0    0    0  0.00000000000E+00  0.00000000000E+00  0.74505805969E-08  0.10566000000E+00  0.10566000000E+00 0. -1.
     999900   -1    0    0    0    0 -0.00000000000E+00 -0.00000000000E+00 -0.74505805969E-08  0.93827000000E+00  0.93827000000E+00 0.  1.
     999902    2    1    2    0    0 -0.64406855648E-02 -0.26013178366E-01  0.58944096961E-02  0.10164907590E+01  0.10161203429E+01 0.  0.
     999903    2    3    3    0    0 -0.30545689468E-01 -0.10944482507E+00  0.60310234153E-01  0.13054325899E+00  0.22203811464E-01 0.  0.
         14    1    1    2    0    0  0.64406855648E-02  0.26013178366E-01 -0.58944096961E-02  0.27439240968E-01  0.00000000000E+00 0.  1.
     999901    1    3    3    0    0  0.24105003904E-01  0.83431646704E-01 -0.54415824456E-01  0.88594750005E+00  0.88000000000E+00 0. -1.
        -11    1    4    4    0    0 -0.46304452693E-02 -0.54576161095E-01  0.23785342759E-01  0.59716011541E-01  0.51100000000E-03 0. -1.
         11    1    4    4    0    0 -0.25915244199E-01 -0.54868663976E-01  0.36524891394E-01  0.70827247446E-01  0.51100000000E-03 0.  1.
</event>
<event>
 7    1  0.1099921E+005  0.1043930E+01  0.7957747E-01            NaN
         13   -1    0    0    0    0  0.00000000000E+00  0.00000000000E+00  0.74505805969E-08  0.10566000000E+00  0.10566000000E+00 0.  1.
     999900   -1    0    0    0    0 -0.00000000000E+00 -0.00000000000E+00 -0.74505805969E-08  0.93827000000E+00  0.93827000000E+00 0.  1.
     999902    2    1    2    0    0 -0.23454175381E-01  0.51130571349E-02 -0.41642965552E-03  0.10199213534E+01  0.10196387361E+01 0.  0.
         14    1    1    2    0    0  0.23454175381E-01 -0.51130571349E-02  0.41642965552E-03  0.24008646562E-01  0.00000000000E+00 0. -1.
     999901    1    3    3    0    0  0.36435622153E-02  0.68559264310E-01 -0.10494852066E+00  0.88889135459E+00  0.88000000000E+00 0.  1.
        -11    1    3    3    0    0 -0.33529977572E-01 -0.34971731822E-01  0.76514800617E-01  0.90565209971E-01  0.51100000000E-03 0. -1.
         11    1    3    3    0    0  0.64322399756E-02 -0.28474475353E-01  0.28017290385E-01  0.40464788882E-01  0.51100000000E-03 0.  1.
</event>
<event>
 8    1  0.1099921E+005  0.1043930E+01  0.7957747E-01            NaN
         13   -1    0    0    0    0  0.00000000000E+00  0.00000000000E+00  0.74505805969E-08  0.10566000000E+00  0.10566000000E+00 0.  1.
     999900   -1    0    0    0    0 -0.00000000000E+00 -0.00000000000E+00 -0.74505805969E-08  0.93827000000E+00  0.93827000000E+00 0. -1.
     999902    2    1    2    0    0 -0.19075567207E-01 -0.10713859561E-01  0.68643085867E-03  0.10220408420E+01  0.10218064139E+01 0.  0.
     999903    2    3    3    0    0  0.30871986918E-01 -0.11670439674E+00 -0.52156063031E-01  0.13270340249E+00  0.17802874164E-01 0.  0.
         14    1    1    2    0    0  0.19075567207E-01  0.10713859561E-01 -0.68643085867E-03  0.21889158008E-01  0.00000000000E+00 0. -1.
     999901    1    3    3    0    0 -0.49947554125E-01  0.10599053718E+00  0.52842493889E-01  0.88933743950E+00  0.88000000000E+00 0.  1.
        -11    1    4    4    0    0  0.19461065028E-01 -0.93281640459E-01 -0.35059665091E-01  0.10153639119E+00  0.51100000000E-03 0.  1.
         11    1    4    4    0    0  0.11410921890E-01 -0.23422756277E-01 -0.17096397939E-01  0.31167011302E-01  0.51100000000E-03 0. -1.
</event>
<event>
 8    1  0.1099921E+005  0.1043930E+01  0.7957747E-01            NaN
         13   -1    0    0    0    0  0.00000000000E+00  0.00000000000E+00  0.74505805969E-08  0.10566000000E+00  0.10566000000E+00 0.  1.
     999900   -1    0    0    0    0 -0.00000000000E+00 -0.00000000000E+00 -0.74505805969E-08  0.93827000000E+00  0.93827000000E+00 0. -1.
     999902    2    1    2    0    0 -0.20150603949E-01  0.12685036724E-01  0.45699751803E-02  0.10196845536E+01  0.10193962661E+01 0.  0.
     999903    2    3    3    0    0  0.55712749375E-01  0.56846474027E-01 -0.99733128385E-01  0.12918771572E+00  0.20182590123E-01 0.  0.
         14    1    1    2    0    0  0.20150603949E-01 -0.12685036724E-01 -0.45699751803E-02  0.24245446363E-01  0.00000000000E+00 0.  1.
     999901    1    3    3    0    0 -0.75863353323E-01 -0.44161437303E-01  0.10430310357E+00  0.89049683791E+00  0.88000000000E+00 0.  1.
        -11    1    4    4    0    0  0.14209548386E-01  0.24717981201E-01 -0.25380220905E-01  0.38174685254E-01  0.51100000000E-03 0.  1.
         11    1    4    4    0    0  0.41503200989E-01  0.32128492826E-01 -0.74352907480E-01  0.91013030469E-01  0.51100000000E-03 0. -1.
</event>
<event>
 8    1  0.1099921E+005  0.1043930E+01  0.7957747E-01            NaN
         13   -1    0    0    0    0  0.00000000000E+00  0.00000000000E+00  0.74505805969E-08  0.10566000000E+00  0.10566000000E+00 0. -1.
     999900   -1    0    0    0    0 -0.00000000000E+00 -0.00000000000E+00 -0.74505805969E-08  0.93827000000E+00  0.93827000000E+00 0.  1.
     999902    2    1    2    0    0  0.59554437839E-03  0.28663747141E-02 -0.24695579912E-01  0.10190614969E+01  0.10187580145E+01 0.  0.
     999903    2    3    3    0    0 -0.13326116030E-01  0.92718475379E-01  0.84448615064E-01  0.12766951363E+00  0.19840238872E-01 0.  0.
         14    1    1    2    0    0 -0.59554437839E-03 -0.28663747141E-02  0.24695579912E-01  0.24868503058E-01  0.00000000000E+00 0. -1.
     999901    1    3    3    0    0  0.13921660408E-01 -0.89852100665E-01 -0.10914419498E+00  0.89139198332E+00  0.88000000000E+00 0. -1.
        -11    1    4    4    0    0 -0.11743871065E-01  0.60729742442E-01  0.67020883724E-01  0.91203509257E-01  0.51100000000E-03 0. -1.
         11    1    4    4    0    0 -0.15822449649E-02  0.31988732937E-01  0.17427731339E-01  0.36466004370E-01  0.51100000000E-03 0.  1.
</event>
<event>
 8    1  0.1099921E+005  0.1043930E+01  0.7957747E-01            NaN
         13   -1    0    0    0    0  0.00000000000E+00  0.00000000000E+00  0.74505805969E-08  0.10566000000E+00  0.10566000000E+00 0. -1.
     999900   -1    0    0    0    0 -0.00000000000E+00 -0.00000000000E+00 -0.74505805969E-08  0.93827000000E+00  0.93827000000E+00 0. -1.
     999902    2    1    2    0    0 -0.11905259720E-01 -0.18811710253E-01  0.71618619367E-02  0.10205439375E+01  0.10202759531E+01 0.  0.
     999903    2    3    3    0    0 -0.29986096166E-01  0.85250633367E-01  0.91566001720E-01  0.13021818432E+00  0.20139672401E-01 0.  0.
         14    1    1    2    0    0  0.11905259720E-01  0.18811710253E-01 -0.71618619367E-02  0.23386062474E-01  0.00000000000E+00 0. -1.
     999901    1    3    3    0    0  0.18080836445E-01 -0.10406234362E+00 -0.84404139783E-01  0.89032575320E+00  0.88000000000E+00 0. -1.
        -11    1    4    4    0    0 -0.90140838644E-02  0.20064198755E-01  0.35267726070E-01  0.41568009367E-01  0.51100000000E-03 0.  1.
         11    1    4    4    0    0 -0.20972012301E-01  0.65186434611E-01  0.56298275650E-01  0.88650174954E-01  0.51100000000E-03 0. -1.
</event>
<event>
 8    1  0.1099921E+005  0.1043930E+01  0.7957747E-01            NaN
         13   -1    0    0    0    0  0.00000000000E+00  0.00000000000E+00  0.74505805969E-08  0.10566000000E+00  0.10566000000E+00 0. -1.
     999900   -1    0    0    0    0 -0.00000000000E+00 -0.00000000000E+00 -0.74505805969E-08  0.93827000000E+00  0.93827000000E+00 0.  1.
     999902    2    1    2    0    0 -0.33047053024E-02 -0.46944939901E-02  0.21855448154E-01  0.10213330983E+01  0.10210830905E+01 0.  0.
     999903    2    3    3    0    0 -0.11890863951E+00 -0.38038135764E-01  0.40843146342E-01  0.13294320604E+00  0.20483386057E-01 0.  0.
         14    1    1    2    0    0  0.33047053024E-02  0.46944939901E-02 -0.21855448154E-01  0.22596901668E-01  0.00000000000E+00 0.  1.
     999901    1    3    3    0    0  0.11560393421E+00  0.33343641774E-01 -0.18987698187E-01  0.88838989230E+00  0.88000000000E+00 0. -1.
        -11    1    4    4    0    0 -0.46827665614E-01 -0.47578159122E-02  0.16968994199E-01  0.50036736147E-01  0.51100000000E-03 0. -1.
         11    1    4    4    0    0 -0.72080973901E-01 -0.33280319852E-01  0.23874152143E-01  0.82906469889E-01  0.51100000000E-03 0.  1.
</event>
<event>
 8    1  0.1099921E+005  0.1043930E+01  0.7957747E-01            NaN
         13   -1    0    0    0    0  0.00000000000E+00  0.00000000000E+00  0.74505805969E-08  0.10566000000E+00  0.10566000000E+00 0. -1.
     999900   -1    0    0    0    0 -0.00000000000E+00 -0.00000000000E+00 -0.74505805969E-08  0.93827000000E+00  0.93827000000E+00 0.  1.
     999902    2    1    2    0    0  0.22110774440E-01 -0.37856525627E-02 -0.69611893289E-02  0.10204422230E+01  0.10201718751E+01 0.  0.
     999903    2    3    3    0    0 -0.29921244574E-01  0.11805272364E+00 -0.40396505802E-01  0.12989753501E+00  0.20242664930E-01 0.  0.
         14    1    1    2    0    0 -0.22110774440E-01  0.37856525627E-02  0.69611893289E-02  0.23487777003E-01  0.00000000000E+00 0. -1.
     999901    1    3    3    0    0  0.52032019014E-01 -0.12183837621E+00  0.33435316473E-01  0.89054468799E+00  0.88000000000E+00 0. -1.
        -11    1    4    4    0    0 -0.39549625477E-02  0.50797516998E-01 -0.11558737548E-01  0.52248397072E-01  0.51100000000E-03 0. -1.
         11    1    4    4    0    0 -0.25966282026E-01  0.67255206645E-01 -0.28837768255E-01  0.77649137935E-01  0.51100000000E-03 0.  1.
</event>
<event>
 8    1  0.1099921E+005  0.1043930E+01  0.7957747E-01            NaN
         13   -1    0    0    0    0  0.00000000000E+00  0.00000000000E+00  0.74505805969E-08  0.10566000000E+00  0.10566000000E+00 0.  1.
     999900   -1    0    0    0    0 -0.00000000000E+00 -0.00000000000E+00 -0.74505805969E-08  0.93827000000E+00  0.93827000000E+00 0.  1.
     999902    2    1    2    0    0 -0.16844950720E-01 -0.16613636457E-01  0.35103119769E-02  0.10200116478E+01  0.10197311774E+01 0.  0.
     999903    2    3    3    0    0  0.30587702338E-01  0.11902205547E+00 -0.28721788466E-01  0.12777524091E+00  0.19992844596E-01 0.  0.
         14    1    1    2    0    0  0.16844950720E-01  0.16613636457E-01 -0.35103119769E-02  0.23918352185E-01  0.00000000000E+00 0. -1.
     999901    1    3    3    0    0 -0.47432653058E-01 -0.13563569193E+00  0.32232100443E-01  0.89223640690E+00  0.88000000000E+00 0.  1.
        -11    1    4    4    0    0 -0.24099012244E-02  0.71430557053E-02  0.34354752563E-03  0.75637302056E-02  0.51100000000E-03 0.  1.
         11    1    4    4    0    0  0.32997603563E-01  0.11187899977E+00 -0.29065335992E-01  0.12021151071E+00  0.51100000000E-03 0. -1.
</event>
<event>
 8    1  0.1099921E+005  0.1043930E+01  0.7957747E-01            NaN
         13   -1    0    0    0    0  0.00000000000E+00  0.00000000000E+00  0.74505805969E-08  0.10566000000E+00  0.10566000000E+00 0. -1.
     999900   -1    0    0    0    0 -0.00000000000E+00 -0.00000000000E+00 -0.74505805969E-08  0.93827000000E+00  0.93827000000E+00 0. -1.
     999902    2    1    2    0    0 -0.10305672599E-01  0.75394473017E-02  0.20121696475E-01  0.10200986588E+01  0.10198202493E+01 0.  0.
     999903    2    3    3    0    0  0.83424560091E-01  0.85546336441E-01  0.50598259085E-01  0.13116713607E+00  0.19152045776E-01 0.  0.
         14    1    1    2    0    0  0.10305672599E-01 -0.75394473017E-02 -0.20121696475E-01  0.23831341179E-01  0.00000000000E+00 0.  1.
     999901    1    3    3    0    0 -0.93730232690E-01 -0.78006889139E-01 -0.30476562610E-01  0.88893152275E+00  0.88000000000E+00 0. -1.
        -11    1    4    4    0    0  0.39957772885E-01  0.53848415140E-01  0.31411124924E-01  0.74048601047E-01  0.51100000000E-03 0. -1.
         11    1    4    4    0    0  0.43466787206E-01  0.31697921301E-01  0.19187134161E-01  0.57118535023E-01  0.51100000000E-03 0.  1.
</event>
<event>
 8    1  0.1099921E+005  0.1043930E+01  0.7957747E-01            NaN
         13   -1    0    0    0    0  0.00000000000E+00  0.00000000000E+00  0.74505805969E-08  0.10566000000E+00  0.10566000000E+00 0. -1.
     999900   -1    0    0    0    0 -0.00000000000E+00 -0.00000000000E+00 -0.74505805969E-08  0.93827000000E+00  0.93827000000E+00 0.  1.
     999902    2    1    2    0    0 -0.14737510818E-01  0.12459316467E-01  0.14687163841E-01  0.10196783697E+01  0.10193899332E+01 0.  0.
     999903    2    3    3    0    0 -0.12233800950E+00  0.11200709348E-01  0.45767736436E-01  0.13257890884E+00  0.19759476558E-01 0.  0.
         14    1    1    2    0    0  0.14737510818E-01 -0.12459316467E-01 -0.14687163841E-01  0.24251630329E-01  0.00000000000E+00 0.  1.
     999901    1    3    3    0    0  0.10760049868E+00  0.12586071190E-02 -0.31080572595E-01  0.88709946083E+00  0.88000000000E+00 0.  1.
        -11    1    4    4    0    0 -0.27700050187E-01  0.98463550323E-02  0.15311966417E-01  0.33150579548E-01  0.51100000000E-03 0.  1.
         11    1    4    4    0    0 -0.94637959310E-01  0.13543543156E-02  0.30455770019E-01  0.99428329296E-01  0.51100000000E-03 0. -1.
</event>
<event>
 8    1  0.1099921E+005  0.1043930E+01  0.7957747E-01            NaN
         13   -1    0    0    0    0  0.00000000000E+00  0.00000000000E+00  0.74505805969E-08  0.10566000000E+00  0.10566000000E+00 0.  1.
     999900   -1    0    0    0    0 -0.00000000000E+00 -0.00000000000E+00 -0.74505805969E-08  0.93827000000E+00  0.93827000000E+00 0. -1.
     999902    2    1    2    0    0  0.22244667536E-01 -0.11030506567E-01  0.54022294573E-02  0.10185197385E+01  0.10182027186E+01 0.  0.
     999903    2    3    3    0    0 -0.60285916487E-01  0.25371313563E-01 -0.10687848817E+00  0.12681163074E+00  0.19495722053E-01 0.  0.
         14    1    1    2    0    0 -0.22244667536E-01  0.11030506567E-01 -0.54022294573E-02  0.25410261550E-01  0.00000000000E+00 0.  1.
     999901    1    3    3    0    0  0.82530584023E-01 -0.36401820130E-01  0.11228071763E+00  0.89170810771E+00  0.88000000000E+00 0.  1.
        -11    1    4    4    0    0 -0.10835873519E-01  0.10351384162E-01 -0.13961159060E-01  0.20487615583E-01  0.51100000000E-03 0. -1.
         11    1    4    4    0    0 -0.49450042968E-01  0.15019929401E-01 -0.92917329111E-01  0.10632401516E+00  0.51100000000E-03 0.  1.
</event>
<event>
 8    1  0.1099921E+005  0.1043930E+01  0.7957747E-01            NaN
         13   -1    0    0    0    0  0.00000000000E+00  0.00000000000E+00  0.74505805969E-08  0.10566000000E+00  0.10566000000E+00 0.  1.
     999900   -1    0    0    0    0 -0.00000000000E+00 -0.00000000000E+00 -0.74505805969E-08  0.93827000000E+00  0.93827000000E+00 0. -1.
     999902    2    1    2    0    0 -0.19402849940E-01 -0.57821038256E-02  0.12326052837E-01  0.10202269435E+01  0.10199515583E+01 0.  0.
     999903    2    3    3    0    0 -0.31739738623E-01  0.12075034028E+00  0.33604986366E-01  0.13083644923E+00  0.20020630625E-01 0.  0.
         14    1    1    2    0    0  0.19402849940E-01  0.57821038256E-02 -0.12326052837E-01  0.23703056532E-01  0.00000000000E+00 0. -1.
     999901    1    3    3    0    0  0.12336888683E-01 -0.12653244411E+00 -0.21278933530E-01  0.88939049424E+00  0.88000000000E+00 0. -1.
        -11    1    4    4    0    0 -0.27993258103E-01  0.80815131150E-01  0.29680071693E-01  0.90531075873E-01  0.51100000000E-03 0. -1.
         11    1    4    4    0    0 -0.37464805199E-02  0.39935209135E-01  0.39249146732E-02  0.40305373353E-01  0.51100000000E-03 0.  1.
</event>
<event>
 7    1  0.2089161E+005  0.1043930E+01  0.7957747E-01            NaN
         13   -1    0    0    0    0  0.00000000000E+00  0.00000000000E+00  0.74505805969E-08  0.10566000000E+00  0.10566000000E+00 0.  1.
     999900   -1    0    0    0    0 -0.00000000000E+00 -0.00000000000E+00 -0.74505805969E-08  0.93827000000E+00  0.93827000000E+00 0.  1.
     999903    2    1    2    0    0  0.95810422361E-01 -0.35911633904E-01  0.15514916295E-01  0.10614043890E+00  0.23575361265E-01 0.  0.
         14    1    1    2    0    0 -0.42030234157E-02 -0.37507598911E-01  0.30903997467E-01  0.48780553926E-01  0.00000000000E+00 0.  1.
     999901    1    1    2    0    0 -0.91607398945E-01  0.73419232815E-01 -0.46418913762E-01  0.88900900718E+00  0.88000000000E+00 0.  1.
        -11    1    3    3    0    0  0.33904612935E-01 -0.12615527867E-01  0.17007910270E-01  0.39977549379E-01  0.51100000000E-03 0. -1.
         11    1    3    3    0    0  0.61905809426E-01 -0.23296106037E-01 -0.14929939748E-02  0.66162889517E-01  0.51100000000E-03 0.  1.
</event>
<event>
 8    1  0.1099921E+005  0.1043930E+01  0.7957747E-01            NaN
         13   -1    0    0    0    0  0.00000000000E+00  0.00000000000E+00  0.74505805969E-08  0.10566000000E+00  0.10566000000E+00 0.  1.
     999900   -1    0    0    0    0 -0.00000000000E+00 -0.00000000000E+00 -0.74505805969E-08  0.93827000000E+00  0.93827000000E+00 0. -1.
     999902    2    1    2    0    0 -0.16034066112E-01 -0.12189871000E-01 -0.10560225325E-01  0.10211879115E+01  0.10209346443E+01 0.  0.
     999903    2    3    3    0    0  0.54930516471E-01 -0.39195643615E-01  0.10902131767E+00  0.12986023371E+00  0.20600302824E-01 0.  0.
         14    1    1    2    0    0  0.16034066112E-01  0.12189871000E-01  0.10560225325E-01  0.22742088515E-01  0.00000000000E+00 0.  1.
     999901    1    3    3    0    0 -0.70964582583E-01  0.27005772615E-01 -0.11958154299E+00  0.89132767777E+00  0.88000000000E+00 0. -1.
        -11    1    4    4    0    0  0.42935655978E-01 -0.19449754278E-01  0.67300558485E-01  0.82166841178E-01  0.51100000000E-03 0. -1.
         11    1    4    4    0    0  0.11994860492E-01 -0.19745889337E-01  0.41720759182E-01  0.47693392537E-01  0.51100000000E-03 0.  1.
</event>
<event>
 8    1  0.1099921E+005  0.1043930E+01  0.7957747E-01            NaN
         13   -1    0    0    0    0  0.00000000000E+00  0.00000000000E+00  0.74505805969E-08  0.10566000000E+00  0.10566000000E+00 0. -1.
     999900   -1    0    0    0    0 -0.00000000000E+00 -0.00000000000E+00 -0.74505805969E-08  0.93827000000E+00  0.93827000000E+00 0.  1.
     999902    2    1    2    0    0 -0.56797488597E-02  0.19089174736E-01  0.95558323036E-02  0.10218399554E+01  0.10216011572E+01 0.  0.
     999903    2    3    3    0    0 -0.19828723676E-01 -0.12014248861E+00 -0.38815209556E-01  0.12946928844E+00  0.20694934253E-01 0.  0.
         14    1    1    2    0    0  0.56797488597E-02 -0.19089174736E-01 -0.95558323036E-02  0.22090044595E-01  0.00000000000E+00 0.  1.
     999901    1    3    3    0    0  0.14148974816E-01  0.13923166335E+00  0.48371041860E-01  0.89237066696E+00  0.88000000000E+00 0. -1.
        -11    1    4    4    0    0 -0.16289268250E-01 -0.39103141989E-01 -0.14724494495E-01  0.44849390550E-01  0.51100000000E-03 0. -1.
         11    1    4    4    0    0 -0.35394554257E-02 -0.81039346624E-01 -0.24090715061E-01  0.84619897891E-01  0.51100000000E-03 0.  1.
</event>
<event>
 8    1  0.1099921E+005  0.1043930E+01  0.7957747E-01            NaN
         13   -1    0    0    0    0  0.00000000000E+00  0.00000000000E+00  0.74505805969E-08  0.10566000000E+00  0.10566000000E+00 0.  1.
     999900   -1    0    0    0    0 -0.00000000000E+00 -0.00000000000E+00 -0.74505805969E-08  0.93827000000E+00  0.93827000000E+00 0.  1.
     999902    2    1    2    0    0 -0.11056663959E-01 -0.13566842608E-01  0.15873135782E-01  0.10203023578E+01  0.10200287427E+01 0.  0.
     999903    2    3    3    0    0 -0.80999344751E-01 -0.26794675353E-01  0.10079162131E+00  0.13335359753E+00  0.18584471241E-01 0.  0.
         14    1    1    2    0    0  0.11056663959E-01  0.13566842608E-01 -0.15873135782E-01  0.23627642197E-01  0.00000000000E+00 0. -1.
     999901    1    3    3    0    0  0.69942680792E-01  0.13227832744E-01 -0.84918485531E-01  0.88694876027E+00  0.88000000000E+00 0.  1.
        -11    1    4    4    0    0 -0.48571829561E-01 -0.20402017497E-01  0.49232086814E-01  0.72107728004E-01  0.51100000000E-03 0. -1.
         11    1    4    4    0    0 -0.32427515190E-01 -0.63926578556E-02  0.51559534499E-01  0.61245869531E-01  0.51100000000E-03 0.  1.
</event>
<event>
 8    1  0.1099921E+005  0.1043930E+01  0.7957747E-01            NaN
         13   -1    0    0    0    0  0.00000000000E+00  0.00000000000E+00  0.74505805969E-08  0.10566000000E+00  0.10566000000E+00 0. -1.
     999900   -1    0    0    0    0 -0.00000000000E+00 -0.00000000000E+00 -0.74505805969E-08  0.93827000000E+00  0.93827000000E+00 0. -1.
     999902    2    1    2    0    0 -0.55146795965E-02 -0.11055064292E-01  0.18769584040E-01  0.10214594988E+01  0.10212123111E+01 0.  0.
     999903    2    3    3    0    0  0.12021553493E+00  0.45711714589E-01  0.49752499896E-02  0.13060550537E+00  0.22174517589E-01 0.  0.
         14    1    1    2    0    0  0.55146795965E-02  0.11055064292E-01 -0.18769584040E-01  0.22470501165E-01  0.00000000000E+00 0.  1.
     999901    1    3    3    0    0 -0.12573021453E+00 -0.56766778881E-01  0.13794334051E-01  0.89085399347E+00  0.88000000000E+00 0.  1.
        -11    1    4    4    0    0  0.41111836438E-01  0.20933069480E-01 -0.76090338638E-02  0.46760400025E-01  0.51100000000E-03 0. -1.
         11    1    4    4    0    0  0.79103698491E-01  0.24778645109E-01  0.12584283853E-01  0.83845105340E-01  0.51100000000E-03 0.  1.
</event>
<event>
 8    1  0.1099921E+005  0.1043930E+01  0.7957747E-01            NaN
         13   -1    0    0    0    0  0.00000000000E+00  0.00000000000E+00  0.74505805969E-08  0.10566000000E+00  0.10566000000E+00 0. -1.
     999900   -1    0    0    0    0 -0.00000000000E+00 -0.00000000000E+00 -0.74505805969E-08  0.93827000000E+00  0.93827000000E+00 0.  1.
     999902    2    1    2    0    0  0.56718859238E-02 -0.21958224242E-01  0.71375506455E-02  0.10201544131E+01  0.10198773201E+01 0.  0.
     999903    2    3    3    0    0  0.12615293197E+00 -0.32115068828E-01  0.26456307711E-02  0.13187572865E+00  0.20934864595E-01 0.  0.
         14    1    1    2    0    0 -0.56718859238E-02  0.21958224242E-01 -0.71375506455E-02  0.23775586870E-01  0.00000000000E+00 0.  1.
     999901    1    3    3    0    0 -0.12048104605E+00  0.10156844585E-01  0.44919198743E-02  0.88827868447E+00  0.88000000000E+00 0.  1.
        -11    1    4    4    0    0  0.90238252509E-01 -0.32415887403E-01  0.40206496204E-03  0.95886155149E-01  0.51100000000E-03 0. -1.
         11    1    4    4    0    0  0.35914679461E-01  0.30081857528E-03  0.22435658091E-02  0.35989573506E-01  0.51100000000E-03 0.  1.
</event>
<event>
 8    1  0.1099921E+005  0.1043930E+01  0.7957747E-01            NaN
         13   -1    0    0    0    0  0.00000000000E+00  0.00000000000E+00  0.74505805969E-08  0.10566000000E+00  0.10566000000E+00 0. -1.
     999900   -1    0    0    0    0 -0.00000000000E+00 -0.00000000000E+00 -0.74505805969E-08  0.93827000000E+00  0.93827000000E+00 0.  1.
     999902    2    1    2    0    0 -0.93543967400E-02 -0.19443575383E-01  0.64177882445E-02  0.10214189945E+01  0.10211709049E+01 0.  0.
     999903    2    3    3    0    0 -0.90374183535E-01 -0.36594258369E-01  0.89274391652E-01  0.13365575552E+00  0.19680223165E-01 0.  0.
         14    1    1    2    0    0  0.93543967400E-02  0.19443575383E-01 -0.64177882445E-02  0.22511005486E-01  0.00000000000E+00 0.  1.
     999901    1    3    3    0    0  0.81019786795E-01  0.17150682987E-01 -0.82856603408E-01  0.88776323899E+00  0.88000000000E+00 0.  1.
        -11    1    4    4    0    0 -0.47106587046E-01 -0.25854169159E-01  0.38620714739E-01  0.66176199150E-01  0.51100000000E-03 0. -1.
         11    1    4    4    0    0 -0.43267596489E-01 -0.10740089210E-01  0.50653676913E-01  0.67479556371E-01  0.51100000000E-03 0.  1.
</event>
<event>
 8    1  0.1099921E+005  0.1043930E+01  0.7957747E-01            NaN
         13   -1    0    0    0    0  0.00000000000E+00  0.00000000000E+00  0.74505805969E-08  0.10566000000E+00  0.10566000000E+00 0.  1.
     999900   -1    0    0    0    0 -0.00000000000E+00 -0.00000000000E+00 -0.74505805969E-08  0.93827000000E+00  0.93827000000E+00 0. -1.
     999902    2    1    2    0    0 -0.23089194969E-01  0.62961137390E-02  0.46035043528E-02  0.10195590291E+01  0.10192677124E+01 0.  0.
     999903    2    3    3    0    0  0.77828687180E-01 -0.55843191076E-01 -0.81514193042E-01  0.12744806626E+00  0.20559167968E-01 0.  0.
         14    1    1    2    0    0  0.23089194969E-01 -0.62961137390E-02 -0.46035043528E-02  0.24370970946E-01  0.00000000000E+00 0.  1.
     999901    1    3    3    0    0 -0.10091788215E+00  0.62139304815E-01  0.86117697394E-01  0.89211096280E+00  0.88000000000E+00 0.  1.
        -11    1    4    4    0    0  0.39702773835E-01 -0.31224711882E-01 -0.55864550225E-01  0.75315350196E-01  0.51100000000E-03 0.  1.
         11    1    4    4    0    0  0.38125913344E-01 -0.24618479194E-01 -0.25649642816E-01  0.52132716060E-01  0.51100000000E-03 0. -1.
</event>
<event>
 8    1  0.1099921E+005  0.1043930E+01  0.7957747E-01            NaN
         13   -1    0    0    0    0  0.00000000000E+00  0.00000000000E+00  0.74505805969E-08  0.10566000000E+00  0.10566000000E+00 0. -1.
     999900   -1    0    0    0    0 -0.00000000000E+00 -0.00000000000E+00 -0.74505805969E-08  0.93827000000E+00  0.93827000000E+00 0. -1.
     999902    2    1    2    0    0 -0.91364274103E-03  0.88702044188E-02  0.20904090293E-01  0.10212034459E+01  0.10209505285E+01 0.  0.
     999903    2    3    3    0    0 -0.10617532959E+00  0.70036911536E-01  0.32340448136E-01  0.13274850668E+00  0.19947226617E-01 0.  0.
         14    1    1    2    0    0  0.91364274103E-03 -0.88702044188E-02 -0.20904090293E-01  0.22726554082E-01  0.00000000000E+00 0.  1.
     999901    1    3    3    0    0  0.10526168684E+00 -0.61166707118E-01 -0.11436357844E-01  0.88845493924E+00  0.88000000000E+00 0. -1.
        -11    1    4    4    0    0 -0.17953588436E-01  0.18394157707E-01  0.12611349214E-01  0.28635356213E-01  0.51100000000E-03 0. -1.
         11    1    4    4    0    0 -0.88221741150E-01  0.51642753829E-01  0.19729098922E-01  0.10411315047E+00  0.51100000000E-03 0.  1.
</event>
<event>
 8    1  0.1099921E+005  0.1043930E+01  0.7957747E-01            NaN
         13   -1    0    0    0    0  0.00000000000E+00  0.00000000000E+00  0.74505805969E-08  0.10566000000E+00  0.10566000000E+00 0.  1.
     999900   -1    0    0    0    0 -0.00000000000E+00 -0.00000000000E+00 -0.74505805969E-08  0.93827000000E+00  0.93827000000E+00 0. -1.
     999902    2    1    2    0    0  0.27626204085E-02  0.20446174652E-01  0.69636839456E-02  0.10221545316E+01  0.10219225585E+01 0.  0.
     999903    2    3    3    0    0 -0.11296919819E+00  0.27175641632E-01  0.61457852539E-01  0.13288024661E+00  0.19481710972E-01 0.  0.
         14    1    1    2    0    0 -0.27626204085E-02 -0.20446174652E-01 -0.69636839456E-02  0.21775468388E-01  0.00000000000E+00 0. -1.
     999901    1    3    3    0    0  0.11573181859E+00 -0.67294669801E-02 -0.54494168594E-01  0.88927428501E+00  0.88000000000E+00 0. -1.
        -11    1    4    4    0    0 -0.25007708892E-01 -0.26856960010E-03  0.19064469101E-01  0.31451116621E-01  0.51100000000E-03 0.  1.
         11    1    4    4    0    0 -0.87961489295E-01  0.27444211232E-01  0.42393383438E-01  0.10142912998E+00  0.51100000000E-03 0. -1.
</event>
<event>
 8    1  0.1099921E+005  0.1043930E+01  0.7957747E-01            NaN
         13   -1    0    0    0    0  0.00000000000E+00  0.00000000000E+00  0.74505805969E-08  0.10566000000E+00  0.10566000000E+00 0.  1.
     999900   -1    0    0    0    0 -0.00000000000E+00 -0.00000000000E+00 -0.74505805969E-08  0.93827000000E+00  0.93827000000E+00 0.  1.
     999902    2    1    2    0    0  0.18140643090E-01 -0.11616804651E-01  0.51114255546E-02  0.10217904482E+01  0.10215505667E+01 0.  0.
     999903    2    3    3    0    0  0.70681521175E-01  0.55973998226E-01  0.95280895592E-01  0.13304999464E+00  0.22246035480E-01 0.  0.
         14    1    1    2    0    0 -0.18140643090E-01  0.11616804651E-01 -0.51114255546E-02  0.22139551784E-01  0.00000000000E+00 0. -1.
     999901    1    3    3    0    0 -0.52540878085E-01 -0.67590802877E-01 -0.90169470037E-01  0.88874045358E+00  0.88000000000E+00 0.  1.
        -11    1    4    4    0    0  0.21339951066E-01  0.11798312401E-01  0.13713643762E-01  0.27980686790E-01  0.51100000000E-03 0.  1.
         11    1    4    4    0    0  0.49341570108E-01  0.44175685826E-01  0.81567251830E-01  0.10506930785E+00  0.51100000000E-03 0. -1.
</event>
<event>
 8    1  0.1099921E+005  0.1043930E+01  0.7957747E-01            NaN
         13   -1    0    0    0    0  0.00000000000E+00  0.00000000000E+00  0.74505805969E-08  0.10566000000E+00  0.10566000000E+00 0.  1.
     999900   -1    0    0    0    0 -0.00000000000E+00 -0.00000000000E+00 -0.74505805969E-08  0.93827000000E+00  0.93827000000E+00 0.  1.
     999902    2    1    2    0    0  0.21483452891E-01 -0.95495559175E-02 -0.61856043595E-02  0.10196196222E+01  0.10193297698E+01 0.  0.
     999903    2    3    3    0    0  0.52822097495E-01 -0.83823700325E-01  0.83515566032E-01  0.13139382934E+00  0.21746307718E-01 0.  0.
         14    1    1    2    0    0 -0.21483452891E-01  0.95495559175E-02  0.61856043595E-02  0.24310377776E-01  0.00000000000E+00 0. -1.
     999901    1    3    3    0    0 -0.31338644605E-01  0.74274144407E-01 -0.89701170391E-01  0.88822579288E+00  0.88000000000E+00 0.  1.
        -11    1    4    4    0    0  0.24166122760E-01 -0.25657229474E-01  0.19544522821E-01  0.40305637407E-01  0.51100000000E-03 0.  1.
         11    1    4    4    0    0  0.28655974736E-01 -0.58166470851E-01  0.63971043210E-01  0.91088191934E-01  0.51100000000E-03 0. -1.
</event>
<event>
 8    1  0.1099921E+005  0.1043930E+01  0.7957747E-01            NaN
         13   -1    0    0    0    0  0.00000000000E+00  0.00000000000E+00  0.74505805969E-08  0.10566000000E+00  0.10566000000E+00 0. -1.
     999900   -1    0    0    0    0 -0.00000000000E+00 -0.00000000000E+00 -0.74505805969E-08  0.93827000000E+00  0.93827000000E+00 0.  1.
     999902    2    1    2    0    0 -0.92563119256E-02  0.53619566377E-02  0.20104096121E-01  0.10211571089E+01  0.10209031474E+01 0.  0.
     999903    2    3    3    0    0  0.95888730695E-01 -0.85495008766E-01  0.74753787077E-02  0.13016330830E+00  0.19559149861E-01 0.  0.
         14    1    1    2    0    0  0.92563119256E-02 -0.53619566377E-02 -0.20104096121E-01  0.22772891127E-01  0.00000000000E+00 0.  1.
     999901    1    3    3    0    0 -0.10514504262E+00  0.90856965404E-01  0.12628717414E-01  0.89099380057E+00  0.88000000000E+00 0.  1.
        -11    1    4    4    0    0  0.46330528000E-01 -0.32486312147E-01 -0.38411430765E-02  0.56717667467E-01  0.51100000000E-03 0. -1.
         11    1    4    4    0    0  0.49558202695E-01 -0.53008696619E-01  0.11316521784E-01  0.73445640836E-01  0.51100000000E-03 0.  1.
</event>
<event>
 8    1  0.1099921E+005  0.1043930E+01  0.7957747E-01            NaN
         13   -1    0    0    0    0  0.00000000000E+00  0.00000000000E+00  0.74505805969E-08  0.10566000000E+00  0.10566000000E+00 0.  1.
     999900   -1    0    0    0    0 -0.00000000000E+00 -0.00000000000E+00 -0.74505805969E-08  0.93827000000E+00  0.93827000000E+00 0. -1.
     999902    2    1    2    0    0 -0.88587151544E-02  0.75048907728E-02 -0.21502664467E-01  0.10194930444E+01  0.10192001289E+01 0.  0.
     999903    2    3    3    0    0 -0.10218392686E+00  0.79864957504E-01 -0.10648790798E-01  0.13153843916E+00  0.19209317690E-01 0.  0.
         14    1    1    2    0    0  0.88587151544E-02 -0.75048907728E-02  0.21502664467E-01  0.24436955598E-01  0.00000000000E+00 0.  1.
     999901    1    3    3    0    0  0.93325211702E-01 -0.72360066732E-01 -0.10853873670E-01  0.88795460524E+00  0.88000000000E+00 0. -1.
        -11    1    4    4    0    0 -0.65880948255E-01  0.41737954040E-01 -0.11793448479E-01  0.78877770623E-01  0.51100000000E-03 0. -1.
         11    1    4    4    0    0 -0.36302978601E-01  0.38127003465E-01  0.11446576817E-02  0.52660668537E-01  0.51100000000E-03 0.  1.
</event>
<event>
 8    1  0.1099921E+005  0.1043930E+01  0.7957747E-01            NaN
         13   -1    0    0    0    0  0.00000000000E+00  0.00000000000E+00  0.74505805969E-08  0.10566000000E+00  0.10566000000E+00 0.  1.
     999900   -1    0    0    0    0 -0.00000000000E+00 -0.00000000000E+00 -0.74505805969E-08  0.93827000000E+00  0.93827000000E+00 0. -1.
     999902    2    1    2    0    0 -0.86721368584E-02  0.17752830852E-01  0.13552991808E-01  0.10199706063E+01  0.10196891610E+01 0.  0.
     999903    2    3    3    0    0  0.11077355469E-01 -0.39530218562E-01  0.12266380087E+00  0.13116435131E+00  0.21733224056E-01 0.  0.
         14    1    1    2    0    0  0.86721368584E-02 -0.17752830852E-01 -0.13552991808E-01  0.23959393730E-01  0.00000000000E+00 0. -1.
     999901    1    3    3    0    0 -0.19749492328E-01  0.57283049414E-01 -0.10911080906E+00  0.88880625496E+00  0.88000000000E+00 0. -1.
        -11    1    4    4    0    0 -0.45094501784E-03 -0.33067615129E-01  0.92218104124E-01  0.97969946263E-01  0.51100000000E-03 0.  1.
         11    1    4    4    0    0  0.11528300487E-01 -0.64626034336E-02  0.30445696746E-01  0.33194405050E-01  0.51100000000E-03 0. -1.
</event>
<event>
 8    1  0.1099921E+005  0.1043930E+01  0.7957747E-01            NaN
         13   -1    0    0    0    0  0.00000000000E+00  0.00000000000E+00  0.74505805969E-08  0.10566000000E+00  0.10566000000E+00 0.  1.
     999900   -1    0    0    0    0 -0.00000000000E+00 -0.00000000000E+00 -0.74505805969E-08  0.93827000000E+00  0.93827000000E+00 0.  1.
     999902    2    1    2    0    0 -0.13291382771E-01  0.83617536511E-02  0.17760892637E-01  0.10202228473E+01  0.10199473659E+01 0.  0.
     999903    2    3    3    0    0  0.39491820024E-01  0.53243917681E-01 -0.10845762423E+00  0.12852133386E+00  0.18977839253E-01 0.  0.
         14    1    1    2    0    0  0.13291382771E-01 -0.83617536511E-02 -0.17760892637E-01  0.23707152663E-01  0.00000000000E+00 0. -1.
     999901    1    3    3    0    0 -0.52783202796E-01 -0.44882164030E-01  0.12621851687E+00  0.89170151348E+00  0.88000000000E+00 0. -1.
        -11    1    4    4    0    0  0.77603214665E-02  0.25968344829E-01 -0.42570187981E-01  0.50468401482E-01  0.51100000000E-03 0. -1.
         11    1    4    4    0    0  0.31731498558E-01  0.27275572852E-01 -0.65887436252E-01  0.78052932373E-01  0.51100000000E-03 0.  1.
</event>
<event>
 8    1  0.1099921E+005  0.1043930E+01  0.7957747E-01            NaN
         13   -1    0    0    0    0  0.00000000000E+00  0.00000000000E+00  0.74505805969E-08  0.10566000000E+00  0.10566000000E+00 0. -1.
     999900   -1    0    0    0    0 -0.00000000000E+00 -0.00000000000E+00 -0.74505805969E-08  0.93827000000E+00  0.93827000000E+00 0.  1.
     999902    2    1    2    0    0  0.12921499588E-03  0.20002822883E-01  0.11958833726E-01  0.10206245645E+01  0.10203584460E+01 0.  0.
     999903    2    3    3    0    0 -0.35137881657E-01  0.10858650793E+00 -0.64326484672E-01  0.13219320127E+00  0.17647815748E-01 0.  0.
         14    1    1    2    0    0 -0.12921499588E-03 -0.20002822883E-01 -0.11958833726E-01  0.23305435502E-01  0.00000000000E+00 0.  1.
     999901    1    3    3    0    0  0.35267096653E-01 -0.88583685045E-01  0.76285318398E-01  0.88843136323E+00  0.88000000000E+00 0. -1.
        -11    1    4    4    0    0 -0.20642834272E-01  0.70048156501E-01 -0.50371809729E-01  0.88715563304E-01  0.51100000000E-03 0. -1.
         11    1    4    4    0    0 -0.14495047385E-01  0.38538351427E-01 -0.13954674942E-01  0.43477637967E-01  0.51100000000E-03 0.  1.
</event>
<event>
 8    1  0.1099921E+005  0.1043930E+01  0.7957747E-01            NaN
         13   -1    0    0    0    0  0.00000000000E+00  0.00000000000E+00  0.74505805969E-08  0.10566000000E+00  0.10566000000E+00 0. -1.
     999900   -1    0    0    0    0 -0.00000000000E+00 -0.00000000000E+00 -0.74505805969E-08  0.93827000000E+00  0.93827000000E+00 0.  1.
     999902    2    1    2    0    0  0.20035016112E-01 -0.38955316267E-04 -0.11323013485E-01  0.10209166556E+01  0.10206572410E+01 0.  0.
     999903    2    3    3    0    0 -0.43684859380E-02 -0.19702430723E-01 -0.12941644811E+00  0.13247518732E+00  0.19844111711E-01 0.  0.
         14    1    1    2    0    0 -0.20035016112E-01  0.38955316267E-04  0.11323013485E-01  0.23013344444E-01  0.00000000000E+00 0. -1.
     999901    1    3    3    0    0  0.24403502050E-01  0.19663475406E-01  0.11809343462E+00  0.88844146823E+00  0.88000000000E+00 0. -1.
        -11    1    4    4    0    0  0.79023732670E-02 -0.90068181484E-02 -0.52201734624E-01  0.53561670018E-01  0.51100000000E-03 0. -1.
         11    1    4    4    0    0 -0.12270859205E-01 -0.10695612574E-01 -0.77214713483E-01  0.78913517303E-01  0.51100000000E-03 0.  1.
</event>
<event>
 8    1  0.1099921E+005  0.1043930E+01  0.7957747E-01            NaN
         13   -1    0    0    0    0  0.00000000000E+00  0.00000000000E+00  0.74505805969E-08  0.10566000000E+00  0.10566000000E+00 0. -1.
     999900   -1    0    0    0    0 -0.00000000000E+00 -0.00000000000E+00 -0.74505805969E-08  0.93827000000E+00  0.93827000000E+00 0.  1.
     999902    2    1    2    0    0  0.22965876190E-02 -0.22969285875E-01 -0.68284933402E-02  0.10198573863E+01  0.10195732429E+01 0.  0.
     999903    2    3    3    0    0 -0.74855011303E-02 -0.19633783192E-01 -0.12864975889E+00  0.13140522915E+00  0.16584800750E-01 0.  0.
         14    1    1    2    0    0 -0.22965876190E-02  0.22969285875E-01  0.68284933402E-02  0.24072613685E-01  0.00000000000E+00 0.  1.
     999901    1    3    3    0    0  0.97820887493E-02 -0.33355026832E-02  0.12182126555E+00  0.88845215717E+00  0.88000000000E+00 0. -1.
        -11    1    4    4    0    0 -0.91248226166E-02 -0.24961370418E-02 -0.41156929504E-01  0.42233245851E-01  0.51100000000E-03 0.  1.
         11    1    4    4    0    0  0.16393214863E-02 -0.17137646150E-01 -0.87492829383E-01  0.89171983296E-01  0.51100000000E-03 0. -1.
</event>
<event>
 8    1  0.1099921E+005  0.1043930E+01  0.7957747E-01            NaN
         13   -1    0    0    0    0  0.00000000000E+00  0.00000000000E+00  0.74505805969E-08  0.10566000000E+00  0.10566000000E+00 0.  1.
     999900   -1    0    0    0    0 -0.00000000000E+00 -0.00000000000E+00 -0.74505805969E-08  0.93827000000E+00  0.93827000000E+00 0.  1.
     999902    2    1    2    0    0  0.59337585072E-02  0.42441265683E-03 -0.26947817986E-01  0.10163333605E+01  0.10159586238E+01 0.  0.
     999903    2    3    3    0    0  0.74002133022E-01  0.91639384969E-01 -0.48504827419E-01  0.12874213736E+00  0.18647441646E-01 0.  0.
         14    1    1    2    0    0 -0.59337585072E-02 -0.42441265683E-03  0.26947817986E-01  0.27596639475E-01  0.00000000000E+00 0.  1.
     999901    1    3    3    0    0 -0.68068374515E-01 -0.91214972312E-01  0.21557009433E-01  0.88759122316E+00  0.88000000000E+00 0. -1.
        -11    1    4    4    0    0  0.58956665525E-01  0.61144058736E-01 -0.30410221972E-01  0.90219327474E-01  0.51100000000E-03 0.  1.
         11    1    4    4    0    0  0.15045467497E-01  0.30495326232E-01 -0.18094605447E-01  0.38522809886E-01  0.51100000000E-03 0. -1.
</event>
<event>
 8    1  0.1099921E+005  0.1043930E+01  0.7957747E-01            NaN
         13   -1    0    0    0    0  0.00000000000E+00  0.00000000000E+00  0.74505805969E-08  0.10566000000E+00  0.10566000000E+00 0. -1.
     999900   -1    0    0    0    0 -0.00000000000E+00 -0.00000000000E+00 -0.74505805969E-08  0.93827000000E+00  0.93827000000E+00 0. -1.
     999902    2    1    2    0    0  0.19028000168E-01 -0.12272428944E-01  0.16634036492E-01  0.10158342980E+01  0.10154456915E+01 0.  0.
     999903    2    3    3    0    0 -0.45952612395E-01  0.10961039619E+00 -0.28813089623E-01  0.12390193263E+00  0.19885000272E-01 0.  0.
         14    1    1    2    0    0 -0.19028000168E-01  0.12272428944E-01 -0.16634036492E-01  0.28095702031E-01  0.00000000000E+00 0. -1.
     999901    1    3    3    0    0  0.64980612563E-01 -0.12188282514E+00  0.45447126114E-01  0.89193236534E+00  0.88000000000E+00 0. -1.
        -11    1    4    4    0    0 -0.26210596732E-01  0.37715514666E-01 -0.10016360388E-01  0.47011105327E-01  0.51100000000E-03 0.  1.
         11    1    4    4    0    0 -0.19742015663E-01  0.71894881526E-01 -0.18796729235E-01  0.76890827301E-01  0.51100000000E-03 0. -1.
</event>
<event>
 7    1  0.1099921E+005  0.1043930E+01  0.7957747E-01            NaN
         13   -1    0    0    0    0  0.00000000000E+00  0.00000000000E+00  0.74505805969E-08  0.10566000000E+00  0.10566000000E+00 0.  1.
     999900   -1    0    0    0    0 -0.00000000000E+00 -0.00000000000E+00 -0.74505805969E-08  0.93827000000E+00  0.93827000000E+00 0. -1.
     999902    2    1    2    0    0  0.14861246365E-01  0.11409784081E-01 -0.15751949030E-01  0.10194521791E+01  0.10191582712E+01 0.  0.
         14    1    1    2    0    0 -0.14861246365E-01 -0.11409784081E-01  0.15751949030E-01  0.24477820870E-01  0.00000000000E+00 0.  1.
     999901    1    3    3    0    0  0.61133883472E-02 -0.99139609559E-01 -0.57632240839E-01  0.88746127289E+00  0.88000000000E+00 0. -1.
        -11    1    3    3    0    0 -0.17615642403E-01  0.30849413539E-01  0.31353848851E-01  0.47384830186E-01  0.51100000000E-03 0. -1.
         11    1    3    3    0    0  0.26363500421E-01  0.79699980101E-01  0.10526442958E-01  0.84606076051E-01  0.51100000000E-03 0.  1.
</event>
<event>
 8    1  0.1099921E+005  0.1043930E+01  0.7957747E-01            NaN
         13   -1    0    0    0    0  0.00000000000E+00  0.00000000000E+00  0.74505805969E-08  0.10566000000E+00  0.10566000000E+00 0.  1.
     999900   -1    0    0    0    0 -0.00000000000E+00 -0.00000000000E+00 -0.74505805969E-08  0.93827000000E+00  0.93827000000E+00 0.  1.
     999902    2    1    2    0    0 -0.13891738310E-01  0.11336126443E-01 -0.15904496702E-01  0.10199624976E+01  0.10196808596E+01 0.  0.
     999903    2    3    3    0    0 -0.68503821896E-01  0.61699127151E-01  0.90166945196E-01  0.13048508794E+00  0.19917938199E-01 0.  0.
         14    1    1    2    0    0  0.13891738310E-01 -0.11336126443E-01  0.15904496702E-01  0.23967502401E-01  0.00000000000E+00 0.  1.
     999901    1    3    3    0    0  0.54612083586E-01 -0.50363000708E-01 -0.10607144190E+00  0.88947740966E+00  0.88000000000E+00 0.  1.
        -11    1    4    4    0    0 -0.61996584380E-01  0.46011484001E-01  0.71276308839E-01  0.10507714527E+00  0.51100000000E-03 0. -1.
         11    1    4    4    0    0 -0.65072375161E-02  0.15687643150E-01  0.18890636357E-01  0.25407942669E-01  0.51100000000E-03 0.  1.
</event>
<event>
 8    1  0.1099921E+005  0.1043930E+01  0.7957747E-01            NaN
         13   -1    0    0    0    0  0.00000000000E+00  0.00000000000E+00  0.74505805969E-08  0.10566000000E+00  0.10566000000E+00 0.  1.
     999900   -1    0    0    0    0 -0.00000000000E+00 -0.00000000000E+00 -0.74505805969E-08  0.93827000000E+00  0.93827000000E+00 0.  1.
     999902    2    1    2    0    0 -0.20334054755E-01  0.58787414043E-02  0.76705119077E-02  0.10214162234E+01  0.10211680720E+01 0.  0.
     999903    2    3    3    0    0  0.52474609359E-01 -0.11329443902E+00 -0.28493950636E-01  0.12967006174E+00  0.20327448179E-01 0.  0.
         14    1    1    2    0    0  0.20334054755E-01 -0.58787414043E-02 -0.76705119077E-02  0.22513776587E-01  0.00000000000E+00 0. -1.
     999901    1    3    3    0    0 -0.72808664114E-01  0.11917318042E+00  0.36164462544E-01  0.89174616167E+00  0.88000000000E+00 0. -1.
        -11    1    4    4    0    0  0.30765259777E-01 -0.68897704298E-01 -0.27267227848E-01  0.80231899530E-01  0.51100000000E-03 0.  1.
         11    1    4    4    0    0  0.21709349582E-01 -0.44396734721E-01 -0.12267227883E-02  0.49438162213E-01  0.51100000000E-03 0. -1.
</event>
<event>
 8    1  0.1099921E+005  0.1043930E+01  0.7957747E-01            NaN
         13   -1    0    0    0    0  0.00000000000E+00  0.00000000000E+00  0.74505805969E-08  0.10566000000E+00  0.10566000000E+00 0. -1.
     999900   -1    0    0    0    0 -0.00000000000E+00 -0.00000000000E+00 -0.74505805969E-08  0.93827000000E+00  0.93827000000E+00 0.  1.
     999902    2    1    2    0    0  0.95647425672E-02 -0.19109891115E-01 -0.87543838689E-02  0.10208364625E+01  0.10205752161E+01 0.  0.
     999903    2    3    3    0    0  0.16554751896E-01  0.11377725975E+00  0.52701826719E-01  0.12871274856E+00  0.23878116687E-01 0.  0.
         14    1    1    2    0    0 -0.95647425672E-02  0.19109891115E-01  0.87543838689E-02  0.23093537531E-01  0.00000000000E+00 0.  1.
     999901    1    3    3    0    0 -0.69900093292E-02 -0.13288715086E+00 -0.61456210588E-01  0.89212371391E+00  0.88000000000E+00 0. -1.
        -11    1    4    4    0    0 -0.47545439708E-02  0.38054161184E-01  0.12294294683E-01  0.40275745487E-01  0.51100000000E-03 0.  1.
         11    1    4    4    0    0  0.21309295867E-01  0.75723098565E-01  0.40407532036E-01  0.88437003075E-01  0.51100000000E-03 0. -1.
</event>
<event>
 8    1  0.1099921E+005  0.1043930E+01  0.7957747E-01            NaN
         13   -1    0    0    0    0  0.00000000000E+00  0.00000000000E+00  0.74505805969E-08  0.10566000000E+00  0.10566000000E+00 0.  1.
     999900   -1    0    0    0    0 -0.00000000000E+00 -0.00000000000E+00 -0.74505805969E-08  0.93827000000E+00  0.93827000000E+00 0. -1.
     999902    2    1    2    0    0  0.22577770230E-01  0.62778422533E-02 -0.41441818058E-02  0.10201320746E+01  0.10198544545E+01 0.  0.
     999903    2    3    3    0    0  0.93974566265E-01 -0.89625249660E-01 -0.13990395342E-01  0.13199252842E+00  0.19036594086E-01 0.  0.
         14    1    1    2    0    0 -0.22577770230E-01 -0.62778422533E-02  0.41441818058E-02  0.23797925430E-01  0.00000000000E+00 0.  1.
     999901    1    3    3    0    0 -0.71396796035E-01  0.95903091913E-01  0.98462135363E-02  0.88813954615E+00  0.88000000000E+00 0. -1.
        -11    1    4    4    0    0  0.82454895860E-01 -0.69092981484E-01 -0.13662874205E-01  0.10844162113E+00  0.51100000000E-03 0. -1.
         11    1    4    4    0    0  0.11519670405E-01 -0.20532268176E-01 -0.32752113756E-03  0.23550907281E-01  0.51100000000E-03 0.  1.
</event>
<event>
 8    1  0.1099921E+005  0.1043930E+01  0.7957747E-01            NaN
         13   -1    0    0    0    0  0.00000000000E+00  0.00000000000E+00  0.74505805969E-08  0.10566000000E+00  0.10566000000E+00 0.  1.
     999900   -1    0    0    0    0 -0.00000000000E+00 -0.00000000000E+00 -0.74505805969E-08  0.93827000000E+00  0.93827000000E+00 0. -1.
     999902    2    1    2    0    0  0.37853515420E-02  0.85164139932E-02  0.21030978521E-01  0.10209265165E+01  0.10206673268E+01 0.  0.
     999903    2    3    3    0    0 -0.10626693995E+00  0.41683998915E-01  0.64796536695E-01  0.13237318689E+00  0.17142087078E-01 0.  0.
         14    1    1    2    0    0 -0.37853515420E-02 -0.85164139932E-02 -0.21030978521E-01  0.23003483457E-01  0.00000000000E+00 0. -1.
     999901    1    3    3    0    0  0.11005229149E+00 -0.33167584922E-01 -0.43765558173E-01  0.88855332965E+00  0.88000000000E+00 0.  1.
        -11    1    4    4    0    0 -0.61888389359E-01  0.22961065413E-01  0.27761271297E-01  0.71612377194E-01  0.51100000000E-03 0.  1.
         11    1    4    4    0    0 -0.44378550587E-01  0.18722933502E-01  0.37035265398E-01  0.60760809698E-01  0.51100000000E-03 0. -1.
</event>
<event>
 7    1  0.1099921E+005  0.1043930E+01  0.7957747E-01            NaN
         13   -1    0    0    0    0  0.00000000000E+00  0.00000000000E+00  0.74505805969E-08  0.10566000000E+00  0.10566000000E+00 0.  1.
     999900   -1    0    0    0    0 -0.00000000000E+00 -0.00000000000E+00 -0.74505805969E-08  0.93827000000E+00  0.93827000000E+00 0. -1.
     999903    2    1    2    0    0  0.73878167847E-01 -0.66274617885E-01 -0.46533260606E-01  0.11184246622E+00  0.22205500377E-01 0.  0.
         14    1    1    2    0    0  0.14846028187E-01 -0.37530530774E-01  0.36156739887E-02  0.40521826113E-01  0.00000000000E+00 0. -1.
     999901    1    1    2    0    0 -0.88724196034E-01  0.10380514866E+00  0.42917586617E-01  0.89156570767E+00  0.88000000000E+00 0.  1.
        -11    1    3    3    0    0  0.43867217693E-01 -0.47334478416E-01 -0.20121634605E-01  0.67601974344E-01  0.51100000000E-03 0. -1.
         11    1    3    3    0    0  0.30010950154E-01 -0.18940139468E-01 -0.26411626002E-01  0.44240491874E-01  0.51100000000E-03 0.  1.
</event>
<event>
 8    1  0.1099921E+005  0.1043930E+01  0.7957747E-01            NaN
         13   -1    0    0    0    0  0.00000000000E+00  0.00000000000E+00  0.74505805969E-08  0.10566000000E+00  0.10566000000E+00 0. -1.
     999900   -1    0    0    0    0 -0.00000000000E+00 -0.00000000000E+00 -0.74505805969E-08  0.93827000000E+00  0.93827000000E+00 0. -1.
     999902    2    1    2    0    0 -0.54897701410E-02 -0.10165941475E-01 -0.18906197739E-01  0.10217730992E+01  0.10215328374E+01 0.  0.
     999903    2    3    3    0    0  0.31216425229E-01  0.39279071629E-01  0.11753841289E+00  0.12913135362E+00  0.18501819142E-01 0.  0.
         14    1    1    2    0    0  0.54897701410E-02  0.10165941475E-01  0.18906197739E-01  0.22156900849E-01  0.00000000000E+00 0. -1.
     999901    1    3    3    0    0 -0.36706195370E-01 -0.49445013104E-01 -0.13644461062E+00  0.89264174553E+00  0.88000000000E+00 0. -1.
        -11    1    4    4    0    0  0.18717093952E-01  0.92639317032E-02  0.42846227035E-01  0.47667707400E-01  0.51100000000E-03 0.  1.
         11    1    4    4    0    0  0.12499331278E-01  0.30015139926E-01  0.74692185850E-01  0.81463646218E-01  0.51100000000E-03 0. -1.
</event>
<event>
 8    1  0.1099921E+005  0.1043930E+01  0.7957747E-01            NaN
         13   -1    0    0    0    0  0.00000000000E+00  0.00000000000E+00  0.74505805969E-08  0.10566000000E+00  0.10566000000E+00 0. -1.
     999900   -1    0    0    0    0 -0.00000000000E+00 -0.00000000000E+00 -0.74505805969E-08  0.93827000000E+00  0.93827000000E+00 0. -1.
     999902    2    1    2    0    0  0.13207775800E-02 -0.18778571005E-01 -0.14507656425E-01  0.10201634000E+01  0.10198865189E+01 0.  0.
     999903    2    3    3    0    0  0.39168482463E-01  0.94201039225E-01  0.74391647393E-01  0.12769495385E+00  0.19075592438E-01 0.  0.
         14    1    1    2    0    0 -0.13207775800E-02  0.18778571005E-01  0.14507656425E-01  0.23766600037E-01  0.00000000000E+00 0. -1.
     999901    1    3    3    0    0 -0.37847704883E-01 -0.11297961023E+00 -0.88899303817E-01  0.89246844612E+00  0.88000000000E+00 0. -1.
        -11    1    4    4    0    0  0.29101843274E-01  0.84680630164E-01  0.60485288521E-01  0.10805765894E+00  0.51100000000E-03 0. -1.
         11    1    4    4    0    0  0.10066639189E-01  0.95204090602E-02  0.13906358871E-01  0.19637294908E-01  0.51100000000E-03 0.  1.
</event>
<event>
 8    1  0.1099921E+005  0.1043930E+01  0.7957747E-01            NaN
         13   -1    0    0    0    0  0.00000000000E+00  0.00000000000E+00  0.74505805969E-08  0.10566000000E+00  0.10566000000E+00 0. -1.
     999900   -1    0    0    0    0 -0.00000000000E+00 -0.00000000000E+00 -0.74505805969E-08  0.93827000000E+00  0.93827000000E+00 0.  1.
     999902    2    1    2    0    0  0.20568559446E-01 -0.10978064309E-01 -0.57249469151E-02  0.10199225314E+01  0.10196399420E+01 0.  0.
     999903    2    3    3    0    0 -0.12493278760E+00 -0.98890694553E-02 -0.15960551228E-01  0.12791547113E+00  0.20040794549E-01 0.  0.
         14    1    1    2    0    0 -0.20568559446E-01  0.10978064309E-01  0.57249469151E-02  0.24007468647E-01  0.00000000000E+00 0. -1.
     999901    1    3    3    0    0  0.14550134704E+00 -0.10889948535E-02  0.10235604313E-01  0.89200706023E+00  0.88000000000E+00 0.  1.
        -11    1    4    4    0    0 -0.39805035344E-01 -0.48113830226E-02  0.41004280487E-02  0.40307131832E-01  0.51100000000E-03 0.  1.
         11    1    4    4    0    0 -0.85127752253E-01 -0.50776864327E-02 -0.20060979277E-01  0.87608339293E-01  0.51100000000E-03 0. -1.
</event>
<event>
 8    1  0.1099921E+005  0.1043930E+01  0.7957747E-01            NaN
         13   -1    0    0    0    0  0.00000000000E+00  0.00000000000E+00  0.74505805969E-08  0.10566000000E+00  0.10566000000E+00 0. -1.
     999900   -1    0    0    0    0 -0.00000000000E+00 -0.00000000000E+00 -0.74505805969E-08  0.93827000000E+00  0.93827000000E+00 0. -1.
     999902    2    1    2    0    0  0.64177288394E-02  0.82091878105E-02 -0.21288718984E-01  0.10202279418E+01  0.10199525801E+01 0.  0.
     999903    2    3    3    0    0 -0.68871531780E-01  0.91112103903E-01  0.57821364679E-01  0.12961030688E+00  0.20268647409E-01 0.  0.
         14    1    1    2    0    0 -0.64177288394E-02 -0.82091878105E-02  0.21288718984E-01  0.23702058222E-01  0.00000000000E+00 0. -1.
     999901    1    3    3    0    0  0.75289260620E-01 -0.82902916092E-01 -0.79110083663E-01  0.89061763490E+00  0.88000000000E+00 0. -1.
        -11    1    4    4    0    0 -0.32888912319E-01  0.37588778053E-01  0.35819548653E-01  0.61464607505E-01  0.51100000000E-03 0. -1.
         11    1    4    4    0    0 -0.35982619461E-01  0.53523325850E-01  0.22001816026E-01  0.68145699371E-01  0.51100000000E-03 0.  1.
</event>
<event>
 8    1  0.1099921E+005  0.1043930E+01  0.7957747E-01            NaN
         13   -1    0    0    0    0  0.00000000000E+00  0.00000000000E+00  0.74505805969E-08  0.10566000000E+00  0.10566000000E+00 0.  1.
     999900   -1    0    0    0    0 -0.00000000000E+00 -0.00000000000E+00 -0.74505805969E-08  0.93827000000E+00  0.93827000000E+00 0.  1.
     999902    2    1    2    0    0  0.47297878687E-02  0.20567787296E-01 -0.12349836947E-01  0.10194775310E+01  0.10191842390E+01 0.  0.
     999903    2    3    3    0    0  0.48302503125E-01  0.88536125698E-01  0.81056020426E-01  0.13085897913E+00  0.19550360851E-01 0.  0.
         14    1    1    2    0    0 -0.47297878687E-02 -0.20567787296E-01  0.12349836947E-01  0.24452468999E-01  0.00000000000E+00 0. -1.
     999901    1    3    3    0    0 -0.43572715257E-01 -0.67968338402E-01 -0.93405857373E-01  0.88861855187E+00  0.88000000000E+00 0.  1.
        -11    1    4    4    0    0  0.74291472474E-02  0.20536986186E-01  0.27564666247E-01  0.35171465377E-01  0.51100000000E-03 0. -1.
         11    1    4    4    0    0  0.40873355878E-01  0.67999139512E-01  0.53491354179E-01  0.95687513752E-01  0.51100000000E-03 0.  1.
</event>
<event>
 7    1  0.1099921E+005  0.1043930E+01  0.7957747E-01            NaN
         13   -1    0    0    0    0  0.00000000000E+00  0.00000000000E+00  0.74505805969E-08  0.10566000000E+00  0.10566000000E+00 0. -1.
     999900   -1    0    0    0    0 -0.00000000000E+00 -0.00000000000E+00 -0.74505805969E-08  0.93827000000E+00  0.93827000000E+00 0.  1.
     999902    2    1    2    0    0 -0.70494194150E-02  0.13389107082E-01  0.17968161203E-01  0.10204392078E+01  0.10201687897E+01 0.  0.
         14    1    1    2    0    0  0.70494194150E-02 -0.13389107082E-01 -0.17968161203E-01  0.23490792229E-01  0.00000000000E+00 0. -1.
     999901    1    3    3    0    0  0.60006100482E-01 -0.52403886270E-01  0.91722290861E-01  0.88834671049E+00  0.88000000000E+00 0. -1.
        -11    1    3    3    0    0  0.24725421055E-02 -0.77458714243E-02 -0.79007189010E-02  0.11348765075E-01  0.51100000000E-03 0.  1.
         11    1    3    3    0    0 -0.69528062002E-01  0.73538864776E-01 -0.65853410757E-01  0.12074373221E+00  0.51100000000E-03 0. -1.
</event>
<event>
 8    1  0.1099921E+005  0.1043930E+01  0.7957747E-01            NaN
         13   -1    0    0    0    0  0.00000000000E+00  0.00000000000E+00  0.74505805969E-08  0.10566000000E+00  0.10566000000E+00 0.  1.
     999900   -1    0    0    0    0 -0.00000000000E+00 -0.00000000000E+00 -0.74505805969E-08  0.93827000000E+00  0.93827000000E+00 0.  1.
     999902    2    1    2    0    0  0.15609603550E-01 -0.31097845927E-02  0.16586906809E-01  0.10209418300E+01  0.10206829891E+01 0.  0.
     999903    2    3    3    0    0 -0.35860178124E-01 -0.81590304703E-01  0.94276686949E-01  0.13254775504E+00  0.27164010507E-01 0.  0.
         14    1    1    2    0    0 -0.15609603550E-01  0.31097845927E-02 -0.16586906809E-01  0.22988170016E-01  0.00000000000E+00 0. -1.
     999901    1    3    3    0    0  0.51469781674E-01  0.78480520110E-01 -0.77689780139E-01  0.88839407495E+00  0.88000000000E+00 0.  1.
        -11    1    4    4    0    0 -0.33752291810E-01 -0.43892852465E-01  0.57929621419E-01  0.80136769705E-01  0.51100000000E-03 0.  1.
         11    1    4    4    0    0 -0.21078863142E-02 -0.37697452238E-01  0.36347065530E-01  0.52410985333E-01  0.51100000000E-03 0. -1.
</event>
<event>
 7    1  0.1099921E+005  0.1043930E+01  0.7957747E-01            NaN
         13   -1    0    0    0    0  0.00000000000E+00  0.00000000000E+00  0.74505805969E-08  0.10566000000E+00  0.10566000000E+00 0. -1.
     999900   -1    0    0    0    0 -0.00000000000E+00 -0.00000000000E+00 -0.74505805969E-08  0.93827000000E+00  0.93827000000E+00 0.  1.
     999903    2    1    2    0    0  0.18762957065E-01  0.64139946409E-01 -0.94553134597E-01  0.11767856124E+00  0.21023016702E-01 0.  0.
         14    1    1    2    0    0  0.13149217597E-01 -0.23063132498E-01  0.33303349169E-01  0.42590175744E-01  0.00000000000E+00 0. -1.
     999901    1    1    2    0    0 -0.31912174662E-01 -0.41076813911E-01  0.61249785428E-01  0.88366126301E+00  0.88000000000E+00 0. -1.
        -11    1    3    3    0    0 -0.39167845318E-02  0.16009360635E-01 -0.27686207901E-01  0.32224649850E-01  0.51100000000E-03 0. -1.
         11    1    3    3    0    0  0.22679741596E-01  0.48130585774E-01 -0.66866926695E-01  0.85453911394E-01  0.51100000000E-03 0.  1.
</event>
<event>
 8    1  0.1099921E+005  0.1043930E+01  0.7957747E-01            NaN
         13   -1    0    0    0    0  0.00000000000E+00  0.00000000000E+00  0.74505805969E-08  0.10566000000E+00  0.10566000000E+00 0.  1.
     999900   -1    0    0    0    0 -0.00000000000E+00 -0.00000000000E+00 -0.74505805969E-08  0.93827000000E+00  0.93827000000E+00 0. -1.
     999902    2    1    2    0    0  0.21966606277E-01  0.62201014325E-02  0.68286970431E-02  0.10201003429E+01  0.10198219732E+01 0.  0.
     999903    2    3    3    0    0  0.40078152708E-01 -0.69572817849E-01  0.10231360974E+00  0.13151159481E+00  0.19508703774E-01 0.  0.
         14    1    1    2    0    0 -0.21966606277E-01 -0.62201014325E-02 -0.68286970431E-02  0.23829657078E-01  0.00000000000E+00 0. -1.
     999901    1    3    3    0    0 -0.18111546431E-01  0.75792919281E-01 -0.95484912694E-01  0.88858874812E+00  0.88000000000E+00 0.  1.
        -11    1    4    4    0    0  0.29038343216E-01 -0.39817545165E-01  0.49217482877E-01  0.69651159513E-01  0.51100000000E-03 0.  1.
         11    1    4    4    0    0  0.11039809493E-01 -0.29755272683E-01  0.53096126860E-01  0.61860435293E-01  0.51100000000E-03 0. -1.
</event>
<event>
 8    1  0.1099921E+005  0.1043930E+01  0.7957747E-01            NaN
         13   -1    0    0    0    0  0.00000000000E+00  0.00000000000E+00  0.74505805969E-08  0.10566000000E+00  0.10566000000E+00 0.  1.
     999900   -1    0    0    0    0 -0.00000000000E+00 -0.00000000000E+00 -0.74505805969E-08  0.93827000000E+00  0.93827000000E+00 0. -1.
     999902    2    1    2    0    0 -0.98593392150E-02  0.86562110158E-02 -0.19122965921E-01  0.10207389590E+01  0.10204754764E+01 0.  0.
     999903    2    3    3    0    0  0.31924358747E-01  0.82681624717E-01  0.92534280281E-01  0.12962001072E+00  0.19579029697E-01 0.  0.
         14    1    1    2    0    0  0.98593392150E-02 -0.86562110158E-02  0.19122965921E-01  0.23191041040E-01  0.00000000000E+00 0.  1.
     999901    1    3    3    0    0 -0.41783697962E-01 -0.74025413701E-01 -0.11165724620E+00  0.89111894824E+00  0.88000000000E+00 0. -1.
        -11    1    4    4    0    0  0.31420532168E-01  0.61115702986E-01  0.64555474959E-01  0.94287058822E-01  0.51100000000E-03 0.  1.
         11    1    4    4    0    0  0.50382657869E-03  0.21565921731E-01  0.27978805322E-01  0.35332951895E-01  0.51100000000E-03 0. -1.
</event>
<event>
 8    1  0.1099921E+005  0.1043930E+01  0.7957747E-01            NaN
         13   -1    0    0    0    0  0.00000000000E+00  0.00000000000E+00  0.74505805969E-08  0.10566000000E+00  0.10566000000E+00 0.  1.
     999900   -1    0    0    0    0 -0.00000000000E+00 -0.00000000000E+00 -0.74505805969E-08  0.93827000000E+00  0.93827000000E+00 0.  1.
     999902    2    1    2    0    0 -0.73981133652E-02  0.91755640313E-03 -0.23359361706E-01  0.10194099313E+01  0.10191149956E+01 0.  0.
     999903    2    3    3    0    0  0.41410192638E-01  0.82568781148E-01  0.85714936274E-01  0.12758798956E+00  0.19980918525E-01 0.  0.
         14    1    1    2    0    0  0.73981133652E-02 -0.91755640313E-03  0.23359361706E-01  0.24520068728E-01  0.00000000000E+00 0.  1.
     999901    1    3    3    0    0 -0.48808306003E-01 -0.81651224745E-01 -0.10907429798E+00  0.89182194171E+00  0.88000000000E+00 0.  1.
        -11    1    4    4    0    0  0.34058137286E-01  0.49644370584E-01  0.61457609272E-01  0.86033825351E-01  0.51100000000E-03 0. -1.
         11    1    4    4    0    0  0.73520553511E-02  0.32924410564E-01  0.24257327002E-01  0.41554164210E-01  0.51100000000E-03 0.  1.
</event>
<event>
 8    1  0.1099921E+005  0.1043930E+01  0.7957747E-01            NaN
         13   -1    0    0    0    0  0.00000000000E+00  0.00000000000E+00  0.74505805969E-08  0.10566000000E+00  0.10566000000E+00 0. -1.
     999900   -1    0    0    0    0 -0.00000000000E+00 -0.00000000000E+00 -0.74505805969E-08  0.93827000000E+00  0.93827000000E+00 0. -1.
     999902    2    1    2    0    0 -0.94914672531E-02 -0.18658108659E-02  0.21845706922E-01  0.10200384929E+01  0.10197586591E+01 0.  0.
     999903    2    3    3    0    0  0.55769556003E-01 -0.93850987162E-01  0.70577280104E-01  0.13150315874E+00  0.19841298451E-01 0.  0.
         14    1    1    2    0    0  0.94914672531E-02  0.18658108659E-02 -0.21845706922E-01  0.23891507104E-01  0.00000000000E+00 0.  1.
     999901    1    3    3    0    0 -0.65261023256E-01  0.91985176296E-01 -0.48731573182E-01  0.88853533415E+00  0.88000000000E+00 0. -1.
        -11    1    4    4    0    0  0.24539022804E-01 -0.57597482712E-01  0.33799931202E-01  0.71150053585E-01  0.51100000000E-03 0.  1.
         11    1    4    4    0    0  0.31230533199E-01 -0.36253504450E-01  0.36777348902E-01  0.60353105157E-01  0.51100000000E-03 0. -1.
</event>
<event>
 8    1  0.1099921E+005  0.1043930E+01  0.7957747E-01            NaN
         13   -1    0    0    0    0  0.00000000000E+00  0.00000000000E+00  0.74505805969E-08  0.10566000000E+00  0.10566000000E+00 0. -1.
     999900   -1    0    0    0    0 -0.00000000000E+00 -0.00000000000E+00 -0.74505805969E-08  0.93827000000E+00  0.93827000000E+00 0.  1.
     999902    2    1    2    0    0 -0.65036009359E-02  0.20393307496E-01 -0.10425970588E-01  0.10201206598E+01  0.10198427702E+01 0.  0.
     999903    2    3    3    0    0 -0.65560425892E-01 -0.10547300530E+00 -0.28842092906E-01  0.12901505958E+00  0.19755884824E-01 0.  0.
         14    1    1    2    0    0  0.65036009359E-02 -0.20393307496E-01  0.10425970588E-01  0.23809340151E-01  0.00000000000E+00 0.  1.
     999901    1    3    3    0    0  0.59056824957E-01  0.12586631279E+00  0.18416122318E-01  0.89110560027E+00  0.88000000000E+00 0. -1.
        -11    1    4    4    0    0 -0.16102146172E-01 -0.26504544598E-01 -0.16168051981E-01  0.34977664610E-01  0.51100000000E-03 0.  1.
         11    1    4    4    0    0 -0.49458279720E-01 -0.78968460701E-01 -0.12674040925E-01  0.94037394970E-01  0.51100000000E-03 0. -1.
</event>
<event>
 8    1  0.1099921E+005  0.1043930E+01  0.7957747E-01            NaN
         13   -1    0    0    0    0  0.00000000000E+00  0.00000000000E+00  0.74505805969E-08  0.10566000000E+00  0.10566000000E+00 0. -1.
     999900   -1    0    0    0    0 -0.00000000000E+00 -0.00000000000E+00 -0.74505805969E-08  0.93827000000E+00  0.93827000000E+00 0.  1.
     999902    2    1    2    0    0 -0.78726059698E-02  0.11892658040E-02  0.22249954870E-01  0.10202983947E+01  0.10200246867E+01 0.  0.
     999903    2    3    3    0    0  0.54421945170E-01  0.10905335447E+00 -0.39171681172E-01  0.12940676823E+00  0.18902614114E-01 0.  0.
         14    1    1    2    0    0  0.78726059698E-02 -0.11892658040E-02 -0.22249954870E-01  0.23631605312E-01  0.00000000000E+00 0.  1.
     999901    1    3    3    0    0 -0.62294551140E-01 -0.10786408866E+00  0.61421636042E-01  0.89089162646E+00  0.88000000000E+00 0. -1.
        -11    1    4    4    0    0  0.40659373136E-01  0.84848750382E-01 -0.21790613165E-01  0.96579433672E-01  0.51100000000E-03 0.  1.
         11    1    4    4    0    0  0.13762572034E-01  0.24204604085E-01 -0.17381068007E-01  0.32827334554E-01  0.51100000000E-03 0. -1.
</event>
<event>
 8    1  0.1099921E+005  0.1043930E+01  0.7957747E-01            NaN
         13   -1    0    0    0    0  0.00000000000E+00  0.00000000000E+00  0.74505805969E-08  0.10566000000E+00  0.10566000000E+00 0. -1.
     999900   -1    0    0    0    0 -0.00000000000E+00 -0.00000000000E+00 -0.74505805969E-08  0.93827000000E+00  0.93827000000E+00 0. -1.
     999902    2    1    2    0    0 -0.20462565496E-01  0.67936222628E-02 -0.84400957207E-02  0.10207760564E+01  0.10205134258E+01 0.  0.
     999903    2    3    3    0    0  0.37635154866E-01 -0.12220630269E+00 -0.19716603698E-02  0.12945222834E+00  0.20080006897E-01 0.  0.
         14    1    1    2    0    0  0.20462565496E-01 -0.67936222628E-02  0.84400957207E-02  0.23153943636E-01  0.00000000000E+00 0.  1.
     999901    1    3    3    0    0 -0.58097720363E-01  0.12899992496E+00 -0.64684353509E-02  0.89132382803E+00  0.88000000000E+00 0. -1.
        -11    1    4    4    0    0  0.36605596146E-02 -0.13770600878E-01  0.61497831996E-02  0.15527720362E-01  0.51100000000E-03 0. -1.
         11    1    4    4    0    0  0.33974595252E-01 -0.10843570182E+00 -0.81214435693E-02  0.11392450798E+00  0.51100000000E-03 0.  1.
</event>
<event>
 8    1  0.1099921E+005  0.1043930E+01  0.7957747E-01            NaN
         13   -1    0    0    0    0  0.00000000000E+00  0.00000000000E+00  0.74505805969E-08  0.10566000000E+00  0.10566000000E+00 0.  1.
     999900   -1    0    0    0    0 -0.00000000000E+00 -0.00000000000E+00 -0.74505805969E-08  0.93827000000E+00  0.93827000000E+00 0. -1.
     999902    2    1    2    0    0  0.96131911907E-02  0.68415058815E-02 -0.25768713793E-01  0.10155884006E+01  0.10151928650E+01 0.  0.
     999903    2    3    3    0    0 -0.22592066297E-01  0.72703926390E-01 -0.10240365592E+00  0.12922055853E+00  0.20376006255E-01 0.  0.
         14    1    1    2    0    0 -0.96131911907E-02 -0.68415058815E-02  0.25768713793E-01  0.28341599428E-01  0.00000000000E+00 0.  1.
     999901    1    3    3    0    0  0.32205257488E-01 -0.65862420508E-01  0.76634942122E-01  0.88636784204E+00  0.88000000000E+00 0.  1.
        -11    1    4    4    0    0 -0.19889711887E-01  0.67348261949E-01 -0.82070969373E-01  0.10801524967E+00  0.51100000000E-03 0. -1.
         11    1    4    4    0    0 -0.27023544098E-02  0.53556644404E-02 -0.20332686543E-01  0.21205308863E-01  0.51100000000E-03 0.  1.
</event>
<event>
 8    1  0.1099921E+005  0.1043930E+01  0.7957747E-01            NaN
         13   -1    0    0    0    0  0.00000000000E+00  0.00000000000E+00  0.74505805969E-08  0.10566000000E+00  0.10566000000E+00 0. -1.
     999900   -1    0    0    0    0 -0.00000000000E+00 -0.00000000000E+00 -0.74505805969E-08  0.93827000000E+00  0.93827000000E+00 0.  1.
     999902    2    1    2    0    0  0.93410594612E-02  0.14751669096E-01 -0.16698397970E-01  0.10197700408E+01  0.10194838069E+01 0.  0.
     999903    2    3    3    0    0 -0.27445257743E-01  0.84876454279E-01  0.91833003034E-01  0.12957355485E+00  0.19968750731E-01 0.  0.
         14    1    1    2    0    0 -0.93410594612E-02 -0.14751669096E-01  0.16698397970E-01  0.24159959183E-01  0.00000000000E+00 0. -1.
     999901    1    3    3    0    0  0.36786317204E-01 -0.70124785183E-01 -0.10853140100E+00  0.89019648597E+00  0.88000000000E+00 0.  1.
        -11    1    4    4    0    0 -0.23802340435E-01  0.41961208855E-01  0.45581894414E-01  0.66372167948E-01  0.51100000000E-03 0. -1.
         11    1    4    4    0    0 -0.36429173079E-02  0.42915245423E-01  0.46251108620E-01  0.63201386898E-01  0.51100000000E-03 0.  1.
</event>
<event>
 8    1  0.1099921E+005  0.1043930E+01  0.7957747E-01            NaN
         13   -1    0    0    0    0  0.00000000000E+00  0.00000000000E+00  0.74505805969E-08  0.10566000000E+00  0.10566000000E+00 0.  1.
     999900   -1    0    0    0    0 -0.00000000000E+00 -0.00000000000E+00 -0.74505805969E-08  0.93827000000E+00  0.93827000000E+00 0. -1.
     999902    2    1    2    0    0 -0.12631578403E-01 -0.19015043913E-01  0.53453964535E-02  0.10204842769E+01  0.10202149075E+01 0.  0.
     999903    2    3    3    0    0  0.62358415368E-02 -0.12393601108E+00 -0.42779407544E-01  0.13274535941E+00  0.19804852259E-01 0.  0.
         14    1    1    2    0    0  0.12631578403E-01  0.19015043913E-01 -0.53453964535E-02  0.23445723090E-01  0.00000000000E+00 0. -1.
     999901    1    3    3    0    0 -0.18867419940E-01  0.10492096717E+00  0.48124803997E-01  0.88773891750E+00  0.88000000000E+00 0.  1.
        -11    1    4    4    0    0  0.89461566219E-03 -0.51641624722E-01 -0.28028413237E-01  0.58766579029E-01  0.51100000000E-03 0. -1.
         11    1    4    4    0    0  0.53412258746E-02 -0.72294386357E-01 -0.14750994307E-01  0.73978780381E-01  0.51100000000E-03 0.  1.
</event>
<event>
 8    1  0.1099921E+005  0.1043930E+01  0.7957747E-01            NaN
         13   -1    0    0    0    0  0.00000000000E+00  0.00000000000E+00  0.74505805969E-08  0.10566000000E+00  0.10566000000E+00 0. -1.
     999900   -1    0    0    0    0 -0.00000000000E+00 -0.00000000000E+00 -0.74505805969E-08  0.93827000000E+00  0.93827000000E+00 0. -1.
     999902    2    1    2    0    0 -0.91753418335E-02 -0.22067477533E-01  0.40355056424E-03  0.10200276295E+01  0.10197475382E+01 0.  0.
     999903    2    3    3    0    0 -0.10920103853E+00  0.40023318012E-01 -0.55766680845E-01  0.13041226217E+00  0.19253639440E-01 0.  0.
         14    1    1    2    0    0  0.91753418335E-02  0.22067477533E-01 -0.40355056424E-03  0.23902370499E-01  0.00000000000E+00 0.  1.
     999901    1    3    3    0    0  0.10002569670E+00 -0.62090795545E-01  0.56170231409E-01  0.88961536733E+00  0.88000000000E+00 0.  1.
        -11    1    4    4    0    0 -0.52817662498E-01  0.23149370289E-01 -0.37484139066E-01  0.68781688109E-01  0.51100000000E-03 0. -1.
         11    1    4    4    0    0 -0.56383376031E-01  0.16873947724E-01 -0.18282541779E-01  0.61630574063E-01  0.51100000000E-03 0.  1.
</event>
<event>
 8    1  0.1099921E+005  0.1043930E+01  0.7957747E-01            NaN
         13   -1    0    0    0    0  0.00000000000E+00  0.00000000000E+00  0.74505805969E-08  0.10566000000E+00  0.10566000000E+00 0. -1.
     999900   -1    0    0    0    0 -0.00000000000E+00 -0.00000000000E+00 -0.74505805969E-08  0.93827000000E+00  0.93827000000E+00 0.  1.
     999902    2    1    2    0    0  0.11836139673E-01  0.17397117279E-01  0.81403889732E-02  0.10213685323E+01  0.10211193167E+01 0.  0.
     999903    2    3    3    0    0 -0.73188000342E-01  0.12506149396E-01  0.10695945913E+00  0.13175162904E+00  0.20131534687E-01 0.  0.
         14    1    1    2    0    0 -0.11836139673E-01 -0.17397117279E-01 -0.81403889732E-02  0.22561467696E-01  0.00000000000E+00 0. -1.
     999901    1    3    3    0    0  0.85024140015E-01  0.48909678826E-02 -0.98819070160E-01  0.88961690327E+00  0.88000000000E+00 0.  1.
        -11    1    4    4    0    0 -0.29485208820E-01  0.12262817063E-01  0.57286264611E-01  0.65587586139E-01  0.51100000000E-03 0.  1.
         11    1    4    4    0    0 -0.43702791522E-01  0.24333233280E-03  0.49673194522E-01  0.66164042897E-01  0.51100000000E-03 0. -1.
</event>
<event>
 8    1  0.1099921E+005  0.1043930E+01  0.7957747E-01            NaN
         13   -1    0    0    0    0  0.00000000000E+00  0.00000000000E+00  0.74505805969E-08  0.10566000000E+00  0.10566000000E+00 0. -1.
     999900   -1    0    0    0    0 -0.00000000000E+00 -0.00000000000E+00 -0.74505805969E-08  0.93827000000E+00  0.93827000000E+00 0. -1.
     999902    2    1    2    0    0  0.31045299060E-01 -0.95806382251E-02 -0.92984284544E-02  0.10101356219E+01  0.10095701633E+01 0.  0.
     999903    2    3    3    0    0 -0.43838262628E-01  0.78712273429E-01  0.74888113509E-01  0.11856926992E+00  0.18249026415E-01 0.  0.
         14    1    1    2    0    0 -0.31045299060E-01  0.95806382251E-02  0.92984284544E-02  0.33794378145E-01  0.00000000000E+00 0. -1.
     999901    1    3    3    0    0  0.74883561688E-01 -0.88292911654E-01 -0.84186541963E-01  0.89156635194E+00  0.88000000000E+00 0. -1.
        -11    1    4    4    0    0 -0.30582531288E-01  0.67291199073E-01  0.55396258594E-01  0.92371008871E-01  0.51100000000E-03 0.  1.
         11    1    4    4    0    0 -0.13255731340E-01  0.11421074357E-01  0.19491854914E-01  0.26198261046E-01  0.51100000000E-03 0. -1.
</event>
<event>
 8    1  0.1099921E+005  0.1043930E+01  0.7957747E-01            NaN
         13   -1    0    0    0    0  0.00000000000E+00  0.00000000000E+00  0.74505805969E-08  0.10566000000E+00  0.10566000000E+00 0.  1.
     999900   -1    0    0    0    0 -0.00000000000E+00 -0.00000000000E+00 -0.74505805969E-08  0.93827000000E+00  0.93827000000E+00 0.  1.
     999902    2    1    2    0    0  0.17564987746E-01  0.92742121178E-02 -0.12347891579E-01  0.10205417501E+01  0.10202737150E+01 0.  0.
     999903    2    3    3    0    0  0.44878274268E-01 -0.11627842918E+00 -0.34927246020E-01  0.13092424323E+00  0.19659917562E-01 0.  0.
         14    1    1    2    0    0 -0.17564987746E-01 -0.92742121178E-02  0.12347891579E-01  0.23388249857E-01  0.00000000000E+00 0. -1.
     999901    1    3    3    0    0 -0.27313286521E-01  0.12555264129E+00  0.22579354441E-01  0.88961750691E+00  0.88000000000E+00 0.  1.
        -11    1    4    4    0    0  0.21913865613E-01 -0.59221759182E-01 -0.75440997224E-02  0.63597239157E-01  0.51100000000E-03 0. -1.
         11    1    4    4    0    0  0.22964408655E-01 -0.57056669993E-01 -0.27383146297E-01  0.67327004075E-01  0.51100000000E-03 0.  1.
</event>
<event>
 8    1  0.1099921E+005  0.1043930E+01  0.7957747E-01            NaN
         13   -1    0    0    0    0  0.00000000000E+00  0.00000000000E+00  0.74505805969E-08  0.10566000000E+00  0.10566000000E+00 0. -1.
     999900   -1    0    0    0    0 -0.00000000000E+00 -0.00000000000E+00 -0.74505805969E-08  0.93827000000E+00  0.93827000000E+00 0.  1.
     999902    2    1    2    0    0  0.69754760888E-02  0.10880107562E-01  0.19563269816E-01  0.10204831338E+01  0.10202137379E+01 0.  0.
     999903    2    3    3    0    0 -0.10058579504E+00 -0.15149135278E-01 -0.75976065277E-01  0.12842107709E+00  0.19303162518E-01 0.  0.
         14    1    1    2    0    0 -0.69754760888E-02 -0.10880107562E-01 -0.19563269816E-01  0.23446866169E-01  0.00000000000E+00 0.  1.
     999901    1    3    3    0    0  0.10756127112E+00  0.26029242840E-01  0.95539335093E-01  0.89206205674E+00  0.88000000000E+00 0. -1.
        -11    1    4    4    0    0 -0.41063263720E-01  0.18063297709E-03 -0.21839869679E-01  0.46513065736E-01  0.51100000000E-03 0. -1.
         11    1    4    4    0    0 -0.59522531316E-01 -0.15329768255E-01 -0.54136195598E-01  0.81908011353E-01  0.51100000000E-03 0.  1.
</event>
<event>
 8    1  0.1099921E+005  0.1043930E+01  0.7957747E-01            NaN
         13   -1    0    0    0    0  0.00000000000E+00  0.00000000000E+00  0.74505805969E-08  0.10566000000E+00  0.10566000000E+00 0.  1.
     999900   -1    0    0    0    0 -0.00000000000E+00 -0.00000000000E+00 -0.74505805969E-08  0.93827000000E+00  0.93827000000E+00 0. -1.
     999902    2    1    2    0    0 -0.11010717262E-01  0.28446883485E-02 -0.20747794639E-01  0.10202699254E+01  0.10199955498E+01 0.  0.
     999903    2    3    3    0    0  0.52982731222E-01  0.77774001298E-01 -0.91956449065E-01  0.13191175675E+00  0.94211442436E-02 0.  0.
         14    1    1    2    0    0  0.11010717262E-01 -0.28446883485E-02  0.20747794639E-01  0.23660074573E-01  0.00000000000E+00 0.  1.
     999901    1    3    3    0    0 -0.63993448484E-01 -0.74929312949E-01  0.71208654427E-01  0.88835816868E+00  0.88000000000E+00 0.  1.
        -11    1    4    4    0    0  0.18776254034E-02  0.61348347587E-02 -0.81972017595E-02  0.10421943790E-01  0.51100000000E-03 0. -1.
         11    1    4    4    0    0  0.51105105818E-01  0.71639166539E-01 -0.83759247306E-01  0.12148981296E+00  0.51100000000E-03 0.  1.
</event>
<event>
 8    1  0.1099921E+005  0.1043930E+01  0.7957747E-01            NaN
         13   -1    0    0    0    0  0.00000000000E+00  0.00000000000E+00  0.74505805969E-08  0.10566000000E+00  0.10566000000E+00 0.  1.
     999900   -1    0    0    0    0 -0.00000000000E+00 -0.00000000000E+00 -0.74505805969E-08  0.93827000000E+00  0.93827000000E+00 0.  1.
     999902    2    1    2    0    0  0.14519893409E-01  0.28931896531E-02 -0.18189975981E-01  0.10204763632E+01  0.10202068098E+01 0.  0.
     999903    2    3    3    0    0  0.23360091472E-01 -0.81475999308E-01  0.95372149712E-01  0.12913318268E+00  0.19887171514E-01 0.  0.
         14    1    1    2    0    0 -0.14519893409E-01 -0.28931896531E-02  0.18189975981E-01  0.23453636758E-01  0.00000000000E+00 0.  1.
     999901    1    3    3    0    0 -0.88401980629E-02  0.84369188961E-01 -0.11356212569E+00  0.89134318056E+00  0.88000000000E+00 0.  1.
        -11    1    4    4    0    0  0.10838576806E-01 -0.59116703555E-01  0.76583226558E-01  0.97352509456E-01  0.51100000000E-03 0. -1.
         11    1    4    4    0    0  0.12521514666E-01 -0.22359295753E-01  0.18788923155E-01  0.31780673222E-01  0.51100000000E-03 0.  1.
</event>
<event>
 8    1  0.1099921E+005  0.1043930E+01  0.7957747E-01            NaN
         13   -1    0    0    0    0  0.00000000000E+00  0.00000000000E+00  0.74505805969E-08  0.10566000000E+00  0.10566000000E+00 0. -1.
     999900   -1    0    0    0    0 -0.00000000000E+00 -0.00000000000E+00 -0.74505805969E-08  0.93827000000E+00  0.93827000000E+00 0. -1.
     999902    2    1    2    0    0  0.21653265702E-01 -0.65541420372E-02 -0.35254670306E-02  0.10210335022E+01  0.10207767449E+01 0.  0.
     999903    2    3    3    0    0 -0.84622648961E-01 -0.92623855013E-01  0.26408544538E-01  0.12996750545E+00  0.21306572076E-01 0.  0.
         14    1    1    2    0    0 -0.21653265702E-01  0.65541420372E-02  0.35254670306E-02  0.22896497793E-01  0.00000000000E+00 0. -1.
     999901    1    3    3    0    0  0.10627591466E+00  0.86069712976E-01 -0.29934011569E-01  0.89106599676E+00  0.88000000000E+00 0. -1.
        -11    1    4    4    0    0 -0.45452404762E-01 -0.40714351912E-01  0.21694270831E-01  0.64764821146E-01  0.51100000000E-03 0.  1.
         11    1    4    4    0    0 -0.39170244199E-01 -0.51909503101E-01  0.47142737076E-02  0.65202684303E-01  0.51100000000E-03 0. -1.
</event>
<event>
 8    1  0.1099921E+005  0.1043930E+01  0.7957747E-01            NaN
         13   -1    0    0    0    0  0.00000000000E+00  0.00000000000E+00  0.74505805969E-08  0.10566000000E+00  0.10566000000E+00 0.  1.
     999900   -1    0    0    0    0 -0.00000000000E+00 -0.00000000000E+00 -0.74505805969E-08  0.93827000000E+00  0.93827000000E+00 0. -1.
     999902    2    1    2    0    0 -0.15894440973E-01  0.66827002182E-03  0.17305385338E-01  0.10204234860E+01  0.10201527016E+01 0.  0.
     999903    2    3    3    0    0 -0.53480615656E-01  0.11662659288E+00  0.23195327224E-01  0.13200143282E+00  0.20601374775E-01 0.  0.
         14    1    1    2    0    0  0.15894440973E-01 -0.66827002182E-03 -0.17305385338E-01  0.23506513999E-01  0.00000000000E+00 0. -1.
     999901    1    3    3    0    0  0.37586174683E-01 -0.11595832286E+00 -0.58899418858E-02  0.88842205318E+00  0.88000000000E+00 0. -1.
        -11    1    4    4    0    0 -0.24481931889E-01  0.52604403316E-01  0.20915772743E-01  0.61679161049E-01  0.51100000000E-03 0.  1.
         11    1    4    4    0    0 -0.28998683767E-01  0.64022189566E-01  0.22795544803E-02  0.70322271768E-01  0.51100000000E-03 0. -1.
</event>
<event>
 8    1  0.1099921E+005  0.1043930E+01  0.7957747E-01            NaN
         13   -1    0    0    0    0  0.00000000000E+00  0.00000000000E+00  0.74505805969E-08  0.10566000000E+00  0.10566000000E+00 0.  1.
     999900   -1    0    0    0    0 -0.00000000000E+00 -0.00000000000E+00 -0.74505805969E-08  0.93827000000E+00  0.93827000000E+00 0.  1.
     999902    2    1    2    0    0  0.21742351575E-01  0.13104664407E-02  0.96044415805E-02  0.10201246965E+01  0.10198469023E+01 0.  0.
     999903    2    3    3    0    0  0.60019400124E-01  0.11234428054E+00  0.22584556350E-01  0.13222711028E+00  0.27393078437E-01 0.  0.
         14    1    1    2    0    0 -0.21742351575E-01 -0.13104664407E-02 -0.96044415805E-02  0.23805303451E-01  0.00000000000E+00 0. -1.
     999901    1    3    3    0    0 -0.38277048549E-01 -0.11103381410E+00 -0.12980114770E-01  0.88789758627E+00  0.88000000000E+00 0.  1.
        -11    1    4    4    0    0  0.26552771060E-01  0.45924001332E-01  0.23068055596E-01  0.57848594272E-01  0.51100000000E-03 0. -1.
         11    1    4    4    0    0  0.33466629064E-01  0.66420279211E-01 -0.48349924607E-03  0.74378516010E-01  0.51100000000E-03 0.  1.
</event>
<event>
 8    1  0.1099921E+005  0.1043930E+01  0.7957747E-01            NaN
         13   -1    0    0    0    0  0.00000000000E+00  0.00000000000E+00  0.74505805969E-08  0.10566000000E+00  0.10566000000E+00 0. -1.
     999900   -1    0    0    0    0 -0.00000000000E+00 -0.00000000000E+00 -0.74505805969E-08  0.93827000000E+00  0.93827000000E+00 0. -1.
     999902    2    1    2    0    0 -0.62881046432E-02  0.66545863056E-02 -0.21644541233E-01  0.10204287246E+01  0.10201580623E+01 0.  0.
     999903    2    3    3    0    0 -0.37878426323E-01 -0.71570621286E-01  0.97272797967E-01  0.12843182716E+00  0.21808438545E-01 0.  0.
         14    1    1    2    0    0  0.62881046432E-02 -0.66545863056E-02  0.21644541233E-01  0.23501275372E-01  0.00000000000E+00 0. -1.
     999901    1    3    3    0    0  0.31590321680E-01  0.78225207592E-01 -0.11891733920E+00  0.89199689747E+00  0.88000000000E+00 0. -1.
        -11    1    4    4    0    0 -0.20365905403E-01 -0.53099792006E-01  0.77843303492E-01  0.96406426308E-01  0.51100000000E-03 0.  1.
         11    1    4    4    0    0 -0.17512520920E-01 -0.18470829281E-01  0.19429494475E-01  0.32025400854E-01  0.51100000000E-03 0. -1.
</event>
<event>
 8    1  0.1099921E+005  0.1043930E+01  0.7957747E-01            NaN
         13   -1    0    0    0    0  0.00000000000E+00  0.00000000000E+00  0.74505805969E-08  0.10566000000E+00  0.10566000000E+00 0. -1.
     999900   -1    0    0    0    0 -0.00000000000E+00 -0.00000000000E+00 -0.74505805969E-08  0.93827000000E+00  0.93827000000E+00 0.  1.
     999902    2    1    2    0    0 -0.17422093009E-01  0.70416868171E-03  0.15531977757E-01  0.10205790362E+01  0.10203118649E+01 0.  0.
     999903    2    3    3    0    0 -0.66370996344E-01  0.25181963352E-01  0.11151729477E+00  0.13366960526E+00  0.19804441511E-01 0.  0.
         14    1    1    2    0    0  0.17422093009E-01 -0.70416868171E-03 -0.15531977757E-01  0.23350963821E-01  0.00000000000E+00 0.  1.
     999901    1    3    3    0    0  0.48948903335E-01 -0.24477794670E-01 -0.95985317014E-01  0.88690943092E+00  0.88000000000E+00 0.  1.
        -11    1    4    4    0    0 -0.49323517930E-01  0.27380129859E-01  0.88135887027E-01  0.10464548072E+00  0.51100000000E-03 0. -1.
         11    1    4    4    0    0 -0.17047478413E-01 -0.21981665072E-02  0.23381407744E-01  0.29024124540E-01  0.51100000000E-03 0.  1.
</event>
<event>
 8    1  0.1099921E+005  0.1043930E+01  0.7957747E-01            NaN
         13   -1    0    0    0    0  0.00000000000E+00  0.00000000000E+00  0.74505805969E-08  0.10566000000E+00  0.10566000000E+00 0.  1.
     999900   -1    0    0    0    0 -0.00000000000E+00 -0.00000000000E+00 -0.74505805969E-08  0.93827000000E+00  0.93827000000E+00 0. -1.
     999902    2    1    2    0    0  0.27488973488E-02  0.15971462567E-01  0.16711003233E-01  0.10206512182E+01  0.10203857151E+01 0.  0.
     999903    2    3    3    0    0 -0.52862533060E-02 -0.71875503196E-01  0.10812573972E+00  0.13152900664E+00  0.20363486027E-01 0.  0.
         14    1    1    2    0    0 -0.27488973488E-02 -0.15971462567E-01 -0.16711003233E-01  0.23278781802E-01  0.00000000000E+00 0. -1.
     999901    1    3    3    0    0  0.80351506548E-02  0.87846965763E-01 -0.91414736489E-01  0.88912221156E+00  0.88000000000E+00 0.  1.
        -11    1    4    4    0    0 -0.13135400985E-01 -0.44062524510E-01  0.67190901462E-01  0.81418199351E-01  0.51100000000E-03 0. -1.
         11    1    4    4    0    0  0.78491476785E-02 -0.27812978686E-01  0.40934838260E-01  0.50110807288E-01  0.51100000000E-03 0.  1.
</event>
<event>
 8    1  0.1099921E+005  0.1043930E+01  0.7957747E-01            NaN
         13   -1    0    0    0    0  0.00000000000E+00  0.00000000000E+00  0.74505805969E-08  0.10566000000E+00  0.10566000000E+00 0. -1.
     999900   -1    0    0    0    0 -0.00000000000E+00 -0.00000000000E+00 -0.74505805969E-08  0.93827000000E+00  0.93827000000E+00 0. -1.
     999902    2    1    2    0    0  0.14544049287E-01 -0.12560020893E-01 -0.12870090784E-01  0.10208016034E+01  0.10205395586E+01 0.  0.
     999903    2    3    3    0    0  0.11799427203E+00 -0.43779615630E-01  0.37389806514E-01  0.13276856965E+00  0.19753290357E-01 0.  0.
         14    1    1    2    0    0 -0.14544049287E-01  0.12560020893E-01  0.12870090784E-01  0.23128396643E-01  0.00000000000E+00 0. -1.
     999901    1    3    3    0    0 -0.10345022274E+00  0.31219594737E-01 -0.50259897298E-01  0.88803303371E+00  0.88000000000E+00 0.  1.
        -11    1    4    4    0    0  0.90906813879E-01 -0.33146793808E-01  0.37190889651E-01  0.10366379379E+00  0.51100000000E-03 0.  1.
         11    1    4    4    0    0  0.27087458146E-01 -0.10632821822E-01  0.19891686278E-03  0.29104775856E-01  0.51100000000E-03 0. -1.
</event>
<event>
 8    1  0.1099921E+005  0.1043930E+01  0.7957747E-01            NaN
         13   -1    0    0    0    0  0.00000000000E+00  0.00000000000E+00  0.74505805969E-08  0.10566000000E+00  0.10566000000E+00 0.  1.
     999900   -1    0    0    0    0 -0.00000000000E+00 -0.00000000000E+00 -0.74505805969E-08  0.93827000000E+00  0.93827000000E+00 0.  1.
     999902    2    1    2    0    0 -0.18268335951E-01  0.15410879451E-01  0.68669494706E-03  0.10200197751E+01  0.10197394975E+01 0.  0.
     999903    2    3    3    0    0 -0.11108802357E-01  0.10566456952E+00  0.72650697218E-01  0.13245242268E+00  0.31258818388E-01 0.  0.
         14    1    1    2    0    0  0.18268335951E-01 -0.15410879451E-01 -0.68669494706E-03  0.23910224880E-01  0.00000000000E+00 0. -1.
     999901    1    3    3    0    0 -0.71595335939E-02 -0.90253690066E-01 -0.71964002271E-01  0.88756735244E+00  0.88000000000E+00 0.  1.
        -11    1    4    4    0    0 -0.13922601628E-01  0.25677500979E-01  0.10235475735E-01  0.30954789244E-01  0.51100000000E-03 0. -1.
         11    1    4    4    0    0  0.28137992717E-02  0.79987068538E-01  0.62415221483E-01  0.10149763344E+00  0.51100000000E-03 0.  1.
</event>
<event>
 8    1  0.1099921E+005  0.1043930E+01  0.7957747E-01            NaN
         13   -1    0    0    0    0  0.00000000000E+00  0.00000000000E+00  0.74505805969E-08  0.10566000000E+00  0.10566000000E+00 0.  1.
     999900   -1    0    0    0    0 -0.00000000000E+00 -0.00000000000E+00 -0.74505805969E-08  0.93827000000E+00  0.93827000000E+00 0.  1.
     999902    2    1    2    0    0 -0.11464649177E-02 -0.21818448391E-01  0.88519753063E-02  0.10203563592E+01  0.10200840080E+01 0.  0.
     999903    2    3    3    0    0 -0.87778563506E-01  0.91539802217E-01  0.10497074125E-01  0.12886439638E+00  0.20278868025E-01 0.  0.
         14    1    1    2    0    0  0.11464649177E-02  0.21818448391E-01 -0.88519753063E-02  0.23573640763E-01  0.00000000000E+00 0. -1.
     999901    1    3    3    0    0  0.86632098588E-01 -0.11335825061E+00 -0.16450988186E-02  0.89149196286E+00  0.88000000000E+00 0.  1.
        -11    1    4    4    0    0 -0.50954367968E-01  0.42125191999E-01  0.12110733684E-01  0.67214659170E-01  0.51100000000E-03 0. -1.
         11    1    4    4    0    0 -0.36824195538E-01  0.49414610218E-01 -0.16136595590E-02  0.61649737211E-01  0.51100000000E-03 0.  1.
</event>
<event>
 8    1  0.1099921E+005  0.1043930E+01  0.7957747E-01            NaN
         13   -1    0    0    0    0  0.00000000000E+00  0.00000000000E+00  0.74505805969E-08  0.10566000000E+00  0.10566000000E+00 0. -1.
     999900   -1    0    0    0    0 -0.00000000000E+00 -0.00000000000E+00 -0.74505805969E-08  0.93827000000E+00  0.93827000000E+00 0.  1.
     999902    2    1    2    0    0 -0.22277851510E-01  0.47527135128E-02  0.44630113909E-02  0.10207177312E+01  0.10204537605E+01 0.  0.
     999903    2    3    3    0    0 -0.12950425493E+00  0.41785742786E-02 -0.26222685103E-01  0.13367802338E+00  0.19833612710E-01 0.  0.
         14    1    1    2    0    0  0.22277851510E-01 -0.47527135128E-02 -0.44630113909E-02  0.23212268832E-01  0.00000000000E+00 0. -1.
     999901    1    3    3    0    0  0.10722640342E+00  0.57413923415E-03  0.30685696494E-01  0.88703970779E+00  0.88000000000E+00 0. -1.
        -11    1    4    4    0    0 -0.65451710076E-01  0.65919467077E-02 -0.22285958294E-01  0.69457218281E-01  0.51100000000E-03 0.  1.
         11    1    4    4    0    0 -0.64052544851E-01 -0.24133724291E-02 -0.39367268094E-02  0.64220805098E-01  0.51100000000E-03 0. -1.
</event>
<event>
 8    1  0.1099921E+005  0.1043930E+01  0.7957747E-01            NaN
         13   -1    0    0    0    0  0.00000000000E+00  0.00000000000E+00  0.74505805969E-08  0.10566000000E+00  0.10566000000E+00 0. -1.
     999900   -1    0    0    0    0 -0.00000000000E+00 -0.00000000000E+00 -0.74505805969E-08  0.93827000000E+00  0.93827000000E+00 0. -1.
     999902    2    1    2    0    0  0.20853785086E-01  0.10567040479E-01  0.39585491027E-02  0.10202189729E+01  0.10199434003E+01 0.  0.
     999903    2    3    3    0    0  0.37248591848E-01 -0.30125321018E-02  0.12480123444E+00  0.13170552385E+00  0.19351071068E-01 0.  0.
         14    1    1    2    0    0 -0.20853785086E-01 -0.10567040479E-01 -0.39585491027E-02  0.23711027137E-01  0.00000000000E+00 0.  1.
     999901    1    3    3    0    0 -0.16394806762E-01  0.13579572581E-01 -0.12084268533E+00  0.88851344901E+00  0.88000000000E+00 0. -1.
        -11    1    4    4    0    0  0.11043247128E-01  0.46348538264E-02  0.63169274504E-01  0.64296605972E-01  0.51100000000E-03 0.  1.
         11    1    4    4    0    0  0.26205344720E-01 -0.76473859283E-02  0.61631959931E-01  0.67408917877E-01  0.51100000000E-03 0. -1.
</event>
<event>
 8    1  0.1099921E+005  0.1043930E+01  0.7957747E-01            NaN
         13   -1    0    0    0    0  0.00000000000E+00  0.00000000000E+00  0.74505805969E-08  0.10566000000E+00  0.10566000000E+00 0.  1.
     999900   -1    0    0    0    0 -0.00000000000E+00 -0.00000000000E+00 -0.74505805969E-08  0.93827000000E+00  0.93827000000E+00 0. -1.
     999902    2    1    2    0    0 -0.13715789630E-01 -0.15690920802E-01  0.11915718242E-01  0.10199234963E+01  0.10196409299E+01 0.  0.
     999903    2    3    3    0    0 -0.35366951234E-01 -0.86067274993E-01  0.93676037179E-01  0.13307156173E+00  0.16566337378E-01 0.  0.
         14    1    1    2    0    0  0.13715789630E-01  0.15690920802E-01 -0.11915718242E-01  0.24006503744E-01  0.00000000000E+00 0. -1.
     999901    1    3    3    0    0  0.21651161604E-01  0.70376354191E-01 -0.81760318938E-01  0.88685193453E+00  0.88000000000E+00 0.  1.
        -11    1    4    4    0    0 -0.50388753958E-02 -0.26615045932E-01  0.20107603296E-01  0.33739113304E-01  0.51100000000E-03 0. -1.
         11    1    4    4    0    0 -0.30328075838E-01 -0.59452229061E-01  0.73568433884E-01  0.99332448422E-01  0.51100000000E-03 0.  1.
</event>
<event>
 8    1  0.1099921E+005  0.1043930E+01  0.7957747E-01            NaN
         13   -1    0    0    0    0  0.00000000000E+00  0.00000000000E+00  0.74505805969E-08  0.10566000000E+00  0.10566000000E+00 0.  1.
     999900   -1    0    0    0    0 -0.00000000000E+00 -0.00000000000E+00 -0.74505805969E-08  0.93827000000E+00  0.93827000000E+00 0. -1.
     999902    2    1    2    0    0  0.44645056407E-02  0.24295338563E-01 -0.11567652128E-02  0.10192007988E+01  0.10189007483E+01 0.  0.
     999903    2    3    3    0    0 -0.68352378846E-01  0.10001841728E+00 -0.47658873971E-01  0.13173320534E+00  0.20162778386E-01 0.  0.
         14    1    1    2    0    0 -0.44645056407E-02 -0.24295338563E-01  0.11567652128E-02  0.24729201205E-01  0.00000000000E+00 0.  1.
     999901    1    3    3    0    0  0.72816884486E-01 -0.75723078714E-01  0.46502108758E-01  0.88746759346E+00  0.88000000000E+00 0. -1.
        -11    1    4    4    0    0 -0.36530386577E-01  0.68352465737E-01 -0.24946849997E-01  0.81419501114E-01  0.51100000000E-03 0. -1.
         11    1    4    4    0    0 -0.31821992268E-01  0.31665951539E-01 -0.22712023974E-01  0.50313704225E-01  0.51100000000E-03 0.  1.
</event>
<event>
 8    1  0.1099921E+005  0.1043930E+01  0.7957747E-01            NaN
         13   -1    0    0    0    0  0.00000000000E+00  0.00000000000E+00  0.74505805969E-08  0.10566000000E+00  0.10566000000E+00 0. -1.
     999900   -1    0    0    0    0 -0.00000000000E+00 -0.00000000000E+00 -0.74505805969E-08  0.93827000000E+00  0.93827000000E+00 0. -1.
     999902    2    1    2    0    0 -0.21857687962E-01  0.13832044391E-01  0.71552836001E-02  0.10170919289E+01  0.10167377783E+01 0.  0.
     999903    2    3    3    0    0 -0.49670318681E-01 -0.11495701654E+00  0.93309737280E-02  0.12728020825E+00  0.20758808527E-01 0.  0.
         14    1    1    2    0    0  0.21857687962E-01 -0.13832044391E-01 -0.71552836001E-02  0.26838071065E-01  0.00000000000E+00 0.  1.
     999901    1    3    3    0    0  0.27812630719E-01  0.12878906093E+00 -0.21756901279E-02  0.88981172069E+00  0.88000000000E+00 0.  1.
        -11    1    4    4    0    0 -0.23278509808E-01 -0.78773619505E-01  0.54340577216E-02  0.82322307142E-01  0.51100000000E-03 0. -1.
         11    1    4    4    0    0 -0.26391808873E-01 -0.36183397035E-01  0.38969160064E-02  0.44957901107E-01  0.51100000000E-03 0.  1.
</event>
<event>
 8    1  0.1099921E+005  0.1043930E+01  0.7957747E-01            NaN
         13   -1    0    0    0    0  0.00000000000E+00  0.00000000000E+00  0.74505805969E-08  0.10566000000E+00  0.10566000000E+00 0.  1.
     999900   -1    0    0    0    0 -0.00000000000E+00 -0.00000000000E+00 -0.74505805969E-08  0.93827000000E+00  0.93827000000E+00 0.  1.
     999902    2    1    2    0    0 -0.33097856679E-02 -0.22442474855E-01  0.67070755697E-02  0.10202740447E+01  0.10199997657E+01 0.  0.
     999903    2    3    3    0    0 -0.12910276872E+00 -0.42158096151E-03  0.96158900557E-03  0.13103740298E+00  0.22409232538E-01 0.  0.
         14    1    1    2    0    0  0.33097856679E-02  0.22442474855E-01 -0.67070755697E-02  0.23655955307E-01  0.00000000000E+00 0.  1.
     999901    1    3    3    0    0  0.12579298306E+00 -0.22020893893E-01  0.57454865642E-02  0.88923664172E+00  0.88000000000E+00 0.  1.
        -11    1    4    4    0    0 -0.10076735995E+00  0.75094703980E-02  0.57956755075E-02  0.10121414897E+00  0.51100000000E-03 0. -1.
         11    1    4    4    0    0 -0.28335408779E-01 -0.79310513595E-02 -0.48340865020E-02  0.29823254008E-01  0.51100000000E-03 0.  1.
</event>
<event>
 8    1  0.1099921E+005  0.1043930E+01  0.7957747E-01            NaN
         13   -1    0    0    0    0  0.00000000000E+00  0.00000000000E+00  0.74505805969E-08  0.10566000000E+00  0.10566000000E+00 0.  1.
     999900   -1    0    0    0    0 -0.00000000000E+00 -0.00000000000E+00 -0.74505805969E-08  0.93827000000E+00  0.93827000000E+00 0. -1.
     999902    2    1    2    0    0 -0.83010507359E-02  0.82727188730E-02  0.15576746455E-01  0.10244369153E+01  0.10242514404E+01 0.  0.
     999903    2    3    3    0    0 -0.12663093821E+00  0.42557050788E-01  0.22042850337E-01  0.13583172278E+00  0.10856913809E-01 0.  0.
         14    1    1    2    0    0  0.83010507359E-02 -0.82727188730E-02 -0.15576746455E-01  0.19493084697E-01  0.00000000000E+00 0.  1.
     999901    1    3    3    0    0  0.11832988748E+00 -0.34284331915E-01 -0.64661038818E-02  0.88860519253E+00  0.88000000000E+00 0.  1.
        -11    1    4    4    0    0 -0.81073550239E-01  0.22368472706E-01  0.11378080545E-01  0.84870436298E-01  0.51100000000E-03 0.  1.
         11    1    4    4    0    0 -0.45557387973E-01  0.20188578081E-01  0.10664769792E-01  0.50961286479E-01  0.51100000000E-03 0. -1.
</event>
<event>
 8    1  0.1099921E+005  0.1043930E+01  0.7957747E-01            NaN
         13   -1    0    0    0    0  0.00000000000E+00  0.00000000000E+00  0.74505805969E-08  0.10566000000E+00  0.10566000000E+00 0.  1.
     999900   -1    0    0    0    0 -0.00000000000E+00 -0.00000000000E+00 -0.74505805969E-08  0.93827000000E+00  0.93827000000E+00 0.  1.
     999902    2    1    2    0    0 -0.21420869733E-01  0.44810834981E-02 -0.79305307209E-02  0.10206528205E+01  0.10203873543E+01 0.  0.
     999903    2    3    3    0    0 -0.59864074559E-01  0.11403859041E+00 -0.28646011436E-01  0.13278466671E+00  0.14922004439E-01 0.  0.
         14    1    1    2    0    0  0.21420869733E-01 -0.44810834981E-02  0.79305307209E-02  0.23277179532E-01  0.00000000000E+00 0.  1.
     999901    1    3    3    0    0  0.38443204825E-01 -0.10955750691E+00  0.20715480715E-01  0.88786815376E+00  0.88000000000E+00 0.  1.
        -11    1    4    4    0    0 -0.11033843760E-01  0.30288041491E-01 -0.23004788081E-02  0.32321269920E-01  0.51100000000E-03 0.  1.
         11    1    4    4    0    0 -0.48830230799E-01  0.83750548919E-01 -0.26345532628E-01  0.10046339679E+00  0.51100000000E-03 0. -1.
</event>
<event>
 8    1  0.1099921E+005  0.1043930E+01  0.7957747E-01            NaN
         13   -1    0    0    0    0  0.00000000000E+00  0.00000000000E+00  0.74505805969E-08  0.10566000000E+00  0.10566000000E+00 0.  1.
     999900   -1    0    0    0    0 -0.00000000000E+00 -0.00000000000E+00 -0.74505805969E-08  0.93827000000E+00  0.93827000000E+00 0.  1.
     999902    2    1    2    0    0  0.10577503254E-01  0.10338262208E-01  0.16909600577E-01  0.10214645191E+01  0.10212174430E+01 0.  0.
     999903    2    3    3    0    0 -0.12147369753E-02 -0.35569437478E-01  0.12682070013E+00  0.13336147123E+00  0.20859807303E-01 0.  0.
         14    1    1    2    0    0 -0.10577503254E-01 -0.10338262208E-01 -0.16909600577E-01  0.22465480904E-01  0.00000000000E+00 0. -1.
     999901    1    3    3    0    0  0.11792240229E-01  0.45907699686E-01 -0.10991109955E+00  0.88810304786E+00  0.88000000000E+00 0.  1.
        -11    1    4    4    0    0 -0.32186928531E-02 -0.13564124844E-01  0.20689139194E-01  0.24952896987E-01  0.51100000000E-03 0.  1.
         11    1    4    4    0    0  0.20039558778E-02 -0.22005312634E-01  0.10613156093E+00  0.10840857425E+00  0.51100000000E-03 0. -1.
</event>
<event>
 8    1  0.1099921E+005  0.1043930E+01  0.7957747E-01            NaN
         13   -1    0    0    0    0  0.00000000000E+00  0.00000000000E+00  0.74505805969E-08  0.10566000000E+00  0.10566000000E+00 0.  1.
     999900   -1    0    0    0    0 -0.00000000000E+00 -0.00000000000E+00 -0.74505805969E-08  0.93827000000E+00  0.93827000000E+00 0.  1.
     999902    2    1    2    0    0  0.13515782599E-01  0.14654081995E-01  0.13617488046E-01  0.10197876207E+01  0.10195018081E+01 0.  0.
     999903    2    3    3    0    0 -0.12525918776E+00  0.11846564947E-01 -0.15871493843E-01  0.12842014618E+00  0.20239180019E-01 0.  0.
         14    1    1    2    0    0 -0.13515782599E-01 -0.14654081995E-01 -0.13617488046E-01  0.24142379316E-01  0.00000000000E+00 0. -1.
     999901    1    3    3    0    0  0.13877497036E+00  0.28075170478E-02  0.29488981889E-01  0.89136747450E+00  0.88000000000E+00 0. -1.
        -11    1    4    4    0    0 -0.92682802917E-01  0.17578324743E-01 -0.10792115076E-01  0.94951726294E-01  0.51100000000E-03 0.  1.
         11    1    4    4    0    0 -0.32576384846E-01 -0.57317597960E-02 -0.50793787678E-02  0.33468419886E-01  0.51100000000E-03 0. -1.
</event>
<event>
 8    1  0.1099921E+005  0.1043930E+01  0.7957747E-01            NaN
         13   -1    0    0    0    0  0.00000000000E+00  0.00000000000E+00  0.74505805969E-08  0.10566000000E+00  0.10566000000E+00 0. -1.
     999900   -1    0    0    0    0 -0.00000000000E+00 -0.00000000000E+00 -0.74505805969E-08  0.93827000000E+00  0.93827000000E+00 0.  1.
     999902    2    1    2    0    0  0.21735181346E-01 -0.56131487894E-02  0.68994273226E-02  0.10204453743E+01  0.10201750998E+01 0.  0.
     999903    2    3    3    0    0 -0.45308093303E-01  0.10176603896E+00  0.62652689523E-01  0.12964039177E+00  0.21728360942E-01 0.  0.
         14    1    1    2    0    0 -0.21735181346E-01  0.56131487894E-02 -0.68994273226E-02  0.23484625713E-01  0.00000000000E+00 0.  1.
     999901    1    3    3    0    0  0.67043274649E-01 -0.10737918775E+00 -0.55753262201E-01  0.89080498252E+00  0.88000000000E+00 0. -1.
        -11    1    4    4    0    0 -0.35440070150E-01  0.75588299264E-01  0.57016941251E-01  0.10109788459E+00  0.51100000000E-03 0. -1.
         11    1    4    4    0    0 -0.98680231532E-02  0.26177739693E-01  0.56357482725E-02  0.28542507178E-01  0.51100000000E-03 0.  1.
</event>
<event>
 8    1  0.1099921E+005  0.1043930E+01  0.7957747E-01            NaN
         13   -1    0    0    0    0  0.00000000000E+00  0.00000000000E+00  0.74505805969E-08  0.10566000000E+00  0.10566000000E+00 0. -1.
     999900   -1    0    0    0    0 -0.00000000000E+00 -0.00000000000E+00 -0.74505805969E-08  0.93827000000E+00  0.93827000000E+00 0.  1.
     999902    2    1    2    0    0 -0.19009456346E-01  0.13043923200E-01 -0.89123135822E-02  0.10192129473E+01  0.10189131951E+01 0.  0.
     999903    2    3    3    0    0 -0.11074855631E+00 -0.52595276304E-01 -0.42399260598E-01  0.13138078823E+00  0.20777593782E-01 0.  0.
         14    1    1    2    0    0  0.19009456346E-01 -0.13043923200E-01  0.89123135822E-02  0.24717052745E-01  0.00000000000E+00 0. -1.
     999901    1    3    3    0    0  0.91739099964E-01  0.65639199504E-01  0.33486947016E-01  0.88783215902E+00  0.88000000000E+00 0. -1.
        -11    1    4    4    0    0 -0.12711386171E-01 -0.10050012822E-01  0.49977492323E-03  0.16220141556E-01  0.51100000000E-03 0.  1.
         11    1    4    4    0    0 -0.98037170138E-01 -0.42545263482E-01 -0.42899035521E-01  0.11516064668E+00  0.51100000000E-03 0. -1.
</event>
<event>
 8    1  0.1099921E+005  0.1043930E+01  0.7957747E-01            NaN
         13   -1    0    0    0    0  0.00000000000E+00  0.00000000000E+00  0.74505805969E-08  0.10566000000E+00  0.10566000000E+00 0. -1.
     999900   -1    0    0    0    0 -0.00000000000E+00 -0.00000000000E+00 -0.74505805969E-08  0.93827000000E+00  0.93827000000E+00 0.  1.
     999902    2    1    2    0    0  0.27671597771E-01 -0.62900997410E-02  0.46483860049E-03  0.10155486901E+01  0.10151520296E+01 0.  0.
     999903    2    3    3    0    0 -0.51745181763E-01 -0.67125618470E-01 -0.90095778283E-01  0.12526266270E+00  0.19750263593E-01 0.  0.
         14    1    1    2    0    0 -0.27671597771E-01  0.62900997410E-02 -0.46483860049E-03  0.28381309922E-01  0.00000000000E+00 0. -1.
     999901    1    3    3    0    0  0.79416779534E-01  0.60835518729E-01  0.90560616884E-01  0.89028602738E+00  0.88000000000E+00 0. -1.
        -11    1    4    4    0    0 -0.33608461480E-01 -0.27522001354E-01 -0.46370852835E-01  0.63541375144E-01  0.51100000000E-03 0. -1.
         11    1    4    4    0    0 -0.18136720283E-01 -0.39603617116E-01 -0.43724925448E-01  0.61721287558E-01  0.51100000000E-03 0.  1.
</event>
<event>
 8    1  0.1099921E+005  0.1043930E+01  0.7957747E-01            NaN
         13   -1    0    0    0    0  0.00000000000E+00  0.00000000000E+00  0.74505805969E-08  0.10566000000E+00  0.10566000000E+00 0. -1.
     999900   -1    0    0    0    0 -0.00000000000E+00 -0.00000000000E+00 -0.74505805969E-08  0.93827000000E+00  0.93827000000E+00 0. -1.
     999902    2    1    2    0    0  0.22226299391E-01 -0.13424687001E-01  0.95582647113E-03  0.10179464627E+01  0.10176147880E+01 0.  0.
     999903    2    3    3    0    0  0.81290520957E-01  0.69423512384E-01 -0.69672779746E-01  0.12927284072E+00  0.20721926575E-01 0.  0.
         14    1    1    2    0    0 -0.22226299391E-01  0.13424687001E-01 -0.95582647113E-03  0.25983537287E-01  0.00000000000E+00 0.  1.
     999901    1    3    3    0    0 -0.59064221566E-01 -0.82848199385E-01  0.70628606217E-01  0.88867362199E+00  0.88000000000E+00 0.  1.
        -11    1    4    4    0    0  0.71298709877E-02  0.71872969352E-02 -0.14946452700E-01  0.18059619787E-01  0.51100000000E-03 0.  1.
         11    1    4    4    0    0  0.74160649970E-01  0.62236215449E-01 -0.54726327046E-01  0.11121322093E+00  0.51100000000E-03 0. -1.
</event>
<event>
 8    1  0.1099921E+005  0.1043930E+01  0.7957747E-01            NaN
         13   -1    0    0    0    0  0.00000000000E+00  0.00000000000E+00  0.74505805969E-08  0.10566000000E+00  0.10566000000E+00 0.  1.
     999900   -1    0    0    0    0 -0.00000000000E+00 -0.00000000000E+00 -0.74505805969E-08  0.93827000000E+00  0.93827000000E+00 0.  1.
     999902    2    1    2    0    0  0.92843861243E-02 -0.16614621289E-01 -0.16867918351E-01  0.10184982848E+01  0.10181807227E+01 0.  0.
     999903    2    3    3    0    0  0.46329465716E-01 -0.10463007025E+00 -0.63032490397E-01  0.13212916033E+00  0.19777491507E-01 0.  0.
         14    1    1    2    0    0 -0.92843861243E-02  0.16614621289E-01  0.16867918351E-01  0.25431715156E-01  0.00000000000E+00 0.  1.
     999901    1    3    3    0    0 -0.37045079591E-01  0.88015448960E-01  0.46164572046E-01  0.88636912451E+00  0.88000000000E+00 0. -1.
        -11    1    4    4    0    0  0.48086350327E-01 -0.97318309332E-01 -0.59738501404E-01  0.12390359192E+00  0.51100000000E-03 0.  1.
         11    1    4    4    0    0 -0.17568846111E-02 -0.73117609169E-02 -0.32939889924E-02  0.82255684135E-02  0.51100000000E-03 0. -1.
</event>
<event>
 8    1  0.1099921E+005  0.1043930E+01  0.7957747E-01            NaN
         13   -1    0    0    0    0  0.00000000000E+00  0.00000000000E+00  0.74505805969E-08  0.10566000000E+00  0.10566000000E+00 0.  1.
     999900   -1    0    0    0    0 -0.00000000000E+00 -0.00000000000E+00 -0.74505805969E-08  0.93827000000E+00  0.93827000000E+00 0. -1.
     999902    2    1    2    0    0  0.15785406008E-01  0.18777512032E-01 -0.19736580623E-02  0.10193196500E+01  0.10190225118E+01 0.  0.
     999903    2    3    3    0    0  0.11997305347E+00 -0.17860185967E-01 -0.46214652733E-01  0.13131365204E+00  0.19873632851E-01 0.  0.
         14    1    1    2    0    0 -0.15785406008E-01 -0.18777512032E-01  0.19736580623E-02  0.24610350000E-01  0.00000000000E+00 0.  1.
     999901    1    3    3    0    0 -0.10418764747E+00  0.36637697999E-01  0.44240994671E-01  0.88800599796E+00  0.88000000000E+00 0.  1.
        -11    1    4    4    0    0  0.23579655775E-01 -0.11368631215E-01 -0.12228493946E-01  0.28897112786E-01  0.51100000000E-03 0. -1.
         11    1    4    4    0    0  0.96393397700E-01 -0.64915547512E-02 -0.33986158787E-01  0.10241653926E+00  0.51100000000E-03 0.  1.
</event>
<event>
 8    1  0.1099921E+005  0.1043930E+01  0.7957747E-01            NaN
         13   -1    0    0    0    0  0.00000000000E+00  0.00000000000E+00  0.74505805969E-08  0.10566000000E+00  0.10566000000E+00 0. -1.
     999900   -1    0    0    0    0 -0.00000000000E+00 -0.00000000000E+00 -0.74505805969E-08  0.93827000000E+00  0.93827000000E+00 0.  1.
     999902    2    1    2    0    0  0.20653867001E-01  0.77019221601E-02  0.12576519329E-01  0.10185514527E+01  0.10182352336E+01 0.  0.
     999903    2    3    3    0    0 -0.10427372680E-01 -0.10646548738E+00  0.68834639926E-01  0.12885194327E+00  0.20517931814E-01 0.  0.
         14    1    1    2    0    0 -0.20653867001E-01 -0.77019221601E-02 -0.12576519329E-01  0.25378547348E-01  0.00000000000E+00 0.  1.
     999901    1    3    3    0    0  0.31081239681E-01  0.11416740954E+00 -0.56258120597E-01  0.88969950938E+00  0.88000000000E+00 0.  1.
        -11    1    4    4    0    0 -0.61035891129E-02 -0.45073637213E-01  0.17609727948E-01  0.48777558478E-01  0.51100000000E-03 0. -1.
         11    1    4    4    0    0 -0.43237835676E-02 -0.61391850170E-01  0.51224911978E-01  0.80074384792E-01  0.51100000000E-03 0.  1.
</event>
<event>
 8    1  0.1099921E+005  0.1043930E+01  0.7957747E-01            NaN
         13   -1    0    0    0    0  0.00000000000E+00  0.00000000000E+00  0.74505805969E-08  0.10566000000E+00  0.10566000000E+00 0.  1.
     999900   -1    0    0    0    0 -0.00000000000E+00 -0.00000000000E+00 -0.74505805969E-08  0.93827000000E+00  0.93827000000E+00 0.  1.
     999902    2    1    2    0    0 -0.14945441900E-02  0.90231356023E-02  0.22726182349E-01  0.10194324490E+01  0.10191380614E+01 0.  0.
     999903    2    3    3    0    0  0.10177820551E+00  0.13164047040E-01 -0.73925696345E-01  0.12812779090E+00  0.20484798545E-01 0.  0.
         14    1    1    2    0    0  0.14945441900E-02 -0.90231356023E-02 -0.22726182349E-01  0.24497550951E-01  0.00000000000E+00 0. -1.
     999901    1    3    3    0    0 -0.10327274970E+00 -0.41409114377E-02  0.96651878693E-01  0.89130465815E+00  0.88000000000E+00 0. -1.
        -11    1    4    4    0    0  0.39047277458E-01  0.66661238912E-02 -0.40880887790E-01  0.56926577203E-01  0.51100000000E-03 0. -1.
         11    1    4    4    0    0  0.62730928048E-01  0.64979231488E-02 -0.33044808555E-01  0.71201213701E-01  0.51100000000E-03 0.  1.
</event>
<event>
 8    1  0.1099921E+005  0.1043930E+01  0.7957747E-01            NaN
         13   -1    0    0    0    0  0.00000000000E+00  0.00000000000E+00  0.74505805969E-08  0.10566000000E+00  0.10566000000E+00 0. -1.
     999900   -1    0    0    0    0 -0.00000000000E+00 -0.00000000000E+00 -0.74505805969E-08  0.93827000000E+00  0.93827000000E+00 0. -1.
     999902    2    1    2    0    0  0.66926527619E-02 -0.12840509452E-01 -0.17035957717E-01  0.10215716875E+01  0.10213269890E+01 0.  0.
     999903    2    3    3    0    0 -0.54248579724E-01  0.48439366006E-01 -0.10897955247E+00  0.13257074170E+00  0.20228151641E-01 0.  0.
         14    1    1    2    0    0 -0.66926527619E-02  0.12840509452E-01  0.17035957717E-01  0.22358312533E-01  0.00000000000E+00 0. -1.
     999901    1    3    3    0    0  0.60941232486E-01 -0.61279875458E-01  0.91943594750E-01  0.88900094576E+00  0.88000000000E+00 0.  1.
        -11    1    4    4    0    0 -0.27043879925E-01  0.20659322356E-01 -0.68210619606E-01  0.76230760128E-01  0.51100000000E-03 0.  1.
         11    1    4    4    0    0 -0.27204699799E-01  0.27780043650E-01 -0.40768932861E-01  0.56339981576E-01  0.51100000000E-03 0. -1.
</event>
<event>
 8    1  0.1099921E+005  0.1043930E+01  0.7957747E-01            NaN
         13   -1    0    0    0    0  0.00000000000E+00  0.00000000000E+00  0.74505805969E-08  0.10566000000E+00  0.10566000000E+00 0. -1.
     999900   -1    0    0    0    0 -0.00000000000E+00 -0.00000000000E+00 -0.74505805969E-08  0.93827000000E+00  0.93827000000E+00 0.  1.
     999902    2    1    2    0    0 -0.21994648282E-01 -0.63558794496E-03 -0.81996026150E-02  0.10204480493E+01  0.10201778371E+01 0.  0.
     999903    2    3    3    0    0  0.77479462028E-01  0.10044783187E+00  0.11513537311E-01  0.12887552603E+00  0.19583301679E-01 0.  0.
         14    1    1    2    0    0  0.21994648282E-01  0.63558794496E-03  0.81996026150E-02  0.23481950688E-01  0.00000000000E+00 0.  1.
     999901    1    3    3    0    0 -0.99474110309E-01 -0.10108341982E+00 -0.19713139926E-01  0.89157252328E+00  0.88000000000E+00 0.  1.
        -11    1    4    4    0    0  0.40528864266E-01  0.68060486093E-01  0.77477728962E-02  0.79593389875E-01  0.51100000000E-03 0. -1.
         11    1    4    4    0    0  0.36950597761E-01  0.32387345778E-01  0.37657644144E-02  0.49282136156E-01  0.51100000000E-03 0.  1.
</event>
<event>
 8    1  0.1099921E+005  0.1043930E+01  0.7957747E-01            NaN
         13   -1    0    0    0    0  0.00000000000E+00  0.00000000000E+00  0.74505805969E-08  0.10566000000E+00  0.10566000000E+00 0. -1.
     999900   -1    0    0    0    0 -0.00000000000E+00 -0.00000000000E+00 -0.74505805969E-08  0.93827000000E+00  0.93827000000E+00 0. -1.
     999902    2    1    2    0    0  0.20906074243E-01  0.67008105316E-02 -0.86437245304E-02  0.10203359589E+01  0.10200631305E+01 0.  0.
     999903    2    3    3    0    0  0.13096251011E+00 -0.85795200805E-02 -0.12552500144E-01  0.13334036358E+00  0.19932387740E-01 0.  0.
         14    1    1    2    0    0 -0.20906074243E-01 -0.67008105316E-02  0.86437245304E-02  0.23594041107E-01  0.00000000000E+00 0.  1.
     999901    1    3    3    0    0 -0.11005643586E+00  0.15280330612E-01  0.39087756136E-02  0.88699559531E+00  0.88000000000E+00 0. -1.
        -11    1    4    4    0    0  0.76735562033E-01  0.29392374487E-02 -0.14886989722E-02  0.76807961455E-01  0.51100000000E-03 0. -1.
         11    1    4    4    0    0  0.54226948075E-01 -0.11518757529E-01 -0.11063801172E-01  0.56532402124E-01  0.51100000000E-03 0.  1.
</event>
<event>
 8    1  0.1099921E+005  0.1043930E+01  0.7957747E-01            NaN
         13   -1    0    0    0    0  0.00000000000E+00  0.00000000000E+00  0.74505805969E-08  0.10566000000E+00  0.10566000000E+00 0. -1.
     999900   -1    0    0    0    0 -0.00000000000E+00 -0.00000000000E+00 -0.74505805969E-08  0.93827000000E+00  0.93827000000E+00 0. -1.
     999902    2    1    2    0    0  0.39159605192E-02  0.61837029110E-02  0.21242488116E-01  0.10214618842E+01  0.10212147495E+01 0.  0.
     999903    2    3    3    0    0  0.68391792943E-01  0.94749460537E-01 -0.56492165987E-01  0.13126881361E+00  0.19627506069E-01 0.  0.
         14    1    1    2    0    0 -0.39159605192E-02 -0.61837029110E-02 -0.21242488116E-01  0.22468115850E-01  0.00000000000E+00 0.  1.
     999901    1    3    3    0    0 -0.64475832424E-01 -0.88565757626E-01  0.77734654103E-01  0.89019307054E+00  0.88000000000E+00 0.  1.
        -11    1    4    4    0    0  0.26147157929E-01  0.38018491175E-01 -0.33020543916E-01  0.56742373765E-01  0.51100000000E-03 0.  1.
         11    1    4    4    0    0  0.42244635013E-01  0.56730969362E-01 -0.23471622071E-01  0.74526439844E-01  0.51100000000E-03 0. -1.
</event>
<event>
 8    1  0.1099921E+005  0.1043930E+01  0.7957747E-01            NaN
         13   -1    0    0    0    0  0.00000000000E+00  0.00000000000E+00  0.74505805969E-08  0.10566000000E+00  0.10566000000E+00 0. -1.
     999900   -1    0    0    0    0 -0.00000000000E+00 -0.00000000000E+00 -0.74505805969E-08  0.93827000000E+00  0.93827000000E+00 0. -1.
     999902    2    1    2    0    0  0.18218102343E-01 -0.14032297042E-01  0.60190843351E-02  0.10201595564E+01  0.10198825847E+01 0.  0.
     999903    2    3    3    0    0 -0.17336438037E-01 -0.33790730409E-01 -0.12268862926E+00  0.12986735909E+00  0.19252679369E-01 0.  0.
         14    1    1    2    0    0 -0.18218102343E-01  0.14032297042E-01 -0.60190843351E-02  0.23770443611E-01  0.00000000000E+00 0. -1.
     999901    1    3    3    0    0  0.35554540380E-01  0.19758433367E-01  0.12870771359E+00  0.89029219730E+00  0.88000000000E+00 0.  1.
        -11    1    4    4    0    0 -0.16907360818E-01 -0.22463589601E-01 -0.61341710980E-01  0.67479910600E-01  0.51100000000E-03 0. -1.
         11    1    4    4    0    0 -0.42907721871E-03 -0.11327140809E-01 -0.61346918277E-01  0.62387448491E-01  0.51100000000E-03 0.  1.
</event>
<event>
 8    1  0.1099921E+005  0.1043930E+01  0.7957747E-01            NaN
         13   -1    0    0    0    0  0.00000000000E+00  0.00000000000E+00  0.74505805969E-08  0.10566000000E+00  0.10566000000E+00 0. -1.
     999900   -1    0    0    0    0 -0.00000000000E+00 -0.00000000000E+00 -0.74505805969E-08  0.93827000000E+00  0.93827000000E+00 0.  1.
     999902    2    1    2    0    0 -0.18290328669E-01  0.51768497844E-02  0.13581597845E-01  0.10205677292E+01  0.10203002961E+01 0.  0.
     999903    2    3    3    0    0  0.37308297719E-01 -0.11761639526E+00  0.31072353319E-01  0.13013226562E+00  0.27265177465E-01 0.  0.
         14    1    1    2    0    0  0.18290328669E-01 -0.51768497844E-02 -0.13581597845E-01  0.23362270791E-01  0.00000000000E+00 0.  1.
     999901    1    3    3    0    0 -0.55598626388E-01  0.12279324505E+00 -0.17490755474E-01  0.89043546359E+00  0.88000000000E+00 0.  1.
        -11    1    4    4    0    0  0.99825389503E-02 -0.49805676316E-01  0.27577996025E-03  0.50799543825E-01  0.51100000000E-03 0.  1.
         11    1    4    4    0    0  0.27325758769E-01 -0.67810718946E-01  0.30796573358E-01  0.79332721798E-01  0.51100000000E-03 0. -1.
</event>
<event>
 8    1  0.1099921E+005  0.1043930E+01  0.7957747E-01            NaN
         13   -1    0    0    0    0  0.00000000000E+00  0.00000000000E+00  0.74505805969E-08  0.10566000000E+00  0.10566000000E+00 0. -1.
     999900   -1    0    0    0    0 -0.00000000000E+00 -0.00000000000E+00 -0.74505805969E-08  0.93827000000E+00  0.93827000000E+00 0. -1.
     999902    2    1    2    0    0  0.19922602585E-01 -0.93786438950E-02  0.24222471842E-02  0.10217774305E+01  0.10215372637E+01 0.  0.
     999903    2    3    3    0    0 -0.13557179759E-01  0.55321073884E-01 -0.11609319887E+00  0.13084934120E+00  0.19992521857E-01 0.  0.
         14    1    1    2    0    0 -0.19922602585E-01  0.93786438950E-02 -0.24222471842E-02  0.22152569524E-01  0.00000000000E+00 0. -1.
     999901    1    3    3    0    0  0.33479782345E-01 -0.64699717779E-01  0.11851544605E+00  0.89092808928E+00  0.88000000000E+00 0.  1.
        -11    1    4    4    0    0  0.37197437859E-02  0.14066134396E-01 -0.18896494903E-01  0.23854376355E-01  0.51100000000E-03 0. -1.
         11    1    4    4    0    0 -0.17276923545E-01  0.41254939488E-01 -0.97196703967E-01  0.10699496485E+00  0.51100000000E-03 0.  1.
</event>
<event>
 8    1  0.1099921E+005  0.1043930E+01  0.7957747E-01            NaN
         13   -1    0    0    0    0  0.00000000000E+00  0.00000000000E+00  0.74505805969E-08  0.10566000000E+00  0.10566000000E+00 0. -1.
     999900   -1    0    0    0    0 -0.00000000000E+00 -0.00000000000E+00 -0.74505805969E-08  0.93827000000E+00  0.93827000000E+00 0. -1.
     999902    2    1    2    0    0  0.22209487400E-01  0.97598885605E-03  0.10720412731E-01  0.10192492153E+01  0.10189503529E+01 0.  0.
     999903    2    3    3    0    0 -0.15647857376E-01  0.11252851883E+00 -0.57539753028E-01  0.12877934172E+00  0.19125184584E-01 0.  0.
         14    1    1    2    0    0 -0.22209487400E-01 -0.97598885605E-03 -0.10720412731E-01  0.24680784711E-01  0.00000000000E+00 0.  1.
     999901    1    3    3    0    0  0.37857344777E-01 -0.11155252998E+00  0.68260165758E-01  0.89046987357E+00  0.88000000000E+00 0.  1.
        -11    1    4    4    0    0  0.18768546993E-02  0.49811752064E-01 -0.20856490634E-01  0.54036909144E-01  0.51100000000E-03 0.  1.
         11    1    4    4    0    0 -0.17524712076E-01  0.62716766768E-01 -0.36683262393E-01  0.74742432580E-01  0.51100000000E-03 0. -1.
</event>
<event>
 8    1  0.1099921E+005  0.1043930E+01  0.7957747E-01            NaN
         13   -1    0    0    0    0  0.00000000000E+00  0.00000000000E+00  0.74505805969E-08  0.10566000000E+00  0.10566000000E+00 0. -1.
     999900   -1    0    0    0    0 -0.00000000000E+00 -0.00000000000E+00 -0.74505805969E-08  0.93827000000E+00  0.93827000000E+00 0. -1.
     999902    2    1    2    0    0  0.17805880439E-01  0.66034602568E-02  0.15354072466E-01  0.10195086445E+01  0.10192161074E+01 0.  0.
     999903    2    3    3    0    0 -0.10913936159E+00  0.20123633750E-02 -0.61315550789E-01  0.12708811366E+00  0.21825260826E-01 0.  0.
         14    1    1    2    0    0 -0.17805880439E-01 -0.66034602568E-02 -0.15354072466E-01  0.24421355549E-01  0.00000000000E+00 0. -1.
     999901    1    3    3    0    0  0.12694524203E+00  0.45910968817E-02  0.76669623255E-01  0.89242053079E+00  0.88000000000E+00 0.  1.
        -11    1    4    4    0    0 -0.99734951486E-01  0.11094615950E-02 -0.62260738107E-01  0.11757955640E+00  0.51100000000E-03 0. -1.
         11    1    4    4    0    0 -0.94044101078E-02  0.90290178000E-03  0.94518731860E-03  0.95085572601E-02  0.51100000000E-03 0.  1.
</event>
<event>
 8    1  0.1099921E+005  0.1043930E+01  0.7957747E-01            NaN
         13   -1    0    0    0    0  0.00000000000E+00  0.00000000000E+00  0.74505805969E-08  0.10566000000E+00  0.10566000000E+00 0. -1.
     999900   -1    0    0    0    0 -0.00000000000E+00 -0.00000000000E+00 -0.74505805969E-08  0.93827000000E+00  0.93827000000E+00 0. -1.
     999902    2    1    2    0    0 -0.13247630524E-01  0.17811372741E-01 -0.86125900944E-02  0.10201198882E+01  0.10198419804E+01 0.  0.
     999903    2    3    3    0    0 -0.31919758478E-01  0.52999501290E-01 -0.11569922820E+00  0.13273361339E+00  0.20101805860E-01 0.  0.
         14    1    1    2    0    0  0.13247630524E-01 -0.17811372741E-01  0.86125900944E-02  0.23810111750E-01  0.00000000000E+00 0.  1.
     999901    1    3    3    0    0  0.18672127954E-01 -0.35188128548E-01  0.10708663810E+00  0.88738627486E+00  0.88000000000E+00 0.  1.
        -11    1    4    4    0    0 -0.11203531312E-01  0.27382282605E-01 -0.73223488623E-01  0.78976255429E-01  0.51100000000E-03 0.  1.
         11    1    4    4    0    0 -0.20716227166E-01  0.25617218684E-01 -0.42475739576E-01  0.53757357959E-01  0.51100000000E-03 0. -1.
</event>
<event>
 8    1  0.1099921E+005  0.1043930E+01  0.7957747E-01            NaN
         13   -1    0    0    0    0  0.00000000000E+00  0.00000000000E+00  0.74505805969E-08  0.10566000000E+00  0.10566000000E+00 0.  1.
     999900   -1    0    0    0    0 -0.00000000000E+00 -0.00000000000E+00 -0.74505805969E-08  0.93827000000E+00  0.93827000000E+00 0.  1.
     999902    2    1    2    0    0  0.10853326199E-01  0.17884308032E-01  0.10068896320E-01  0.10207130700E+01  0.10204489921E+01 0.  0.
     999903    2    3    3    0    0  0.42370899026E-01  0.96969195371E-01  0.79615075004E-01  0.13387348603E+00  0.19627331953E-01 0.  0.
         14    1    1    2    0    0 -0.10853326199E-01 -0.17884308032E-01 -0.10068896320E-01  0.23216929954E-01  0.00000000000E+00 0.  1.
     999901    1    3    3    0    0 -0.31517572828E-01 -0.79084887339E-01 -0.69546178685E-01  0.88683958401E+00  0.88000000000E+00 0.  1.
        -11    1    4    4    0    0  0.13247916266E-01  0.26955757914E-01  0.34047003871E-01  0.45404622713E-01  0.51100000000E-03 0. -1.
         11    1    4    4    0    0  0.29122982760E-01  0.70013437457E-01  0.45568071133E-01  0.88468863320E-01  0.51100000000E-03 0.  1.
</event>
<event>
 8    1  0.1099921E+005  0.1043930E+01  0.7957747E-01            NaN
         13   -1    0    0    0    0  0.00000000000E+00  0.00000000000E+00  0.74505805969E-08  0.10566000000E+00  0.10566000000E+00 0. -1.
     999900   -1    0    0    0    0 -0.00000000000E+00 -0.00000000000E+00 -0.74505805969E-08  0.93827000000E+00  0.93827000000E+00 0. -1.
     999902    2    1    2    0    0 -0.16430373911E-01 -0.13935448737E-01  0.10184050921E-01  0.10201000019E+01  0.10198216241E+01 0.  0.
     999903    2    3    3    0    0 -0.70813764614E-01 -0.10588410748E+00 -0.31181522908E-01  0.13267495165E+00  0.20107758462E-01 0.  0.
         14    1    1    2    0    0  0.16430373911E-01  0.13935448737E-01 -0.10184050921E-01  0.23829998144E-01  0.00000000000E+00 0. -1.
     999901    1    3    3    0    0  0.54383390703E-01  0.91948658741E-01  0.41365573829E-01  0.88742505020E+00  0.88000000000E+00 0.  1.
        -11    1    4    4    0    0 -0.60670237954E-02 -0.12436183311E-01 -0.98766281657E-02  0.17008125646E-01  0.51100000000E-03 0. -1.
         11    1    4    4    0    0 -0.64746740818E-01 -0.93447924167E-01 -0.21304894742E-01  0.11566682601E+00  0.51100000000E-03 0.  1.
</event>
<event>
 8    1  0.1099921E+005  0.1043930E+01  0.7957747E-01            NaN
         13   -1    0    0    0    0  0.00000000000E+00  0.00000000000E+00  0.74505805969E-08  0.10566000000E+00  0.10566000000E+00 0.  1.
     999900   -1    0    0    0    0 -0.00000000000E+00 -0.00000000000E+00 -0.74505805969E-08  0.93827000000E+00  0.93827000000E+00 0. -1.
     999902    2    1    2    0    0  0.22862286781E-01 -0.23002027421E-02 -0.56312212599E-02  0.10202723217E+01  0.10199980023E+01 0.  0.
     999903    2    3    3    0    0  0.33947521451E-01 -0.62183472626E-01 -0.10955307226E+00  0.13206703037E+00  0.20508690564E-01 0.  0.
         14    1    1    2    0    0 -0.22862286781E-01  0.23002027421E-02  0.56312212599E-02  0.23657678296E-01  0.00000000000E+00 0.  1.
     999901    1    3    3    0    0 -0.11085234671E-01  0.59883269884E-01  0.10392185100E+00  0.88820529133E+00  0.88000000000E+00 0.  1.
        -11    1    4    4    0    0  0.23828042265E-01 -0.57927699957E-01 -0.90312896144E-01  0.10990939155E+00  0.51100000000E-03 0.  1.
         11    1    4    4    0    0  0.10119479186E-01 -0.42557726693E-02 -0.19240176115E-01  0.22157638817E-01  0.51100000000E-03 0. -1.
</event>
<event>
 8    1  0.1425307E+005  0.1043930E+01  0.7957747E-01            NaN
         13   -1    0    0    0    0  0.00000000000E+00  0.00000000000E+00  0.74505805969E-08  0.10566000000E+00  0.10566000000E+00 0.  1.
     999900   -1    0    0    0    0 -0.00000000000E+00 -0.00000000000E+00 -0.74505805969E-08  0.93827000000E+00  0.93827000000E+00 0. -1.
     999902    2    1    2    0    0  0.11304556440E-01  0.27994318413E-01  0.17547510183E-01  0.10090102352E+01  0.10084058036E+01 0.  0.
     999903    2    3    3    0    0  0.24625639922E-01 -0.43676964636E-01  0.10813186188E+00  0.12136179756E+00  0.22849222553E-01 0.  0.
         14    1    1    2    0    0 -0.11304556440E-01 -0.27994318413E-01 -0.17547510183E-01  0.34919764795E-01  0.00000000000E+00 0. -1.
     999901    1    3    3    0    0 -0.13321083482E-01  0.71671283049E-01 -0.90584351701E-01  0.88764843764E+00  0.88000000000E+00 0.  1.
        -11    1    4    4    0    0  0.10993250713E-01 -0.10786983084E-01  0.57049483301E-01  0.59094121800E-01  0.51100000000E-03 0. -1.
         11    1    4    4    0    0  0.13632389209E-01 -0.32889981553E-01  0.51082378583E-01  0.62267675761E-01  0.51100000000E-03 0.  1.
</event>
<event>
 8    1  0.1099921E+005  0.1043930E+01  0.7957747E-01            NaN
         13   -1    0    0    0    0  0.00000000000E+00  0.00000000000E+00  0.74505805969E-08  0.10566000000E+00  0.10566000000E+00 0. -1.
     999900   -1    0    0    0    0 -0.00000000000E+00 -0.00000000000E+00 -0.74505805969E-08  0.93827000000E+00  0.93827000000E+00 0. -1.
     999902    2    1    2    0    0  0.17100517265E-01  0.12702079523E-01  0.14126302004E-01  0.10183698176E+01  0.10180489981E+01 0.  0.
     999903    2    3    3    0    0 -0.13831199177E-01  0.11634463588E+00  0.54718585116E-01  0.13081909568E+00  0.19802420745E-01 0.  0.
         14    1    1    2    0    0 -0.17100517265E-01 -0.12702079523E-01 -0.14126302004E-01  0.25560182379E-01  0.00000000000E+00 0. -1.
     999901    1    3    3    0    0  0.30931716442E-01 -0.10364255636E+00 -0.40592283112E-01  0.88755072194E+00  0.88000000000E+00 0. -1.
        -11    1    4    4    0    0 -0.13802230449E-01  0.10435268772E+00  0.55096608172E-01  0.11881027882E+00  0.51100000000E-03 0.  1.
         11    1    4    4    0    0 -0.28968727808E-04  0.11991948165E-01 -0.37802305556E-03  0.12008816862E-01  0.51100000000E-03 0. -1.
</event>
<event>
 8    1  0.1099921E+005  0.1043930E+01  0.7957747E-01            NaN
         13   -1    0    0    0    0  0.00000000000E+00  0.00000000000E+00  0.74505805969E-08  0.10566000000E+00  0.10566000000E+00 0.  1.
     999900   -1    0    0    0    0 -0.00000000000E+00 -0.00000000000E+00 -0.74505805969E-08  0.93827000000E+00  0.93827000000E+00 0. -1.
     999902    2    1    2    0    0  0.93998782220E-02  0.93455696663E-02  0.19742697858E-01  0.10201503553E+01  0.10198731666E+01 0.  0.
     999903    2    3    3    0    0  0.61444402631E-01  0.19378113351E-01 -0.11001227203E+00  0.12905797140E+00  0.20058267395E-01 0.  0.
         14    1    1    2    0    0 -0.93998782220E-02 -0.93455696663E-02 -0.19742697858E-01  0.23779644692E-01  0.00000000000E+00 0. -1.
     999901    1    3    3    0    0 -0.52044524409E-01 -0.10032543685E-01  0.12975496989E+00  0.89109238391E+00  0.88000000000E+00 0.  1.
        -11    1    4    4    0    0  0.32175183044E-01  0.14588121015E-02 -0.64053920788E-01  0.71697534309E-01  0.51100000000E-03 0. -1.
         11    1    4    4    0    0  0.29269219587E-01  0.17919301250E-01 -0.45958351246E-01  0.57360437087E-01  0.51100000000E-03 0.  1.
</event>
<event>
 8    1  0.1099921E+005  0.1043930E+01  0.7957747E-01            NaN
         13   -1    0    0    0    0  0.00000000000E+00  0.00000000000E+00  0.74505805969E-08  0.10566000000E+00  0.10566000000E+00 0.  1.
     999900   -1    0    0    0    0 -0.00000000000E+00 -0.00000000000E+00 -0.74505805969E-08  0.93827000000E+00  0.93827000000E+00 0.  1.
     999902    2    1    2    0    0  0.21292910366E-01 -0.23432520323E-02  0.10274334150E-01  0.10201720370E+01  0.10198953595E+01 0.  0.
     999903    2    3    3    0    0  0.29784412711E-01  0.91504615157E-01  0.87740569500E-01  0.13175741232E+00  0.20035027578E-01 0.  0.
         14    1    1    2    0    0 -0.21292910366E-01  0.23432520323E-02 -0.10274334150E-01  0.23757962963E-01  0.00000000000E+00 0.  1.
     999901    1    3    3    0    0 -0.84915023447E-02 -0.93847867189E-01 -0.77466235350E-01  0.88841462471E+00  0.88000000000E+00 0.  1.
        -11    1    4    4    0    0  0.96004202911E-02  0.18131178550E-01  0.95114756880E-02  0.22619394248E-01  0.51100000000E-03 0.  1.
         11    1    4    4    0    0  0.20183992420E-01  0.73373436607E-01  0.78229093812E-01  0.10913801807E+00  0.51100000000E-03 0. -1.
</event>
<event>
 8    1  0.1099921E+005  0.1043930E+01  0.7957747E-01            NaN
         13   -1    0    0    0    0  0.00000000000E+00  0.00000000000E+00  0.74505805969E-08  0.10566000000E+00  0.10566000000E+00 0.  1.
     999900   -1    0    0    0    0 -0.00000000000E+00 -0.00000000000E+00 -0.74505805969E-08  0.93827000000E+00  0.93827000000E+00 0. -1.
     999902    2    1    2    0    0 -0.58917208737E-02  0.64738150813E-02 -0.21973444646E-01  0.10202772005E+01  0.10200029955E+01 0.  0.
     999903    2    3    3    0    0  0.62020100408E-01  0.95696703604E-01 -0.63753774045E-01  0.13217904415E+00  0.20060011790E-01 0.  0.
         14    1    1    2    0    0  0.58917208737E-02 -0.64738150813E-02  0.21973444646E-01  0.23652799542E-01  0.00000000000E+00 0.  1.
     999901    1    3    3    0    0 -0.67911821282E-01 -0.89222888523E-01  0.41780329398E-01  0.88809815630E+00  0.88000000000E+00 0. -1.
        -11    1    4    4    0    0  0.11264590113E-01  0.25819101017E-01 -0.76674524537E-02  0.29198765657E-01  0.51100000000E-03 0. -1.
         11    1    4    4    0    0  0.50755510295E-01  0.69877602587E-01 -0.56086321591E-01  0.10298027850E+00  0.51100000000E-03 0.  1.
</event>
<event>
 8    1  0.1099921E+005  0.1043930E+01  0.7957747E-01            NaN
         13   -1    0    0    0    0  0.00000000000E+00  0.00000000000E+00  0.74505805969E-08  0.10566000000E+00  0.10566000000E+00 0.  1.
     999900   -1    0    0    0    0 -0.00000000000E+00 -0.00000000000E+00 -0.74505805969E-08  0.93827000000E+00  0.93827000000E+00 0. -1.
     999902    2    1    2    0    0  0.19534512771E-01 -0.86533562402E-02  0.10523909339E-01  0.10201134001E+01  0.10198353390E+01 0.  0.
     999903    2    3    3    0    0 -0.70359071912E-01  0.56758306875E-01  0.90505963235E-01  0.12951996244E+00  0.20302386320E-01 0.  0.
         14    1    1    2    0    0 -0.19534512771E-01  0.86533562402E-02 -0.10523909339E-01  0.23816599909E-01  0.00000000000E+00 0.  1.
     999901    1    3    3    0    0  0.89893584683E-01 -0.65411663115E-01 -0.79982053896E-01  0.89059343765E+00  0.88000000000E+00 0. -1.
        -11    1    4    4    0    0 -0.17133834135E-01  0.56794724818E-02  0.11408859361E-01  0.21359959568E-01  0.51100000000E-03 0. -1.
         11    1    4    4    0    0 -0.53225237777E-01  0.51078834393E-01  0.79097103874E-01  0.10816000287E+00  0.51100000000E-03 0.  1.
</event>
<event>
 8    1  0.1099921E+005  0.1043930E+01  0.7957747E-01            NaN
         13   -1    0    0    0    0  0.00000000000E+00  0.00000000000E+00  0.74505805969E-08  0.10566000000E+00  0.10566000000E+00 0. -1.
     999900   -1    0    0    0    0 -0.00000000000E+00 -0.00000000000E+00 -0.74505805969E-08  0.93827000000E+00  0.93827000000E+00 0.  1.
     999902    2    1    2    0    0  0.13057975918E-01 -0.51338694838E-04 -0.19502719376E-01  0.10204593921E+01  0.10201894440E+01 0.  0.
     999903    2    3    3    0    0 -0.63563273817E-01 -0.55283199450E-01 -0.99529552512E-01  0.13179428739E+00  0.19159343583E-01 0.  0.
         14    1    1    2    0    0 -0.13057975918E-01  0.51338694838E-04  0.19502719376E-01  0.23470607870E-01  0.00000000000E+00 0. -1.
     999901    1    3    3    0    0  0.76621249735E-01  0.55231860755E-01  0.80026833136E-01  0.88866510474E+00  0.88000000000E+00 0.  1.
        -11    1    4    4    0    0 -0.34682543536E-01 -0.21389114206E-01 -0.37101909758E-01  0.55110669215E-01  0.51100000000E-03 0. -1.
         11    1    4    4    0    0 -0.28880730281E-01 -0.33894085245E-01 -0.62427642754E-01  0.76683618179E-01  0.51100000000E-03 0.  1.
</event>
<event>
 8    1  0.1099921E+005  0.1043930E+01  0.7957747E-01            NaN
         13   -1    0    0    0    0  0.00000000000E+00  0.00000000000E+00  0.74505805969E-08  0.10566000000E+00  0.10566000000E+00 0.  1.
     999900   -1    0    0    0    0 -0.00000000000E+00 -0.00000000000E+00 -0.74505805969E-08  0.93827000000E+00  0.93827000000E+00 0.  1.
     999902    2    1    2    0    0 -0.65073676329E-02  0.94727354307E-04  0.20953916665E-01  0.10219886821E+01  0.10217531233E+01 0.  0.
     999903    2    3    3    0    0  0.92038843804E-01  0.38836872463E-02  0.94222401071E-01  0.13345394289E+00  0.21115449661E-01 0.  0.
         14    1    1    2    0    0  0.65073676329E-02 -0.94727354307E-04 -0.20953916665E-01  0.21941317882E-01  0.00000000000E+00 0. -1.
     999901    1    3    3    0    0 -0.98546211437E-01 -0.37889598920E-02 -0.73268484406E-01  0.88853473923E+00  0.88000000000E+00 0.  1.
        -11    1    4    4    0    0  0.58266735428E-01 -0.77492377014E-02  0.59245478084E-01  0.83458678020E-01  0.51100000000E-03 0. -1.
         11    1    4    4    0    0  0.33772108376E-01  0.11632924948E-01  0.34976922987E-01  0.49995264872E-01  0.51100000000E-03 0.  1.
</event>
<event>
 8    1  0.1099921E+005  0.1043930E+01  0.7957747E-01            NaN
         13   -1    0    0    0    0  0.00000000000E+00  0.00000000000E+00  0.74505805969E-08  0.10566000000E+00  0.10566000000E+00 0.  1.
     999900   -1    0    0    0    0 -0.00000000000E+00 -0.00000000000E+00 -0.74505805969E-08  0.93827000000E+00  0.93827000000E+00 0.  1.
     999902    2    1    2    0    0  0.20991228511E-01 -0.10495292224E-01  0.27613517543E-02  0.10202993441E+01  0.10200256584E+01 0.  0.
     999903    2    3    3    0    0 -0.25396453292E-01  0.75093770177E-01  0.10053723401E+00  0.12954829711E+00  0.19773004349E-01 0.  0.
         14    1    1    2    0    0 -0.20991228511E-01  0.10495292224E-01 -0.27613517543E-02  0.23630655868E-01  0.00000000000E+00 0. -1.
     999901    1    3    3    0    0  0.46387681803E-01 -0.85589062401E-01 -0.97775882258E-01  0.89075104703E+00  0.88000000000E+00 0.  1.
        -11    1    4    4    0    0 -0.33362078636E-02  0.40375962231E-01  0.47686328186E-01  0.62574720342E-01  0.51100000000E-03 0.  1.
         11    1    4    4    0    0 -0.22060245428E-01  0.34717807946E-01  0.52850905826E-01  0.66973576765E-01  0.51100000000E-03 0. -1.
</event>
<event>
 8    1  0.1099921E+005  0.1043930E+01  0.7957747E-01            NaN
         13   -1    0    0    0    0  0.00000000000E+00  0.00000000000E+00  0.74505805969E-08  0.10566000000E+00  0.10566000000E+00 0. -1.
     999900   -1    0    0    0    0 -0.00000000000E+00 -0.00000000000E+00 -0.74505805969E-08  0.93827000000E+00  0.93827000000E+00 0.  1.
     999902    2    1    2    0    0  0.99725395083E-02 -0.13646482045E-01 -0.15740365250E-01  0.10208337424E+01  0.10205724337E+01 0.  0.
     999903    2    3    3    0    0  0.49084424855E-01  0.95558351418E-01  0.68978231294E-01  0.12918769390E+00  0.19768271882E-01 0.  0.
         14    1    1    2    0    0 -0.99725395083E-02  0.13646482045E-01  0.15740365250E-01  0.23096257590E-01  0.00000000000E+00 0.  1.
     999901    1    3    3    0    0 -0.39111885346E-01 -0.10920483346E+00 -0.84718596544E-01  0.89164604851E+00  0.88000000000E+00 0. -1.
        -11    1    4    4    0    0  0.20323697638E-01  0.20906017605E-01  0.16437039102E-01  0.33474641644E-01  0.51100000000E-03 0.  1.
         11    1    4    4    0    0  0.28760727217E-01  0.74652333813E-01  0.52541192192E-01  0.95713052254E-01  0.51100000000E-03 0. -1.
</event>
<event>
 8    1  0.1099921E+005  0.1043930E+01  0.7957747E-01            NaN
         13   -1    0    0    0    0  0.00000000000E+00  0.00000000000E+00  0.74505805969E-08  0.10566000000E+00  0.10566000000E+00 0. -1.
     999900   -1    0    0    0    0 -0.00000000000E+00 -0.00000000000E+00 -0.74505805969E-08  0.93827000000E+00  0.93827000000E+00 0. -1.
     999902    2    1    2    0    0  0.23069230429E-01 -0.31081138282E-02  0.56072747400E-04  0.10206522658E+01  0.10203867869E+01 0.  0.
     999903    2    3    3    0    0  0.12490264689E+00  0.39790504341E-01 -0.15624595626E-01  0.13360310174E+00  0.20535466162E-01 0.  0.
         14    1    1    2    0    0 -0.23069230429E-01  0.31081138282E-02 -0.56072747400E-04  0.23277734174E-01  0.00000000000E+00 0. -1.
     999901    1    3    3    0    0 -0.10183341646E+00 -0.42898618169E-01  0.15680668374E-01  0.88704916409E+00  0.88000000000E+00 0. -1.
        -11    1    4    4    0    0  0.77804675877E-01  0.26028028659E-01  0.19902457171E-03  0.82044662203E-01  0.51100000000E-03 0. -1.
         11    1    4    4    0    0  0.47097971009E-01  0.13762475682E-01 -0.15823620198E-01  0.51558439535E-01  0.51100000000E-03 0.  1.
</event>
<event>
 8    1  0.1099921E+005  0.1043930E+01  0.7957747E-01            NaN
         13   -1    0    0    0    0  0.00000000000E+00  0.00000000000E+00  0.74505805969E-08  0.10566000000E+00  0.10566000000E+00 0. -1.
     999900   -1    0    0    0    0 -0.00000000000E+00 -0.00000000000E+00 -0.74505805969E-08  0.93827000000E+00  0.93827000000E+00 0. -1.
     999902    2    1    2    0    0  0.14303233463E-01  0.16982385006E-02  0.19400868741E-01  0.10197668005E+01  0.10194804889E+01 0.  0.
     999903    2    3    3    0    0  0.78427304610E-01 -0.89684359193E-01 -0.48168314880E-01  0.13014425683E+00  0.20572181071E-01 0.  0.
         14    1    1    2    0    0 -0.14303233463E-01 -0.16982385006E-02 -0.19400868741E-01  0.24163199487E-01  0.00000000000E+00 0. -1.
     999901    1    3    3    0    0 -0.64124071147E-01  0.91382597694E-01  0.67569183622E-01  0.88962254369E+00  0.88000000000E+00 0.  1.
        -11    1    4    4    0    0  0.16082354227E-01 -0.20904951768E-01 -0.19742238090E-02  0.26454069754E-01  0.51100000000E-03 0.  1.
         11    1    4    4    0    0  0.62344950383E-01 -0.68779407425E-01 -0.46194091071E-01  0.10369018707E+00  0.51100000000E-03 0. -1.
</event>
<event>
 8    1  0.1099921E+005  0.1043930E+01  0.7957747E-01            NaN
         13   -1    0    0    0    0  0.00000000000E+00  0.00000000000E+00  0.74505805969E-08  0.10566000000E+00  0.10566000000E+00 0. -1.
     999900   -1    0    0    0    0 -0.00000000000E+00 -0.00000000000E+00 -0.74505805969E-08  0.93827000000E+00  0.93827000000E+00 0. -1.
     999902    2    1    2    0    0  0.19621941812E-01 -0.25674054470E-02  0.83630158920E-02  0.10224462339E+01  0.10222204992E+01 0.  0.
     999903    2    3    3    0    0  0.10031917233E+00 -0.69917212272E-01  0.53940006400E-01  0.13502001073E+00  0.19197033574E-01 0.  0.
         14    1    1    2    0    0 -0.19621941812E-01  0.25674054470E-02 -0.83630158920E-02  0.21483766104E-01  0.00000000000E+00 0. -1.
     999901    1    3    3    0    0 -0.80697230521E-01  0.67349806825E-01 -0.45576990509E-01  0.88742622316E+00  0.88000000000E+00 0. -1.
        -11    1    4    4    0    0  0.23735215263E-01 -0.86526960955E-02  0.15730572275E-01  0.29764771432E-01  0.51100000000E-03 0.  1.
         11    1    4    4    0    0  0.76583957071E-01 -0.61264516177E-01  0.38209434125E-01  0.10525523930E+00  0.51100000000E-03 0. -1.
</event>
<event>
 8    1  0.1099921E+005  0.1043930E+01  0.7957747E-01            NaN
         13   -1    0    0    0    0  0.00000000000E+00  0.00000000000E+00  0.74505805969E-08  0.10566000000E+00  0.10566000000E+00 0.  1.
     999900   -1    0    0    0    0 -0.00000000000E+00 -0.00000000000E+00 -0.74505805969E-08  0.93827000000E+00  0.93827000000E+00 0. -1.
     999902    2    1    2    0    0  0.16168445941E-01  0.84265899705E-02  0.14235444279E-01  0.10207983348E+01  0.10205362151E+01 0.  0.
     999903    2    3    3    0    0  0.96029352756E-01  0.50102713581E-01  0.76202733573E-01  0.13403195704E+00  0.20634689388E-01 0.  0.
         14    1    1    2    0    0 -0.16168445941E-01 -0.84265899705E-02 -0.14235444279E-01  0.23131665234E-01  0.00000000000E+00 0. -1.
     999901    1    3    3    0    0 -0.79860906815E-01 -0.41676123611E-01 -0.61967289294E-01  0.88676637772E+00  0.88000000000E+00 0. -1.
        -11    1    4    4    0    0  0.67980875200E-01  0.32408832641E-01  0.63519118896E-01  0.98522441161E-01  0.51100000000E-03 0.  1.
         11    1    4    4    0    0  0.28048477556E-01  0.17693880941E-01  0.12683614677E-01  0.35509515882E-01  0.51100000000E-03 0. -1.
</event>
<event>
 8    1  0.1099921E+005  0.1043930E+01  0.7957747E-01            NaN
         13   -1    0    0    0    0  0.00000000000E+00  0.00000000000E+00  0.74505805969E-08  0.10566000000E+00  0.10566000000E+00 0. -1.
     999900   -1    0    0    0    0 -0.00000000000E+00 -0.00000000000E+00 -0.74505805969E-08  0.93827000000E+00  0.93827000000E+00 0. -1.
     999902    2    1    2    0    0 -0.30301687064E-02  0.22312501891E-01  0.63509257163E-02  0.10205341901E+01  0.10202659797E+01 0.  0.
     999903    2    3    3    0    0 -0.10999267573E+00  0.69165240881E-01  0.18493107970E-01  0.13273714706E+00  0.19872994386E-01 0.  0.
         14    1    1    2    0    0  0.30301687064E-02 -0.22312501891E-01 -0.63509257163E-02  0.23395809892E-01  0.00000000000E+00 0. -1.
     999901    1    3    3    0    0  0.10696250703E+00 -0.46852738990E-01 -0.12142182254E-01  0.88779704305E+00  0.88000000000E+00 0.  1.
        -11    1    4    4    0    0 -0.62843768137E-01  0.27926032448E-01  0.11094806512E-01  0.69660306736E-01  0.51100000000E-03 0.  1.
         11    1    4    4    0    0 -0.47148907594E-01  0.41239208433E-01  0.73983014581E-02  0.63076840322E-01  0.51100000000E-03 0. -1.
</event>
<event>
 7    1  0.1099921E+005  0.1043930E+01  0.7957747E-01            NaN
         13   -1    0    0    0    0  0.00000000000E+00  0.00000000000E+00  0.74505805969E-08  0.10566000000E+00  0.10566000000E+00 0.  1.
     999900   -1    0    0    0    0 -0.00000000000E+00 -0.00000000000E+00 -0.74505805969E-08  0.93827000000E+00  0.93827000000E+00 0. -1.
     999903    2    1    2    0    0 -0.40808474333E-01  0.73863305455E-02  0.10948169179E+00  0.12006759552E+00  0.26647649069E-01 0.  0.
         14    1    1    2    0    0  0.37576042591E-02  0.20662355984E-01 -0.33273870447E-01  0.39347210818E-01  0.00000000000E+00 0. -1.
     999901    1    1    2    0    0  0.37050870074E-01 -0.28048686530E-01 -0.76207821339E-01  0.88451519366E+00  0.88000000000E+00 0. -1.
        -11    1    3    3    0    0 -0.38187249866E-01  0.14689859397E-01  0.98008837466E-01  0.10620758619E+00  0.51100000000E-03 0.  1.
         11    1    3    3    0    0 -0.26212244670E-02 -0.73035288514E-02  0.11472854320E-01  0.13860009330E-01  0.51100000000E-03 0. -1.
</event>
<event>
 8    1  0.1099921E+005  0.1043930E+01  0.7957747E-01            NaN
         13   -1    0    0    0    0  0.00000000000E+00  0.00000000000E+00  0.74505805969E-08  0.10566000000E+00  0.10566000000E+00 0. -1.
     999900   -1    0    0    0    0 -0.00000000000E+00 -0.00000000000E+00 -0.74505805969E-08  0.93827000000E+00  0.93827000000E+00 0.  1.
     999902    2    1    2    0    0  0.98429224862E-02  0.15316936589E-01  0.14844840413E-01  0.10204382790E+01  0.10201678393E+01 0.  0.
     999903    2    3    3    0    0 -0.25775833201E-01 -0.24153888098E-01  0.12546102571E+00  0.13192120981E+00  0.20369897854E-01 0.  0.
         14    1    1    2    0    0 -0.98429224862E-02 -0.15316936589E-01 -0.14844840413E-01  0.23491721019E-01  0.00000000000E+00 0.  1.
     999901    1    3    3    0    0  0.35618755688E-01  0.39470824687E-01 -0.11061618530E+00  0.88851706917E+00  0.88000000000E+00 0.  1.
        -11    1    4    4    0    0 -0.17652554491E-01 -0.43303515945E-02  0.73477571388E-01  0.75693984194E-01  0.51100000000E-03 0. -1.
         11    1    4    4    0    0 -0.81232787103E-02 -0.19823536503E-01  0.51983454320E-01  0.56227225617E-01  0.51100000000E-03 0.  1.
</event>
<event>
 8    1  0.1099921E+005  0.1043930E+01  0.7957747E-01            NaN
         13   -1    0    0    0    0  0.00000000000E+00  0.00000000000E+00  0.74505805969E-08  0.10566000000E+00  0.10566000000E+00 0. -1.
     999900   -1    0    0    0    0 -0.00000000000E+00 -0.00000000000E+00 -0.74505805969E-08  0.93827000000E+00  0.93827000000E+00 0.  1.
     999902    2    1    2    0    0 -0.23639990598E-01 -0.12419513855E-02  0.18452041686E-02  0.10201856032E+01  0.10199092453E+01 0.  0.
     999903    2    3    3    0    0 -0.13234034995E-03 -0.79335942939E-01  0.10196685362E+00  0.13076128054E+00  0.20175824497E-01 0.  0.
         14    1    1    2    0    0  0.23639990598E-01  0.12419513855E-02 -0.18452041686E-02  0.23744396752E-01  0.00000000000E+00 0. -1.
     999901    1    3    3    0    0 -0.23507650248E-01  0.78093991554E-01 -0.10012164946E+00  0.88942432271E+00  0.88000000000E+00 0.  1.
        -11    1    4    4    0    0  0.57012850028E-02 -0.65501240428E-01  0.90493260722E-01  0.11185798365E+00  0.51100000000E-03 0.  1.
         11    1    4    4    0    0 -0.58336253528E-02 -0.13834702511E-01  0.11473592902E-01  0.18903296893E-01  0.51100000000E-03 0. -1.
</event>
<event>
 8    1  0.1099921E+005  0.1043930E+01  0.7957747E-01            NaN
         13   -1    0    0    0    0  0.00000000000E+00  0.00000000000E+00  0.74505805969E-08  0.10566000000E+00  0.10566000000E+00 0.  1.
     999900   -1    0    0    0    0 -0.00000000000E+00 -0.00000000000E+00 -0.74505805969E-08  0.93827000000E+00  0.93827000000E+00 0. -1.
     999902    2    1    2    0    0  0.17926134923E-01 -0.17008418522E-01  0.35547192487E-02  0.10189646512E+01  0.10186587710E+01 0.  0.
     999903    2    3    3    0    0  0.11843886216E+00 -0.16997193225E-02  0.53785825187E-01  0.13168773350E+00  0.20447274783E-01 0.  0.
         14    1    1    2    0    0 -0.17926134923E-01  0.17008418522E-01 -0.35547192487E-02  0.24965348843E-01  0.00000000000E+00 0.  1.
     999901    1    3    3    0    0 -0.10051272724E+00 -0.15308699200E-01 -0.50231105939E-01  0.88727691766E+00  0.88000000000E+00 0. -1.
        -11    1    4    4    0    0  0.10324904077E+00 -0.78772639189E-02  0.49253529461E-01  0.11466728824E+00  0.51100000000E-03 0.  1.
         11    1    4    4    0    0  0.15189821393E-01  0.61775445964E-02  0.45322957260E-02  0.17020445257E-01  0.51100000000E-03 0. -1.
</event>
<event>
 8    1  0.1099921E+005  0.1043930E+01  0.7957747E-01            NaN
         13   -1    0    0    0    0  0.00000000000E+00  0.00000000000E+00  0.74505805969E-08  0.10566000000E+00  0.10566000000E+00 0. -1.
     999900   -1    0    0    0    0 -0.00000000000E+00 -0.00000000000E+00 -0.74505805969E-08  0.93827000000E+00  0.93827000000E+00 0. -1.
     999902    2    1    2    0    0  0.93189512279E-02 -0.34635629593E-02  0.22196142941E-01  0.10196090649E+01  0.10193189577E+01 0.  0.
     999903    2    3    3    0    0  0.14662733060E-01 -0.63069191964E-02  0.13043469070E+00  0.13295680848E+00  0.20236882451E-01 0.  0.
         14    1    1    2    0    0 -0.93189512279E-02  0.34635629593E-02 -0.22196142941E-01  0.24320935052E-01  0.00000000000E+00 0.  1.
     999901    1    3    3    0    0 -0.53437818321E-02  0.28433562371E-02 -0.10823854776E+00  0.88665225647E+00  0.88000000000E+00 0. -1.
        -11    1    4    4    0    0  0.60156154143E-03 -0.95188018456E-02  0.77627872962E-01  0.78213280500E-01  0.51100000000E-03 0.  1.
         11    1    4    4    0    0  0.14061171519E-01  0.32118826492E-02  0.52806817742E-01  0.54743527979E-01  0.51100000000E-03 0. -1.
</event>
<event>
 8    1  0.1099921E+005  0.1043930E+01  0.7957747E-01            NaN
         13   -1    0    0    0    0  0.00000000000E+00  0.00000000000E+00  0.74505805969E-08  0.10566000000E+00  0.10566000000E+00 0. -1.
     999900   -1    0    0    0    0 -0.00000000000E+00 -0.00000000000E+00 -0.74505805969E-08  0.93827000000E+00  0.93827000000E+00 0. -1.
     999902    2    1    2    0    0 -0.19014639116E-01  0.10553597552E-01  0.10592963484E-01  0.10197402130E+01  0.10194532633E+01 0.  0.
     999903    2    3    3    0    0  0.18036689973E-01 -0.70069829606E-01  0.10627515720E+00  0.13011780980E+00  0.20028284585E-01 0.  0.
         14    1    1    2    0    0  0.19014639116E-01 -0.10553597552E-01 -0.10592963484E-01  0.24189787047E-01  0.00000000000E+00 0.  1.
     999901    1    3    3    0    0 -0.37051329089E-01  0.80623427158E-01 -0.95682193717E-01  0.88962240315E+00  0.88000000000E+00 0. -1.
        -11    1    4    4    0    0  0.10671628738E-01 -0.12680758721E-01  0.31197836989E-01  0.35330602251E-01  0.51100000000E-03 0. -1.
         11    1    4    4    0    0  0.73650612348E-02 -0.57389070885E-01  0.75077320212E-01  0.94787207551E-01  0.51100000000E-03 0.  1.
</event>
<event>
 8    1  0.1099921E+005  0.1043930E+01  0.7957747E-01            NaN
         13   -1    0    0    0    0  0.00000000000E+00  0.00000000000E+00  0.74505805969E-08  0.10566000000E+00  0.10566000000E+00 0.  1.
     999900   -1    0    0    0    0 -0.00000000000E+00 -0.00000000000E+00 -0.74505805969E-08  0.93827000000E+00  0.93827000000E+00 0.  1.
     999902    2    1    2    0    0  0.11227745759E-01  0.11331053530E-02 -0.20722581500E-01  0.10203339921E+01  0.10200611177E+01 0.  0.
     999903    2    3    3    0    0  0.10108804923E+00 -0.10806321038E-01 -0.83843009146E-01  0.13342835318E+00  0.20926179274E-01 0.  0.
         14    1    1    2    0    0 -0.11227745759E-01 -0.11331053530E-02  0.20722581500E-01  0.23596007853E-01  0.00000000000E+00 0.  1.
     999901    1    3    3    0    0 -0.89860303469E-01  0.11939426391E-01  0.63120427646E-01  0.88690563897E+00  0.88000000000E+00 0. -1.
        -11    1    4    4    0    0  0.71853314139E-01 -0.13352269054E-01 -0.49590793871E-01  0.88321513797E-01  0.51100000000E-03 0.  1.
         11    1    4    4    0    0  0.29234735089E-01  0.25459480162E-02 -0.34252215275E-01  0.45106839385E-01  0.51100000000E-03 0. -1.
</event>
<event>
 8    1  0.1099921E+005  0.1043930E+01  0.7957747E-01            NaN
         13   -1    0    0    0    0  0.00000000000E+00  0.00000000000E+00  0.74505805969E-08  0.10566000000E+00  0.10566000000E+00 0.  1.
     999900   -1    0    0    0    0 -0.00000000000E+00 -0.00000000000E+00 -0.74505805969E-08  0.93827000000E+00  0.93827000000E+00 0. -1.
     999902    2    1    2    0    0  0.77886333508E-02 -0.15428059783E-01  0.15965322031E-01  0.10204017330E+01  0.10201304414E+01 0.  0.
     999903    2    3    3    0    0 -0.60013884522E-01  0.37194493940E-01  0.10892770346E+00  0.13135262363E+00  0.20079104552E-01 0.  0.
         14    1    1    2    0    0 -0.77886333508E-02  0.15428059783E-01 -0.15965322031E-01  0.23528266950E-01  0.00000000000E+00 0. -1.
     999901    1    3    3    0    0  0.67802517873E-01 -0.52622553723E-01 -0.92962381430E-01  0.88904910941E+00  0.88000000000E+00 0. -1.
        -11    1    4    4    0    0 -0.35188129480E-01  0.12412831252E-01  0.45265855426E-01  0.58664653962E-01  0.51100000000E-03 0. -1.
         11    1    4    4    0    0 -0.24825755042E-01  0.24781662688E-01  0.63661848035E-01  0.72687969673E-01  0.51100000000E-03 0.  1.
</event>
<event>
 8    1  0.1099921E+005  0.1043930E+01  0.7957747E-01            NaN
         13   -1    0    0    0    0  0.00000000000E+00  0.00000000000E+00  0.74505805969E-08  0.10566000000E+00  0.10566000000E+00 0.  1.
     999900   -1    0    0    0    0 -0.00000000000E+00 -0.00000000000E+00 -0.74505805969E-08  0.93827000000E+00  0.93827000000E+00 0.  1.
     999902    2    1    2    0    0 -0.38206425842E-04  0.10710604623E-02  0.23882519386E-01  0.10200234452E+01  0.10197432546E+01 0.  0.
     999903    2    3    3    0    0 -0.54816770547E-01  0.85859310177E-01 -0.75913769434E-01  0.12864864320E+00  0.20270015549E-01 0.  0.
         14    1    1    2    0    0  0.38206425842E-04 -0.10710604623E-02 -0.23882519386E-01  0.23906554801E-01  0.00000000000E+00 0. -1.
     999901    1    3    3    0    0  0.54778564121E-01 -0.84788249714E-01  0.99796288820E-01  0.89137480200E+00  0.88000000000E+00 0. -1.
        -11    1    4    4    0    0 -0.29824626489E-01  0.53655618175E-01 -0.56751043270E-01  0.83602486447E-01  0.51100000000E-03 0. -1.
         11    1    4    4    0    0 -0.24992144058E-01  0.32203692002E-01 -0.19162726164E-01  0.45046156752E-01  0.51100000000E-03 0.  1.
</event>
<event>
 8    1  0.1099921E+005  0.1043930E+01  0.7957747E-01            NaN
         13   -1    0    0    0    0  0.00000000000E+00  0.00000000000E+00  0.74505805969E-08  0.10566000000E+00  0.10566000000E+00 0.  1.
     999900   -1    0    0    0    0 -0.00000000000E+00 -0.00000000000E+00 -0.74505805969E-08  0.93827000000E+00  0.93827000000E+00 0.  1.
     999902    2    1    2    0    0 -0.10979971199E-01  0.83440491685E-02 -0.19188906980E-01  0.10202995731E+01  0.10200258927E+01 0.  0.
     999903    2    3    3    0    0 -0.72409733023E-01 -0.10225685447E+00  0.28242343367E-01  0.12998732505E+00  0.19986019956E-01 0.  0.
         14    1    1    2    0    0  0.10979971199E-01 -0.83440491685E-02  0.19188906980E-01  0.23630426893E-01  0.00000000000E+00 0. -1.
     999901    1    3    3    0    0  0.61429761824E-01  0.11060090364E+00 -0.47431250347E-01  0.89031224805E+00  0.88000000000E+00 0. -1.
        -11    1    4    4    0    0 -0.52947273414E-01 -0.58912340868E-01  0.14533060036E-01  0.80532903980E-01  0.51100000000E-03 0.  1.
         11    1    4    4    0    0 -0.19462459609E-01 -0.43344513600E-01  0.13709283331E-01  0.49454421074E-01  0.51100000000E-03 0. -1.
</event>
<event>
 8    1  0.1099921E+005  0.1043930E+01  0.7957747E-01            NaN
         13   -1    0    0    0    0  0.00000000000E+00  0.00000000000E+00  0.74505805969E-08  0.10566000000E+00  0.10566000000E+00 0. -1.
     999900   -1    0    0    0    0 -0.00000000000E+00 -0.00000000000E+00 -0.74505805969E-08  0.93827000000E+00  0.93827000000E+00 0.  1.
     999902    2    1    2    0    0 -0.20014563391E-02  0.18399835878E-01 -0.14666598443E-01  0.10203149858E+01  0.10200416664E+01 0.  0.
     999903    2    3    3    0    0  0.82323730077E-02  0.11539641382E+00  0.60700128517E-01  0.13172441022E+00  0.16813992969E-01 0.  0.
         14    1    1    2    0    0  0.20014563391E-02 -0.18399835878E-01  0.14666598443E-01  0.23615014243E-01  0.00000000000E+00 0.  1.
     999901    1    3    3    0    0 -0.10233829347E-01 -0.96996577938E-01 -0.75366726960E-01  0.88859057553E+00  0.88000000000E+00 0.  1.
        -11    1    4    4    0    0 -0.17657259874E-02  0.49421250207E-01  0.33107873619E-01  0.59514453513E-01  0.51100000000E-03 0.  1.
         11    1    4    4    0    0  0.99980989950E-02  0.65975163609E-01  0.27592254898E-01  0.72209956710E-01  0.51100000000E-03 0. -1.
</event>
<event>
 8    1  0.1099921E+005  0.1043930E+01  0.7957747E-01            NaN
         13   -1    0    0    0    0  0.00000000000E+00  0.00000000000E+00  0.74505805969E-08  0.10566000000E+00  0.10566000000E+00 0.  1.
     999900   -1    0    0    0    0 -0.00000000000E+00 -0.00000000000E+00 -0.74505805969E-08  0.93827000000E+00  0.93827000000E+00 0.  1.
     999902    2    1    2    0    0  0.11746049327E-01 -0.16932980877E-01 -0.11193123603E-01  0.10204783149E+01  0.10202088069E+01 0.  0.
     999903    2    3    3    0    0 -0.28335120429E-01 -0.12667272124E+00 -0.19231689064E-01  0.13272050488E+00  0.19900180812E-01 0.  0.
         14    1    1    2    0    0 -0.11746049327E-01  0.16932980877E-01  0.11193123603E-01  0.23451685060E-01  0.00000000000E+00 0.  1.
     999901    1    3    3    0    0  0.40081169756E-01  0.10973974036E+00  0.80385654609E-02  0.88775781006E+00  0.88000000000E+00 0. -1.
        -11    1    4    4    0    0 -0.14131260895E-01 -0.75233491049E-01 -0.20815072227E-01  0.79330316165E-01  0.51100000000E-03 0. -1.
         11    1    4    4    0    0 -0.14203859534E-01 -0.51439230189E-01  0.15833831627E-02  0.53390188717E-01  0.51100000000E-03 0.  1.
</event>
<event>
 8    1  0.1099921E+005  0.1043930E+01  0.7957747E-01            NaN
         13   -1    0    0    0    0  0.00000000000E+00  0.00000000000E+00  0.74505805969E-08  0.10566000000E+00  0.10566000000E+00 0.  1.
     999900   -1    0    0    0    0 -0.00000000000E+00 -0.00000000000E+00 -0.74505805969E-08  0.93827000000E+00  0.93827000000E+00 0.  1.
     999902    2    1    2    0    0 -0.10683663838E-01 -0.13384011614E-02  0.44702015572E-02  0.10322717543E+01  0.10322059194E+01 0.  0.
     999903    2    3    3    0    0  0.71931466852E-01  0.96151993267E-01  0.70192390218E-01  0.14061652783E+00  0.20656585418E-01 0.  0.
         14    1    1    2    0    0  0.10683663838E-01  0.13384011614E-02 -0.44702015572E-02  0.11658245693E-01  0.00000000000E+00 0. -1.
     999901    1    3    3    0    0 -0.82615130691E-01 -0.97490394428E-01 -0.65722188661E-01  0.89165522648E+00  0.88000000000E+00 0. -1.
        -11    1    4    4    0    0  0.56824519772E-01  0.62122137334E-01  0.53928905639E-01  0.99983868592E-01  0.51100000000E-03 0. -1.
         11    1    4    4    0    0  0.15106947080E-01  0.34029855933E-01  0.16263484579E-01  0.40632659236E-01  0.51100000000E-03 0.  1.
</event>
<event>
 8    1  0.1099921E+005  0.1043930E+01  0.7957747E-01            NaN
         13   -1    0    0    0    0  0.00000000000E+00  0.00000000000E+00  0.74505805969E-08  0.10566000000E+00  0.10566000000E+00 0. -1.
     999900   -1    0    0    0    0 -0.00000000000E+00 -0.00000000000E+00 -0.74505805969E-08  0.93827000000E+00  0.93827000000E+00 0. -1.
     999902    2    1    2    0    0  0.18357363843E-01 -0.12677261935E-02 -0.14726716992E-01  0.10203614589E+01  0.10200892268E+01 0.  0.
     999903    2    3    3    0    0 -0.90708840919E-01  0.68719300998E-02 -0.91093048592E-01  0.13030892806E+00  0.20178106599E-01 0.  0.
         14    1    1    2    0    0 -0.18357363843E-01  0.12677261935E-02  0.14726716992E-01  0.23568541116E-01  0.00000000000E+00 0. -1.
     999901    1    3    3    0    0  0.10906620476E+00 -0.81396562933E-02  0.76366331600E-01  0.89005253082E+00  0.88000000000E+00 0.  1.
        -11    1    4    4    0    0 -0.71254920845E-01  0.58821823068E-02 -0.58707725031E-01  0.92513360726E-01  0.51100000000E-03 0. -1.
         11    1    4    4    0    0 -0.19453920073E-01  0.98974779297E-03 -0.32385323561E-01  0.37795567334E-01  0.51100000000E-03 0.  1.
</event>
<event>
 8    1  0.1099921E+005  0.1043930E+01  0.7957747E-01            NaN
         13   -1    0    0    0    0  0.00000000000E+00  0.00000000000E+00  0.74505805969E-08  0.10566000000E+00  0.10566000000E+00 0. -1.
     999900   -1    0    0    0    0 -0.00000000000E+00 -0.00000000000E+00 -0.74505805969E-08  0.93827000000E+00  0.93827000000E+00 0.  1.
     999902    2    1    2    0    0  0.20307318475E-01 -0.18385816095E-01  0.79549072171E-02  0.10154044682E+01  0.10150037084E+01 0.  0.
     999903    2    3    3    0    0 -0.33476163723E-01  0.58599485088E-01 -0.10162598667E+00  0.12364924847E+00  0.20167852900E-01 0.  0.
         14    1    1    2    0    0 -0.20307318475E-01  0.18385816095E-01 -0.79549072171E-02  0.28525531826E-01  0.00000000000E+00 0.  1.
     999901    1    3    3    0    0  0.53783482198E-01 -0.76985301183E-01  0.10958089389E+00  0.89175521970E+00  0.88000000000E+00 0. -1.
        -11    1    4    4    0    0 -0.30588789805E-01  0.49289539369E-01 -0.72036188867E-01  0.92491115143E-01  0.51100000000E-03 0.  1.
         11    1    4    4    0    0 -0.28873739189E-02  0.93099457192E-02 -0.29589797807E-01  0.31158133332E-01  0.51100000000E-03 0. -1.
</event>
<event>
 7    1  0.1099921E+005  0.1043930E+01  0.7957747E-01            NaN
         13   -1    0    0    0    0  0.00000000000E+00  0.00000000000E+00  0.74505805969E-08  0.10566000000E+00  0.10566000000E+00 0. -1.
     999900   -1    0    0    0    0 -0.00000000000E+00 -0.00000000000E+00 -0.74505805969E-08  0.93827000000E+00  0.93827000000E+00 0.  1.
     999903    2    1    2    0    0 -0.56948456909E-02 -0.64962361310E-01 -0.91074039226E-01  0.11327034465E+00  0.16827082378E-01 0.  0.
         14    1    1    2    0    0 -0.27200719909E-01 -0.58970681167E-02 -0.27679492527E-01  0.39253138505E-01  0.00000000000E+00 0.  1.
     999901    1    1    2    0    0  0.32895565599E-01  0.70859429427E-01  0.11875353175E+00  0.89140651685E+00  0.88000000000E+00 0. -1.
        -11    1    3    3    0    0 -0.52512077899E-02 -0.48849792572E-02 -0.81487806818E-02  0.10867472254E-01  0.51100000000E-03 0. -1.
         11    1    3    3    0    0 -0.44363790096E-03 -0.60077382053E-01 -0.82925258544E-01  0.10240287239E+00  0.51100000000E-03 0.  1.
</event>
<event>
 8    1  0.1099921E+005  0.1043930E+01  0.7957747E-01            NaN
         13   -1    0    0    0    0  0.00000000000E+00  0.00000000000E+00  0.74505805969E-08  0.10566000000E+00  0.10566000000E+00 0.  1.
     999900   -1    0    0    0    0 -0.00000000000E+00 -0.00000000000E+00 -0.74505805969E-08  0.93827000000E+00  0.93827000000E+00 0. -1.
     999902    2    1    2    0    0 -0.18684138336E-02  0.23567047434E-01 -0.45733616312E-02  0.10198507074E+01  0.10195664044E+01 0.  0.
     999903    2    3    3    0    0  0.96341305447E-01 -0.27238183753E-01  0.78981036290E-01  0.12900411125E+00  0.19506174326E-01 0.  0.
         14    1    1    2    0    0  0.18684138336E-02 -0.23567047434E-01  0.45733616312E-02  0.24079292589E-01  0.00000000000E+00 0.  1.
     999901    1    3    3    0    0 -0.98209719281E-01  0.50805231187E-01 -0.83554397921E-01  0.89084659616E+00  0.88000000000E+00 0. -1.
        -11    1    4    4    0    0  0.81206154269E-01 -0.18270526128E-01  0.72047015689E-01  0.11008762513E+00  0.51100000000E-03 0. -1.
         11    1    4    4    0    0  0.15135151179E-01 -0.89676576246E-02  0.69340206007E-02  0.18916486121E-01  0.51100000000E-03 0.  1.
</event>
<event>
 8    1  0.1099921E+005  0.1043930E+01  0.7957747E-01            NaN
         13   -1    0    0    0    0  0.00000000000E+00  0.00000000000E+00  0.74505805969E-08  0.10566000000E+00  0.10566000000E+00 0.  1.
     999900   -1    0    0    0    0 -0.00000000000E+00 -0.00000000000E+00 -0.74505805969E-08  0.93827000000E+00  0.93827000000E+00 0.  1.
     999902    2    1    2    0    0  0.17396647189E-01  0.16222089224E-02 -0.15797256296E-01  0.10203752085E+01  0.10201032977E+01 0.  0.
     999903    2    3    3    0    0  0.14612110011E-01 -0.11949903337E+00  0.44086130269E-01  0.13005833854E+00  0.21864395864E-01 0.  0.
         14    1    1    2    0    0 -0.17396647189E-01 -0.16222089224E-02  0.15797256296E-01  0.23554791480E-01  0.00000000000E+00 0.  1.
     999901    1    3    3    0    0  0.27845371783E-02  0.12112124229E+00 -0.59883386565E-01  0.89031686998E+00  0.88000000000E+00 0.  1.
        -11    1    4    4    0    0  0.64481824846E-02 -0.38933241542E-01  0.25451833244E-01  0.46962040957E-01  0.51100000000E-03 0.  1.
         11    1    4    4    0    0  0.81639275261E-02 -0.80565791829E-01  0.18634297025E-01  0.83096297585E-01  0.51100000000E-03 0. -1.
</event>
<event>
 8    1  0.1099921E+005  0.1043930E+01  0.7957747E-01            NaN
         13   -1    0    0    0    0  0.00000000000E+00  0.00000000000E+00  0.74505805969E-08  0.10566000000E+00  0.10566000000E+00 0. -1.
     999900   -1    0    0    0    0 -0.00000000000E+00 -0.00000000000E+00 -0.74505805969E-08  0.93827000000E+00  0.93827000000E+00 0.  1.
     999902    2    1    2    0    0  0.20850865171E-01  0.11843060969E-01  0.34118485895E-02  0.10197089888E+01  0.10194212890E+01 0.  0.
     999903    2    3    3    0    0 -0.83497706979E-01 -0.60357309333E-01 -0.72195833186E-01  0.12739848260E+00  0.20081413746E-01 0.  0.
         14    1    1    2    0    0 -0.20850865171E-01 -0.11843060969E-01 -0.34118485895E-02  0.24221011174E-01  0.00000000000E+00 0. -1.
     999901    1    3    3    0    0  0.10434857215E+00  0.72200370303E-01  0.75607681775E-01  0.89231050623E+00  0.88000000000E+00 0. -1.
        -11    1    4    4    0    0 -0.68931686794E-01 -0.40112805315E-01 -0.58770256674E-01  0.99069767261E-01  0.51100000000E-03 0.  1.
         11    1    4    4    0    0 -0.14566020185E-01 -0.20244504018E-01 -0.13425576512E-01  0.28328715337E-01  0.51100000000E-03 0. -1.
</event>
<event>
 8    1  0.1099921E+005  0.1043930E+01  0.7957747E-01            NaN
         13   -1    0    0    0    0  0.00000000000E+00  0.00000000000E+00  0.74505805969E-08  0.10566000000E+00  0.10566000000E+00 0. -1.
     999900   -1    0    0    0    0 -0.00000000000E+00 -0.00000000000E+00 -0.74505805969E-08  0.93827000000E+00  0.93827000000E+00 0. -1.
     999902    2    1    2    0    0 -0.85660390858E-02  0.20273925460E-01 -0.77028330475E-02  0.10206117086E+01  0.10203452930E+01 0.  0.
     999903    2    3    3    0    0 -0.77564442172E-01  0.70512437114E-01 -0.80195527207E-01  0.13351539000E+00  0.20169043241E-01 0.  0.
         14    1    1    2    0    0  0.85660390858E-02 -0.20273925460E-01  0.77028330475E-02  0.23318291450E-01  0.00000000000E+00 0. -1.
     999901    1    3    3    0    0  0.68998403086E-01 -0.50238511654E-01  0.72492694160E-01  0.88709631855E+00  0.88000000000E+00 0.  1.
        -11    1    4    4    0    0 -0.19204370190E-01  0.30283829208E-01 -0.27133817615E-01  0.44971361168E-01  0.51100000000E-03 0.  1.
         11    1    4    4    0    0 -0.58360071982E-01  0.40228607906E-01 -0.53061709592E-01  0.88544028831E-01  0.51100000000E-03 0. -1.
</event>
<event>
 8    1  0.1099921E+005  0.1043930E+01  0.7957747E-01            NaN
         13   -1    0    0    0    0  0.00000000000E+00  0.00000000000E+00  0.74505805969E-08  0.10566000000E+00  0.10566000000E+00 0.  1.
     999900   -1    0    0    0    0 -0.00000000000E+00 -0.00000000000E+00 -0.74505805969E-08  0.93827000000E+00  0.93827000000E+00 0.  1.
     999902    2    1    2    0    0  0.12980731109E-01  0.17699094879E-01 -0.59562515559E-02  0.10211872149E+01  0.10209339321E+01 0.  0.
     999903    2    3    3    0    0 -0.11810825811E+00 -0.48196182058E-01  0.19672463005E-02  0.12900489476E+00  0.19130086679E-01 0.  0.
         14    1    1    2    0    0 -0.12980731109E-01 -0.17699094879E-01  0.59562515559E-02  0.22742785060E-01  0.00000000000E+00 0.  1.
     999901    1    3    3    0    0  0.13108898922E+00  0.65895276937E-01 -0.79234978564E-02  0.89218232018E+00  0.88000000000E+00 0. -1.
        -11    1    4    4    0    0 -0.40809666136E-01 -0.73529477514E-02 -0.16526423832E-02  0.41502855788E-01  0.51100000000E-03 0. -1.
         11    1    4    4    0    0 -0.77298591974E-01 -0.40843234307E-01  0.36198886837E-02  0.87502038976E-01  0.51100000000E-03 0.  1.
</event>
<event>
 8    1  0.1099921E+005  0.1043930E+01  0.7957747E-01            NaN
         13   -1    0    0    0    0  0.00000000000E+00  0.00000000000E+00  0.74505805969E-08  0.10566000000E+00  0.10566000000E+00 0.  1.
     999900   -1    0    0    0    0 -0.00000000000E+00 -0.00000000000E+00 -0.74505805969E-08  0.93827000000E+00  0.93827000000E+00 0.  1.
     999902    2    1    2    0    0  0.38586997386E-02  0.19291549674E-01 -0.73455363832E-02  0.10229297534E+01  0.10227141683E+01 0.  0.
     999903    2    3    3    0    0 -0.12983646930E+00 -0.11396414188E-01  0.91298539537E-02  0.13215055077E+00  0.19824904043E-01 0.  0.
         14    1    1    2    0    0 -0.38586997386E-02 -0.19291549674E-01  0.73455363832E-02  0.21000246600E-01  0.00000000000E+00 0. -1.
     999901    1    3    3    0    0  0.13369516903E+00  0.30687963862E-01 -0.16475390337E-01  0.89077920263E+00  0.88000000000E+00 0.  1.
        -11    1    4    4    0    0 -0.99312693715E-01 -0.16931516724E-01  0.52574725022E-02  0.10088404001E+00  0.51100000000E-03 0.  1.
         11    1    4    4    0    0 -0.30523775581E-01  0.55351025359E-02  0.38723814515E-02  0.31266510756E-01  0.51100000000E-03 0. -1.
</event>
<event>
 8    1  0.1099921E+005  0.1043930E+01  0.7957747E-01            NaN
         13   -1    0    0    0    0  0.00000000000E+00  0.00000000000E+00  0.74505805969E-08  0.10566000000E+00  0.10566000000E+00 0.  1.
     999900   -1    0    0    0    0 -0.00000000000E+00 -0.00000000000E+00 -0.74505805969E-08  0.93827000000E+00  0.93827000000E+00 0. -1.
     999902    2    1    2    0    0  0.52628452549E-02 -0.20558238348E-01  0.10133563509E-01  0.10204134566E+01  0.10201424384E+01 0.  0.
     999903    2    3    3    0    0 -0.76214408709E-01  0.73729494851E-01 -0.68982296458E-01  0.12811976120E+00  0.20284020316E-01 0.  0.
         14    1    1    2    0    0 -0.52628452549E-02  0.20558238348E-01 -0.10133563509E-01  0.23516543401E-01  0.00000000000E+00 0. -1.
     999901    1    3    3    0    0  0.81477253964E-01 -0.94287733199E-01  0.79115859967E-01  0.89229369540E+00  0.88000000000E+00 0.  1.
        -11    1    4    4    0    0 -0.58079764864E-01  0.58008043542E-01 -0.42720122882E-01  0.92538976774E-01  0.51100000000E-03 0. -1.
         11    1    4    4    0    0 -0.18134643845E-01  0.15721451309E-01 -0.26262173577E-01  0.35580784429E-01  0.51100000000E-03 0.  1.
</event>
<event>
 8    1  0.1099921E+005  0.1043930E+01  0.7957747E-01            NaN
         13   -1    0    0    0    0  0.00000000000E+00  0.00000000000E+00  0.74505805969E-08  0.10566000000E+00  0.10566000000E+00 0. -1.
     999900   -1    0    0    0    0 -0.00000000000E+00 -0.00000000000E+00 -0.74505805969E-08  0.93827000000E+00  0.93827000000E+00 0.  1.
     999902    2    1    2    0    0 -0.92278790195E-02 -0.29406280314E-02  0.16917841941E-01  0.10244360414E+01  0.10242505497E+01 0.  0.
     999903    2    3    3    0    0  0.11545861577E+00 -0.63346396514E-01 -0.56377016420E-02  0.13331072399E+00  0.19912497226E-01 0.  0.
         14    1    1    2    0    0  0.92278790195E-02  0.29406280314E-02 -0.16917841941E-01  0.19493958561E-01  0.00000000000E+00 0.  1.
     999901    1    3    3    0    0 -0.12468649479E+00  0.60405768483E-01  0.22555543583E-01  0.89112531745E+00  0.88000000000E+00 0.  1.
        -11    1    4    4    0    0  0.78077585255E-01 -0.43512813475E-01  0.54853934283E-02  0.89553475186E-01  0.51100000000E-03 0. -1.
         11    1    4    4    0    0  0.37381030511E-01 -0.19833583039E-01 -0.11123095070E-01  0.43757248807E-01  0.51100000000E-03 0.  1.
</event>
<event>
 8    1  0.1099921E+005  0.1043930E+01  0.7957747E-01            NaN
         13   -1    0    0    0    0  0.00000000000E+00  0.00000000000E+00  0.74505805969E-08  0.10566000000E+00  0.10566000000E+00 0.  1.
     999900   -1    0    0    0    0 -0.00000000000E+00 -0.00000000000E+00 -0.74505805969E-08  0.93827000000E+00  0.93827000000E+00 0. -1.
     999902    2    1    2    0    0 -0.21665636287E-01  0.53627493239E-02 -0.74073648010E-02  0.10204134541E+01  0.10201424359E+01 0.  0.
     999903    2    3    3    0    0  0.87730163003E-01  0.77760654499E-01 -0.51475514226E-01  0.12959871505E+00  0.20069815390E-01 0.  0.
         14    1    1    2    0    0  0.21665636287E-01 -0.53627493239E-02  0.74073648010E-02  0.23516545863E-01  0.00000000000E+00 0. -1.
     999901    1    3    3    0    0 -0.10939579929E+00 -0.72397905175E-01  0.44068149425E-01  0.89081473908E+00  0.88000000000E+00 0. -1.
        -11    1    4    4    0    0  0.67965396097E-01  0.49211092081E-01 -0.32182901682E-01  0.89872281222E-01  0.51100000000E-03 0. -1.
         11    1    4    4    0    0  0.19764766907E-01  0.28549562418E-01 -0.19292612544E-01  0.39726433830E-01  0.51100000000E-03 0.  1.
</event>
<event>
 8    1  0.1099921E+005  0.1043930E+01  0.7957747E-01            NaN
         13   -1    0    0    0    0  0.00000000000E+00  0.00000000000E+00  0.74505805969E-08  0.10566000000E+00  0.10566000000E+00 0. -1.
     999900   -1    0    0    0    0 -0.00000000000E+00 -0.00000000000E+00 -0.74505805969E-08  0.93827000000E+00  0.93827000000E+00 0. -1.
     999902    2    1    2    0    0 -0.12330544750E-01  0.20122663636E-01 -0.15786574401E-02  0.10202771760E+01  0.10200029704E+01 0.  0.
     999903    2    3    3    0    0 -0.85723912934E-01  0.29723519797E-01  0.93601301479E-01  0.13205536385E+00  0.21103047293E-01 0.  0.
         14    1    1    2    0    0  0.12330544750E-01 -0.20122663636E-01  0.15786574401E-02  0.23652824038E-01  0.00000000000E+00 0.  1.
     999901    1    3    3    0    0  0.73393368184E-01 -0.96008561606E-02 -0.95179958919E-01  0.88822181211E+00  0.88000000000E+00 0. -1.
        -11    1    4    4    0    0 -0.38224313109E-01  0.28130780319E-02  0.34120565459E-01  0.51317498273E-01  0.51100000000E-03 0.  1.
         11    1    4    4    0    0 -0.47499599825E-01  0.26910441765E-01  0.59480736019E-01  0.80737865577E-01  0.51100000000E-03 0. -1.
</event>
<event>
 8    1  0.1099921E+005  0.1043930E+01  0.7957747E-01            NaN
         13   -1    0    0    0    0  0.00000000000E+00  0.00000000000E+00  0.74505805969E-08  0.10566000000E+00  0.10566000000E+00 0.  1.
     999900   -1    0    0    0    0 -0.00000000000E+00 -0.00000000000E+00 -0.74505805969E-08  0.93827000000E+00  0.93827000000E+00 0.  1.
     999902    2    1    2    0    0 -0.22289837457E-01  0.64279981458E-03  0.79304763675E-02  0.10202626702E+01  0.10199881243E+01 0.  0.
     999903    2    3    3    0    0  0.93044739644E-01 -0.86083970337E-01  0.86481934694E-02  0.12850927800E+00  0.19289109842E-01 0.  0.
         14    1    1    2    0    0  0.22289837457E-01 -0.64279981458E-03 -0.79304763675E-02  0.23667329822E-01  0.00000000000E+00 0. -1.
     999901    1    3    3    0    0 -0.11533457710E+00  0.86726770151E-01 -0.71771710196E-03  0.89175339217E+00  0.88000000000E+00 0. -1.
        -11    1    4    4    0    0  0.45517824137E-01 -0.35062025268E-01 -0.41741263132E-02  0.57609915653E-01  0.51100000000E-03 0.  1.
         11    1    4    4    0    0  0.47526915507E-01 -0.51021945068E-01  0.12822319783E-01  0.70899362351E-01  0.51100000000E-03 0. -1.
</event>
<event>
 8    1  0.1099921E+005  0.1043930E+01  0.7957747E-01            NaN
         13   -1    0    0    0    0  0.00000000000E+00  0.00000000000E+00  0.74505805969E-08  0.10566000000E+00  0.10566000000E+00 0.  1.
     999900   -1    0    0    0    0 -0.00000000000E+00 -0.00000000000E+00 -0.74505805969E-08  0.93827000000E+00  0.93827000000E+00 0. -1.
     999902    2    1    2    0    0  0.64160221108E-03 -0.12718673870E-01  0.19573373699E-01  0.10205784845E+01  0.10203113004E+01 0.  0.
     999903    2    3    3    0    0 -0.48556086524E-01  0.63858276502E-01 -0.97931071857E-01  0.12811462717E+00  0.19679680985E-01 0.  0.
         14    1    1    2    0    0 -0.64160221108E-03  0.12718673870E-01 -0.19573373699E-01  0.23351515505E-01  0.00000000000E+00 0. -1.
     999901    1    3    3    0    0  0.49197688735E-01 -0.76576950372E-01  0.11750444556E+00  0.89246385732E+00  0.88000000000E+00 0.  1.
        -11    1    4    4    0    0 -0.27734708833E-01  0.23692207546E-01 -0.53074687173E-01  0.64402781865E-01  0.51100000000E-03 0.  1.
         11    1    4    4    0    0 -0.20821377690E-01  0.40166068955E-01 -0.44856384684E-01  0.63711845305E-01  0.51100000000E-03 0. -1.
</event>
<event>
 8    1  0.1099921E+005  0.1043930E+01  0.7957747E-01            NaN
         13   -1    0    0    0    0  0.00000000000E+00  0.00000000000E+00  0.74505805969E-08  0.10566000000E+00  0.10566000000E+00 0. -1.
     999900   -1    0    0    0    0 -0.00000000000E+00 -0.00000000000E+00 -0.74505805969E-08  0.93827000000E+00  0.93827000000E+00 0. -1.
     999902    2    1    2    0    0  0.18958718627E-01 -0.20320528737E-01 -0.71082129069E-02  0.10152440524E+01  0.10148387075E+01 0.  0.
     999903    2    3    3    0    0  0.55362961894E-01 -0.10435399982E+00  0.47585211475E-01  0.12880270415E+00  0.19260566348E-01 0.  0.
         14    1    1    2    0    0 -0.18958718627E-01  0.20320528737E-01  0.71082129069E-02  0.28685947620E-01  0.00000000000E+00 0. -1.
     999901    1    3    3    0    0 -0.36404243268E-01  0.84033471082E-01 -0.54693424382E-01  0.88644134823E+00  0.88000000000E+00 0.  1.
        -11    1    4    4    0    0  0.25135092180E-01 -0.46537122465E-01  0.11084666828E-01  0.54042645992E-01  0.51100000000E-03 0. -1.
         11    1    4    4    0    0  0.30227869715E-01 -0.57816877354E-01  0.36500544647E-01  0.74760058153E-01  0.51100000000E-03 0.  1.
</event>
<event>
 8    1  0.1099921E+005  0.1043930E+01  0.7957747E-01            NaN
         13   -1    0    0    0    0  0.00000000000E+00  0.00000000000E+00  0.74505805969E-08  0.10566000000E+00  0.10566000000E+00 0. -1.
     999900   -1    0    0    0    0 -0.00000000000E+00 -0.00000000000E+00 -0.74505805969E-08  0.93827000000E+00  0.93827000000E+00 0. -1.
     999902    2    1    2    0    0 -0.39287224160E-03  0.15297269634E-01  0.18004698879E-01  0.10203009926E+01  0.10200273455E+01 0.  0.
     999903    2    3    3    0    0  0.44780939100E-01 -0.48154611705E-01  0.11265827782E+00  0.13180444539E+00  0.18876576204E-01 0.  0.
         14    1    1    2    0    0  0.39287224160E-03 -0.15297269634E-01 -0.18004698879E-01  0.23629007355E-01  0.00000000000E+00 0.  1.
     999901    1    3    3    0    0 -0.45173811342E-01  0.63451881339E-01 -0.94653578937E-01  0.88849654725E+00  0.88000000000E+00 0.  1.
        -11    1    4    4    0    0  0.28008647436E-01 -0.27816552360E-01  0.49158280429E-01  0.63047938682E-01  0.51100000000E-03 0.  1.
         11    1    4    4    0    0  0.16772291665E-01 -0.20338059345E-01  0.63499997387E-01  0.68756506709E-01  0.51100000000E-03 0. -1.
</event>
<event>
 8    1  0.1099921E+005  0.1043930E+01  0.7957747E-01            NaN
         13   -1    0    0    0    0  0.00000000000E+00  0.00000000000E+00  0.74505805969E-08  0.10566000000E+00  0.10566000000E+00 0. -1.
     999900   -1    0    0    0    0 -0.00000000000E+00 -0.00000000000E+00 -0.74505805969E-08  0.93827000000E+00  0.93827000000E+00 0.  1.
     999902    2    1    2    0    0  0.11938087814E-01 -0.18701029938E-01 -0.77049333848E-02  0.10204435686E+01  0.10201732521E+01 0.  0.
     999903    2    3    3    0    0  0.76453771207E-01  0.28210267883E-01 -0.10164760431E+00  0.13185583028E+00  0.20315663246E-01 0.  0.
         14    1    1    2    0    0 -0.11938087814E-01  0.18701029938E-01  0.77049333848E-02  0.23486431399E-01  0.00000000000E+00 0.  1.
     999901    1    3    3    0    0 -0.64515683393E-01 -0.46911297821E-01  0.93942670921E-01  0.88858773832E+00  0.88000000000E+00 0. -1.
        -11    1    4    4    0    0  0.15574403144E-01 -0.23248689698E-02 -0.21957574848E-01  0.27025233824E-01  0.51100000000E-03 0.  1.
         11    1    4    4    0    0  0.60879368063E-01  0.30535136853E-01 -0.79690029458E-01  0.10483059646E+00  0.51100000000E-03 0. -1.
</event>
<event>
 8    1  0.1099921E+005  0.1043930E+01  0.7957747E-01            NaN
         13   -1    0    0    0    0  0.00000000000E+00  0.00000000000E+00  0.74505805969E-08  0.10566000000E+00  0.10566000000E+00 0. -1.
     999900   -1    0    0    0    0 -0.00000000000E+00 -0.00000000000E+00 -0.74505805969E-08  0.93827000000E+00  0.93827000000E+00 0.  1.
     999902    2    1    2    0    0 -0.23626274781E-01  0.13724155529E-02  0.83965411165E-03  0.10202490075E+01  0.10199741408E+01 0.  0.
     999903    2    3    3    0    0 -0.56876261734E-01  0.11113250353E+00 -0.36255380231E-01  0.13203232221E+00  0.23081139975E-01 0.  0.
         14    1    1    2    0    0  0.23626274781E-01 -0.13724155529E-02 -0.83965411165E-03  0.23680992451E-01  0.00000000000E+00 0. -1.
     999901    1    3    3    0    0  0.33249986954E-01 -0.10976008798E+00  0.37095034343E-01  0.88821668534E+00  0.88000000000E+00 0. -1.
        -11    1    4    4    0    0 -0.39117460455E-01  0.81863396568E-01 -0.36487068738E-01  0.97792426681E-01  0.51100000000E-03 0.  1.
         11    1    4    4    0    0 -0.17758801280E-01  0.29269106960E-01  0.23168850609E-03  0.34239895527E-01  0.51100000000E-03 0. -1.
</event>
<event>
 8    1  0.1099921E+005  0.1043930E+01  0.7957747E-01            NaN
         13   -1    0    0    0    0  0.00000000000E+00  0.00000000000E+00  0.74505805969E-08  0.10566000000E+00  0.10566000000E+00 0.  1.
     999900   -1    0    0    0    0 -0.00000000000E+00 -0.00000000000E+00 -0.74505805969E-08  0.93827000000E+00  0.93827000000E+00 0. -1.
     999902    2    1    2    0    0  0.30574561303E-02  0.20697783086E-01 -0.15348647034E-01  0.10179814504E+01  0.10176506798E+01 0.  0.
     999903    2    3    3    0    0 -0.10720525896E-01  0.82439860253E-01 -0.99691091055E-01  0.13168829077E+00  0.22186303316E-01 0.  0.
         14    1    1    2    0    0 -0.30574561303E-02 -0.20697783086E-01  0.15348647034E-01  0.25948549640E-01  0.00000000000E+00 0.  1.
     999901    1    3    3    0    0  0.13777982026E-01 -0.61742077168E-01  0.84342444021E-01  0.88629315960E+00  0.88000000000E+00 0.  1.
        -11    1    4    4    0    0 -0.14152132824E-01  0.34923482868E-01 -0.52540237775E-01  0.64658102551E-01  0.51100000000E-03 0.  1.
         11    1    4    4    0    0  0.34316069279E-02  0.47516377385E-01 -0.47150853280E-01  0.67030188214E-01  0.51100000000E-03 0. -1.
</event>
<event>
 8    1  0.1099921E+005  0.1043930E+01  0.7957747E-01            NaN
         13   -1    0    0    0    0  0.00000000000E+00  0.00000000000E+00  0.74505805969E-08  0.10566000000E+00  0.10566000000E+00 0.  1.
     999900   -1    0    0    0    0 -0.00000000000E+00 -0.00000000000E+00 -0.74505805969E-08  0.93827000000E+00  0.93827000000E+00 0.  1.
     999902    2    1    2    0    0 -0.25931197411E-01 -0.15783023566E-01  0.14090754283E-01  0.10104624009E+01  0.10099080074E+01 0.  0.
     999903    2    3    3    0    0 -0.11976641999E+00 -0.22738200243E-01 -0.17368678684E-01  0.12488737902E+00  0.20836634423E-01 0.  0.
         14    1    1    2    0    0  0.25931197411E-01  0.15783023566E-01 -0.14090754283E-01  0.33467599082E-01  0.00000000000E+00 0. -1.
     999901    1    3    3    0    0  0.93835222574E-01  0.69551766762E-02  0.31459432967E-01  0.88557502189E+00  0.88000000000E+00 0.  1.
        -11    1    4    4    0    0 -0.57881143993E-01 -0.17642769863E-01 -0.39955525636E-03  0.60513758136E-01  0.51100000000E-03 0.  1.
         11    1    4    4    0    0 -0.61885275992E-01 -0.50954303798E-02 -0.16969123427E-01  0.64373620888E-01  0.51100000000E-03 0. -1.
</event>
<event>
 8    1  0.1099921E+005  0.1043930E+01  0.7957747E-01            NaN
         13   -1    0    0    0    0  0.00000000000E+00  0.00000000000E+00  0.74505805969E-08  0.10566000000E+00  0.10566000000E+00 0.  1.
     999900   -1    0    0    0    0 -0.00000000000E+00 -0.00000000000E+00 -0.74505805969E-08  0.93827000000E+00  0.93827000000E+00 0.  1.
     999902    2    1    2    0    0  0.32734342184E-02 -0.34401144786E-03  0.24096679402E-01  0.10196095626E+01  0.10193194674E+01 0.  0.
     999903    2    3    3    0    0  0.11647860642E+00 -0.53978625955E-01 -0.73381113901E-02  0.13018265223E+00  0.20315443596E-01 0.  0.
         14    1    1    2    0    0 -0.32734342184E-02  0.34401144786E-03 -0.24096679402E-01  0.24320437366E-01  0.00000000000E+00 0. -1.
     999901    1    3    3    0    0 -0.11320517220E+00  0.53634614508E-01  0.31434790792E-01  0.88942691041E+00  0.88000000000E+00 0.  1.
        -11    1    4    4    0    0  0.56431887152E-01 -0.15903964851E-01  0.62530294583E-03  0.58635706786E-01  0.51100000000E-03 0.  1.
         11    1    4    4    0    0  0.60046719267E-01 -0.38074661104E-01 -0.79634143359E-02  0.71546945440E-01  0.51100000000E-03 0. -1.
</event>
<event>
 8    1  0.1099921E+005  0.1043930E+01  0.7957747E-01            NaN
         13   -1    0    0    0    0  0.00000000000E+00  0.00000000000E+00  0.74505805969E-08  0.10566000000E+00  0.10566000000E+00 0.  1.
     999900   -1    0    0    0    0 -0.00000000000E+00 -0.00000000000E+00 -0.74505805969E-08  0.93827000000E+00  0.93827000000E+00 0. -1.
     999902    2    1    2    0    0 -0.18379764146E-01  0.12402476935E-01  0.77707895400E-02  0.10204348445E+01  0.10201643247E+01 0.  0.
     999903    2    3    3    0    0  0.29080901051E-01  0.12625275310E+00 -0.10716567856E-01  0.13164005233E+00  0.20707536796E-01 0.  0.
         14    1    1    2    0    0  0.18379764146E-01 -0.12402476935E-01 -0.77707895400E-02  0.23495155549E-01  0.00000000000E+00 0. -1.
     999901    1    3    3    0    0 -0.47460665197E-01 -0.11385027616E+00  0.18487357396E-01  0.88879479212E+00  0.88000000000E+00 0. -1.
        -11    1    4    4    0    0  0.11781023198E-01  0.92517331910E-01 -0.65435654630E-02  0.93495072498E-01  0.51100000000E-03 0. -1.
         11    1    4    4    0    0  0.17299877853E-01  0.33735421185E-01 -0.41730023925E-02  0.38144979830E-01  0.51100000000E-03 0.  1.
</event>
<event>
 8    1  0.1099921E+005  0.1043930E+01  0.7957747E-01            NaN
         13   -1    0    0    0    0  0.00000000000E+00  0.00000000000E+00  0.74505805969E-08  0.10566000000E+00  0.10566000000E+00 0. -1.
     999900   -1    0    0    0    0 -0.00000000000E+00 -0.00000000000E+00 -0.74505805969E-08  0.93827000000E+00  0.93827000000E+00 0. -1.
     999902    2    1    2    0    0 -0.12286896427E-01 -0.62764135071E-03 -0.19775990034E-01  0.10206394109E+01  0.10203736353E+01 0.  0.
     999903    2    3    3    0    0  0.90991119733E-01 -0.76353429514E-01 -0.50991430648E-01  0.13082193113E+00  0.20125148377E-01 0.  0.
         14    1    1    2    0    0  0.12286896427E-01  0.62764135071E-03  0.19775990034E-01  0.23290589072E-01  0.00000000000E+00 0. -1.
     999901    1    3    3    0    0 -0.10327801616E+00  0.75725788163E-01  0.31215440614E-01  0.88981747979E+00  0.88000000000E+00 0.  1.
        -11    1    4    4    0    0  0.53447728040E-01 -0.40804915184E-01 -0.39027472468E-01  0.77750276296E-01  0.51100000000E-03 0. -1.
         11    1    4    4    0    0  0.37543391693E-01 -0.35548514331E-01 -0.11963958180E-01  0.53071654838E-01  0.51100000000E-03 0.  1.
</event>
<event>
 8    1  0.1099921E+005  0.1043930E+01  0.7957747E-01            NaN
         13   -1    0    0    0    0  0.00000000000E+00  0.00000000000E+00  0.74505805969E-08  0.10566000000E+00  0.10566000000E+00 0. -1.
     999900   -1    0    0    0    0 -0.00000000000E+00 -0.00000000000E+00 -0.74505805969E-08  0.93827000000E+00  0.93827000000E+00 0.  1.
     999902    2    1    2    0    0  0.18258368545E-01 -0.37960851948E-02  0.14849130521E-01  0.10200914815E+01  0.10198129023E+01 0.  0.
     999903    2    3    3    0    0  0.73828977917E-01  0.98554577988E-01 -0.39279334232E-01  0.13076946924E+00  0.19851074652E-01 0.  0.
         14    1    1    2    0    0 -0.18258368545E-01  0.37960851948E-02 -0.14849130521E-01  0.23838518452E-01  0.00000000000E+00 0.  1.
     999901    1    3    3    0    0 -0.55570609371E-01 -0.10235066318E+00  0.54128464753E-01  0.88932201231E+00  0.88000000000E+00 0. -1.
        -11    1    4    4    0    0  0.11231909727E-01  0.29195482834E-01 -0.89982430470E-02  0.32553978451E-01  0.51100000000E-03 0.  1.
         11    1    4    4    0    0  0.62597068190E-01  0.69359095154E-01 -0.30281091185E-01  0.98215490789E-01  0.51100000000E-03 0. -1.
</event>
<event>
 8    1  0.1099921E+005  0.1043930E+01  0.7957747E-01            NaN
         13   -1    0    0    0    0  0.00000000000E+00  0.00000000000E+00  0.74505805969E-08  0.10566000000E+00  0.10566000000E+00 0. -1.
     999900   -1    0    0    0    0 -0.00000000000E+00 -0.00000000000E+00 -0.74505805969E-08  0.93827000000E+00  0.93827000000E+00 0.  1.
     999902    2    1    2    0    0 -0.18586971900E-02 -0.26982832074E-01  0.66496332084E-02  0.10160777900E+01  0.10156959829E+01 0.  0.
     999903    2    3    3    0    0 -0.29518598418E-01  0.25640565072E-01 -0.11746133947E+00  0.12538265379E+00  0.19871018404E-01 0.  0.
         14    1    1    2    0    0  0.18586971900E-02  0.26982832074E-01 -0.66496332084E-02  0.27852210034E-01  0.00000000000E+00 0. -1.
     999901    1    3    3    0    0  0.27659901228E-01 -0.52623397146E-01  0.12411097268E+00  0.89069513617E+00  0.88000000000E+00 0.  1.
        -11    1    4    4    0    0 -0.85398086402E-02 -0.15835213031E-02 -0.34546655601E-01  0.35625389900E-01  0.51100000000E-03 0.  1.
         11    1    4    4    0    0 -0.20978789777E-01  0.27224086375E-01 -0.82914683869E-01  0.89757263893E-01  0.51100000000E-03 0. -1.
</event>
<event>
 8    1  0.1099921E+005  0.1043930E+01  0.7957747E-01            NaN
         13   -1    0    0    0    0  0.00000000000E+00  0.00000000000E+00  0.74505805969E-08  0.10566000000E+00  0.10566000000E+00 0. -1.
     999900   -1    0    0    0    0 -0.00000000000E+00 -0.00000000000E+00 -0.74505805969E-08  0.93827000000E+00  0.93827000000E+00 0.  1.
     999902    2    1    2    0    0 -0.75388939704E-02 -0.60289629619E-02  0.20701790021E-01  0.10210882088E+01  0.10208326908E+01 0.  0.
     999903    2    3    3    0    0 -0.45417046913E-01  0.12112113363E+00 -0.13425253242E-02  0.13087034028E+00  0.19804202313E-01 0.  0.
         14    1    1    2    0    0  0.75388939704E-02  0.60289629619E-02 -0.20701790021E-01  0.22841791233E-01  0.00000000000E+00 0.  1.
     999901    1    3    3    0    0  0.37878152942E-01 -0.12715009659E+00  0.22044315345E-01  0.89021786849E+00  0.88000000000E+00 0.  1.
        -11    1    4    4    0    0 -0.21786665723E-01  0.80082353772E-01  0.47012738740E-02  0.83127644535E-01  0.51100000000E-03 0.  1.
         11    1    4    4    0    0 -0.23630381190E-01  0.41038779856E-01 -0.60437991982E-02  0.47742695745E-01  0.51100000000E-03 0. -1.
</event>
<event>
 8    1  0.1099921E+005  0.1043930E+01  0.7957747E-01            NaN
         13   -1    0    0    0    0  0.00000000000E+00  0.00000000000E+00  0.74505805969E-08  0.10566000000E+00  0.10566000000E+00 0. -1.
     999900   -1    0    0    0    0 -0.00000000000E+00 -0.00000000000E+00 -0.74505805969E-08  0.93827000000E+00  0.93827000000E+00 0.  1.
     999902    2    1    2    0    0 -0.19242678313E-01 -0.13901595304E-01 -0.18875089100E-02  0.10201161866E+01  0.10198381913E+01 0.  0.
     999903    2    3    3    0    0  0.80246291101E-01  0.30176151481E-01  0.93301179058E-01  0.12831924268E+00  0.20264517633E-01 0.  0.
         14    1    1    2    0    0  0.19242678313E-01  0.13901595304E-01  0.18875089100E-02  0.23813813440E-01  0.00000000000E+00 0.  1.
     999901    1    3    3    0    0 -0.99488969414E-01 -0.44077746785E-01 -0.95188687968E-01  0.89179694388E+00  0.88000000000E+00 0.  1.
        -11    1    4    4    0    0  0.31946897599E-01  0.18625451262E-01  0.51508435870E-01  0.63410502188E-01  0.51100000000E-03 0.  1.
         11    1    4    4    0    0  0.48299393502E-01  0.11550700218E-01  0.41792743188E-01  0.64908740493E-01  0.51100000000E-03 0. -1.
</event>
<event>
 8    1  0.1099921E+005  0.1043930E+01  0.7957747E-01            NaN
         13   -1    0    0    0    0  0.00000000000E+00  0.00000000000E+00  0.74505805969E-08  0.10566000000E+00  0.10566000000E+00 0.  1.
     999900   -1    0    0    0    0 -0.00000000000E+00 -0.00000000000E+00 -0.74505805969E-08  0.93827000000E+00  0.93827000000E+00 0.  1.
     999902    2    1    2    0    0 -0.12098856449E-01 -0.11626460975E-01  0.16436569225E-01  0.10204413276E+01  0.10201709589E+01 0.  0.
     999903    2    3    3    0    0 -0.10648337065E+00 -0.76802614945E-01  0.57022721929E-02  0.13293268389E+00  0.20030792531E-01 0.  0.
         14    1    1    2    0    0  0.12098856449E-01  0.11626460975E-01 -0.16436569225E-01  0.23488672378E-01  0.00000000000E+00 0. -1.
     999901    1    3    3    0    0  0.94384514206E-01  0.65176153970E-01  0.10734297032E-01  0.88750864373E+00  0.88000000000E+00 0. -1.
        -11    1    4    4    0    0 -0.79956874776E-01 -0.63727979003E-01 -0.23615662101E-02  0.10227509593E+00  0.51100000000E-03 0.  1.
         11    1    4    4    0    0 -0.26526495878E-01 -0.13074635943E-01  0.80638384030E-02  0.30657587958E-01  0.51100000000E-03 0. -1.
</event>
<event>
 8    1  0.1099921E+005  0.1043930E+01  0.7957747E-01            NaN
         13   -1    0    0    0    0  0.00000000000E+00  0.00000000000E+00  0.74505805969E-08  0.10566000000E+00  0.10566000000E+00 0. -1.
     999900   -1    0    0    0    0 -0.00000000000E+00 -0.00000000000E+00 -0.74505805969E-08  0.93827000000E+00  0.93827000000E+00 0.  1.
     999902    2    1    2    0    0 -0.41150080921E-02  0.18201061770E-01  0.14715074640E-01  0.10201656283E+01  0.10198887997E+01 0.  0.
     999903    2    3    3    0    0  0.18638834518E-01  0.12150589856E+00 -0.43107159462E-01  0.13194660270E+00  0.20990217529E-01 0.  0.
         14    1    1    2    0    0  0.41150080921E-02 -0.18201061770E-01 -0.14715074640E-01  0.23764371710E-01  0.00000000000E+00 0. -1.
     999901    1    3    3    0    0 -0.22753842610E-01 -0.10330483679E+00  0.57822234101E-01  0.88821902559E+00  0.88000000000E+00 0. -1.
        -11    1    4    4    0    0  0.33786105201E-02  0.10442527751E-01 -0.10488057294E-01  0.15189531318E-01  0.51100000000E-03 0. -1.
         11    1    4    4    0    0  0.15260223998E-01  0.11106337081E+00 -0.32619102168E-01  0.11675707138E+00  0.51100000000E-03 0.  1.
</event>
<event>
 8    1  0.1099921E+005  0.1043930E+01  0.7957747E-01            NaN
         13   -1    0    0    0    0  0.00000000000E+00  0.00000000000E+00  0.74505805969E-08  0.10566000000E+00  0.10566000000E+00 0. -1.
     999900   -1    0    0    0    0 -0.00000000000E+00 -0.00000000000E+00 -0.74505805969E-08  0.93827000000E+00  0.93827000000E+00 0. -1.
     999902    2    1    2    0    0  0.23843908689E-02 -0.21482740846E-01  0.79591185737E-02  0.10208965234E+01  0.10206366496E+01 0.  0.
     999903    2    3    3    0    0  0.87421341080E-01 -0.64876722902E-01  0.74414559818E-01  0.13324194746E+00  0.19089520682E-01 0.  0.
         14    1    1    2    0    0 -0.23843908689E-02  0.21482740846E-01 -0.79591185737E-02  0.23033476562E-01  0.00000000000E+00 0. -1.
     999901    1    3    3    0    0 -0.85036950211E-01  0.43393982056E-01 -0.66455441244E-01  0.88765457598E+00  0.88000000000E+00 0.  1.
        -11    1    4    4    0    0  0.24967578655E-01 -0.20928767066E-01  0.12390830628E-01  0.34859533552E-01  0.51100000000E-03 0. -1.
         11    1    4    4    0    0  0.62453762425E-01 -0.43947955835E-01  0.62023729190E-01  0.98382413910E-01  0.51100000000E-03 0.  1.
</event>
<event>
 8    1  0.1099921E+005  0.1043930E+01  0.7957747E-01            NaN
         13   -1    0    0    0    0  0.00000000000E+00  0.00000000000E+00  0.74505805969E-08  0.10566000000E+00  0.10566000000E+00 0. -1.
     999900   -1    0    0    0    0 -0.00000000000E+00 -0.00000000000E+00 -0.74505805969E-08  0.93827000000E+00  0.93827000000E+00 0. -1.
     999902    2    1    2    0    0 -0.46872843780E-02 -0.12148696052E-01 -0.19223893583E-01  0.10207110522E+01  0.10204469279E+01 0.  0.
     999903    2    3    3    0    0  0.41457580398E-01  0.10639396526E+00  0.55820589089E-01  0.12840315388E+00  0.18248971052E-01 0.  0.
         14    1    1    2    0    0  0.46872843780E-02  0.12148696052E-01  0.19223893583E-01  0.23218947761E-01  0.00000000000E+00 0. -1.
     999901    1    3    3    0    0 -0.46144864776E-01 -0.11854266131E+00 -0.75044482672E-01  0.89230789836E+00  0.88000000000E+00 0. -1.
        -11    1    4    4    0    0  0.92046085083E-02  0.38630303789E-01  0.26932042248E-01  0.47985635447E-01  0.51100000000E-03 0.  1.
         11    1    4    4    0    0  0.32252971890E-01  0.67763661468E-01  0.28888546841E-01  0.80417518432E-01  0.51100000000E-03 0. -1.
</event>
<event>
 8    1  0.1099921E+005  0.1043930E+01  0.7957747E-01            NaN
         13   -1    0    0    0    0  0.00000000000E+00  0.00000000000E+00  0.74505805969E-08  0.10566000000E+00  0.10566000000E+00 0.  1.
     999900   -1    0    0    0    0 -0.00000000000E+00 -0.00000000000E+00 -0.74505805969E-08  0.93827000000E+00  0.93827000000E+00 0. -1.
     999902    2    1    2    0    0 -0.21396111632E-01  0.10517109920E-01  0.89740246217E-02  0.10184557716E+01  0.10181371334E+01 0.  0.
     999903    2    3    3    0    0 -0.91369051725E-01 -0.88029302000E-01 -0.18582148613E-01  0.12976744023E+00  0.19920609267E-01 0.  0.
         14    1    1    2    0    0  0.21396111632E-01 -0.10517109920E-01 -0.89740246217E-02  0.25474228388E-01  0.00000000000E+00 0. -1.
     999901    1    3    3    0    0  0.69972940093E-01  0.98546411920E-01  0.27556173235E-01  0.88868833138E+00  0.88000000000E+00 0. -1.
        -11    1    4    4    0    0 -0.53374113687E-01 -0.40168979786E-01 -0.15511136113E-01  0.68579876155E-01  0.51100000000E-03 0. -1.
         11    1    4    4    0    0 -0.37994938038E-01 -0.47860322214E-01 -0.30710125007E-02  0.61187564077E-01  0.51100000000E-03 0.  1.
</event>
<event>
 8    1  0.1099921E+005  0.1043930E+01  0.7957747E-01            NaN
         13   -1    0    0    0    0  0.00000000000E+00  0.00000000000E+00  0.74505805969E-08  0.10566000000E+00  0.10566000000E+00 0.  1.
     999900   -1    0    0    0    0 -0.00000000000E+00 -0.00000000000E+00 -0.74505805969E-08  0.93827000000E+00  0.93827000000E+00 0. -1.
     999902    2    1    2    0    0 -0.58641803412E-02 -0.61177229781E-02 -0.21647907224E-01  0.10206824833E+01  0.10204177011E+01 0.  0.
     999903    2    3    3    0    0  0.71237000228E-01  0.58992825741E-01  0.87374412363E-01  0.12823089259E+00  0.15937697057E-01 0.  0.
         14    1    1    2    0    0  0.58641803412E-02  0.61177229781E-02  0.21647907224E-01  0.23247516699E-01  0.00000000000E+00 0.  1.
     999901    1    3    3    0    0 -0.77101180569E-01 -0.65110548719E-01 -0.10902231959E+00  0.89245159071E+00  0.88000000000E+00 0. -1.
        -11    1    4    4    0    0  0.33083328781E-01  0.36258902787E-01  0.51401816065E-01  0.71074766903E-01  0.51100000000E-03 0.  1.
         11    1    4    4    0    0  0.38153671447E-01  0.22733922954E-01  0.35972596298E-01  0.57156125684E-01  0.51100000000E-03 0. -1.
</event>
<event>
 8    1  0.1099921E+005  0.1043930E+01  0.7957747E-01            NaN
         13   -1    0    0    0    0  0.00000000000E+00  0.00000000000E+00  0.74505805969E-08  0.10566000000E+00  0.10566000000E+00 0. -1.
     999900   -1    0    0    0    0 -0.00000000000E+00 -0.00000000000E+00 -0.74505805969E-08  0.93827000000E+00  0.93827000000E+00 0.  1.
     999902    2    1    2    0    0 -0.18226430803E-01  0.11790011349E-01  0.42582450010E-02  0.10218089739E+01  0.10215694980E+01 0.  0.
     999903    2    3    3    0    0 -0.50631972748E-01  0.12068071525E+00  0.21148545755E-01  0.13434484116E+00  0.21767950333E-01 0.  0.
         14    1    1    2    0    0  0.18226430803E-01 -0.11790011349E-01 -0.42582450010E-02  0.22121026149E-01  0.00000000000E+00 0. -1.
     999901    1    3    3    0    0  0.32405541945E-01 -0.10889070390E+00 -0.16890300754E-01  0.88746413269E+00  0.88000000000E+00 0.  1.
        -11    1    4    4    0    0 -0.15123777247E-01  0.39822775049E-01  0.17205853679E-01  0.45944363883E-01  0.51100000000E-03 0.  1.
         11    1    4    4    0    0 -0.35508195501E-01  0.80857940204E-01  0.39426920759E-02  0.88400477281E-01  0.51100000000E-03 0. -1.
</event>
<event>
 8    1  0.1099921E+005  0.1043930E+01  0.7957747E-01            NaN
         13   -1    0    0    0    0  0.00000000000E+00  0.00000000000E+00  0.74505805969E-08  0.10566000000E+00  0.10566000000E+00 0.  1.
     999900   -1    0    0    0    0 -0.00000000000E+00 -0.00000000000E+00 -0.74505805969E-08  0.93827000000E+00  0.93827000000E+00 0. -1.
     999902    2    1    2    0    0  0.13483306832E-01 -0.11031339848E-02  0.19057751324E-01  0.10205587708E+01  0.10202911302E+01 0.  0.
     999903    2    3    3    0    0  0.17867764079E-01 -0.20126262226E-01  0.12922813410E+00  0.13347443655E+00  0.19778552652E-01 0.  0.
         14    1    1    2    0    0 -0.13483306832E-01  0.11031339848E-02 -0.19057751324E-01  0.23371229177E-01  0.00000000000E+00 0. -1.
     999901    1    3    3    0    0 -0.43844572474E-02  0.19023128241E-01 -0.11017038277E+00  0.88708433427E+00  0.88000000000E+00 0. -1.
        -11    1    4    4    0    0  0.11820267539E-02 -0.14259750801E-01  0.39416925973E-01  0.41936772102E-01  0.51100000000E-03 0. -1.
         11    1    4    4    0    0  0.16685737326E-01 -0.58665114241E-02  0.89811208126E-01  0.91537664447E-01  0.51100000000E-03 0.  1.
</event>
<event>
 8    1  0.1099921E+005  0.1043930E+01  0.7957747E-01            NaN
         13   -1    0    0    0    0  0.00000000000E+00  0.00000000000E+00  0.74505805969E-08  0.10566000000E+00  0.10566000000E+00 0.  1.
     999900   -1    0    0    0    0 -0.00000000000E+00 -0.00000000000E+00 -0.74505805969E-08  0.93827000000E+00  0.93827000000E+00 0. -1.
     999902    2    1    2    0    0 -0.57202769190E-02  0.82674020748E-02 -0.21493347930E-01  0.10202016307E+01  0.10199256501E+01 0.  0.
     999903    2    3    3    0    0  0.10754924497E+00 -0.20872055452E-01  0.64344736500E-01  0.12832312477E+00  0.18002678801E-01 0.  0.
         14    1    1    2    0    0  0.57202769190E-02 -0.82674020748E-02  0.21493347930E-01  0.23728369315E-01  0.00000000000E+00 0.  1.
     999901    1    3    3    0    0 -0.11326952189E+00  0.29139457526E-01 -0.85838084430E-01  0.89187850591E+00  0.88000000000E+00 0. -1.
        -11    1    4    4    0    0  0.68348856561E-01 -0.20257882552E-01  0.47402201918E-01  0.85610617720E-01  0.51100000000E-03 0. -1.
         11    1    4    4    0    0  0.39200388406E-01 -0.61417289940E-03  0.16942534581E-01  0.42712507051E-01  0.51100000000E-03 0.  1.
</event>
<event>
 8    1  0.1099921E+005  0.1043930E+01  0.7957747E-01            NaN
         13   -1    0    0    0    0  0.00000000000E+00  0.00000000000E+00  0.74505805969E-08  0.10566000000E+00  0.10566000000E+00 0.  1.
     999900   -1    0    0    0    0 -0.00000000000E+00 -0.00000000000E+00 -0.74505805969E-08  0.93827000000E+00  0.93827000000E+00 0.  1.
     999902    2    1    2    0    0  0.11284511283E-01 -0.17362024490E-01 -0.13200684933E-01  0.10193731645E+01  0.10190773328E+01 0.  0.
     999903    2    3    3    0    0  0.82437564497E-01  0.94222937799E-01  0.22986934600E-01  0.12874220575E+00  0.19293582671E-01 0.  0.
         14    1    1    2    0    0 -0.11284511283E-01  0.17362024490E-01  0.13200684933E-01  0.24556835545E-01  0.00000000000E+00 0.  1.
     999901    1    3    3    0    0 -0.71153053214E-01 -0.11158496229E+00 -0.36187619533E-01  0.89063095870E+00  0.88000000000E+00 0. -1.
        -11    1    4    4    0    0  0.56253014689E-01  0.76550440664E-01  0.19234092607E-01  0.96925657423E-01  0.51100000000E-03 0. -1.
         11    1    4    4    0    0  0.26184549808E-01  0.17672497135E-01  0.37528419930E-02  0.31816548330E-01  0.51100000000E-03 0.  1.
</event>
<event>
 8    1  0.1099921E+005  0.1043930E+01  0.7957747E-01            NaN
         13   -1    0    0    0    0  0.00000000000E+00  0.00000000000E+00  0.74505805969E-08  0.10566000000E+00  0.10566000000E+00 0.  1.
     999900   -1    0    0    0    0 -0.00000000000E+00 -0.00000000000E+00 -0.74505805969E-08  0.93827000000E+00  0.93827000000E+00 0. -1.
     999902    2    1    2    0    0  0.14546326165E-01 -0.19410471743E-01 -0.26897119404E-02  0.10195251528E+01  0.10192330158E+01 0.  0.
     999903    2    3    3    0    0  0.12800326835E+00  0.99638494925E-02  0.21015639591E-01  0.13143885506E+00  0.18718987855E-01 0.  0.
         14    1    1    2    0    0 -0.14546326165E-01  0.19410471743E-01  0.26897119404E-02  0.24404847234E-01  0.00000000000E+00 0. -1.
     999901    1    3    3    0    0 -0.11345694219E+00 -0.29374321236E-01 -0.23705351532E-01  0.88808629770E+00  0.88000000000E+00 0. -1.
        -11    1    4    4    0    0  0.85518557195E-01 -0.22021881543E-02  0.14355704830E-01  0.86744571240E-01  0.51100000000E-03 0. -1.
         11    1    4    4    0    0  0.42484711160E-01  0.12166037647E-01  0.66599347612E-02  0.44694283822E-01  0.51100000000E-03 0.  1.
</event>
<event>
 8    1  0.1099921E+005  0.1043930E+01  0.7957747E-01            NaN
         13   -1    0    0    0    0  0.00000000000E+00  0.00000000000E+00  0.74505805969E-08  0.10566000000E+00  0.10566000000E+00 0. -1.
     999900   -1    0    0    0    0 -0.00000000000E+00 -0.00000000000E+00 -0.74505805969E-08  0.93827000000E+00  0.93827000000E+00 0.  1.
     999902    2    1    2    0    0  0.12461481305E-01 -0.37118002916E-02 -0.18933161504E-01  0.10209619661E+01  0.10207035836E+01 0.  0.
     999903    2    3    3    0    0  0.50888570966E-01  0.79384003299E-01  0.87034110907E-01  0.12988923245E+00  0.20119880970E-01 0.  0.
         14    1    1    2    0    0 -0.12461481305E-01  0.37118002916E-02  0.18933161504E-01  0.22968033922E-01  0.00000000000E+00 0. -1.
     999901    1    3    3    0    0 -0.38427089661E-01 -0.83095803590E-01 -0.10596727241E+00  0.89107273363E+00  0.88000000000E+00 0.  1.
        -11    1    4    4    0    0  0.10141610839E-01  0.31682764983E-01  0.24580607406E-01  0.41365653008E-01  0.51100000000E-03 0. -1.
         11    1    4    4    0    0  0.40746960127E-01  0.47701238315E-01  0.62453503501E-01  0.88523579441E-01  0.51100000000E-03 0.  1.
</event>
<event>
 8    1  0.1099921E+005  0.1043930E+01  0.7957747E-01            NaN
         13   -1    0    0    0    0  0.00000000000E+00  0.00000000000E+00  0.74505805969E-08  0.10566000000E+00  0.10566000000E+00 0. -1.
     999900   -1    0    0    0    0 -0.00000000000E+00 -0.00000000000E+00 -0.74505805969E-08  0.93827000000E+00  0.93827000000E+00 0. -1.
     999902    2    1    2    0    0 -0.66568544548E-02  0.23515808827E-01 -0.17506159186E-02  0.10194275178E+01  0.10191330102E+01 0.  0.
     999903    2    3    3    0    0  0.11215247839E+00 -0.20694575960E-01  0.55746595391E-01  0.12848636097E+00  0.19864998706E-01 0.  0.
         14    1    1    2    0    0  0.66568544548E-02 -0.23515808827E-01  0.17506159186E-02  0.24502482163E-01  0.00000000000E+00 0.  1.
     999901    1    3    3    0    0 -0.11880933285E+00  0.44210384787E-01 -0.57497211310E-01  0.89094115687E+00  0.88000000000E+00 0. -1.
        -11    1    4    4    0    0  0.25752708179E-01 -0.12599834796E-02  0.21355797263E-01  0.33483141051E-01  0.51100000000E-03 0.  1.
         11    1    4    4    0    0  0.86399770213E-01 -0.19434592480E-01  0.34390798128E-01  0.95003219917E-01  0.51100000000E-03 0. -1.
</event>
<event>
 8    1  0.1099921E+005  0.1043930E+01  0.7957747E-01            NaN
         13   -1    0    0    0    0  0.00000000000E+00  0.00000000000E+00  0.74505805969E-08  0.10566000000E+00  0.10566000000E+00 0.  1.
     999900   -1    0    0    0    0 -0.00000000000E+00 -0.00000000000E+00 -0.74505805969E-08  0.93827000000E+00  0.93827000000E+00 0.  1.
     999902    2    1    2    0    0 -0.11071004652E-01  0.11165651943E-01 -0.17140424570E-01  0.10206698822E+01  0.10204048095E+01 0.  0.
     999903    2    3    3    0    0  0.35375948170E-01 -0.93822808598E-01 -0.81720584022E-01  0.13086625592E+00  0.19837992958E-01 0.  0.
         14    1    1    2    0    0  0.11071004652E-01 -0.11165651943E-01  0.17140424570E-01  0.23260117836E-01  0.00000000000E+00 0. -1.
     999901    1    3    3    0    0 -0.46446952822E-01  0.10498846054E+00  0.64580159453E-01  0.88980362624E+00  0.88000000000E+00 0. -1.
        -11    1    4    4    0    0  0.22845451400E-01 -0.78933953182E-01 -0.60327319067E-01  0.10194179791E+00  0.51100000000E-03 0.  1.
         11    1    4    4    0    0  0.12530496770E-01 -0.14888855417E-01 -0.21393264956E-01  0.28924458014E-01  0.51100000000E-03 0. -1.
</event>
<event>
 8    1  0.1099921E+005  0.1043930E+01  0.7957747E-01            NaN
         13   -1    0    0    0    0  0.00000000000E+00  0.00000000000E+00  0.74505805969E-08  0.10566000000E+00  0.10566000000E+00 0. -1.
     999900   -1    0    0    0    0 -0.00000000000E+00 -0.00000000000E+00 -0.74505805969E-08  0.93827000000E+00  0.93827000000E+00 0.  1.
     999902    2    1    2    0    0  0.89282721898E-02  0.19342100132E-01 -0.68350141949E-02  0.10215570632E+01  0.10213120410E+01 0.  0.
     999903    2    3    3    0    0 -0.12627458010E+00 -0.89643379282E-02  0.23039947666E-01  0.13028068685E+00  0.20410517953E-01 0.  0.
         14    1    1    2    0    0 -0.89282721898E-02 -0.19342100132E-01  0.68350141949E-02  0.22372936796E-01  0.00000000000E+00 0.  1.
     999901    1    3    3    0    0  0.13520285229E+00  0.28306438060E-01 -0.29874961860E-01  0.89127637636E+00  0.88000000000E+00 0.  1.
        -11    1    4    4    0    0 -0.10128725106E+00 -0.38908550695E-02  0.10629759231E-01  0.10191908008E+00  0.51100000000E-03 0.  1.
         11    1    4    4    0    0 -0.24987329037E-01 -0.50734828587E-02  0.12410188435E-01  0.28361606772E-01  0.51100000000E-03 0. -1.
</event>
<event>
 8    1  0.1099921E+005  0.1043930E+01  0.7957747E-01            NaN
         13   -1    0    0    0    0  0.00000000000E+00  0.00000000000E+00  0.74505805969E-08  0.10566000000E+00  0.10566000000E+00 0. -1.
     999900   -1    0    0    0    0 -0.00000000000E+00 -0.00000000000E+00 -0.74505805969E-08  0.93827000000E+00  0.93827000000E+00 0. -1.
     999902    2    1    2    0    0 -0.21468924145E-02  0.17453465076E-01 -0.11142191233E-01  0.10231121947E+01  0.10229003774E+01 0.  0.
     999903    2    3    3    0    0  0.79826626984E-01  0.26358857486E-01 -0.10306085870E+00  0.13449078755E+00  0.19978778617E-01 0.  0.
         14    1    1    2    0    0  0.21468924145E-02 -0.17453465076E-01  0.11142191233E-01  0.20817805256E-01  0.00000000000E+00 0.  1.
     999901    1    3    3    0    0 -0.81973519398E-01 -0.89053924105E-02  0.91918667471E-01  0.88862140720E+00  0.88000000000E+00 0.  1.
        -11    1    4    4    0    0  0.61318338824E-01  0.11205624439E-01 -0.77895680608E-01  0.99767243490E-01  0.51100000000E-03 0.  1.
         11    1    4    4    0    0  0.18508288160E-01  0.15153233047E-01 -0.25165178096E-01  0.34723544059E-01  0.51100000000E-03 0. -1.
</event>
<event>
 8    1  0.1099921E+005  0.1043930E+01  0.7957747E-01            NaN
         13   -1    0    0    0    0  0.00000000000E+00  0.00000000000E+00  0.74505805969E-08  0.10566000000E+00  0.10566000000E+00 0.  1.
     999900   -1    0    0    0    0 -0.00000000000E+00 -0.00000000000E+00 -0.74505805969E-08  0.93827000000E+00  0.93827000000E+00 0.  1.
     999902    2    1    2    0    0 -0.23351760523E-01  0.27872588733E-02  0.41478828447E-02  0.10200494962E+01  0.10197699231E+01 0.  0.
     999903    2    3    3    0    0  0.57918554283E-01  0.10344171698E-01 -0.11271269428E+00  0.12857971794E+00  0.19158068626E-01 0.  0.
         14    1    1    2    0    0  0.23351760523E-01 -0.27872588733E-02 -0.41478828447E-02  0.23880503840E-01  0.00000000000E+00 0. -1.
     999901    1    3    3    0    0 -0.81270314806E-01 -0.75569128249E-02  0.11686057713E+00  0.89146977822E+00  0.88000000000E+00 0. -1.
        -11    1    4    4    0    0  0.22918421062E-01  0.12799905454E-01 -0.56691029992E-01  0.62475800164E-01  0.51100000000E-03 0. -1.
         11    1    4    4    0    0  0.35000133221E-01 -0.24557337558E-02 -0.56021664292E-01  0.66103917772E-01  0.51100000000E-03 0.  1.
</event>
<event>
 8    1  0.1099921E+005  0.1043930E+01  0.7957747E-01            NaN
         13   -1    0    0    0    0  0.00000000000E+00  0.00000000000E+00  0.74505805969E-08  0.10566000000E+00  0.10566000000E+00 0.  1.
     999900   -1    0    0    0    0 -0.00000000000E+00 -0.00000000000E+00 -0.74505805969E-08  0.93827000000E+00  0.93827000000E+00 0. -1.
     999902    2    1    2    0    0  0.23363036102E-01  0.37490299645E-02  0.35444834623E-02  0.10200040717E+01  0.10197234215E+01 0.  0.
     999903    2    3    3    0    0 -0.85717495064E-01 -0.51109310204E-01  0.79794795072E-01  0.12830787356E+00  0.11664070833E-01 0.  0.
         14    1    1    2    0    0 -0.23363036102E-01 -0.37490299645E-02 -0.35444834623E-02  0.23925928291E-01  0.00000000000E+00 0. -1.
     999901    1    3    3    0    0  0.10908053117E+00  0.54858340168E-01 -0.76250311610E-01  0.89169619814E+00  0.88000000000E+00 0.  1.
        -11    1    4    4    0    0 -0.53542698417E-01 -0.37688810262E-01  0.55178659899E-01  0.85628339946E-01  0.51100000000E-03 0. -1.
         11    1    4    4    0    0 -0.32174796647E-01 -0.13420499942E-01  0.24616135173E-01  0.42679533618E-01  0.51100000000E-03 0.  1.
</event>
<event>
 8    1  0.1099921E+005  0.1043930E+01  0.7957747E-01            NaN
         13   -1    0    0    0    0  0.00000000000E+00  0.00000000000E+00  0.74505805969E-08  0.10566000000E+00  0.10566000000E+00 0. -1.
     999900   -1    0    0    0    0 -0.00000000000E+00 -0.00000000000E+00 -0.74505805969E-08  0.93827000000E+00  0.93827000000E+00 0.  1.
     999902    2    1    2    0    0 -0.14017837408E-01 -0.14027437286E-01 -0.12012005963E-01  0.10207447234E+01  0.10204813734E+01 0.  0.
     999903    2    3    3    0    0  0.11618137348E+00 -0.39874705389E-01 -0.38936522501E-01  0.13038252445E+00  0.19885829739E-01 0.  0.
         14    1    1    2    0    0  0.14017837408E-01  0.14027437286E-01  0.12012005963E-01  0.23185276570E-01  0.00000000000E+00 0. -1.
     999901    1    3    3    0    0 -0.13019921088E+00  0.25847268104E-01  0.26924516538E-01  0.89036219898E+00  0.88000000000E+00 0. -1.
        -11    1    4    4    0    0  0.10730366197E+00 -0.40075985126E-01 -0.40209998463E-01  0.12139713981E+00  0.51100000000E-03 0.  1.
         11    1    4    4    0    0  0.88777115073E-02  0.20127973695E-03  0.12734759622E-02  0.89853846421E-02  0.51100000000E-03 0. -1.
</event>
<event>
 8    1  0.1099921E+005  0.1043930E+01  0.7957747E-01            NaN
         13   -1    0    0    0    0  0.00000000000E+00  0.00000000000E+00  0.74505805969E-08  0.10566000000E+00  0.10566000000E+00 0.  1.
     999900   -1    0    0    0    0 -0.00000000000E+00 -0.00000000000E+00 -0.74505805969E-08  0.93827000000E+00  0.93827000000E+00 0. -1.
     999902    2    1    2    0    0  0.13515378271E-01  0.67984548191E-02  0.17046239982E-01  0.10211383626E+01  0.10208839781E+01 0.  0.
     999903    2    3    3    0    0  0.65349728490E-01 -0.94745210244E-01 -0.58193392167E-01  0.13059980756E+00  0.20557163324E-01 0.  0.
         14    1    1    2    0    0 -0.13515378271E-01 -0.67984548191E-02 -0.17046239982E-01  0.22791637398E-01  0.00000000000E+00 0. -1.
     999901    1    3    3    0    0 -0.51834350220E-01  0.10154366506E+00  0.75239632150E-01  0.89053855505E+00  0.88000000000E+00 0. -1.
        -11    1    4    4    0    0  0.21461268497E-01 -0.24320604581E-01 -0.72903531397E-02  0.33248883028E-01  0.51100000000E-03 0. -1.
         11    1    4    4    0    0  0.43888459993E-01 -0.70424605663E-01 -0.50903039027E-01  0.97350924529E-01  0.51100000000E-03 0.  1.
</event>
<event>
 8    1  0.1099921E+005  0.1043930E+01  0.7957747E-01            NaN
         13   -1    0    0    0    0  0.00000000000E+00  0.00000000000E+00  0.74505805969E-08  0.10566000000E+00  0.10566000000E+00 0.  1.
     999900   -1    0    0    0    0 -0.00000000000E+00 -0.00000000000E+00 -0.74505805969E-08  0.93827000000E+00  0.93827000000E+00 0. -1.
     999902    2    1    2    0    0  0.17092989317E-03  0.33325423801E-02  0.23678759216E-01  0.10200172692E+01  0.10197369322E+01 0.  0.
     999903    2    3    3    0    0 -0.80082930278E-01 -0.55373191075E-01  0.87291430354E-01  0.13213573593E+00  0.18989283418E-01 0.  0.
         14    1    1    2    0    0 -0.17092989317E-03 -0.33325423801E-02 -0.23678759216E-01  0.23912730788E-01  0.00000000000E+00 0. -1.
     999901    1    3    3    0    0  0.80253860172E-01  0.58705733455E-01 -0.63612671138E-01  0.88788153328E+00  0.88000000000E+00 0. -1.
        -11    1    4    4    0    0 -0.38250136258E-01 -0.16443447880E-01  0.42792939594E-01  0.59707258370E-01  0.51100000000E-03 0.  1.
         11    1    4    4    0    0 -0.41832794021E-01 -0.38929743195E-01  0.44498490760E-01  0.72428477561E-01  0.51100000000E-03 0. -1.
</event>
<event>
 8    1  0.1099921E+005  0.1043930E+01  0.7957747E-01            NaN
         13   -1    0    0    0    0  0.00000000000E+00  0.00000000000E+00  0.74505805969E-08  0.10566000000E+00  0.10566000000E+00 0.  1.
     999900   -1    0    0    0    0 -0.00000000000E+00 -0.00000000000E+00 -0.74505805969E-08  0.93827000000E+00  0.93827000000E+00 0. -1.
     999902    2    1    2    0    0 -0.21772355831E-01  0.71006693928E-02  0.31918479920E-02  0.10208076541E+01  0.10205457481E+01 0.  0.
     999903    2    3    3    0    0  0.35630351858E-01 -0.22953015638E-01  0.12179458862E+00  0.13049034839E+00  0.19936055447E-01 0.  0.
         14    1    1    2    0    0  0.21772355831E-01 -0.71006693928E-02 -0.31918479920E-02  0.23122345856E-01  0.00000000000E+00 0. -1.
     999901    1    3    3    0    0 -0.57402707689E-01  0.30053685031E-01 -0.11860274063E+00  0.89031730575E+00  0.88000000000E+00 0. -1.
        -11    1    4    4    0    0  0.80351562843E-02 -0.10693570266E-01  0.62849472307E-01  0.64259111975E-01  0.51100000000E-03 0.  1.
         11    1    4    4    0    0  0.27595195574E-01 -0.12259445372E-01  0.58945116311E-01  0.66231236419E-01  0.51100000000E-03 0. -1.
</event>
<event>
 8    1  0.1099921E+005  0.1043930E+01  0.7957747E-01            NaN
         13   -1    0    0    0    0  0.00000000000E+00  0.00000000000E+00  0.74505805969E-08  0.10566000000E+00  0.10566000000E+00 0.  1.
     999900   -1    0    0    0    0 -0.00000000000E+00 -0.00000000000E+00 -0.74505805969E-08  0.93827000000E+00  0.93827000000E+00 0. -1.
     999902    2    1    2    0    0 -0.81732204874E-02  0.21895819881E-01 -0.49604588026E-02  0.10200378546E+01  0.10197580057E+01 0.  0.
     999903    2    3    3    0    0  0.10476454932E+00 -0.66949594868E-01 -0.26957785738E-01  0.12811166370E+00  0.15100235665E-01 0.  0.
         14    1    1    2    0    0  0.81732204874E-02 -0.21895819881E-01  0.49604588026E-02  0.23892145424E-01  0.00000000000E+00 0.  1.
     999901    1    3    3    0    0 -0.11293776981E+00  0.88845414749E-01  0.21997326936E-01  0.89192619087E+00  0.88000000000E+00 0.  1.
        -11    1    4    4    0    0  0.66848739817E-01 -0.42864000588E-01 -0.24568796602E-01  0.83126189910E-01  0.51100000000E-03 0. -1.
         11    1    4    4    0    0  0.37915809506E-01 -0.24085594280E-01 -0.23889891366E-02  0.44985473794E-01  0.51100000000E-03 0.  1.
</event>
<event>
 8    1  0.1099921E+005  0.1043930E+01  0.7957747E-01            NaN
         13   -1    0    0    0    0  0.00000000000E+00  0.00000000000E+00  0.74505805969E-08  0.10566000000E+00  0.10566000000E+00 0.  1.
     999900   -1    0    0    0    0 -0.00000000000E+00 -0.00000000000E+00 -0.74505805969E-08  0.93827000000E+00  0.93827000000E+00 0.  1.
     999902    2    1    2    0    0 -0.12381514354E-01 -0.18362981754E-01 -0.10112352636E-01  0.10195833232E+01  0.10192925940E+01 0.  0.
     999903    2    3    3    0    0 -0.88061370556E-01  0.92701507033E-01  0.83685154901E-03  0.12931221482E+00  0.19302180967E-01 0.  0.
         14    1    1    2    0    0  0.12381514354E-01  0.18362981754E-01  0.10112352636E-01  0.24346676825E-01  0.00000000000E+00 0.  1.
     999901    1    3    3    0    0  0.75679856201E-01 -0.11106448879E+00 -0.10949204185E-01  0.89027110836E+00  0.88000000000E+00 0. -1.
        -11    1    4    4    0    0 -0.69158575228E-01  0.65809477682E-01  0.75257907376E-02  0.95763743283E-01  0.51100000000E-03 0.  1.
         11    1    4    4    0    0 -0.18902795328E-01  0.26892029351E-01 -0.66889391886E-02  0.33548471535E-01  0.51100000000E-03 0. -1.
</event>
<event>
 8    1  0.1099921E+005  0.1043930E+01  0.7957747E-01            NaN
         13   -1    0    0    0    0  0.00000000000E+00  0.00000000000E+00  0.74505805969E-08  0.10566000000E+00  0.10566000000E+00 0.  1.
     999900   -1    0    0    0    0 -0.00000000000E+00 -0.00000000000E+00 -0.74505805969E-08  0.93827000000E+00  0.93827000000E+00 0. -1.
     999902    2    1    2    0    0  0.18405136749E-01  0.12231085968E-02  0.98789795740E-02  0.10230053903E+01  0.10227913713E+01 0.  0.
     999903    2    3    3    0    0 -0.56467960541E-01  0.18033027225E-01  0.11733349206E+00  0.13315426438E+00  0.21191723035E-01 0.  0.
         14    1    1    2    0    0 -0.18405136749E-01 -0.12231085968E-02 -0.98789795740E-02  0.20924609693E-01  0.00000000000E+00 0. -1.
     999901    1    3    3    0    0  0.74873097290E-01 -0.16809918629E-01 -0.10745451248E+00  0.88985112593E+00  0.88000000000E+00 0. -1.
        -11    1    4    4    0    0 -0.32189640427E-01 -0.69118039983E-03  0.63581345243E-01  0.71270605898E-01  0.51100000000E-03 0.  1.
         11    1    4    4    0    0 -0.24278320114E-01  0.18724207625E-01  0.53752146815E-01  0.61883658481E-01  0.51100000000E-03 0. -1.
</event>
<event>
 8    1  0.1099921E+005  0.1043930E+01  0.7957747E-01            NaN
         13   -1    0    0    0    0  0.00000000000E+00  0.00000000000E+00  0.74505805969E-08  0.10566000000E+00  0.10566000000E+00 0.  1.
     999900   -1    0    0    0    0 -0.00000000000E+00 -0.00000000000E+00 -0.74505805969E-08  0.93827000000E+00  0.93827000000E+00 0. -1.
     999902    2    1    2    0    0  0.33238894372E-02  0.16274487420E-01 -0.61723293033E-02  0.10262098185E+01  0.10260568146E+01 0.  0.
     999903    2    3    3    0    0  0.63370505553E-01 -0.10018450562E+00  0.59133385676E-01  0.13411502001E+00  0.20912320548E-01 0.  0.
         14    1    1    2    0    0 -0.33238894372E-02 -0.16274487420E-01  0.61723293033E-02  0.17720181455E-01  0.00000000000E+00 0.  1.
     999901    1    3    3    0    0 -0.60046616115E-01  0.11645899304E+00 -0.65305714979E-01  0.89209479854E+00  0.88000000000E+00 0. -1.
        -11    1    4    4    0    0  0.36673361114E-01 -0.44352187564E-01  0.36837595367E-01  0.68332433811E-01  0.51100000000E-03 0.  1.
         11    1    4    4    0    0  0.26697144439E-01 -0.55832318053E-01  0.22295790309E-01  0.65782586198E-01  0.51100000000E-03 0. -1.
</event>
<event>
 8    1  0.1099921E+005  0.1043930E+01  0.7957747E-01            NaN
         13   -1    0    0    0    0  0.00000000000E+00  0.00000000000E+00  0.74505805969E-08  0.10566000000E+00  0.10566000000E+00 0. -1.
     999900   -1    0    0    0    0 -0.00000000000E+00 -0.00000000000E+00 -0.74505805969E-08  0.93827000000E+00  0.93827000000E+00 0.  1.
     999902    2    1    2    0    0 -0.22277489985E-01  0.76039214865E-02  0.45158821360E-02  0.10199612834E+01  0.10196796165E+01 0.  0.
     999903    2    3    3    0    0 -0.12424924504E+00 -0.13191140153E-01  0.41559344869E-01  0.13305492336E+00  0.19093255722E-01 0.  0.
         14    1    1    2    0    0  0.22277489985E-01 -0.76039214865E-02 -0.45158821360E-02  0.23968716559E-01  0.00000000000E+00 0. -1.
     999901    1    3    3    0    0  0.10197175505E+00  0.20795061640E-01 -0.37043462733E-01  0.88690636008E+00  0.88000000000E+00 0.  1.
        -11    1    4    4    0    0 -0.77410325124E-01 -0.17221003166E-01  0.28355808279E-01  0.84221341536E-01  0.51100000000E-03 0.  1.
         11    1    4    4    0    0 -0.46838919913E-01  0.40298630130E-02  0.13203536590E-01  0.48833581827E-01  0.51100000000E-03 0. -1.
</event>
<event>
 8    1  0.1099921E+005  0.1043930E+01  0.7957747E-01            NaN
         13   -1    0    0    0    0  0.00000000000E+00  0.00000000000E+00  0.74505805969E-08  0.10566000000E+00  0.10566000000E+00 0. -1.
     999900   -1    0    0    0    0 -0.00000000000E+00 -0.00000000000E+00 -0.74505805969E-08  0.93827000000E+00  0.93827000000E+00 0.  1.
     999902    2    1    2    0    0  0.60148749598E-02  0.20465784977E-01  0.18568700086E-02  0.10225179697E+01  0.10222937559E+01 0.  0.
     999903    2    3    3    0    0  0.48887976850E-01 -0.26186721102E-01 -0.11814857822E+00  0.13211588817E+00  0.20487623763E-01 0.  0.
         14    1    1    2    0    0 -0.60148749598E-02 -0.20465784977E-01 -0.18568700086E-02  0.21412030304E-01  0.00000000000E+00 0. -1.
     999901    1    3    3    0    0 -0.42873101891E-01  0.46652506080E-01  0.12000544823E+00  0.89040208153E+00  0.88000000000E+00 0. -1.
        -11    1    4    4    0    0  0.22614168635E-01 -0.23641975330E-01 -0.65794483145E-01  0.73481417746E-01  0.51100000000E-03 0.  1.
         11    1    4    4    0    0  0.26273808216E-01 -0.25447457721E-02 -0.52354095076E-01  0.58634470420E-01  0.51100000000E-03 0. -1.
</event>
<event>
 8    1  0.1099921E+005  0.1043930E+01  0.7957747E-01            NaN
         13   -1    0    0    0    0  0.00000000000E+00  0.00000000000E+00  0.74505805969E-08  0.10566000000E+00  0.10566000000E+00 0. -1.
     999900   -1    0    0    0    0 -0.00000000000E+00 -0.00000000000E+00 -0.74505805969E-08  0.93827000000E+00  0.93827000000E+00 0.  1.
     999902    2    1    2    0    0  0.17009055108E-01 -0.16187711693E-01 -0.26735460880E-02  0.10202974416E+01  0.10200237113E+01 0.  0.
     999903    2    3    3    0    0  0.80861990151E-01  0.59363758664E-01 -0.82164987941E-01  0.13119446037E+00  0.19954545733E-01 0.  0.
         14    1    1    2    0    0 -0.17009055108E-01  0.16187711693E-01  0.26735460880E-02  0.23632558351E-01  0.00000000000E+00 0.  1.
     999901    1    3    3    0    0 -0.63852935042E-01 -0.75551470357E-01  0.79491441853E-01  0.88910298128E+00  0.88000000000E+00 0. -1.
        -11    1    4    4    0    0  0.65168006892E-01  0.39108890520E-01 -0.54783848326E-01  0.93690477629E-01  0.51100000000E-03 0.  1.
         11    1    4    4    0    0  0.15693983259E-01  0.20254868143E-01 -0.27381139614E-01  0.37503982744E-01  0.51100000000E-03 0. -1.
</event>
<event>
 8    1  0.1099921E+005  0.1043930E+01  0.7957747E-01            NaN
         13   -1    0    0    0    0  0.00000000000E+00  0.00000000000E+00  0.74505805969E-08  0.10566000000E+00  0.10566000000E+00 0. -1.
     999900   -1    0    0    0    0 -0.00000000000E+00 -0.00000000000E+00 -0.74505805969E-08  0.93827000000E+00  0.93827000000E+00 0. -1.
     999902    2    1    2    0    0  0.16030215057E-01 -0.16950844006E-01  0.44695466980E-02  0.10201755108E+01  0.10198989152E+01 0.  0.
     999903    2    3    3    0    0 -0.70971758849E-01  0.10127017543E+00  0.25565243920E-01  0.12776832725E+00  0.19455712903E-01 0.  0.
         14    1    1    2    0    0 -0.16030215057E-01  0.16950844006E-01 -0.44695466980E-02  0.23754489154E-01  0.00000000000E+00 0. -1.
     999901    1    3    3    0    0  0.87001973905E-01 -0.11822101944E+00 -0.21095697222E-01  0.89240718360E+00  0.88000000000E+00 0.  1.
        -11    1    4    4    0    0 -0.58052439379E-01  0.82353511046E-01  0.12883057690E-01  0.10157962786E+00  0.51100000000E-03 0.  1.
         11    1    4    4    0    0 -0.12919319470E-01  0.18916664386E-01  0.12682186230E-01  0.26188699388E-01  0.51100000000E-03 0. -1.
</event>
<event>
 8    1  0.1099921E+005  0.1043930E+01  0.7957747E-01            NaN
         13   -1    0    0    0    0  0.00000000000E+00  0.00000000000E+00  0.74505805969E-08  0.10566000000E+00  0.10566000000E+00 0.  1.
     999900   -1    0    0    0    0 -0.00000000000E+00 -0.00000000000E+00 -0.74505805969E-08  0.93827000000E+00  0.93827000000E+00 0. -1.
     999902    2    1    2    0    0 -0.19313758824E-02  0.15112602781E-01 -0.18354260877E-01  0.10200762819E+01  0.10197973431E+01 0.  0.
     999903    2    3    3    0    0  0.12396381817E+00 -0.31528235835E-03 -0.37061170147E-01  0.13078579617E+00  0.19085767697E-01 0.  0.
         14    1    1    2    0    0  0.19313758824E-02 -0.15112602781E-01  0.18354260877E-01  0.23853718115E-01  0.00000000000E+00 0.  1.
     999901    1    3    3    0    0 -0.12589519405E+00  0.15427885139E-01  0.18706909270E-01  0.88929048571E+00  0.88000000000E+00 0.  1.
        -11    1    4    4    0    0  0.62500574508E-01  0.92129435908E-02 -0.20471469370E-01  0.66411914011E-01  0.51100000000E-03 0.  1.
         11    1    4    4    0    0  0.61463243665E-01 -0.95282259491E-02 -0.16589700777E-01  0.64373882160E-01  0.51100000000E-03 0. -1.
</event>
<event>
 8    1  0.1099921E+005  0.1043930E+01  0.7957747E-01            NaN
         13   -1    0    0    0    0  0.00000000000E+00  0.00000000000E+00  0.74505805969E-08  0.10566000000E+00  0.10566000000E+00 0.  1.
     999900   -1    0    0    0    0 -0.00000000000E+00 -0.00000000000E+00 -0.74505805969E-08  0.93827000000E+00  0.93827000000E+00 0.  1.
     999902    2    1    2    0    0  0.24223596660E-01 -0.83914774112E-02  0.13740652917E-01  0.10148438337E+01  0.10144269327E+01 0.  0.
     999903    2    3    3    0    0  0.81729752759E-01 -0.95293443930E-01  0.20193094667E-01  0.12867198592E+00  0.19700912302E-01 0.  0.
         14    1    1    2    0    0 -0.24223596660E-01  0.83914774112E-02 -0.13740652917E-01  0.29086166314E-01  0.00000000000E+00 0. -1.
     999901    1    3    3    0    0 -0.57506156099E-01  0.86901966519E-01 -0.64524417504E-02  0.88617184777E+00  0.88000000000E+00 0. -1.
        -11    1    4    4    0    0  0.72092515377E-01 -0.91903442781E-01  0.19461519753E-01  0.11841699811E+00  0.51100000000E-03 0. -1.
         11    1    4    4    0    0  0.96372373814E-02 -0.33900011484E-02  0.73157491397E-03  0.10254987810E-01  0.51100000000E-03 0.  1.
</event>
<event>
 8    1  0.1099921E+005  0.1043930E+01  0.7957747E-01            NaN
         13   -1    0    0    0    0  0.00000000000E+00  0.00000000000E+00  0.74505805969E-08  0.10566000000E+00  0.10566000000E+00 0.  1.
     999900   -1    0    0    0    0 -0.00000000000E+00 -0.00000000000E+00 -0.74505805969E-08  0.93827000000E+00  0.93827000000E+00 0.  1.
     999902    2    1    2    0    0 -0.23401582814E-01  0.55664585684E-02 -0.42131604808E-03  0.10198717988E+01  0.10195879996E+01 0.  0.
     999903    2    3    3    0    0  0.11039045300E-01  0.56061849250E-01 -0.11531678162E+00  0.13030060468E+00  0.20383718881E-01 0.  0.
         14    1    1    2    0    0  0.23401582814E-01 -0.55664585684E-02  0.42131604808E-03  0.24058201230E-01  0.00000000000E+00 0. -1.
     999901    1    3    3    0    0 -0.34440628115E-01 -0.50495390681E-01  0.11489546557E+00  0.88957119409E+00  0.88000000000E+00 0. -1.
        -11    1    4    4    0    0 -0.36793539712E-02  0.36606859691E-02 -0.18618534376E-01  0.19335180649E-01  0.51100000000E-03 0. -1.
         11    1    4    4    0    0  0.14718399272E-01  0.52401163281E-01 -0.96698247241E-01  0.11096542403E+00  0.51100000000E-03 0.  1.
</event>
<event>
 8    1  0.1099921E+005  0.1043930E+01  0.7957747E-01            NaN
         13   -1    0    0    0    0  0.00000000000E+00  0.00000000000E+00  0.74505805969E-08  0.10566000000E+00  0.10566000000E+00 0. -1.
     999900   -1    0    0    0    0 -0.00000000000E+00 -0.00000000000E+00 -0.74505805969E-08  0.93827000000E+00  0.93827000000E+00 0. -1.
     999902    2    1    2    0    0  0.10379718840E-01 -0.19957412473E-01 -0.71918926255E-02  0.10203130528E+01  0.10200396882E+01 0.  0.
     999903    2    3    3    0    0  0.33619883053E-01  0.72991086479E-02  0.12361847126E+00  0.12992304023E+00  0.20369006437E-01 0.  0.
         14    1    1    2    0    0 -0.10379718840E-01  0.19957412473E-01  0.71918926255E-02  0.23616947207E-01  0.00000000000E+00 0.  1.
     999901    1    3    3    0    0 -0.23240164214E-01 -0.27256521121E-01 -0.13081036388E+00  0.89039001256E+00  0.88000000000E+00 0. -1.
        -11    1    4    4    0    0  0.31123617514E-01  0.12007214576E-01  0.11530688209E+00  0.12003662336E+00  0.51100000000E-03 0.  1.
         11    1    4    4    0    0  0.24962655388E-02 -0.47081059279E-02  0.83115891618E-02  0.98864168667E-02  0.51100000000E-03 0. -1.
</event>
<event>
 8    1  0.1099921E+005  0.1043930E+01  0.7957747E-01            NaN
         13   -1    0    0    0    0  0.00000000000E+00  0.00000000000E+00  0.74505805969E-08  0.10566000000E+00  0.10566000000E+00 0.  1.
     999900   -1    0    0    0    0 -0.00000000000E+00 -0.00000000000E+00 -0.74505805969E-08  0.93827000000E+00  0.93827000000E+00 0.  1.
     999902    2    1    2    0    0  0.41432911064E-02  0.19701721804E-01  0.12694927463E-01  0.10201290360E+01  0.10198513442E+01 0.  0.
     999903    2    3    3    0    0 -0.10045179088E+00 -0.77796983635E-02 -0.77804816988E-01  0.12890203723E+00  0.20274606220E-01 0.  0.
         14    1    1    2    0    0 -0.41432911064E-02 -0.19701721804E-01 -0.12694927463E-01  0.23800963983E-01  0.00000000000E+00 0. -1.
     999901    1    3    3    0    0  0.10459508198E+00  0.27481420168E-01  0.90499744451E-01  0.89122699879E+00  0.88000000000E+00 0. -1.
        -11    1    4    4    0    0 -0.42611615049E-01 -0.13011653899E-01 -0.30494611735E-01  0.53992919352E-01  0.51100000000E-03 0.  1.
         11    1    4    4    0    0 -0.57840175827E-01  0.52319555357E-02 -0.47310205253E-01  0.74909117873E-01  0.51100000000E-03 0. -1.
</event>
<event>
 8    1  0.1099921E+005  0.1043930E+01  0.7957747E-01            NaN
         13   -1    0    0    0    0  0.00000000000E+00  0.00000000000E+00  0.74505805969E-08  0.10566000000E+00  0.10566000000E+00 0. -1.
     999900   -1    0    0    0    0 -0.00000000000E+00 -0.00000000000E+00 -0.74505805969E-08  0.93827000000E+00  0.93827000000E+00 0. -1.
     999902    2    1    2    0    0  0.18250560970E-01  0.11549150099E-01  0.10715188246E-01  0.10198202281E+01  0.10195351963E+01 0.  0.
     999903    2    3    3    0    0 -0.43573811022E-01 -0.10326384658E+00  0.60231842652E-01  0.12883415845E+00  0.20205605583E-01 0.  0.
         14    1    1    2    0    0 -0.18250560970E-01 -0.11549150099E-01 -0.10715188246E-01  0.24109771937E-01  0.00000000000E+00 0.  1.
     999901    1    3    3    0    0  0.61824371992E-01  0.11481299668E+00 -0.49516654406E-01  0.89098606961E+00  0.88000000000E+00 0. -1.
        -11    1    4    4    0    0 -0.48625361502E-02 -0.24732671418E-01  0.21336067624E-01  0.33027839711E-01  0.51100000000E-03 0. -1.
         11    1    4    4    0    0 -0.38711274872E-01 -0.78531175162E-01  0.38895775028E-01  0.95806318740E-01  0.51100000000E-03 0.  1.
</event>
<event>
 8    1  0.1099921E+005  0.1043930E+01  0.7957747E-01            NaN
         13   -1    0    0    0    0  0.00000000000E+00  0.00000000000E+00  0.74505805969E-08  0.10566000000E+00  0.10566000000E+00 0. -1.
     999900   -1    0    0    0    0 -0.00000000000E+00 -0.00000000000E+00 -0.74505805969E-08  0.93827000000E+00  0.93827000000E+00 0. -1.
     999902    2    1    2    0    0 -0.13121309253E-01 -0.21868281604E-03 -0.19774268214E-01  0.10201973587E+01  0.10199212776E+01 0.  0.
     999903    2    3    3    0    0  0.79906318297E-02  0.12877920221E+00 -0.68315856686E-02  0.13044813482E+00  0.17947484428E-01 0.  0.
         14    1    1    2    0    0  0.13121309253E-01  0.21868281604E-03  0.19774268214E-01  0.23732641279E-01  0.00000000000E+00 0. -1.
     999901    1    3    3    0    0 -0.21111941082E-01 -0.12899788502E+00 -0.12942682546E-01  0.88974922390E+00  0.88000000000E+00 0. -1.
        -11    1    4    4    0    0  0.12946049928E-01  0.11194282143E+00 -0.67118488038E-02  0.11288979367E+00  0.51100000000E-03 0. -1.
         11    1    4    4    0    0 -0.49554180985E-02  0.16836380776E-01 -0.11973686480E-03  0.17558341154E-01  0.51100000000E-03 0.  1.
</event>
<event>
 8    1  0.1099921E+005  0.1043930E+01  0.7957747E-01            NaN
         13   -1    0    0    0    0  0.00000000000E+00  0.00000000000E+00  0.74505805969E-08  0.10566000000E+00  0.10566000000E+00 0. -1.
     999900   -1    0    0    0    0 -0.00000000000E+00 -0.00000000000E+00 -0.74505805969E-08  0.93827000000E+00  0.93827000000E+00 0. -1.
     999902    2    1    2    0    0  0.18116822261E-01  0.11287819066E-01 -0.15172014529E-01  0.10177417558E+01  0.10174047658E+01 0.  0.
     999903    2    3    3    0    0  0.43063766563E-01  0.11972808013E+00  0.18436137732E-01  0.13009816285E+00  0.19908280704E-01 0.  0.
         14    1    1    2    0    0 -0.18116822261E-01 -0.11287819066E-01  0.15172014529E-01  0.26188244175E-01  0.00000000000E+00 0. -1.
     999901    1    3    3    0    0 -0.24946944302E-01 -0.10844026106E+00 -0.33608152262E-01  0.88764359297E+00  0.88000000000E+00 0. -1.
        -11    1    4    4    0    0  0.77788784942E-02  0.39300500854E-01  0.12914174683E-01  0.42096049064E-01  0.51100000000E-03 0.  1.
         11    1    4    4    0    0  0.35284888069E-01  0.80427579275E-01  0.55219630491E-02  0.88002113787E-01  0.51100000000E-03 0. -1.
</event>
<event>
 8    1  0.1099921E+005  0.1043930E+01  0.7957747E-01            NaN
         13   -1    0    0    0    0  0.00000000000E+00  0.00000000000E+00  0.74505805969E-08  0.10566000000E+00  0.10566000000E+00 0.  1.
     999900   -1    0    0    0    0 -0.00000000000E+00 -0.00000000000E+00 -0.74505805969E-08  0.93827000000E+00  0.93827000000E+00 0. -1.
     999902    2    1    2    0    0  0.45733054553E-02 -0.18734339168E-01 -0.14910207001E-01  0.10195536824E+01  0.10192622363E+01 0.  0.
     999903    2    3    3    0    0 -0.69732272365E-01 -0.10734379713E+00 -0.19117414370E-01  0.13197796421E+00  0.25834606874E-01 0.  0.
         14    1    1    2    0    0 -0.45733054553E-02  0.18734339168E-01  0.14910207001E-01  0.24376317598E-01  0.00000000000E+00 0.  1.
     999901    1    3    3    0    0  0.74305577820E-01  0.88609457963E-01  0.42072073696E-02  0.88757571820E+00  0.88000000000E+00 0.  1.
        -11    1    4    4    0    0 -0.13459968962E-01 -0.34021311434E-01 -0.14733407988E-01  0.39445593265E-01  0.51100000000E-03 0. -1.
         11    1    4    4    0    0 -0.56272303403E-01 -0.73322485697E-01 -0.43840063823E-02  0.92532370941E-01  0.51100000000E-03 0.  1.
</event>
<event>
 8    1  0.1099921E+005  0.1043930E+01  0.7957747E-01            NaN
         13   -1    0    0    0    0  0.00000000000E+00  0.00000000000E+00  0.74505805969E-08  0.10566000000E+00  0.10566000000E+00 0.  1.
     999900   -1    0    0    0    0 -0.00000000000E+00 -0.00000000000E+00 -0.74505805969E-08  0.93827000000E+00  0.93827000000E+00 0. -1.
     999902    2    1    2    0    0 -0.11170254599E-01 -0.24281811475E-01 -0.11136587082E-01  0.10149747841E+01  0.10145616826E+01 0.  0.
     999903    2    3    3    0    0 -0.54426250696E-01 -0.50359605476E-01 -0.10332092779E+00  0.12871912955E+00  0.19876960620E-01 0.  0.
         14    1    1    2    0    0  0.11170254599E-01  0.24281811475E-01  0.11136587082E-01  0.28955215905E-01  0.00000000000E+00 0.  1.
     999901    1    3    3    0    0  0.43255996097E-01  0.26077794001E-01  0.92184340713E-01  0.88625565454E+00  0.88000000000E+00 0.  1.
        -11    1    4    4    0    0 -0.42155237852E-01 -0.27189237582E-01 -0.61624605266E-01  0.79461763218E-01  0.51100000000E-03 0. -1.
         11    1    4    4    0    0 -0.12271012844E-01 -0.23170367894E-01 -0.41696322529E-01  0.49257366332E-01  0.51100000000E-03 0.  1.
</event>
<event>
 8    1  0.1099921E+005  0.1043930E+01  0.7957747E-01            NaN
         13   -1    0    0    0    0  0.00000000000E+00  0.00000000000E+00  0.74505805969E-08  0.10566000000E+00  0.10566000000E+00 0. -1.
     999900   -1    0    0    0    0 -0.00000000000E+00 -0.00000000000E+00 -0.74505805969E-08  0.93827000000E+00  0.93827000000E+00 0. -1.
     999902    2    1    2    0    0  0.21743407050E-01  0.13055397693E-01  0.43328388173E-02  0.10182007821E+01  0.10178756506E+01 0.  0.
     999903    2    3    3    0    0 -0.36204366624E-01 -0.11649439465E+00 -0.26786789756E-01  0.12628737578E+00  0.18688740708E-01 0.  0.
         14    1    1    2    0    0 -0.21743407050E-01 -0.13055397693E-01 -0.43328388173E-02  0.25729217852E-01  0.00000000000E+00 0.  1.
     999901    1    3    3    0    0  0.57947773674E-01  0.12954979234E+00  0.31119628574E-01  0.89191340636E+00  0.88000000000E+00 0.  1.
        -11    1    4    4    0    0 -0.25510103692E-01 -0.72027030571E-01 -0.25415635184E-01  0.80528716344E-01  0.51100000000E-03 0.  1.
         11    1    4    4    0    0 -0.10694262933E-01 -0.44467364080E-01 -0.13711545727E-02  0.45758659440E-01  0.51100000000E-03 0. -1.
</event>
<event>
 8    1  0.1099921E+005  0.1043930E+01  0.7957747E-01            NaN
         13   -1    0    0    0    0  0.00000000000E+00  0.00000000000E+00  0.74505805969E-08  0.10566000000E+00  0.10566000000E+00 0. -1.
     999900   -1    0    0    0    0 -0.00000000000E+00 -0.00000000000E+00 -0.74505805969E-08  0.93827000000E+00  0.93827000000E+00 0.  1.
     999902    2    1    2    0    0 -0.28418418989E-02 -0.34258079563E-02 -0.23237096987E-01  0.10202704374E+01  0.10199960738E+01 0.  0.
     999903    2    3    3    0    0 -0.14593359075E-02  0.16356636462E-01 -0.13093357461E+00  0.13348309666E+00  0.20111362823E-01 0.  0.
         14    1    1    2    0    0  0.28418418989E-02  0.34258079563E-02  0.23237096987E-01  0.23659562590E-01  0.00000000000E+00 0. -1.
     999901    1    3    3    0    0 -0.13825059914E-02 -0.19782444418E-01  0.10769647762E+00  0.88678734075E+00  0.88000000000E+00 0. -1.
        -11    1    4    4    0    0 -0.98521480659E-02  0.70507524195E-02 -0.85292319164E-01  0.86149978297E-01  0.51100000000E-03 0.  1.
         11    1    4    4    0    0  0.83928121584E-02  0.93058840423E-02 -0.45641255447E-01  0.47333118359E-01  0.51100000000E-03 0. -1.
</event>
<event>
 8    1  0.1099921E+005  0.1043930E+01  0.7957747E-01            NaN
         13   -1    0    0    0    0  0.00000000000E+00  0.00000000000E+00  0.74505805969E-08  0.10566000000E+00  0.10566000000E+00 0.  1.
     999900   -1    0    0    0    0 -0.00000000000E+00 -0.00000000000E+00 -0.74505805969E-08  0.93827000000E+00  0.93827000000E+00 0. -1.
     999902    2    1    2    0    0 -0.96653281333E-02  0.10761885468E-01 -0.16506480601E-01  0.10219823202E+01  0.10217466233E+01 0.  0.
     999903    2    3    3    0    0 -0.49294948653E-01  0.90336401806E-01 -0.84769075230E-01  0.13487331207E+00  0.20355754482E-01 0.  0.
         14    1    1    2    0    0  0.96653281333E-02 -0.10761885468E-01  0.16506480601E-01  0.21947679799E-01  0.00000000000E+00 0.  1.
     999901    1    3    3    0    0  0.39629620520E-01 -0.79574516339E-01  0.68262594629E-01  0.88710900813E+00  0.88000000000E+00 0.  1.
        -11    1    4    4    0    0 -0.23858498212E-01  0.58161250658E-01 -0.60299837235E-01  0.87110794433E-01  0.51100000000E-03 0.  1.
         11    1    4    4    0    0 -0.25436450441E-01  0.32175151148E-01 -0.24469237995E-01  0.47762517642E-01  0.51100000000E-03 0. -1.
</event>
<event>
 7    1  0.1146375E+005  0.1043930E+01  0.7957747E-01            NaN
         13   -1    0    0    0    0  0.00000000000E+00  0.00000000000E+00  0.74505805969E-08  0.10566000000E+00  0.10566000000E+00 0. -1.
     999900   -1    0    0    0    0 -0.00000000000E+00 -0.00000000000E+00 -0.74505805969E-08  0.93827000000E+00  0.93827000000E+00 0.  1.
     999903    2    1    2    0    0  0.85654970809E-01 -0.36747625777E-01  0.52086629064E-01  0.10869709107E+00  0.20368570303E-01 0.  0.
         14    1    1    2    0    0 -0.46240298597E-01  0.23031929406E-01  0.76442395618E-02  0.52221349896E-01  0.00000000000E+00 0. -1.
     999901    1    1    2    0    0 -0.39414672212E-01  0.13715696371E-01 -0.59730868626E-01  0.88301155903E+00  0.88000000000E+00 0.  1.
        -11    1    3    3    0    0  0.52366176862E-01 -0.24309432618E-01  0.43069851317E-01  0.72030814287E-01  0.51100000000E-03 0. -1.
         11    1    3    3    0    0  0.33288793947E-01 -0.12438193159E-01  0.90167777469E-02  0.36666276788E-01  0.51100000000E-03 0.  1.
</event>
<event>
 7    1  0.1099921E+005  0.1043930E+01  0.7957747E-01            NaN
         13   -1    0    0    0    0  0.00000000000E+00  0.00000000000E+00  0.74505805969E-08  0.10566000000E+00  0.10566000000E+00 0.  1.
     999900   -1    0    0    0    0 -0.00000000000E+00 -0.00000000000E+00 -0.74505805969E-08  0.93827000000E+00  0.93827000000E+00 0. -1.
     999902    2    1    2    0    0  0.22231520854E-01 -0.57118049076E-02 -0.91251594579E-03  0.10209583235E+01  0.10206998582E+01 0.  0.
         14    1    1    2    0    0 -0.22231520854E-01  0.57118049076E-02  0.91251594579E-03  0.22971676476E-01  0.00000000000E+00 0. -1.
     999901    1    3    3    0    0  0.78830452488E-01  0.96190236849E-01  0.46719323989E-02  0.88875678836E+00  0.88000000000E+00 0.  1.
        -11    1    3    3    0    0 -0.47968945556E-01 -0.23927131336E-01 -0.34816563475E-02  0.53720670171E-01  0.51100000000E-03 0.  1.
         11    1    3    3    0    0 -0.86299860781E-02 -0.77974910420E-01 -0.21027919972E-02  0.78480864992E-01  0.51100000000E-03 0. -1.
</event>
<event>
 8    1  0.1099921E+005  0.1043930E+01  0.7957747E-01            NaN
         13   -1    0    0    0    0  0.00000000000E+00  0.00000000000E+00  0.74505805969E-08  0.10566000000E+00  0.10566000000E+00 0.  1.
     999900   -1    0    0    0    0 -0.00000000000E+00 -0.00000000000E+00 -0.74505805969E-08  0.93827000000E+00  0.93827000000E+00 0. -1.
     999902    2    1    2    0    0  0.12120153835E-01 -0.59369764977E-02  0.19181814070E-01  0.10204760492E+01  0.10202064885E+01 0.  0.
     999903    2    3    3    0    0  0.12215383063E+00 -0.47303179852E-01  0.37215566074E-02  0.13252470344E+00  0.19743299554E-01 0.  0.
         14    1    1    2    0    0 -0.12120153835E-01  0.59369764977E-02 -0.19181814070E-01  0.23453950838E-01  0.00000000000E+00 0. -1.
     999901    1    3    3    0    0 -0.11003367679E+00  0.41366203354E-01  0.15460257462E-01  0.88795134572E+00  0.88000000000E+00 0.  1.
        -11    1    4    4    0    0  0.10816742971E+00 -0.34854589517E-01  0.49526757949E-02  0.11375335327E+00  0.51100000000E-03 0.  1.
         11    1    4    4    0    0  0.13986400917E-01 -0.12448590335E-01 -0.12311191874E-02  0.18771350175E-01  0.51100000000E-03 0. -1.
</event>
<event>
 8    1  0.1099921E+005  0.1043930E+01  0.7957747E-01            NaN
         13   -1    0    0    0    0  0.00000000000E+00  0.00000000000E+00  0.74505805969E-08  0.10566000000E+00  0.10566000000E+00 0.  1.
     999900   -1    0    0    0    0 -0.00000000000E+00 -0.00000000000E+00 -0.74505805969E-08  0.93827000000E+00  0.93827000000E+00 0.  1.
     999902    2    1    2    0    0 -0.12339740268E-02 -0.18722492022E-01 -0.16378913247E-01  0.10190237117E+01  0.10187192949E+01 0.  0.
     999903    2    3    3    0    0  0.10985564258E+00  0.57943461803E-01  0.22547441146E-01  0.12788184167E+00  0.20485881803E-01 0.  0.
         14    1    1    2    0    0  0.12339740268E-02  0.18722492022E-01  0.16378913247E-01  0.24906288334E-01  0.00000000000E+00 0.  1.
     999901    1    3    3    0    0 -0.11108961661E+00 -0.76665953825E-01 -0.38926354394E-01  0.89114187000E+00  0.88000000000E+00 0.  1.
        -11    1    4    4    0    0  0.51845786720E-01  0.25088300486E-01  0.30633012500E-03  0.57600029349E-01  0.51100000000E-03 0. -1.
         11    1    4    4    0    0  0.58009855864E-01  0.32855161317E-01  0.22241111021E-01  0.70281812320E-01  0.51100000000E-03 0.  1.
</event>
<event>
 7    1  0.1149216E+005  0.1043930E+01  0.7957747E-01            NaN
         13   -1    0    0    0    0  0.00000000000E+00  0.00000000000E+00  0.74505805969E-08  0.10566000000E+00  0.10566000000E+00 0. -1.
     999900   -1    0    0    0    0 -0.00000000000E+00 -0.00000000000E+00 -0.74505805969E-08  0.93827000000E+00  0.93827000000E+00 0. -1.
     999903    2    1    2    0    0 -0.37396716599E-01  0.50038544477E-01  0.54346548311E-01  0.85342396609E-01  0.20673824029E-01 0.  0.
         14    1    1    2    0    0 -0.42035968899E-01  0.40221617397E-01  0.31697537875E-01  0.66253566656E-01  0.00000000000E+00 0.  1.
     999901    1    1    2    0    0  0.79432685498E-01 -0.90260161874E-01 -0.86044086186E-01  0.89233403673E+00  0.88000000000E+00 0. -1.
        -11    1    3    3    0    0 -0.36125539266E-01  0.33710159611E-01  0.41086335761E-01  0.64263345350E-01  0.51100000000E-03 0. -1.
         11    1    3    3    0    0 -0.12711773329E-02  0.16328384866E-01  0.13260212550E-01  0.21079051260E-01  0.51100000000E-03 0.  1.
</event>
<event>
 8    1  0.1099921E+005  0.1043930E+01  0.7957747E-01            NaN
         13   -1    0    0    0    0  0.00000000000E+00  0.00000000000E+00  0.74505805969E-08  0.10566000000E+00  0.10566000000E+00 0.  1.
     999900   -1    0    0    0    0 -0.00000000000E+00 -0.00000000000E+00 -0.74505805969E-08  0.93827000000E+00  0.93827000000E+00 0.  1.
     999902    2    1    2    0    0  0.22985086660E-01  0.17400406175E-01 -0.62052269539E-02  0.10144411346E+01  0.10140124369E+01 0.  0.
     999903    2    3    3    0    0  0.71089270659E-01  0.10362533199E+00  0.18443487114E-01  0.12857641042E+00  0.19995931255E-01 0.  0.
         14    1    1    2    0    0 -0.22985086660E-01 -0.17400406175E-01  0.62052269539E-02  0.29488865447E-01  0.00000000000E+00 0.  1.
     999901    1    3    3    0    0 -0.48104183999E-01 -0.86224925819E-01 -0.24648714068E-01  0.88586472413E+00  0.88000000000E+00 0.  1.
        -11    1    4    4    0    0  0.48739800688E-01  0.84497275050E-01  0.17728342956E-01  0.99145917349E-01  0.51100000000E-03 0. -1.
         11    1    4    4    0    0  0.22349469971E-01  0.19128056944E-01  0.71514415749E-03  0.29430493075E-01  0.51100000000E-03 0.  1.
</event>
<event>
 8    1  0.1099921E+005  0.1043930E+01  0.7957747E-01            NaN
         13   -1    0    0    0    0  0.00000000000E+00  0.00000000000E+00  0.74505805969E-08  0.10566000000E+00  0.10566000000E+00 0.  1.
     999900   -1    0    0    0    0 -0.00000000000E+00 -0.00000000000E+00 -0.74505805969E-08  0.93827000000E+00  0.93827000000E+00 0. -1.
     999902    2    1    2    0    0  0.61756593484E-02  0.19458615818E-01 -0.13275125594E-01  0.10195782966E+01  0.10192874460E+01 0.  0.
     999903    2    3    3    0    0  0.25802931613E-01  0.83061082132E-01  0.95459145705E-01  0.13039122671E+00  0.18013574324E-01 0.  0.
         14    1    1    2    0    0 -0.61756593484E-02 -0.19458615818E-01  0.13275125594E-01  0.24351703379E-01  0.00000000000E+00 0. -1.
     999901    1    3    3    0    0 -0.19627272265E-01 -0.63602466314E-01 -0.10873427130E+00  0.88918706991E+00  0.88000000000E+00 0. -1.
        -11    1    4    4    0    0  0.11979369399E-01  0.61426231590E-01  0.60801833052E-01  0.87257155821E-01  0.51100000000E-03 0. -1.
         11    1    4    4    0    0  0.13823562214E-01  0.21634850542E-01  0.34657312654E-01  0.43134070891E-01  0.51100000000E-03 0.  1.
</event>
<event>
 8    1  0.1099921E+005  0.1043930E+01  0.7957747E-01            NaN
         13   -1    0    0    0    0  0.00000000000E+00  0.00000000000E+00  0.74505805969E-08  0.10566000000E+00  0.10566000000E+00 0. -1.
     999900   -1    0    0    0    0 -0.00000000000E+00 -0.00000000000E+00 -0.74505805969E-08  0.93827000000E+00  0.93827000000E+00 0.  1.
     999902    2    1    2    0    0  0.16672175591E-01  0.77162264850E-02  0.14467837254E-01  0.10205458193E+01  0.10202778786E+01 0.  0.
     999903    2    3    3    0    0 -0.69621252166E-01  0.76122512982E-01 -0.75149592196E-01  0.12916640553E+00  0.19868149768E-01 0.  0.
         14    1    1    2    0    0 -0.16672175591E-01 -0.77162264850E-02 -0.14467837254E-01  0.23384180655E-01  0.00000000000E+00 0.  1.
     999901    1    3    3    0    0  0.86293427757E-01 -0.68406286497E-01  0.89617429450E-01  0.89137941381E+00  0.88000000000E+00 0. -1.
        -11    1    4    4    0    0 -0.59753492158E-01  0.58881617610E-01 -0.52186401933E-01  0.98798817732E-01  0.51100000000E-03 0. -1.
         11    1    4    4    0    0 -0.98677600082E-02  0.17240895372E-01 -0.22963190264E-01  0.30367587802E-01  0.51100000000E-03 0.  1.
</event>
<event>
 8    1  0.1099921E+005  0.1043930E+01  0.7957747E-01            NaN
         13   -1    0    0    0    0  0.00000000000E+00  0.00000000000E+00  0.74505805969E-08  0.10566000000E+00  0.10566000000E+00 0. -1.
     999900   -1    0    0    0    0 -0.00000000000E+00 -0.00000000000E+00 -0.74505805969E-08  0.93827000000E+00  0.93827000000E+00 0. -1.
     999902    2    1    2    0    0  0.15845144283E-01 -0.14508994512E-01 -0.95050346712E-02  0.10204369116E+01  0.10201664400E+01 0.  0.
     999903    2    3    3    0    0 -0.60939910823E-01  0.82596418373E-01 -0.75214892792E-01  0.12934589976E+00  0.23178451815E-01 0.  0.
         14    1    1    2    0    0 -0.15845144283E-01  0.14508994512E-01  0.95050346712E-02  0.23493088413E-01  0.00000000000E+00 0.  1.
     999901    1    3    3    0    0  0.76785055106E-01 -0.97105412885E-01  0.65709858121E-01  0.89109101182E+00  0.88000000000E+00 0.  1.
        -11    1    4    4    0    0 -0.20247040925E-01  0.22251572406E-01 -0.10254847549E-01  0.31788333709E-01  0.51100000000E-03 0.  1.
         11    1    4    4    0    0 -0.40692869899E-01  0.60344845967E-01 -0.64960045243E-01  0.97557566054E-01  0.51100000000E-03 0. -1.
</event>
<event>
 8    1  0.1099921E+005  0.1043930E+01  0.7957747E-01            NaN
         13   -1    0    0    0    0  0.00000000000E+00  0.00000000000E+00  0.74505805969E-08  0.10566000000E+00  0.10566000000E+00 0.  1.
     999900   -1    0    0    0    0 -0.00000000000E+00 -0.00000000000E+00 -0.74505805969E-08  0.93827000000E+00  0.93827000000E+00 0. -1.
     999902    2    1    2    0    0 -0.79200810036E-02  0.29480051415E-02  0.21979780027E-01  0.10203815574E+01  0.10201097949E+01 0.  0.
     999903    2    3    3    0    0  0.86144353279E-01 -0.91658785374E-01 -0.22113428476E-01  0.12923467075E+00  0.19758893341E-01 0.  0.
         14    1    1    2    0    0  0.79200810036E-02 -0.29480051415E-02 -0.21979780027E-01  0.23548442570E-01  0.00000000000E+00 0. -1.
     999901    1    3    3    0    0 -0.94064434283E-01  0.94606790516E-01  0.44093208504E-01  0.89114688668E+00  0.88000000000E+00 0. -1.
        -11    1    4    4    0    0  0.68146413484E-01 -0.74756928344E-01 -0.25464109833E-01  0.10431305775E+00  0.51100000000E-03 0. -1.
         11    1    4    4    0    0  0.17997939795E-01 -0.16901857030E-01  0.33506813567E-02  0.24921612999E-01  0.51100000000E-03 0.  1.
</event>
<event>
 8    1  0.1099921E+005  0.1043930E+01  0.7957747E-01            NaN
         13   -1    0    0    0    0  0.00000000000E+00  0.00000000000E+00  0.74505805969E-08  0.10566000000E+00  0.10566000000E+00 0. -1.
     999900   -1    0    0    0    0 -0.00000000000E+00 -0.00000000000E+00 -0.74505805969E-08  0.93827000000E+00  0.93827000000E+00 0.  1.
     999902    2    1    2    0    0 -0.36137706918E-02  0.84136616307E-02 -0.20155415869E-01  0.10217920274E+01  0.10215521805E+01 0.  0.
     999903    2    3    3    0    0 -0.10534992838E+00 -0.50683085472E-01 -0.60122966088E-01  0.13306255432E+00  0.20578866539E-01 0.  0.
         14    1    1    2    0    0  0.36137706918E-02 -0.84136616307E-02  0.20155415869E-01  0.22137972570E-01  0.00000000000E+00 0. -1.
     999901    1    3    3    0    0  0.10173615769E+00  0.59096747103E-01  0.39967550219E-01  0.88872947311E+00  0.88000000000E+00 0. -1.
        -11    1    4    4    0    0 -0.35782230974E-01 -0.28105401642E-01 -0.21004135701E-01  0.50117027970E-01  0.51100000000E-03 0.  1.
         11    1    4    4    0    0 -0.69567697410E-01 -0.22577683829E-01 -0.39118830387E-01  0.82945526353E-01  0.51100000000E-03 0. -1.
</event>
<event>
 8    1  0.1099921E+005  0.1043930E+01  0.7957747E-01            NaN
         13   -1    0    0    0    0  0.00000000000E+00  0.00000000000E+00  0.74505805969E-08  0.10566000000E+00  0.10566000000E+00 0. -1.
     999900   -1    0    0    0    0 -0.00000000000E+00 -0.00000000000E+00 -0.74505805969E-08  0.93827000000E+00  0.93827000000E+00 0.  1.
     999902    2    1    2    0    0 -0.20294800755E-01  0.92609366999E-02 -0.13293268893E-01  0.10179616561E+01  0.10176303742E+01 0.  0.
     999903    2    3    3    0    0 -0.20480697337E-02 -0.10885884619E+00  0.62922919937E-01  0.12661765196E+00  0.14774740291E-01 0.  0.
         14    1    1    2    0    0  0.20294800755E-01 -0.92609366999E-02  0.13293268893E-01  0.25968343885E-01  0.00000000000E+00 0. -1.
     999901    1    3    3    0    0 -0.18246731021E-01  0.11811978289E+00 -0.76216188830E-01  0.89134400416E+00  0.88000000000E+00 0.  1.
        -11    1    4    4    0    0 -0.22818167901E-02 -0.90113267357E-01  0.45312799297E-01  0.10089161780E+00  0.51100000000E-03 0. -1.
         11    1    4    4    0    0  0.23374705637E-03 -0.18745578835E-01  0.17610120640E-01  0.25726034158E-01  0.51100000000E-03 0.  1.
</event>
<event>
 8    1  0.1099921E+005  0.1043930E+01  0.7957747E-01            NaN
         13   -1    0    0    0    0  0.00000000000E+00  0.00000000000E+00  0.74505805969E-08  0.10566000000E+00  0.10566000000E+00 0.  1.
     999900   -1    0    0    0    0 -0.00000000000E+00 -0.00000000000E+00 -0.74505805969E-08  0.93827000000E+00  0.93827000000E+00 0.  1.
     999902    2    1    2    0    0 -0.19063381086E-01 -0.24554769839E-02  0.15048213939E-01  0.10195191293E+01  0.10192268464E+01 0.  0.
     999903    2    3    3    0    0 -0.73207022802E-01  0.72296529263E-01  0.80807679430E-01  0.13225158020E+00  0.19353115521E-01 0.  0.
         14    1    1    2    0    0  0.19063381086E-01  0.24554769839E-02 -0.15048213939E-01  0.24410870701E-01  0.00000000000E+00 0.  1.
     999901    1    3    3    0    0  0.54143641716E-01 -0.74752006247E-01 -0.65759465492E-01  0.88726754910E+00  0.88000000000E+00 0.  1.
        -11    1    4    4    0    0 -0.25808035865E-01  0.16647646190E-01  0.16376413244E-01  0.34808718313E-01  0.51100000000E-03 0. -1.
         11    1    4    4    0    0 -0.47398986937E-01  0.55648883073E-01  0.64431266187E-01  0.97442861890E-01  0.51100000000E-03 0.  1.
</event>
<event>
 8    1  0.1099921E+005  0.1043930E+01  0.7957747E-01            NaN
         13   -1    0    0    0    0  0.00000000000E+00  0.00000000000E+00  0.74505805969E-08  0.10566000000E+00  0.10566000000E+00 0. -1.
     999900   -1    0    0    0    0 -0.00000000000E+00 -0.00000000000E+00 -0.74505805969E-08  0.93827000000E+00  0.93827000000E+00 0. -1.
     999902    2    1    2    0    0  0.31723260229E-02 -0.38406143855E-02  0.22590727287E-01  0.10207965841E+01  0.10205344243E+01 0.  0.
     999903    2    3    3    0    0 -0.99384315330E-01  0.22390724502E-01 -0.76079998724E-01  0.12897717414E+00  0.21641593448E-01 0.  0.
         14    1    1    2    0    0 -0.31723260229E-02  0.38406143855E-02 -0.22590727287E-01  0.23133415888E-01  0.00000000000E+00 0.  1.
     999901    1    3    3    0    0  0.10255664135E+00 -0.26231338887E-01  0.98670726011E-01  0.89181940997E+00  0.88000000000E+00 0.  1.
        -11    1    4    4    0    0 -0.17338431656E-01 -0.42760925747E-02 -0.12346329574E-01  0.21716333829E-01  0.51100000000E-03 0. -1.
         11    1    4    4    0    0 -0.82045883674E-01  0.26666817077E-01 -0.63733669150E-01  0.10726084032E+00  0.51100000000E-03 0.  1.
</event>
<event>
 8    1  0.1099921E+005  0.1043930E+01  0.7957747E-01            NaN
         13   -1    0    0    0    0  0.00000000000E+00  0.00000000000E+00  0.74505805969E-08  0.10566000000E+00  0.10566000000E+00 0. -1.
     999900   -1    0    0    0    0 -0.00000000000E+00 -0.00000000000E+00 -0.74505805969E-08  0.93827000000E+00  0.93827000000E+00 0. -1.
     999902    2    1    2    0    0  0.10108732558E-01 -0.12485144447E-01  0.17976635603E-01  0.10198213971E+01  0.10195363933E+01 0.  0.
     999903    2    3    3    0    0  0.24624410609E-01 -0.10671731352E+00  0.73209702775E-01  0.13294987411E+00  0.17918198603E-01 0.  0.
         14    1    1    2    0    0 -0.10108732558E-01  0.12485144447E-01 -0.17976635603E-01  0.24108602892E-01  0.00000000000E+00 0.  1.
     999901    1    3    3    0    0 -0.14515678051E-01  0.94232169078E-01 -0.55233067172E-01  0.88687152300E+00  0.88000000000E+00 0. -1.
        -11    1    4    4    0    0  0.24419319297E-01 -0.97980077100E-01  0.72204844831E-01  0.12413782422E+00  0.51100000000E-03 0.  1.
         11    1    4    4    0    0  0.20509131281E-03 -0.87372364248E-02  0.10048579446E-02  0.88120498909E-02  0.51100000000E-03 0. -1.
</event>
<event>
 8    1  0.1099921E+005  0.1043930E+01  0.7957747E-01            NaN
         13   -1    0    0    0    0  0.00000000000E+00  0.00000000000E+00  0.74505805969E-08  0.10566000000E+00  0.10566000000E+00 0. -1.
     999900   -1    0    0    0    0 -0.00000000000E+00 -0.00000000000E+00 -0.74505805969E-08  0.93827000000E+00  0.93827000000E+00 0.  1.
     999902    2    1    2    0    0  0.22152907709E-01 -0.35644359204E-02  0.53782404721E-02  0.10208565955E+01  0.10205958096E+01 0.  0.
     999903    2    3    3    0    0 -0.27369665126E-01  0.80505788382E-01  0.97368459389E-01  0.13069790843E+00  0.19262550521E-01 0.  0.
         14    1    1    2    0    0 -0.22152907709E-01  0.35644359204E-02 -0.53782404721E-02  0.23073404473E-01  0.00000000000E+00 0.  1.
     999901    1    3    3    0    0  0.49522572835E-01 -0.84070224302E-01 -0.91990218917E-01  0.89015868710E+00  0.88000000000E+00 0. -1.
        -11    1    4    4    0    0 -0.16156278385E-01  0.64993896602E-01  0.83576281794E-01  0.10710036380E+00  0.51100000000E-03 0. -1.
         11    1    4    4    0    0 -0.11213386741E-01  0.15511891780E-01  0.13792177595E-01  0.23597544631E-01  0.51100000000E-03 0.  1.
</event>
<event>
 8    1  0.1099921E+005  0.1043930E+01  0.7957747E-01            NaN
         13   -1    0    0    0    0  0.00000000000E+00  0.00000000000E+00  0.74505805969E-08  0.10566000000E+00  0.10566000000E+00 0.  1.
     999900   -1    0    0    0    0 -0.00000000000E+00 -0.00000000000E+00 -0.74505805969E-08  0.93827000000E+00  0.93827000000E+00 0.  1.
     999902    2    1    2    0    0 -0.40073783049E-03 -0.19886712413E-01 -0.11989837402E-01  0.10207050539E+01  0.10204407915E+01 0.  0.
     999903    2    3    3    0    0  0.33875473293E-01  0.70176147734E-01 -0.10314481779E+00  0.13076381544E+00  0.19699811938E-01 0.  0.
         14    1    1    2    0    0  0.40073783049E-03  0.19886712413E-01  0.11989837402E-01  0.23224946121E-01  0.00000000000E+00 0. -1.
     999901    1    3    3    0    0 -0.34276211124E-01 -0.90062860147E-01  0.91154980384E-01  0.88994123844E+00  0.88000000000E+00 0. -1.
        -11    1    4    4    0    0  0.27705811876E-01  0.60651588972E-01 -0.74690337125E-01  0.10012559532E+00  0.51100000000E-03 0. -1.
         11    1    4    4    0    0  0.61696614173E-02  0.95245587623E-02 -0.28454480661E-01  0.30638220123E-01  0.51100000000E-03 0.  1.
</event>
<event>
 8    1  0.1099921E+005  0.1043930E+01  0.7957747E-01            NaN
         13   -1    0    0    0    0  0.00000000000E+00  0.00000000000E+00  0.74505805969E-08  0.10566000000E+00  0.10566000000E+00 0. -1.
     999900   -1    0    0    0    0 -0.00000000000E+00 -0.00000000000E+00 -0.74505805969E-08  0.93827000000E+00  0.93827000000E+00 0. -1.
     999902    2    1    2    0    0  0.11893201677E-01  0.22413961159E-01 -0.57526889877E-02  0.10179121728E+01  0.10175796108E+01 0.  0.
     999903    2    3    3    0    0 -0.11931800790E-01  0.10450783514E+00  0.74129129810E-01  0.13016888793E+00  0.19610099976E-01 0.  0.
         14    1    1    2    0    0 -0.11893201677E-01 -0.22413961159E-01  0.57526889877E-02  0.26017827187E-01  0.00000000000E+00 0. -1.
     999901    1    3    3    0    0  0.23825002467E-01 -0.82093873984E-01 -0.79881818798E-01  0.88774328489E+00  0.88000000000E+00 0.  1.
        -11    1    4    4    0    0 -0.54992700448E-02  0.85729953879E-01  0.51921256759E-01  0.10037900671E+00  0.51100000000E-03 0. -1.
         11    1    4    4    0    0 -0.64325307453E-02  0.18777881264E-01  0.22207873051E-01  0.29789881218E-01  0.51100000000E-03 0.  1.
</event>
<event>
 8    1  0.1099921E+005  0.1043930E+01  0.7957747E-01            NaN
         13   -1    0    0    0    0  0.00000000000E+00  0.00000000000E+00  0.74505805969E-08  0.10566000000E+00  0.10566000000E+00 0. -1.
     999900   -1    0    0    0    0 -0.00000000000E+00 -0.00000000000E+00 -0.74505805969E-08  0.93827000000E+00  0.93827000000E+00 0.  1.
     999902    2    1    2    0    0  0.22048343860E-01  0.94129312511E-02 -0.32820695290E-02  0.10197327952E+01  0.10194456674E+01 0.  0.
     999903    2    3    3    0    0 -0.21918468057E-01  0.23877279446E-01  0.12365084817E+00  0.12942146562E+00  0.20244500311E-01 0.  0.
         14    1    1    2    0    0 -0.22048343860E-01 -0.94129312511E-02  0.32820695290E-02  0.24197204841E-01  0.00000000000E+00 0. -1.
     999901    1    3    3    0    0  0.43966811917E-01 -0.14464348195E-01 -0.12693291770E+00  0.89031132954E+00  0.88000000000E+00 0.  1.
        -11    1    4    4    0    0 -0.12531343243E-01  0.25724777101E-01  0.94181195939E-01  0.98433518224E-01  0.51100000000E-03 0. -1.
         11    1    4    4    0    0 -0.93871248133E-02 -0.18474976556E-02  0.29469652233E-01  0.30987947392E-01  0.51100000000E-03 0.  1.
</event>
<event>
 8    1  0.1099921E+005  0.1043930E+01  0.7957747E-01            NaN
         13   -1    0    0    0    0  0.00000000000E+00  0.00000000000E+00  0.74505805969E-08  0.10566000000E+00  0.10566000000E+00 0. -1.
     999900   -1    0    0    0    0 -0.00000000000E+00 -0.00000000000E+00 -0.74505805969E-08  0.93827000000E+00  0.93827000000E+00 0. -1.
     999902    2    1    2    0    0 -0.22879666359E-01  0.82422617683E-02 -0.12572471779E-01  0.10165533483E+01  0.10161846431E+01 0.  0.
     999903    2    3    3    0    0 -0.92693580379E-01  0.68083298564E-01 -0.58363007957E-01  0.13057834556E+00  0.20421269412E-01 0.  0.
         14    1    1    2    0    0  0.22879666359E-01 -0.82422617683E-02  0.12572471779E-01  0.27376651702E-01  0.00000000000E+00 0.  1.
     999901    1    3    3    0    0  0.69813914020E-01 -0.59841036795E-01  0.45790536178E-01  0.88597500274E+00  0.88000000000E+00 0.  1.
        -11    1    4    4    0    0 -0.48034665564E-01  0.24989833385E-01 -0.20628886818E-01  0.57945085735E-01  0.51100000000E-03 0.  1.
         11    1    4    4    0    0 -0.44658914814E-01  0.43093465179E-01 -0.37734121139E-01  0.72633259824E-01  0.51100000000E-03 0. -1.
</event>
<event>
 8    1  0.1099921E+005  0.1043930E+01  0.7957747E-01            NaN
         13   -1    0    0    0    0  0.00000000000E+00  0.00000000000E+00  0.74505805969E-08  0.10566000000E+00  0.10566000000E+00 0.  1.
     999900   -1    0    0    0    0 -0.00000000000E+00 -0.00000000000E+00 -0.74505805969E-08  0.93827000000E+00  0.93827000000E+00 0. -1.
     999902    2    1    2    0    0 -0.12542171600E-01  0.55700272970E-03  0.20057535594E-01  0.10202673490E+01  0.10199929129E+01 0.  0.
     999903    2    3    3    0    0 -0.20131974894E-01 -0.12402882208E+00 -0.27654915302E-01  0.13017987526E+00  0.19838358347E-01 0.  0.
         14    1    1    2    0    0  0.12542171600E-01 -0.55700272970E-03 -0.20057535594E-01  0.23662651048E-01  0.00000000000E+00 0. -1.
     999901    1    3    3    0    0  0.75898032937E-02  0.12458582481E+00  0.47712450896E-01  0.89008747369E+00  0.88000000000E+00 0. -1.
        -11    1    4    4    0    0  0.37121580708E-02 -0.28222722348E-01 -0.55776789903E-02  0.29011614884E-01  0.51100000000E-03 0.  1.
         11    1    4    4    0    0 -0.23844132964E-01 -0.95806099733E-01 -0.22077236312E-01  0.10116826037E+00  0.51100000000E-03 0. -1.
</event>
<event>
 8    1  0.1099921E+005  0.1043930E+01  0.7957747E-01            NaN
         13   -1    0    0    0    0  0.00000000000E+00  0.00000000000E+00  0.74505805969E-08  0.10566000000E+00  0.10566000000E+00 0.  1.
     999900   -1    0    0    0    0 -0.00000000000E+00 -0.00000000000E+00 -0.74505805969E-08  0.93827000000E+00  0.93827000000E+00 0. -1.
     999902    2    1    2    0    0  0.67024112013E-02  0.17713822068E-01  0.14435760004E-01  0.10201162860E+01  0.10198382930E+01 0.  0.
     999903    2    3    3    0    0 -0.14421140256E-01 -0.12172545351E+00 -0.30098298874E-01  0.12777509653E+00  0.19887493063E-01 0.  0.
         14    1    1    2    0    0 -0.67024112013E-02 -0.17713822068E-01 -0.14435760004E-01  0.23813714012E-01  0.00000000000E+00 0. -1.
     999901    1    3    3    0    0  0.21123551457E-01  0.13943927558E+00  0.44534058878E-01  0.89234118946E+00  0.88000000000E+00 0.  1.
        -11    1    4    4    0    0 -0.17861649179E-01 -0.67406268731E-01 -0.17876294252E-01  0.71989350552E-01  0.51100000000E-03 0. -1.
         11    1    4    4    0    0  0.34405089234E-02 -0.54319184778E-01 -0.12222004621E-01  0.55785745980E-01  0.51100000000E-03 0.  1.
</event>
<event>
 8    1  0.1099921E+005  0.1043930E+01  0.7957747E-01            NaN
         13   -1    0    0    0    0  0.00000000000E+00  0.00000000000E+00  0.74505805969E-08  0.10566000000E+00  0.10566000000E+00 0. -1.
     999900   -1    0    0    0    0 -0.00000000000E+00 -0.00000000000E+00 -0.74505805969E-08  0.93827000000E+00  0.93827000000E+00 0.  1.
     999902    2    1    2    0    0  0.63806291884E-02  0.19913771479E-01  0.11830757895E-01  0.10199042314E+01  0.10196212060E+01 0.  0.
     999903    2    3    3    0    0 -0.11578322448E+00  0.30197753680E-01 -0.45465165321E-01  0.12956014611E+00  0.20027251554E-01 0.  0.
         14    1    1    2    0    0 -0.63806291884E-02 -0.19913771479E-01 -0.11830757895E-01  0.24025768578E-01  0.00000000000E+00 0.  1.
     999901    1    3    3    0    0  0.12216385367E+00 -0.10283982201E-01  0.57295923216E-01  0.89034408531E+00  0.88000000000E+00 0.  1.
        -11    1    4    4    0    0 -0.74206179865E-01  0.29048874768E-01 -0.28416890825E-01  0.84605998963E-01  0.51100000000E-03 0.  1.
         11    1    4    4    0    0 -0.41577044613E-01  0.11488789130E-02 -0.17048274496E-01  0.44954147148E-01  0.51100000000E-03 0. -1.
</event>
<event>
 8    1  0.1099921E+005  0.1043930E+01  0.7957747E-01            NaN
         13   -1    0    0    0    0  0.00000000000E+00  0.00000000000E+00  0.74505805969E-08  0.10566000000E+00  0.10566000000E+00 0.  1.
     999900   -1    0    0    0    0 -0.00000000000E+00 -0.00000000000E+00 -0.74505805969E-08  0.93827000000E+00  0.93827000000E+00 0.  1.
     999902    2    1    2    0    0 -0.31029736286E-02 -0.16813471877E-03 -0.24698991442E-01  0.10190362881E+01  0.10187321824E+01 0.  0.
     999903    2    3    3    0    0  0.76355411623E-02 -0.10607601722E+00  0.67985339570E-01  0.12778874644E+00  0.19938264742E-01 0.  0.
         14    1    1    2    0    0  0.31029736286E-02  0.16813471877E-03  0.24698991442E-01  0.24893711914E-01  0.00000000000E+00 0.  1.
     999901    1    3    3    0    0 -0.10738514791E-01  0.10590788251E+00 -0.92684331012E-01  0.89124754165E+00  0.88000000000E+00 0.  1.
        -11    1    4    4    0    0 -0.45833997929E-02 -0.35938047566E-01  0.30308491194E-01  0.47237872264E-01  0.51100000000E-03 0. -1.
         11    1    4    4    0    0  0.12218940955E-01 -0.70137969658E-01  0.37676848376E-01  0.80550874175E-01  0.51100000000E-03 0.  1.
</event>
<event>
 8    1  0.1099921E+005  0.1043930E+01  0.7957747E-01            NaN
         13   -1    0    0    0    0  0.00000000000E+00  0.00000000000E+00  0.74505805969E-08  0.10566000000E+00  0.10566000000E+00 0.  1.
     999900   -1    0    0    0    0 -0.00000000000E+00 -0.00000000000E+00 -0.74505805969E-08  0.93827000000E+00  0.93827000000E+00 0.  1.
     999902    2    1    2    0    0  0.19911385173E-01 -0.97914690821E-02 -0.61589215640E-02  0.10209024417E+01  0.10206427029E+01 0.  0.
     999903    2    3    3    0    0  0.90419199917E-02 -0.13048767113E+00 -0.78017434266E-02  0.13259595331E+00  0.20298546695E-01 0.  0.
         14    1    1    2    0    0 -0.19911385173E-01  0.97914690821E-02  0.61589215640E-02  0.23027558297E-01  0.00000000000E+00 0. -1.
     999901    1    3    3    0    0  0.10869465181E-01  0.12069620205E+00  0.16428218625E-02  0.88830648840E+00  0.88000000000E+00 0.  1.
        -11    1    4    4    0    0  0.13449442034E-01 -0.65835306389E-01 -0.88891060757E-02  0.67782389941E-01  0.51100000000E-03 0.  1.
         11    1    4    4    0    0 -0.44075220424E-02 -0.64652364744E-01  0.10873626491E-02  0.64813563365E-01  0.51100000000E-03 0. -1.
</event>
<event>
 8    1  0.1099921E+005  0.1043930E+01  0.7957747E-01            NaN
         13   -1    0    0    0    0  0.00000000000E+00  0.00000000000E+00  0.74505805969E-08  0.10566000000E+00  0.10566000000E+00 0.  1.
     999900   -1    0    0    0    0 -0.00000000000E+00 -0.00000000000E+00 -0.74505805969E-08  0.93827000000E+00  0.93827000000E+00 0. -1.
     999902    2    1    2    0    0 -0.54780445806E-02  0.24910140261E-01  0.28533134545E-02  0.10182655215E+01  0.10179420449E+01 0.  0.
     999903    2    3    3    0    0 -0.96612341490E-01  0.68766646488E-01  0.51821410993E-01  0.13112025277E+00  0.21077614940E-01 0.  0.
         14    1    1    2    0    0  0.54780445806E-02 -0.24910140261E-01 -0.28533134545E-02  0.25664478524E-01  0.00000000000E+00 0. -1.
     999901    1    3    3    0    0  0.91134296909E-01 -0.43856506227E-01 -0.48968097539E-01  0.88714526871E+00  0.88000000000E+00 0. -1.
        -11    1    4    4    0    0 -0.43610730515E-01  0.42320079003E-01  0.31828194200E-01  0.68601603260E-01  0.51100000000E-03 0.  1.
         11    1    4    4    0    0 -0.53001610975E-01  0.26446567486E-01  0.19993216794E-01  0.62518649509E-01  0.51100000000E-03 0. -1.
</event>
<event>
 8    1  0.1099921E+005  0.1043930E+01  0.7957747E-01            NaN
         13   -1    0    0    0    0  0.00000000000E+00  0.00000000000E+00  0.74505805969E-08  0.10566000000E+00  0.10566000000E+00 0.  1.
     999900   -1    0    0    0    0 -0.00000000000E+00 -0.00000000000E+00 -0.74505805969E-08  0.93827000000E+00  0.93827000000E+00 0. -1.
     999902    2    1    2    0    0 -0.51823811110E-02 -0.18862313161E-01 -0.13836142327E-01  0.10199699757E+01  0.10196885154E+01 0.  0.
     999903    2    3    3    0    0 -0.11832621339E+00 -0.51434196821E-01 -0.19969219561E-01  0.13210733481E+00  0.20174459175E-01 0.  0.
         14    1    1    2    0    0  0.51823811110E-02  0.18862313161E-01  0.13836142327E-01  0.23960024338E-01  0.00000000000E+00 0.  1.
     999901    1    3    3    0    0  0.11314383228E+00  0.32571883659E-01  0.61330772336E-02  0.88786264085E+00  0.88000000000E+00 0. -1.
        -11    1    4    4    0    0 -0.86134557571E-01 -0.44710386097E-01 -0.20600294171E-01  0.99210956420E-01  0.51100000000E-03 0. -1.
         11    1    4    4    0    0 -0.32191655817E-01 -0.67238107236E-02  0.63107461056E-03  0.32896378388E-01  0.51100000000E-03 0.  1.
</event>
<event>
 8    1  0.1099921E+005  0.1043930E+01  0.7957747E-01            NaN
         13   -1    0    0    0    0  0.00000000000E+00  0.00000000000E+00  0.74505805969E-08  0.10566000000E+00  0.10566000000E+00 0. -1.
     999900   -1    0    0    0    0 -0.00000000000E+00 -0.00000000000E+00 -0.74505805969E-08  0.93827000000E+00  0.93827000000E+00 0.  1.
     999902    2    1    2    0    0 -0.91127857190E-02 -0.85128822716E-02  0.21104112443E-01  0.10194168282E+01  0.10191220604E+01 0.  0.
     999903    2    3    3    0    0 -0.74496066701E-01  0.95395109929E-01 -0.39390936128E-01  0.12883752509E+00  0.19939184317E-01 0.  0.
         14    1    1    2    0    0  0.91127857190E-02  0.85128822716E-02 -0.21104112443E-01  0.24513171768E-01  0.00000000000E+00 0.  1.
     999901    1    3    3    0    0  0.65383280982E-01 -0.10390799220E+00  0.60495048571E-01  0.89057930314E+00  0.88000000000E+00 0. -1.
        -11    1    4    4    0    0 -0.42724246674E-01  0.63167688710E-01 -0.33135627667E-01  0.83148957256E-01  0.51100000000E-03 0. -1.
         11    1    4    4    0    0 -0.31771820026E-01  0.32227421219E-01 -0.62553084613E-02  0.45688567839E-01  0.51100000000E-03 0.  1.
</event>
<event>
 8    1  0.1099921E+005  0.1043930E+01  0.7957747E-01            NaN
         13   -1    0    0    0    0  0.00000000000E+00  0.00000000000E+00  0.74505805969E-08  0.10566000000E+00  0.10566000000E+00 0.  1.
     999900   -1    0    0    0    0 -0.00000000000E+00 -0.00000000000E+00 -0.74505805969E-08  0.93827000000E+00  0.93827000000E+00 0. -1.
     999902    2    1    2    0    0  0.24015156043E-01 -0.15779577267E-03  0.19690906261E-02  0.10198337360E+01  0.10195490274E+01 0.  0.
     999903    2    3    3    0    0  0.90816107588E-01  0.92355260946E-01 -0.17506782432E-01  0.13225256092E+00  0.20179019197E-01 0.  0.
         14    1    1    2    0    0 -0.24015156043E-01  0.15779577267E-03 -0.19690906261E-02  0.24096263967E-01  0.00000000000E+00 0.  1.
     999901    1    3    3    0    0 -0.66800951544E-01 -0.92513056719E-01  0.19475873058E-01  0.88758117512E+00  0.88000000000E+00 0.  1.
        -11    1    4    4    0    0  0.51271926538E-01  0.50418006135E-01 -0.19726592133E-01  0.74566650399E-01  0.51100000000E-03 0.  1.
         11    1    4    4    0    0  0.39544181050E-01  0.41937254811E-01  0.22198097018E-02  0.57685910516E-01  0.51100000000E-03 0. -1.
</event>
<event>
 8    1  0.1099921E+005  0.1043930E+01  0.7957747E-01            NaN
         13   -1    0    0    0    0  0.00000000000E+00  0.00000000000E+00  0.74505805969E-08  0.10566000000E+00  0.10566000000E+00 0. -1.
     999900   -1    0    0    0    0 -0.00000000000E+00 -0.00000000000E+00 -0.74505805969E-08  0.93827000000E+00  0.93827000000E+00 0. -1.
     999902    2    1    2    0    0  0.16166520848E-01 -0.42930219756E-02  0.14520271446E-01  0.10217799500E+01  0.10215398384E+01 0.  0.
     999903    2    3    3    0    0  0.15769120940E-01  0.12606350080E+00 -0.27292810988E-01  0.13119513377E+00  0.18071917059E-01 0.  0.
         14    1    1    2    0    0 -0.16166520848E-01  0.42930219756E-02 -0.14520271446E-01  0.22150050042E-01  0.00000000000E+00 0.  1.
     999901    1    3    3    0    0  0.39739990793E-03 -0.13035652277E+00  0.41813082434E-01  0.89058481618E+00  0.88000000000E+00 0.  1.
        -11    1    4    4    0    0  0.74066631266E-02  0.13151015872E-01 -0.31967742849E-02  0.15436591721E-01  0.51100000000E-03 0.  1.
         11    1    4    4    0    0  0.83624578133E-02  0.11291248492E+00 -0.24096036703E-01  0.11575854205E+00  0.51100000000E-03 0. -1.
</event>
<event>
 8    1  0.1099921E+005  0.1043930E+01  0.7957747E-01            NaN
         13   -1    0    0    0    0  0.00000000000E+00  0.00000000000E+00  0.74505805969E-08  0.10566000000E+00  0.10566000000E+00 0. -1.
     999900   -1    0    0    0    0 -0.00000000000E+00 -0.00000000000E+00 -0.74505805969E-08  0.93827000000E+00  0.93827000000E+00 0.  1.
     999902    2    1    2    0    0 -0.17286344600E-02 -0.22548099883E-01  0.25643583814E-02  0.10211708058E+01  0.10209171532E+01 0.  0.
     999903    2    3    3    0    0  0.10782189083E+00 -0.24334440361E-01 -0.68392467408E-01  0.13154201823E+00  0.20200193861E-01 0.  0.
         14    1    1    2    0    0  0.17286344600E-02  0.22548099883E-01 -0.25643583814E-02  0.22759194172E-01  0.00000000000E+00 0. -1.
     999901    1    3    3    0    0 -0.10955052529E+00  0.17863404773E-02  0.70956825789E-01  0.88962878760E+00  0.88000000000E+00 0. -1.
        -11    1    4    4    0    0  0.24546265070E-01 -0.11810576745E-01 -0.98131767696E-02  0.28958045709E-01  0.51100000000E-03 0.  1.
         11    1    4    4    0    0  0.83275625756E-01 -0.12523863615E-01 -0.58579290638E-01  0.10258397252E+00  0.51100000000E-03 0. -1.
</event>
<event>
 8    1  0.1099921E+005  0.1043930E+01  0.7957747E-01            NaN
         13   -1    0    0    0    0  0.00000000000E+00  0.00000000000E+00  0.74505805969E-08  0.10566000000E+00  0.10566000000E+00 0. -1.
     999900   -1    0    0    0    0 -0.00000000000E+00 -0.00000000000E+00 -0.74505805969E-08  0.93827000000E+00  0.93827000000E+00 0.  1.
     999902    2    1    2    0    0  0.17187023224E-01  0.15946882209E-01  0.14206488165E-02  0.10204413844E+01  0.10201710170E+01 0.  0.
     999903    2    3    3    0    0  0.10296403976E+00 -0.30289419300E-01  0.74557738594E-01  0.13204703163E+00  0.18934618370E-01 0.  0.
         14    1    1    2    0    0 -0.17187023224E-01 -0.15946882209E-01 -0.14206488165E-02  0.23488615595E-01  0.00000000000E+00 0. -1.
     999901    1    3    3    0    0 -0.85777016535E-01  0.46236301509E-01 -0.73137089777E-01  0.88839435278E+00  0.88000000000E+00 0.  1.
        -11    1    4    4    0    0  0.65412835477E-01 -0.21943482327E-01  0.58110552253E-01  0.90207831511E-01  0.51100000000E-03 0.  1.
         11    1    4    4    0    0  0.37551204282E-01 -0.83459369735E-02  0.16447186341E-01  0.41839200119E-01  0.51100000000E-03 0. -1.
</event>
<event>
 8    1  0.1099921E+005  0.1043930E+01  0.7957747E-01            NaN
         13   -1    0    0    0    0  0.00000000000E+00  0.00000000000E+00  0.74505805969E-08  0.10566000000E+00  0.10566000000E+00 0.  1.
     999900   -1    0    0    0    0 -0.00000000000E+00 -0.00000000000E+00 -0.74505805969E-08  0.93827000000E+00  0.93827000000E+00 0.  1.
     999902    2    1    2    0    0 -0.12136789454E-01  0.86404951756E-02 -0.19159057795E-01  0.10196600739E+01  0.10193711969E+01 0.  0.
     999903    2    3    3    0    0  0.33059914424E-01  0.17166617296E-01  0.11983249288E+00  0.12756473826E+00  0.22919105680E-01 0.  0.
         14    1    1    2    0    0  0.12136789454E-01 -0.86404951756E-02  0.19159057795E-01  0.24269926055E-01  0.00000000000E+00 0.  1.
     999901    1    3    3    0    0 -0.45196703878E-01 -0.85261221203E-02 -0.13899155068E+00  0.89209533569E+00  0.88000000000E+00 0.  1.
        -11    1    4    4    0    0 -0.20460788777E-02  0.66164768098E-02  0.15695823419E-01  0.17163455304E-01  0.51100000000E-03 0.  1.
         11    1    4    4    0    0  0.35105993302E-01  0.10550140486E-01  0.10413666946E+00  0.11040128295E+00  0.51100000000E-03 0. -1.
</event>
<event>
 8    1  0.1099921E+005  0.1043930E+01  0.7957747E-01            NaN
         13   -1    0    0    0    0  0.00000000000E+00  0.00000000000E+00  0.74505805969E-08  0.10566000000E+00  0.10566000000E+00 0.  1.
     999900   -1    0    0    0    0 -0.00000000000E+00 -0.00000000000E+00 -0.74505805969E-08  0.93827000000E+00  0.93827000000E+00 0.  1.
     999902    2    1    2    0    0 -0.22043104504E-02 -0.20761231952E-01 -0.13096361231E-01  0.10192844646E+01  0.10189864658E+01 0.  0.
     999903    2    3    3    0    0  0.71427691056E-01 -0.96458440996E-01 -0.51696542638E-01  0.13213075014E+00  0.19489913385E-01 0.  0.
         14    1    1    2    0    0  0.22043104504E-02  0.20761231952E-01  0.13096361231E-01  0.24645535381E-01  0.00000000000E+00 0.  1.
     999901    1    3    3    0    0 -0.73632001506E-01  0.75697209044E-01  0.38600181407E-01  0.88715371448E+00  0.88000000000E+00 0. -1.
        -11    1    4    4    0    0  0.68240464685E-01 -0.95699252131E-01 -0.52481259012E-01  0.12872315855E+00  0.51100000000E-03 0.  1.
         11    1    4    4    0    0  0.31872263704E-02 -0.75918886475E-03  0.78471637417E-03  0.34075915918E-02  0.51100000000E-03 0. -1.
</event>
<event>
 8    1  0.1099921E+005  0.1043930E+01  0.7957747E-01            NaN
         13   -1    0    0    0    0  0.00000000000E+00  0.00000000000E+00  0.74505805969E-08  0.10566000000E+00  0.10566000000E+00 0. -1.
     999900   -1    0    0    0    0 -0.00000000000E+00 -0.00000000000E+00 -0.74505805969E-08  0.93827000000E+00  0.93827000000E+00 0. -1.
     999902    2    1    2    0    0  0.67068855042E-02  0.30206659289E-02  0.21992299609E-01  0.10207401751E+01  0.10204767205E+01 0.  0.
     999903    2    3    3    0    0 -0.34823251996E-01  0.40769485808E-01  0.12048383237E+00  0.13346890446E+00  0.20561730009E-01 0.  0.
         14    1    1    2    0    0 -0.67068855042E-02 -0.30206659289E-02 -0.21992299609E-01  0.23189824879E-01  0.00000000000E+00 0.  1.
     999901    1    3    3    0    0  0.41530137500E-01 -0.37748819879E-01 -0.98491532762E-01  0.88727127067E+00  0.88000000000E+00 0. -1.
        -11    1    4    4    0    0 -0.18382735152E-01  0.13906137357E-01  0.31220380151E-01  0.38810808618E-01  0.51100000000E-03 0. -1.
         11    1    4    4    0    0 -0.16440516844E-01  0.26863348451E-01  0.89263452221E-01  0.94658095837E-01  0.51100000000E-03 0.  1.
</event>
<event>
 8    1  0.1099921E+005  0.1043930E+01  0.7957747E-01            NaN
         13   -1    0    0    0    0  0.00000000000E+00  0.00000000000E+00  0.74505805969E-08  0.10566000000E+00  0.10566000000E+00 0.  1.
     999900   -1    0    0    0    0 -0.00000000000E+00 -0.00000000000E+00 -0.74505805969E-08  0.93827000000E+00  0.93827000000E+00 0.  1.
     999902    2    1    2    0    0  0.16679271134E-02 -0.12190862252E-01  0.19730699798E-01  0.10206770514E+01  0.10204121440E+01 0.  0.
     999903    2    3    3    0    0  0.93565577102E-01  0.81603574018E-01 -0.30796178516E-01  0.12950055948E+00  0.20207171580E-01 0.  0.
         14    1    1    2    0    0 -0.16679271134E-02  0.12190862252E-01 -0.19730699798E-01  0.23252948584E-01  0.00000000000E+00 0. -1.
     999901    1    3    3    0    0 -0.91897649989E-01 -0.93794436270E-01  0.50526878314E-01  0.89117649194E+00  0.88000000000E+00 0.  1.
        -11    1    4    4    0    0  0.45080367255E-01  0.52634492616E-01 -0.16957105986E-01  0.71347276677E-01  0.51100000000E-03 0. -1.
         11    1    4    4    0    0  0.48485209847E-01  0.28969081402E-01 -0.13839072530E-01  0.58153282802E-01  0.51100000000E-03 0.  1.
</event>
<event>
 8    1  0.1099921E+005  0.1043930E+01  0.7957747E-01            NaN
         13   -1    0    0    0    0  0.00000000000E+00  0.00000000000E+00  0.74505805969E-08  0.10566000000E+00  0.10566000000E+00 0. -1.
     999900   -1    0    0    0    0 -0.00000000000E+00 -0.00000000000E+00 -0.74505805969E-08  0.93827000000E+00  0.93827000000E+00 0.  1.
     999902    2    1    2    0    0 -0.19776245688E-01  0.32244511144E-02  0.79285898842E-02  0.10223809973E+01  0.10221538750E+01 0.  0.
     999903    2    3    3    0    0  0.10200990251E-01 -0.68456124514E-01 -0.10947287790E+00  0.13119086934E+00  0.20890955355E-01 0.  0.
         14    1    1    2    0    0  0.19776245688E-01 -0.32244511144E-02 -0.79285898842E-02  0.21549002669E-01  0.00000000000E+00 0. -1.
     999901    1    3    3    0    0 -0.29977235938E-01  0.71680575628E-01  0.11740146779E+00  0.89119012799E+00  0.88000000000E+00 0. -1.
        -11    1    4    4    0    0  0.49997288547E-02 -0.45622047211E-01 -0.88748238359E-01  0.99914360396E-01  0.51100000000E-03 0.  1.
         11    1    4    4    0    0  0.52012613958E-02 -0.22834077303E-01 -0.20724639541E-01  0.31276508940E-01  0.51100000000E-03 0. -1.
</event>
<event>
 8    1  0.1099921E+005  0.1043930E+01  0.7957747E-01            NaN
         13   -1    0    0    0    0  0.00000000000E+00  0.00000000000E+00  0.74505805969E-08  0.10566000000E+00  0.10566000000E+00 0.  1.
     999900   -1    0    0    0    0 -0.00000000000E+00 -0.00000000000E+00 -0.74505805969E-08  0.93827000000E+00  0.93827000000E+00 0. -1.
     999902    2    1    2    0    0 -0.13802167224E-01  0.51959976166E-02 -0.18335505591E-01  0.10203994034E+01  0.10201280574E+01 0.  0.
     999903    2    3    3    0    0  0.91228379942E-01 -0.28851972069E-01 -0.86871940625E-01  0.13085574342E+00  0.20528953175E-01 0.  0.
         14    1    1    2    0    0  0.13802167224E-01 -0.51959976166E-02  0.18335505591E-01  0.23530596605E-01  0.00000000000E+00 0. -1.
     999901    1    3    3    0    0 -0.10503054717E+00  0.34047969685E-01  0.68536435034E-01  0.88954365998E+00  0.88000000000E+00 0. -1.
        -11    1    4    4    0    0  0.71691211361E-01 -0.27395379792E-01 -0.59109028286E-01  0.96872467535E-01  0.51100000000E-03 0. -1.
         11    1    4    4    0    0  0.19537168581E-01 -0.14565922765E-02 -0.27762912339E-01  0.33983275883E-01  0.51100000000E-03 0.  1.
</event>
<event>
 8    1  0.1099921E+005  0.1043930E+01  0.7957747E-01            NaN
         13   -1    0    0    0    0  0.00000000000E+00  0.00000000000E+00  0.74505805969E-08  0.10566000000E+00  0.10566000000E+00 0. -1.
     999900   -1    0    0    0    0 -0.00000000000E+00 -0.00000000000E+00 -0.74505805969E-08  0.93827000000E+00  0.93827000000E+00 0.  1.
     999902    2    1    2    0    0 -0.13292784095E-01 -0.43370203813E-02  0.16342232040E-01  0.10224224106E+01  0.10221961696E+01 0.  0.
     999903    2    3    3    0    0  0.38790819607E-01 -0.89059353143E-01 -0.85170791262E-01  0.13102156396E+00  0.21824080073E-01 0.  0.
         14    1    1    2    0    0  0.13292784095E-01  0.43370203813E-02 -0.16342232040E-01  0.21507589424E-01  0.00000000000E+00 0. -1.
     999901    1    3    3    0    0 -0.52083603702E-01  0.84722332761E-01  0.10151302330E+00  0.89140084661E+00  0.88000000000E+00 0. -1.
        -11    1    4    4    0    0  0.19104621223E-02 -0.19543976669E-01 -0.25882685049E-01  0.32492943787E-01  0.51100000000E-03 0.  1.
         11    1    4    4    0    0  0.36880357485E-01 -0.69515376474E-01 -0.59288106213E-01  0.98528620176E-01  0.51100000000E-03 0. -1.
</event>
<event>
 8    1  0.1099921E+005  0.1043930E+01  0.7957747E-01            NaN
         13   -1    0    0    0    0  0.00000000000E+00  0.00000000000E+00  0.74505805969E-08  0.10566000000E+00  0.10566000000E+00 0. -1.
     999900   -1    0    0    0    0 -0.00000000000E+00 -0.00000000000E+00 -0.74505805969E-08  0.93827000000E+00  0.93827000000E+00 0. -1.
     999902    2    1    2    0    0  0.12856356250E-02  0.87498389573E-02  0.22251112699E-01  0.10199858033E+01  0.10197047192E+01 0.  0.
     999903    2    3    3    0    0  0.94653928443E-01  0.77469618414E-01  0.45375127005E-01  0.13208109767E+00  0.20630226934E-01 0.  0.
         14    1    1    2    0    0 -0.12856356250E-02 -0.87498389573E-02 -0.22251112699E-01  0.23944196731E-01  0.00000000000E+00 0.  1.
     999901    1    3    3    0    0 -0.93368292818E-01 -0.68719779457E-01 -0.23124014306E-01  0.88790470560E+00  0.88000000000E+00 0.  1.
        -11    1    4    4    0    0  0.56623131163E-01  0.35551262086E-01  0.18197246090E-01  0.69292655490E-01  0.51100000000E-03 0.  1.
         11    1    4    4    0    0  0.38030797280E-01  0.41918356329E-01  0.27177880915E-01  0.62788442178E-01  0.51100000000E-03 0. -1.
</event>
<event>
 8    1  0.1099921E+005  0.1043930E+01  0.7957747E-01            NaN
         13   -1    0    0    0    0  0.00000000000E+00  0.00000000000E+00  0.74505805969E-08  0.10566000000E+00  0.10566000000E+00 0.  1.
     999900   -1    0    0    0    0 -0.00000000000E+00 -0.00000000000E+00 -0.74505805969E-08  0.93827000000E+00  0.93827000000E+00 0. -1.
     999902    2    1    2    0    0  0.18393957303E-01  0.36301780987E-02 -0.14207154432E-01  0.10204064141E+01  0.10201352316E+01 0.  0.
     999903    2    3    3    0    0  0.10818281738E-02 -0.68759913318E-01 -0.11080349829E+00  0.13199722411E+00  0.20414600369E-01 0.  0.
         14    1    1    2    0    0 -0.18393957303E-01 -0.36301780987E-02  0.14207154432E-01  0.23523585937E-01  0.00000000000E+00 0.  1.
     999901    1    3    3    0    0  0.17312129129E-01  0.72390091417E-01  0.96596343854E-01  0.88840918995E+00  0.88000000000E+00 0. -1.
        -11    1    4    4    0    0  0.36225274662E-02 -0.42065739615E-01 -0.84340542267E-01  0.94319867183E-01  0.51100000000E-03 0. -1.
         11    1    4    4    0    0 -0.25406992924E-02 -0.26694173703E-01 -0.26462956019E-01  0.37677356925E-01  0.51100000000E-03 0.  1.
</event>
<event>
 8    1  0.1099921E+005  0.1043930E+01  0.7957747E-01            NaN
         13   -1    0    0    0    0  0.00000000000E+00  0.00000000000E+00  0.74505805969E-08  0.10566000000E+00  0.10566000000E+00 0. -1.
     999900   -1    0    0    0    0 -0.00000000000E+00 -0.00000000000E+00 -0.74505805969E-08  0.93827000000E+00  0.93827000000E+00 0. -1.
     999902    2    1    2    0    0  0.65156515929E-02 -0.52697254872E-02  0.21887283084E-01  0.10204933432E+01  0.10202241845E+01 0.  0.
     999903    2    3    3    0    0  0.10923975267E+00 -0.25663347688E-01  0.68482504463E-01  0.13305925806E+00  0.20566520341E-01 0.  0.
         14    1    1    2    0    0 -0.65156515929E-02  0.52697254872E-02 -0.21887283084E-01  0.23436656827E-01  0.00000000000E+00 0.  1.
     999901    1    3    3    0    0 -0.10272410108E+00  0.20393622201E-01 -0.46595221379E-01  0.88743408512E+00  0.88000000000E+00 0. -1.
        -11    1    4    4    0    0  0.49191646441E-01 -0.16227453013E-01  0.20880646266E-01  0.55851685923E-01  0.51100000000E-03 0.  1.
         11    1    4    4    0    0  0.60048106231E-01 -0.94358946746E-02  0.47601858197E-01  0.77207572135E-01  0.51100000000E-03 0. -1.
</event>
<event>
 8    1  0.1099921E+005  0.1043930E+01  0.7957747E-01            NaN
         13   -1    0    0    0    0  0.00000000000E+00  0.00000000000E+00  0.74505805969E-08  0.10566000000E+00  0.10566000000E+00 0. -1.
     999900   -1    0    0    0    0 -0.00000000000E+00 -0.00000000000E+00 -0.74505805969E-08  0.93827000000E+00  0.93827000000E+00 0.  1.
     999902    2    1    2    0    0 -0.26816449469E-02  0.18266929042E-01 -0.19685110973E-01  0.10169415671E+01  0.10165833834E+01 0.  0.
     999903    2    3    3    0    0  0.13743316103E-01  0.67840954734E-01 -0.10965507128E+00  0.13081406097E+00  0.17228174952E-01 0.  0.
         14    1    1    2    0    0  0.26816449469E-02 -0.18266929042E-01  0.19685110973E-01  0.26988432897E-01  0.00000000000E+00 0. -1.
     999901    1    3    3    0    0 -0.16424961050E-01 -0.49574025693E-01  0.89969960310E-01  0.88612750613E+00  0.88000000000E+00 0.  1.
        -11    1    4    4    0    0  0.22666864489E-02  0.36074513617E-01 -0.43717482683E-01  0.56727311000E-01  0.51100000000E-03 0.  1.
         11    1    4    4    0    0  0.11476629654E-01  0.31766441118E-01 -0.65937588600E-01  0.74086749969E-01  0.51100000000E-03 0. -1.
</event>
<event>
 8    1  0.1099921E+005  0.1043930E+01  0.7957747E-01            NaN
         13   -1    0    0    0    0  0.00000000000E+00  0.00000000000E+00  0.74505805969E-08  0.10566000000E+00  0.10566000000E+00 0. -1.
     999900   -1    0    0    0    0 -0.00000000000E+00 -0.00000000000E+00 -0.74505805969E-08  0.93827000000E+00  0.93827000000E+00 0.  1.
     999902    2    1    2    0    0 -0.10092439077E-02  0.96639920413E-02 -0.23034931432E-01  0.10189296124E+01  0.10186228623E+01 0.  0.
     999903    2    3    3    0    0 -0.18297413805E-01  0.26999867938E-01 -0.12681488069E+00  0.13249309954E+00  0.20214332574E-01 0.  0.
         14    1    1    2    0    0  0.10092439077E-02 -0.96639920413E-02  0.23034931432E-01  0.25000387627E-01  0.00000000000E+00 0. -1.
     999901    1    3    3    0    0  0.17288169897E-01 -0.17335875897E-01  0.10377994926E+00  0.88643651283E+00  0.88000000000E+00 0. -1.
        -11    1    4    4    0    0 -0.15384793682E-01  0.87107884128E-02 -0.40198715731E-01  0.43917736495E-01  0.51100000000E-03 0. -1.
         11    1    4    4    0    0 -0.29126201228E-02  0.18289079526E-01 -0.86616164958E-01  0.88575363047E-01  0.51100000000E-03 0.  1.
</event>
<event>
 8    1  0.1099921E+005  0.1043930E+01  0.7957747E-01            NaN
         13   -1    0    0    0    0  0.00000000000E+00  0.00000000000E+00  0.74505805969E-08  0.10566000000E+00  0.10566000000E+00 0. -1.
     999900   -1    0    0    0    0 -0.00000000000E+00 -0.00000000000E+00 -0.74505805969E-08  0.93827000000E+00  0.93827000000E+00 0. -1.
     999902    2    1    2    0    0 -0.14833012177E-01  0.10188586202E-02 -0.18217824510E-01  0.10204152078E+01  0.10201442304E+01 0.  0.
     999903    2    3    3    0    0 -0.10597203549E+00 -0.69986065519E-01 -0.32055822151E-01  0.13275563846E+00  0.21641675926E-01 0.  0.
         14    1    1    2    0    0  0.14833012177E-01 -0.10188586202E-02  0.18217824510E-01  0.23514792217E-01  0.00000000000E+00 0.  1.
     999901    1    3    3    0    0  0.91139023316E-01  0.71004924139E-01  0.13837997641E-01  0.88765956932E+00  0.88000000000E+00 0. -1.
        -11    1    4    4    0    0 -0.87233877911E-01 -0.49866904638E-01 -0.31308755676E-01  0.10524712318E+00  0.51100000000E-03 0.  1.
         11    1    4    4    0    0 -0.18738157582E-01 -0.20119160880E-01 -0.74706647525E-03  0.27508515289E-01  0.51100000000E-03 0. -1.
</event>
<event>
 8    1  0.1099921E+005  0.1043930E+01  0.7957747E-01            NaN
         13   -1    0    0    0    0  0.00000000000E+00  0.00000000000E+00  0.74505805969E-08  0.10566000000E+00  0.10566000000E+00 0. -1.
     999900   -1    0    0    0    0 -0.00000000000E+00 -0.00000000000E+00 -0.74505805969E-08  0.93827000000E+00  0.93827000000E+00 0. -1.
     999902    2    1    2    0    0 -0.27300137695E-02 -0.17428107046E-01 -0.20985155181E-01  0.10165152480E+01  0.10161455018E+01 0.  0.
     999903    2    3    3    0    0 -0.25678572294E-01 -0.12388572390E+00 -0.21310025170E-01  0.12980223575E+00  0.19683535491E-01 0.  0.
         14    1    1    2    0    0  0.27300137695E-02  0.17428107046E-01  0.20985155181E-01  0.27414752020E-01  0.00000000000E+00 0. -1.
     999901    1    3    3    0    0  0.22948558524E-01  0.10645761686E+00  0.32486998942E-03  0.88671301223E+00  0.88000000000E+00 0.  1.
        -11    1    4    4    0    0 -0.26204161224E-01 -0.93158824734E-01 -0.11074241064E-01  0.97407005022E-01  0.51100000000E-03 0. -1.
         11    1    4    4    0    0  0.52558892988E-03 -0.30726899170E-01 -0.10235784106E-01  0.32395230723E-01  0.51100000000E-03 0.  1.
</event>
<event>
 8    1  0.1099921E+005  0.1043930E+01  0.7957747E-01            NaN
         13   -1    0    0    0    0  0.00000000000E+00  0.00000000000E+00  0.74505805969E-08  0.10566000000E+00  0.10566000000E+00 0. -1.
     999900   -1    0    0    0    0 -0.00000000000E+00 -0.00000000000E+00 -0.74505805969E-08  0.93827000000E+00  0.93827000000E+00 0. -1.
     999902    2    1    2    0    0 -0.11876276866E-01 -0.10886501667E-01  0.16009219524E-01  0.10212175149E+01  0.10209649140E+01 0.  0.
     999903    2    3    3    0    0 -0.12274040239E+00  0.20648292093E-01 -0.38768020432E-01  0.13201233970E+00  0.20802405587E-01 0.  0.
         14    1    1    2    0    0  0.11876276866E-01  0.10886501667E-01 -0.16009219524E-01  0.22712485124E-01  0.00000000000E+00 0. -1.
     999901    1    3    3    0    0  0.11086412553E+00 -0.31534793759E-01  0.54777239956E-01  0.88920517518E+00  0.88000000000E+00 0.  1.
        -11    1    4    4    0    0 -0.87522613869E-01  0.23782970694E-01 -0.25152849576E-01  0.94121010387E-01  0.51100000000E-03 0. -1.
         11    1    4    4    0    0 -0.35217788524E-01 -0.31346786011E-02 -0.13615170857E-01  0.37891329311E-01  0.51100000000E-03 0.  1.
</event>
<event>
 8    1  0.1099921E+005  0.1043930E+01  0.7957747E-01            NaN
         13   -1    0    0    0    0  0.00000000000E+00  0.00000000000E+00  0.74505805969E-08  0.10566000000E+00  0.10566000000E+00 0. -1.
     999900   -1    0    0    0    0 -0.00000000000E+00 -0.00000000000E+00 -0.74505805969E-08  0.93827000000E+00  0.93827000000E+00 0.  1.
     999902    2    1    2    0    0 -0.20926463573E-01 -0.78552279078E-02  0.77596907857E-02  0.10202691825E+01  0.10199947894E+01 0.  0.
     999903    2    3    3    0    0  0.10274999856E+00 -0.74188055656E-01  0.14596235888E-01  0.12912236539E+00  0.19952577153E-01 0.  0.
         14    1    1    2    0    0  0.20926463573E-01  0.78552279078E-02 -0.77596907857E-02  0.23660817489E-01  0.00000000000E+00 0. -1.
     999901    1    3    3    0    0 -0.12367646213E+00  0.66332827748E-01 -0.68365451027E-02  0.89114681712E+00  0.88000000000E+00 0.  1.
        -11    1    4    4    0    0  0.47582347304E-01 -0.23106254272E-01  0.96629745377E-02  0.53773719970E-01  0.51100000000E-03 0.  1.
         11    1    4    4    0    0  0.55167651254E-01 -0.51081801384E-01  0.49332613507E-02  0.75348645417E-01  0.51100000000E-03 0. -1.
</event>
<event>
 8    1  0.1099921E+005  0.1043930E+01  0.7957747E-01            NaN
         13   -1    0    0    0    0  0.00000000000E+00  0.00000000000E+00  0.74505805969E-08  0.10566000000E+00  0.10566000000E+00 0.  1.
     999900   -1    0    0    0    0 -0.00000000000E+00 -0.00000000000E+00 -0.74505805969E-08  0.93827000000E+00  0.93827000000E+00 0.  1.
     999902    2    1    2    0    0 -0.13401543346E-01  0.19846123392E-01 -0.30070189230E-02  0.10197947117E+01  0.10195090691E+01 0.  0.
     999903    2    3    3    0    0  0.69390436846E-01  0.98281050543E-01 -0.48798866292E-01  0.13125464899E+00  0.19293934512E-01 0.  0.
         14    1    1    2    0    0  0.13401543346E-01 -0.19846123392E-01  0.30070189230E-02  0.24135288284E-01  0.00000000000E+00 0. -1.
     999901    1    3    3    0    0 -0.82791980192E-01 -0.78434927152E-01  0.45791847369E-01  0.88854006272E+00  0.88000000000E+00 0. -1.
        -11    1    4    4    0    0  0.33670484103E-01  0.49603041392E-01 -0.14006250884E-01  0.61567843879E-01  0.51100000000E-03 0.  1.
         11    1    4    4    0    0  0.35719952743E-01  0.48678009151E-01 -0.34792615408E-01  0.69686805113E-01  0.51100000000E-03 0. -1.
</event>
<event>
 8    1  0.1099921E+005  0.1043930E+01  0.7957747E-01            NaN
         13   -1    0    0    0    0  0.00000000000E+00  0.00000000000E+00  0.74505805969E-08  0.10566000000E+00  0.10566000000E+00 0. -1.
     999900   -1    0    0    0    0 -0.00000000000E+00 -0.00000000000E+00 -0.74505805969E-08  0.93827000000E+00  0.93827000000E+00 0.  1.
     999902    2    1    2    0    0  0.10861295907E-01  0.16730619418E-01 -0.11778972145E-01  0.10207648201E+01  0.10205019316E+01 0.  0.
     999903    2    3    3    0    0  0.54099270427E-01  0.10958641487E+00 -0.51002126152E-01  0.13395583447E+00  0.20175116637E-01 0.  0.
         14    1    1    2    0    0 -0.10861295907E-01 -0.16730619418E-01  0.11778972145E-01  0.23165179897E-01  0.00000000000E+00 0.  1.
     999901    1    3    3    0    0 -0.43237974520E-01 -0.92855795453E-01  0.39223154008E-01  0.88680898563E+00  0.88000000000E+00 0. -1.
        -11    1    4    4    0    0  0.26857775291E-01  0.58798786432E-01 -0.37598050302E-01  0.74783098940E-01  0.51100000000E-03 0. -1.
         11    1    4    4    0    0  0.27241495136E-01  0.50787628439E-01 -0.13404075850E-01  0.59172735530E-01  0.51100000000E-03 0.  1.
</event>
<event>
 8    1  0.1099921E+005  0.1043930E+01  0.7957747E-01            NaN
         13   -1    0    0    0    0  0.00000000000E+00  0.00000000000E+00  0.74505805969E-08  0.10566000000E+00  0.10566000000E+00 0.  1.
     999900   -1    0    0    0    0 -0.00000000000E+00 -0.00000000000E+00 -0.74505805969E-08  0.93827000000E+00  0.93827000000E+00 0. -1.
     999902    2    1    2    0    0 -0.14051786516E-01 -0.75216406961E-02  0.17393597652E-01  0.10203383697E+01  0.10200655977E+01 0.  0.
     999903    2    3    3    0    0 -0.71957545847E-01 -0.63278101746E-01 -0.86719013068E-01  0.13056238907E+00  0.18556498800E-01 0.  0.
         14    1    1    2    0    0  0.14051786516E-01  0.75216406961E-02 -0.17393597652E-01  0.23591630345E-01  0.00000000000E+00 0. -1.
     999901    1    3    3    0    0  0.57905759331E-01  0.55756461050E-01  0.10411261072E+00  0.88977598058E+00  0.88000000000E+00 0.  1.
        -11    1    4    4    0    0 -0.20329923770E-01 -0.28696650645E-01 -0.36244639165E-01  0.50504836876E-01  0.51100000000E-03 0. -1.
         11    1    4    4    0    0 -0.51627622077E-01 -0.34581451101E-01 -0.50474373903E-01  0.80057552195E-01  0.51100000000E-03 0.  1.
</event>
<event>
 8    1  0.1099921E+005  0.1043930E+01  0.7957747E-01            NaN
         13   -1    0    0    0    0  0.00000000000E+00  0.00000000000E+00  0.74505805969E-08  0.10566000000E+00  0.10566000000E+00 0.  1.
     999900   -1    0    0    0    0 -0.00000000000E+00 -0.00000000000E+00 -0.74505805969E-08  0.93827000000E+00  0.93827000000E+00 0.  1.
     999902    2    1    2    0    0 -0.18668953829E-02  0.19669724178E-01  0.12138051744E-01  0.10207413034E+01  0.10204778748E+01 0.  0.
     999903    2    3    3    0    0  0.28052263138E-01  0.36006399259E-01  0.12341299438E+00  0.13307911779E+00  0.19897089103E-01 0.  0.
         14    1    1    2    0    0  0.18668953829E-02 -0.19669724178E-01 -0.12138051744E-01  0.23188696551E-01  0.00000000000E+00 0. -1.
     999901    1    3    3    0    0 -0.29919158521E-01 -0.16336675082E-01 -0.11127494263E+00  0.88766218566E+00  0.88000000000E+00 0.  1.
        -11    1    4    4    0    0  0.32232363422E-02  0.18476556751E-01  0.37195643638E-01  0.41659925930E-01  0.51100000000E-03 0.  1.
         11    1    4    4    0    0  0.24829026796E-01  0.17529842508E-01  0.86217350739E-01  0.91419191855E-01  0.51100000000E-03 0. -1.
</event>
<event>
 8    1  0.1099921E+005  0.1043930E+01  0.7957747E-01            NaN
         13   -1    0    0    0    0  0.00000000000E+00  0.00000000000E+00  0.74505805969E-08  0.10566000000E+00  0.10566000000E+00 0. -1.
     999900   -1    0    0    0    0 -0.00000000000E+00 -0.00000000000E+00 -0.74505805969E-08  0.93827000000E+00  0.93827000000E+00 0.  1.
     999902    2    1    2    0    0 -0.11278589013E-01 -0.16120911208E-01  0.13152210176E-01  0.10202641812E+01  0.10199896707E+01 0.  0.
     999903    2    3    3    0    0  0.93388444783E-01 -0.85810318894E-01  0.31577201298E-01  0.13113467328E+00  0.10694411931E-01 0.  0.
         14    1    1    2    0    0  0.11278589013E-01  0.16120911208E-01 -0.13152210176E-01  0.23665818828E-01  0.00000000000E+00 0. -1.
     999901    1    3    3    0    0 -0.10466703380E+00  0.69689407687E-01 -0.18424991122E-01  0.88912950789E+00  0.88000000000E+00 0.  1.
        -11    1    4    4    0    0  0.60950533926E-01 -0.57488233178E-01  0.15753641170E-01  0.85254342240E-01  0.51100000000E-03 0. -1.
         11    1    4    4    0    0  0.32437910857E-01 -0.28322085716E-01  0.15823560128E-01  0.45880331039E-01  0.51100000000E-03 0.  1.
</event>
<event>
 8    1  0.1099921E+005  0.1043930E+01  0.7957747E-01            NaN
         13   -1    0    0    0    0  0.00000000000E+00  0.00000000000E+00  0.74505805969E-08  0.10566000000E+00  0.10566000000E+00 0.  1.
     999900   -1    0    0    0    0 -0.00000000000E+00 -0.00000000000E+00 -0.74505805969E-08  0.93827000000E+00  0.93827000000E+00 0.  1.
     999902    2    1    2    0    0 -0.12217118142E-01  0.19086047581E-01 -0.70604991897E-02  0.10201942498E+01  0.10199180955E+01 0.  0.
     999903    2    3    3    0    0 -0.36138783778E-01 -0.85409797242E-01  0.86979945275E-01  0.12871501121E+00  0.20029929429E-01 0.  0.
         14    1    1    2    0    0  0.12217118142E-01 -0.19086047581E-01  0.70604991897E-02  0.23735750183E-01  0.00000000000E+00 0.  1.
     999901    1    3    3    0    0  0.23921665636E-01  0.10449584482E+00 -0.94040444465E-01  0.89147923861E+00  0.88000000000E+00 0.  1.
        -11    1    4    4    0    0 -0.66771230517E-02 -0.13197334593E-01  0.25174299932E-01  0.29202056617E-01  0.51100000000E-03 0. -1.
         11    1    4    4    0    0 -0.29461660726E-01 -0.72212462649E-01  0.61805645343E-01  0.99512954593E-01  0.51100000000E-03 0.  1.
</event>
<event>
 8    1  0.1099921E+005  0.1043930E+01  0.7957747E-01            NaN
         13   -1    0    0    0    0  0.00000000000E+00  0.00000000000E+00  0.74505805969E-08  0.10566000000E+00  0.10566000000E+00 0.  1.
     999900   -1    0    0    0    0 -0.00000000000E+00 -0.00000000000E+00 -0.74505805969E-08  0.93827000000E+00  0.93827000000E+00 0.  1.
     999902    2    1    2    0    0  0.11932031797E-01 -0.18340657431E-01 -0.10208215050E-01  0.10197854198E+01  0.10194995545E+01 0.  0.
     999903    2    3    3    0    0 -0.11871576554E+00  0.43158017687E-01 -0.63974437713E-02  0.12800884692E+00  0.19730436467E-01 0.  0.
         14    1    1    2    0    0 -0.11932031797E-01  0.18340657431E-01  0.10208215050E-01  0.24144580185E-01  0.00000000000E+00 0.  1.
     999901    1    3    3    0    0  0.13064779734E+00 -0.61498675118E-01 -0.38107712790E-02  0.89177657290E+00  0.88000000000E+00 0. -1.
        -11    1    4    4    0    0 -0.10627450281E+00  0.40660702165E-01 -0.11402636046E-01  0.11435840100E+00  0.51100000000E-03 0.  1.
         11    1    4    4    0    0 -0.12441262729E-01  0.24973155225E-02  0.50051922746E-02  0.13650445920E-01  0.51100000000E-03 0. -1.
</event>
<event>
 8    1  0.1099921E+005  0.1043930E+01  0.7957747E-01            NaN
         13   -1    0    0    0    0  0.00000000000E+00  0.00000000000E+00  0.74505805969E-08  0.10566000000E+00  0.10566000000E+00 0. -1.
     999900   -1    0    0    0    0 -0.00000000000E+00 -0.00000000000E+00 -0.74505805969E-08  0.93827000000E+00  0.93827000000E+00 0. -1.
     999902    2    1    2    0    0  0.18648401066E-01 -0.24602420997E-02  0.60182898594E-02  0.10241806844E+01  0.10239902533E+01 0.  0.
     999903    2    3    3    0    0  0.55388816197E-01  0.11898640948E+00  0.23005633636E-01  0.13491822757E+00  0.21165593583E-01 0.  0.
         14    1    1    2    0    0 -0.18648401066E-01  0.24602420997E-02 -0.60182898594E-02  0.19749315592E-01  0.00000000000E+00 0.  1.
     999901    1    3    3    0    0 -0.36740415131E-01 -0.12144665158E+00 -0.16987343776E-01  0.88926245683E+00  0.88000000000E+00 0.  1.
        -11    1    4    4    0    0  0.25865942263E-01  0.38998635755E-01  0.15610178487E-01  0.49334362804E-01  0.51100000000E-03 0. -1.
         11    1    4    4    0    0  0.29522873934E-01  0.79987773728E-01  0.73954551482E-02  0.85583864770E-01  0.51100000000E-03 0.  1.
</event>
<event>
 8    1  0.1099921E+005  0.1043930E+01  0.7957747E-01            NaN
         13   -1    0    0    0    0  0.00000000000E+00  0.00000000000E+00  0.74505805969E-08  0.10566000000E+00  0.10566000000E+00 0.  1.
     999900   -1    0    0    0    0 -0.00000000000E+00 -0.00000000000E+00 -0.74505805969E-08  0.93827000000E+00  0.93827000000E+00 0.  1.
     999902    2    1    2    0    0  0.95134404064E-02 -0.20043419417E-01 -0.72438581957E-02  0.10205908121E+01  0.10203239133E+01 0.  0.
     999903    2    3    3    0    0  0.35394826176E-01  0.12208623122E+00 -0.56695346703E-02  0.12880991849E+00  0.20050184617E-01 0.  0.
         14    1    1    2    0    0 -0.95134404064E-02  0.20043419417E-01  0.72438581957E-02  0.23339187900E-01  0.00000000000E+00 0.  1.
     999901    1    3    3    0    0 -0.25881385769E-01 -0.14212965064E+00 -0.15743235254E-02  0.89178089361E+00  0.88000000000E+00 0.  1.
        -11    1    4    4    0    0  0.24570380543E-01  0.70229535117E-01  0.57120077846E-02  0.74624254480E-01  0.51100000000E-03 0. -1.
         11    1    4    4    0    0  0.10824445633E-01  0.51856696105E-01 -0.11381542455E-01  0.54185664006E-01  0.51100000000E-03 0.  1.
</event>
<event>
 8    1  0.1099921E+005  0.1043930E+01  0.7957747E-01            NaN
         13   -1    0    0    0    0  0.00000000000E+00  0.00000000000E+00  0.74505805969E-08  0.10566000000E+00  0.10566000000E+00 0. -1.
     999900   -1    0    0    0    0 -0.00000000000E+00 -0.00000000000E+00 -0.74505805969E-08  0.93827000000E+00  0.93827000000E+00 0.  1.
     999902    2    1    2    0    0  0.18853271903E-02  0.41268022939E-03 -0.23368415096E-01  0.10204820238E+01  0.10202126020E+01 0.  0.
     999903    2    3    3    0    0  0.12721283853E+00  0.34021916347E-02  0.19485343602E-01  0.13056496761E+00  0.21745136361E-01 0.  0.
         14    1    1    2    0    0 -0.18853271903E-02 -0.41268022939E-03  0.23368415096E-01  0.23447976196E-01  0.00000000000E+00 0. -1.
     999901    1    3    3    0    0 -0.12532751134E+00 -0.29895114053E-02 -0.42853758698E-01  0.88991705620E+00  0.88000000000E+00 0.  1.
        -11    1    4    4    0    0  0.61769158921E-01 -0.43108131717E-02  0.18620716359E-01  0.64660685913E-01  0.51100000000E-03 0.  1.
         11    1    4    4    0    0  0.65443679612E-01  0.77130048064E-02  0.86462724231E-03  0.65904281693E-01  0.51100000000E-03 0. -1.
</event>
<event>
 8    1  0.1099921E+005  0.1043930E+01  0.7957747E-01            NaN
         13   -1    0    0    0    0  0.00000000000E+00  0.00000000000E+00  0.74505805969E-08  0.10566000000E+00  0.10566000000E+00 0. -1.
     999900   -1    0    0    0    0 -0.00000000000E+00 -0.00000000000E+00 -0.74505805969E-08  0.93827000000E+00  0.93827000000E+00 0. -1.
     999902    2    1    2    0    0 -0.80429233360E-02  0.22439890354E-01 -0.27166180353E-02  0.10199379741E+01  0.10196557525E+01 0.  0.
     999903    2    3    3    0    0 -0.84354099002E-01  0.96241581604E-01  0.29284892495E-01  0.13298014990E+00  0.21167411089E-01 0.  0.
         14    1    1    2    0    0  0.80429233360E-02 -0.22439890354E-01  0.27166180353E-02  0.23992025935E-01  0.00000000000E+00 0. -1.
     999901    1    3    3    0    0  0.76311175666E-01 -0.73801691250E-01 -0.32001510531E-01  0.88695782416E+00  0.88000000000E+00 0. -1.
        -11    1    4    4    0    0 -0.65651370877E-01  0.60661950975E-01  0.22925734508E-01  0.92281228957E-01  0.51100000000E-03 0. -1.
         11    1    4    4    0    0 -0.18702728125E-01  0.35579630629E-01  0.63591579880E-02  0.40698920948E-01  0.51100000000E-03 0.  1.
</event>
<event>
 7    1  0.1099921E+005  0.1043930E+01  0.7957747E-01            NaN
         13   -1    0    0    0    0  0.00000000000E+00  0.00000000000E+00  0.74505805969E-08  0.10566000000E+00  0.10566000000E+00 0. -1.
     999900   -1    0    0    0    0 -0.00000000000E+00 -0.00000000000E+00 -0.74505805969E-08  0.93827000000E+00  0.93827000000E+00 0. -1.
     999902    2    1    2    0    0 -0.84195115315E-02  0.21572209859E-01  0.83367761236E-02  0.10193180060E+01  0.10190208276E+01 0.  0.
         14    1    1    2    0    0  0.84195115315E-02 -0.21572209859E-01 -0.83367761236E-02  0.24611994002E-01  0.00000000000E+00 0.  1.
     999901    1    3    3    0    0 -0.68741744538E-01 -0.80773504442E-01  0.14606662180E-01  0.88648922218E+00  0.88000000000E+00 0.  1.
        -11    1    3    3    0    0  0.70980903349E-02  0.70073646016E-01 -0.35441833882E-02  0.70523195541E-01  0.51100000000E-03 0. -1.
         11    1    3    3    0    0  0.53224142671E-01  0.32272068285E-01 -0.27257026685E-02  0.62305588277E-01  0.51100000000E-03 0.  1.
</event>
<event>
 8    1  0.1099921E+005  0.1043930E+01  0.7957747E-01            NaN
         13   -1    0    0    0    0  0.00000000000E+00  0.00000000000E+00  0.74505805969E-08  0.10566000000E+00  0.10566000000E+00 0. -1.
     999900   -1    0    0    0    0 -0.00000000000E+00 -0.00000000000E+00 -0.74505805969E-08  0.93827000000E+00  0.93827000000E+00 0. -1.
     999902    2    1    2    0    0  0.10684064400E-01 -0.18915055440E-01 -0.91574383735E-02  0.10203548599E+01  0.10200824735E+01 0.  0.
     999903    2    3    3    0    0 -0.85159909924E-01  0.14245428251E-01  0.93204959219E-01  0.12863531566E+00  0.20118089565E-01 0.  0.
         14    1    1    2    0    0 -0.10684064400E-01  0.18915055440E-01  0.91574383735E-02  0.23575140126E-01  0.00000000000E+00 0. -1.
     999901    1    3    3    0    0  0.95843974324E-01 -0.33160483690E-01 -0.10236239759E+00  0.89171954421E+00  0.88000000000E+00 0. -1.
        -11    1    4    4    0    0 -0.31743444366E-01  0.25998154798E-02  0.48432262879E-01  0.57968530336E-01  0.51100000000E-03 0.  1.
         11    1    4    4    0    0 -0.53416465558E-01  0.11645612771E-01  0.44772696340E-01  0.70666785324E-01  0.51100000000E-03 0. -1.
</event>
<event>
 8    1  0.1099921E+005  0.1043930E+01  0.7957747E-01            NaN
         13   -1    0    0    0    0  0.00000000000E+00  0.00000000000E+00  0.74505805969E-08  0.10566000000E+00  0.10566000000E+00 0. -1.
     999900   -1    0    0    0    0 -0.00000000000E+00 -0.00000000000E+00 -0.74505805969E-08  0.93827000000E+00  0.93827000000E+00 0. -1.
     999902    2    1    2    0    0  0.20314817768E-01 -0.12244330278E-01 -0.46511811786E-02  0.10197587582E+01  0.10194722536E+01 0.  0.
     999903    2    3    3    0    0 -0.77303196983E-01  0.29382060253E-01  0.95402177572E-01  0.12775387714E+00  0.19503535856E-01 0.  0.
         14    1    1    2    0    0 -0.20314817768E-01  0.12244330278E-01  0.46511811786E-02  0.24171241823E-01  0.00000000000E+00 0.  1.
     999901    1    3    3    0    0  0.97618014751E-01 -0.41626390531E-01 -0.10005335875E+00  0.89200488103E+00  0.88000000000E+00 0. -1.
        -11    1    4    4    0    0 -0.60902429636E-01  0.29860377763E-01  0.69709419544E-01  0.97264651286E-01  0.51100000000E-03 0. -1.
         11    1    4    4    0    0 -0.16400767347E-01 -0.47831750969E-03  0.25692758028E-01  0.30489225856E-01  0.51100000000E-03 0.  1.
</event>
<event>
 8    1  0.1099921E+005  0.1043930E+01  0.7957747E-01            NaN
         13   -1    0    0    0    0  0.00000000000E+00  0.00000000000E+00  0.74505805969E-08  0.10566000000E+00  0.10566000000E+00 0.  1.
     999900   -1    0    0    0    0 -0.00000000000E+00 -0.00000000000E+00 -0.74505805969E-08  0.93827000000E+00  0.93827000000E+00 0. -1.
     999902    2    1    2    0    0  0.19504005457E-01 -0.87599051462E-02  0.10762376231E-01  0.10199931892E+01  0.10197122806E+01 0.  0.
     999903    2    3    3    0    0  0.78244341173E-01  0.65596990929E-01 -0.78588494016E-01  0.13040735693E+00  0.20119274491E-01 0.  0.
         14    1    1    2    0    0 -0.19504005457E-01  0.87599051462E-02 -0.10762376231E-01  0.23936810756E-01  0.00000000000E+00 0.  1.
     999901    1    3    3    0    0 -0.58740335715E-01 -0.74356896075E-01  0.89350870247E-01  0.88958583231E+00  0.88000000000E+00 0.  1.
        -11    1    4    4    0    0  0.55612200693E-01  0.56599084560E-01 -0.55409585241E-01  0.96781488398E-01  0.51100000000E-03 0.  1.
         11    1    4    4    0    0  0.22632140479E-01  0.89979063687E-02 -0.23178908776E-01  0.33625868535E-01  0.51100000000E-03 0. -1.
</event>
<event>
 8    1  0.1099921E+005  0.1043930E+01  0.7957747E-01            NaN
         13   -1    0    0    0    0  0.00000000000E+00  0.00000000000E+00  0.74505805969E-08  0.10566000000E+00  0.10566000000E+00 0.  1.
     999900   -1    0    0    0    0 -0.00000000000E+00 -0.00000000000E+00 -0.74505805969E-08  0.93827000000E+00  0.93827000000E+00 0.  1.
     999902    2    1    2    0    0  0.18674090806E-01 -0.11501962167E-01 -0.36467567763E-02  0.10216967898E+01  0.10214548520E+01 0.  0.
     999903    2    3    3    0    0  0.92600462252E-01  0.30196781866E-01  0.88167392518E-01  0.13285837272E+00  0.19777938589E-01 0.  0.
         14    1    1    2    0    0 -0.18674090806E-01  0.11501962167E-01  0.36467567763E-02  0.22233210207E-01  0.00000000000E+00 0. -1.
     999901    1    3    3    0    0 -0.73926371446E-01 -0.41698744033E-01 -0.91814149294E-01  0.88883841707E+00  0.88000000000E+00 0.  1.
        -11    1    4    4    0    0  0.47729109705E-01  0.67901148737E-02  0.35966429347E-01  0.60149968697E-01  0.51100000000E-03 0.  1.
         11    1    4    4    0    0  0.44871352547E-01  0.23406666992E-01  0.52200963171E-01  0.72708404026E-01  0.51100000000E-03 0. -1.
</event>
<event>
 8    1  0.1099921E+005  0.1043930E+01  0.7957747E-01            NaN
         13   -1    0    0    0    0  0.00000000000E+00  0.00000000000E+00  0.74505805969E-08  0.10566000000E+00  0.10566000000E+00 0. -1.
     999900   -1    0    0    0    0 -0.00000000000E+00 -0.00000000000E+00 -0.74505805969E-08  0.93827000000E+00  0.93827000000E+00 0.  1.
     999902    2    1    2    0    0 -0.70035885232E-02 -0.17373829773E-01  0.14049389970E-01  0.10205145015E+01  0.10202458342E+01 0.  0.
     999903    2    3    3    0    0 -0.25728979039E-01 -0.11166238790E+00  0.65921159065E-01  0.13376106737E+00  0.20394967443E-01 0.  0.
         14    1    1    2    0    0  0.70035885232E-02  0.17373829773E-01 -0.14049389970E-01  0.23415498537E-01  0.00000000000E+00 0.  1.
     999901    1    3    3    0    0  0.18725390516E-01  0.94288558132E-01 -0.51871769094E-01  0.88675343409E+00  0.88000000000E+00 0.  1.
        -11    1    4    4    0    0 -0.26261128154E-01 -0.10630517477E+00  0.57309827317E-01  0.12359253401E+00  0.51100000000E-03 0.  1.
         11    1    4    4    0    0  0.53214911485E-03 -0.53572131316E-02  0.86113317473E-02  0.10168533359E-01  0.51100000000E-03 0. -1.
</event>
<event>
 8    1  0.1099921E+005  0.1043930E+01  0.7957747E-01            NaN
         13   -1    0    0    0    0  0.00000000000E+00  0.00000000000E+00  0.74505805969E-08  0.10566000000E+00  0.10566000000E+00 0. -1.
     999900   -1    0    0    0    0 -0.00000000000E+00 -0.00000000000E+00 -0.74505805969E-08  0.93827000000E+00  0.93827000000E+00 0.  1.
     999902    2    1    2    0    0 -0.62077767216E-02 -0.10153633918E-01  0.16794984530E-01  0.10233459217E+01  0.10231388817E+01 0.  0.
     999903    2    3    3    0    0  0.10373226990E+00 -0.75519990804E-01 -0.28061267661E-01  0.13296866581E+00  0.20726275996E-01 0.  0.
         14    1    1    2    0    0  0.62077767216E-02  0.10153633918E-01 -0.16794984530E-01  0.20584078287E-01  0.00000000000E+00 0.  1.
     999901    1    3    3    0    0 -0.10994004662E+00  0.65366356886E-01  0.44856252191E-01  0.89037725590E+00  0.88000000000E+00 0. -1.
        -11    1    4    4    0    0  0.21443120008E-01 -0.25418474677E-01 -0.11635688583E-01  0.35235729316E-01  0.51100000000E-03 0.  1.
         11    1    4    4    0    0  0.82289149887E-01 -0.50101516127E-01 -0.16425579078E-01  0.97732936498E-01  0.51100000000E-03 0. -1.
</event>
<event>
 8    1  0.1099921E+005  0.1043930E+01  0.7957747E-01            NaN
         13   -1    0    0    0    0  0.00000000000E+00  0.00000000000E+00  0.74505805969E-08  0.10566000000E+00  0.10566000000E+00 0. -1.
     999900   -1    0    0    0    0 -0.00000000000E+00 -0.00000000000E+00 -0.74505805969E-08  0.93827000000E+00  0.93827000000E+00 0. -1.
     999902    2    1    2    0    0  0.22430896854E-01 -0.24747274357E-01  0.16694500208E-02  0.10104881133E+01  0.10099345857E+01 0.  0.
     999903    2    3    3    0    0 -0.10137376865E+00 -0.53797798847E-01 -0.31793878517E-01  0.12071773702E+00  0.19775671659E-01 0.  0.
         14    1    1    2    0    0 -0.22430896854E-01  0.24747274357E-01 -0.16694500208E-02  0.33441886686E-01  0.00000000000E+00 0.  1.
     999901    1    3    3    0    0  0.12380466550E+00  0.29050524490E-01  0.33463328538E-01  0.88977037629E+00  0.88000000000E+00 0. -1.
        -11    1    4    4    0    0 -0.30167679764E-01 -0.62663833248E-02 -0.73032370708E-02  0.31669462500E-01  0.51100000000E-03 0. -1.
         11    1    4    4    0    0 -0.71206088883E-01 -0.47531415522E-01 -0.24490641447E-01  0.89048274520E-01  0.51100000000E-03 0.  1.
</event>
<event>
 7    1  0.1099921E+005  0.1043930E+01  0.7957747E-01            NaN
         13   -1    0    0    0    0  0.00000000000E+00  0.00000000000E+00  0.74505805969E-08  0.10566000000E+00  0.10566000000E+00 0.  1.
     999900   -1    0    0    0    0 -0.00000000000E+00 -0.00000000000E+00 -0.74505805969E-08  0.93827000000E+00  0.93827000000E+00 0.  1.
     999902    2    1    2    0    0  0.31280005523E-02  0.18059800440E-01  0.14516412191E-01  0.10205490889E+01  0.10202812239E+01 0.  0.
         14    1    1    2    0    0 -0.31280005523E-02 -0.18059800440E-01 -0.14516412191E-01  0.23380911066E-01  0.00000000000E+00 0.  1.
     999901    1    3    3    0    0  0.18737629692E-01 -0.45405731339E-01 -0.10162785731E+00  0.88720967115E+00  0.88000000000E+00 0.  1.
        -11    1    3    3    0    0 -0.14654005572E-02  0.70020002865E-02  0.15374943399E-01  0.16965418130E-01  0.51100000000E-03 0.  1.
         11    1    3    3    0    0 -0.14144228582E-01  0.56463531492E-01  0.10076932610E+00  0.11637399965E+00  0.51100000000E-03 0. -1.
</event>
<event>
 8    1  0.1099921E+005  0.1043930E+01  0.7957747E-01            NaN
         13   -1    0    0    0    0  0.00000000000E+00  0.00000000000E+00  0.74505805969E-08  0.10566000000E+00  0.10566000000E+00 0.  1.
     999900   -1    0    0    0    0 -0.00000000000E+00 -0.00000000000E+00 -0.74505805969E-08  0.93827000000E+00  0.93827000000E+00 0.  1.
     999902    2    1    2    0    0  0.12376679918E-01  0.20540021940E-01 -0.42131712184E-03  0.10199455839E+01  0.10196635435E+01 0.  0.
     999903    2    3    3    0    0  0.12134162758E+00 -0.36542656007E-01  0.26246690836E-01  0.13098946880E+00  0.20253292684E-01 0.  0.
         14    1    1    2    0    0 -0.12376679918E-01 -0.20540021940E-01  0.42131712184E-03  0.23984416091E-01  0.00000000000E+00 0. -1.
     999901    1    3    3    0    0 -0.10896494766E+00  0.57082677947E-01 -0.26668007958E-01  0.88895611511E+00  0.88000000000E+00 0.  1.
        -11    1    4    4    0    0  0.44431450206E-01 -0.33911212715E-02  0.10131356290E-01  0.45700754613E-01  0.51100000000E-03 0. -1.
         11    1    4    4    0    0  0.76910177376E-01 -0.33151534735E-01  0.16115334546E-01  0.85288714188E-01  0.51100000000E-03 0.  1.
</event>
<event>
 8    1  0.1099921E+005  0.1043930E+01  0.7957747E-01            NaN
         13   -1    0    0    0    0  0.00000000000E+00  0.00000000000E+00  0.74505805969E-08  0.10566000000E+00  0.10566000000E+00 0. -1.
     999900   -1    0    0    0    0 -0.00000000000E+00 -0.00000000000E+00 -0.74505805969E-08  0.93827000000E+00  0.93827000000E+00 0.  1.
     999902    2    1    2    0    0 -0.13161367844E-01  0.96746476753E-03  0.21252778527E-01  0.10189132419E+01  0.10186060849E+01 0.  0.
     999903    2    3    3    0    0 -0.34779953967E-01 -0.10541909254E+00 -0.61347474735E-01  0.12840312702E+00  0.20025486313E-01 0.  0.
         14    1    1    2    0    0  0.13161367844E-01 -0.96746476753E-03 -0.21252778527E-01  0.25016758118E-01  0.00000000000E+00 0.  1.
     999901    1    3    3    0    0  0.21618586123E-01  0.10638655730E+00  0.82600253262E-01  0.89051011487E+00  0.88000000000E+00 0.  1.
        -11    1    4    4    0    0 -0.30304454904E-01 -0.72660722117E-01 -0.35161852264E-01  0.86223880109E-01  0.51100000000E-03 0.  1.
         11    1    4    4    0    0 -0.44754990633E-02 -0.32758370419E-01 -0.26185622471E-01  0.42179246906E-01  0.51100000000E-03 0. -1.
</event>
<event>
 8    1  0.1099921E+005  0.1043930E+01  0.7957747E-01            NaN
         13   -1    0    0    0    0  0.00000000000E+00  0.00000000000E+00  0.74505805969E-08  0.10566000000E+00  0.10566000000E+00 0. -1.
     999900   -1    0    0    0    0 -0.00000000000E+00 -0.00000000000E+00 -0.74505805969E-08  0.93827000000E+00  0.93827000000E+00 0.  1.
     999902    2    1    2    0    0  0.20410304912E-02 -0.22743449512E-01 -0.80417972059E-02  0.10197204811E+01  0.10194330576E+01 0.  0.
     999903    2    3    3    0    0  0.74530685309E-01 -0.87441132645E-01 -0.63291866746E-01  0.13265052311E+00  0.19736416936E-01 0.  0.
         14    1    1    2    0    0 -0.20410304912E-02  0.22743449512E-01  0.80417972059E-02  0.24209518861E-01  0.00000000000E+00 0.  1.
     999901    1    3    3    0    0 -0.72489654818E-01  0.64697683133E-01  0.55250069540E-01  0.88706995803E+00  0.88000000000E+00 0. -1.
        -11    1    4    4    0    0  0.38045424245E-01 -0.35296803432E-01 -0.37257623512E-01  0.63888263940E-01  0.51100000000E-03 0.  1.
         11    1    4    4    0    0  0.36485261064E-01 -0.52144329213E-01 -0.26034243234E-01  0.68762259167E-01  0.51100000000E-03 0. -1.
</event>
<event>
 8    1  0.1099921E+005  0.1043930E+01  0.7957747E-01            NaN
         13   -1    0    0    0    0  0.00000000000E+00  0.00000000000E+00  0.74505805969E-08  0.10566000000E+00  0.10566000000E+00 0.  1.
     999900   -1    0    0    0    0 -0.00000000000E+00 -0.00000000000E+00 -0.74505805969E-08  0.93827000000E+00  0.93827000000E+00 0.  1.
     999902    2    1    2    0    0 -0.96762428377E-02 -0.15176167769E-01  0.13354197519E-01  0.10215183884E+01  0.10212725089E+01 0.  0.
     999903    2    3    3    0    0 -0.10233868887E+00  0.28008718034E-01  0.77920020740E-01  0.13325040586E+00  0.20650556980E-01 0.  0.
         14    1    1    2    0    0  0.96762428377E-02  0.15176167769E-01 -0.13354197519E-01  0.22411611611E-01  0.00000000000E+00 0. -1.
     999901    1    3    3    0    0  0.92662446030E-01 -0.43184885803E-01 -0.64565823221E-01  0.88826798253E+00  0.88000000000E+00 0.  1.
        -11    1    4    4    0    0 -0.17459734542E-01  0.88675842306E-02  0.23616881514E-01  0.30683783890E-01  0.51100000000E-03 0.  1.
         11    1    4    4    0    0 -0.84878954326E-01  0.19141133803E-01  0.54303139226E-01  0.10256662197E+00  0.51100000000E-03 0. -1.
</event>
<event>
 8    1  0.1099921E+005  0.1043930E+01  0.7957747E-01            NaN
         13   -1    0    0    0    0  0.00000000000E+00  0.00000000000E+00  0.74505805969E-08  0.10566000000E+00  0.10566000000E+00 0.  1.
     999900   -1    0    0    0    0 -0.00000000000E+00 -0.00000000000E+00 -0.74505805969E-08  0.93827000000E+00  0.93827000000E+00 0. -1.
     999902    2    1    2    0    0  0.14045863583E-01 -0.15009682851E-02 -0.19451672926E-01  0.10198903085E+01  0.10196069510E+01 0.  0.
     999903    2    3    3    0    0 -0.21082530878E-01 -0.11751547567E+00 -0.49831852557E-01  0.13106168306E+00  0.20966428068E-01 0.  0.
         14    1    1    2    0    0 -0.14045863583E-01  0.15009682851E-02  0.19451672926E-01  0.24039691537E-01  0.00000000000E+00 0.  1.
     999901    1    3    3    0    0  0.35128394461E-01  0.11601450739E+00  0.30380179631E-01  0.88882862540E+00  0.88000000000E+00 0.  1.
        -11    1    4    4    0    0 -0.91038461845E-02 -0.91230526521E-01 -0.31987679935E-01  0.97104900871E-01  0.51100000000E-03 0. -1.
         11    1    4    4    0    0 -0.11978684694E-01 -0.26284949153E-01 -0.17844172623E-01  0.33956782188E-01  0.51100000000E-03 0.  1.
</event>
<event>
 8    1  0.1099921E+005  0.1043930E+01  0.7957747E-01            NaN
         13   -1    0    0    0    0  0.00000000000E+00  0.00000000000E+00  0.74505805969E-08  0.10566000000E+00  0.10566000000E+00 0. -1.
     999900   -1    0    0    0    0 -0.00000000000E+00 -0.00000000000E+00 -0.74505805969E-08  0.93827000000E+00  0.93827000000E+00 0.  1.
     999902    2    1    2    0    0 -0.79120567307E-02  0.21423641218E-01 -0.56065568106E-02  0.10204139093E+01  0.10201429016E+01 0.  0.
     999903    2    3    3    0    0 -0.80387145274E-01  0.56637734840E-01 -0.87271954877E-01  0.13296706122E+00  0.19847395983E-01 0.  0.
         14    1    1    2    0    0  0.79120567307E-02 -0.21423641218E-01  0.56065568106E-02  0.23516090747E-01  0.00000000000E+00 0. -1.
     999901    1    3    3    0    0  0.72475088543E-01 -0.35214093622E-01  0.81665398066E-01  0.88744684804E+00  0.88000000000E+00 0. -1.
        -11    1    4    4    0    0 -0.43225363644E-01  0.38440468043E-01 -0.60361221561E-01  0.83605262004E-01  0.51100000000E-03 0. -1.
         11    1    4    4    0    0 -0.37161781630E-01  0.18197266797E-01 -0.26910733316E-01  0.49361799212E-01  0.51100000000E-03 0.  1.
</event>
<event>
 8    1  0.1099921E+005  0.1043930E+01  0.7957747E-01            NaN
         13   -1    0    0    0    0  0.00000000000E+00  0.00000000000E+00  0.74505805969E-08  0.10566000000E+00  0.10566000000E+00 0. -1.
     999900   -1    0    0    0    0 -0.00000000000E+00 -0.00000000000E+00 -0.74505805969E-08  0.93827000000E+00  0.93827000000E+00 0.  1.
     999902    2    1    2    0    0 -0.21056325735E-01 -0.68669700145E-02 -0.79443273427E-02  0.10204005192E+01  0.10201291992E+01 0.  0.
     999903    2    3    3    0    0 -0.13159200696E+00 -0.29108942152E-02 -0.93551689875E-02  0.13347561941E+00  0.20082136068E-01 0.  0.
         14    1    1    2    0    0  0.21056325735E-01  0.68669700145E-02  0.79443273427E-02  0.23529480818E-01  0.00000000000E+00 0.  1.
     999901    1    3    3    0    0  0.11053568123E+00 -0.39560757993E-02  0.14108416449E-02  0.88692489977E+00  0.88000000000E+00 0. -1.
        -11    1    4    4    0    0 -0.86356645540E-01  0.22026489606E-02  0.25306678358E-02  0.86423302946E-01  0.51100000000E-03 0. -1.
         11    1    4    4    0    0 -0.45235361421E-01 -0.51135431758E-02 -0.11885836823E-01  0.47052316465E-01  0.51100000000E-03 0.  1.
</event>
<event>
 8    1  0.1099921E+005  0.1043930E+01  0.7957747E-01            NaN
         13   -1    0    0    0    0  0.00000000000E+00  0.00000000000E+00  0.74505805969E-08  0.10566000000E+00  0.10566000000E+00 0.  1.
     999900   -1    0    0    0    0 -0.00000000000E+00 -0.00000000000E+00 -0.74505805969E-08  0.93827000000E+00  0.93827000000E+00 0. -1.
     999902    2    1    2    0    0  0.11990172925E-01 -0.19557076394E-01  0.10282137098E-01  0.10187910695E+01  0.10184808675E+01 0.  0.
     999903    2    3    3    0    0 -0.12087467407E-01 -0.36456929491E-01 -0.12098498462E+00  0.12856840350E+00  0.20426778944E-01 0.  0.
         14    1    1    2    0    0 -0.11990172925E-01  0.19557076394E-01 -0.10282137098E-01  0.25138930509E-01  0.00000000000E+00 0. -1.
     999901    1    3    3    0    0  0.24077640333E-01  0.16899853097E-01  0.13126712172E+00  0.89022266599E+00  0.88000000000E+00 0.  1.
        -11    1    4    4    0    0  0.55026173209E-02 -0.67943352198E-02 -0.19319517987E-01  0.21211946745E-01  0.51100000000E-03 0. -1.
         11    1    4    4    0    0 -0.17590084728E-01 -0.29662594272E-01 -0.10166546664E+00  0.10735645675E+00  0.51100000000E-03 0.  1.
</event>
<event>
 8    1  0.1099921E+005  0.1043930E+01  0.7957747E-01            NaN
         13   -1    0    0    0    0  0.00000000000E+00  0.00000000000E+00  0.74505805969E-08  0.10566000000E+00  0.10566000000E+00 0. -1.
     999900   -1    0    0    0    0 -0.00000000000E+00 -0.00000000000E+00 -0.74505805969E-08  0.93827000000E+00  0.93827000000E+00 0. -1.
     999902    2    1    2    0    0 -0.20509542775E-01 -0.11433741215E-01 -0.60892245573E-02  0.10196720026E+01  0.10193834129E+01 0.  0.
     999903    2    3    3    0    0  0.37362522880E-01  0.12051200743E+00  0.42562532263E-02  0.12789518887E+00  0.20492964513E-01 0.  0.
         14    1    1    2    0    0  0.20509542775E-01  0.11433741215E-01  0.60892245573E-02  0.24257997417E-01  0.00000000000E+00 0.  1.
     999901    1    3    3    0    0 -0.57872065655E-01 -0.13194574864E+00 -0.10345477784E-01  0.89177681371E+00  0.88000000000E+00 0.  1.
        -11    1    4    4    0    0  0.37123504775E-01  0.97255979844E-01  0.76673101647E-02  0.10438356666E+00  0.51100000000E-03 0.  1.
         11    1    4    4    0    0  0.23901810572E-03  0.23256027581E-01 -0.34110569384E-02  0.23511622210E-01  0.51100000000E-03 0. -1.
</event>
<event>
 8    1  0.1099921E+005  0.1043930E+01  0.7957747E-01            NaN
         13   -1    0    0    0    0  0.00000000000E+00  0.00000000000E+00  0.74505805969E-08  0.10566000000E+00  0.10566000000E+00 0.  1.
     999900   -1    0    0    0    0 -0.00000000000E+00 -0.00000000000E+00 -0.74505805969E-08  0.93827000000E+00  0.93827000000E+00 0. -1.
     999902    2    1    2    0    0 -0.12242773105E-01 -0.15815026314E-01 -0.14916240783E-01  0.10189801545E+01  0.10186746588E+01 0.  0.
     999903    2    3    3    0    0 -0.87205920949E-01 -0.67962096264E-01  0.66554326528E-01  0.13051167236E+00  0.19496129521E-01 0.  0.
         14    1    1    2    0    0  0.12242773105E-01  0.15815026314E-01  0.14916240783E-01  0.24949845484E-01  0.00000000000E+00 0.  1.
     999901    1    3    3    0    0  0.74963147845E-01  0.52147069950E-01 -0.81470567311E-01  0.88846848215E+00  0.88000000000E+00 0. -1.
        -11    1    4    4    0    0 -0.47485474689E-01 -0.40803486921E-01  0.48181199959E-01  0.79003063244E-01  0.51100000000E-03 0.  1.
         11    1    4    4    0    0 -0.39720446261E-01 -0.27158609343E-01  0.18373126569E-01  0.51508609120E-01  0.51100000000E-03 0. -1.
</event>
<event>
 8    1  0.1099921E+005  0.1043930E+01  0.7957747E-01            NaN
         13   -1    0    0    0    0  0.00000000000E+00  0.00000000000E+00  0.74505805969E-08  0.10566000000E+00  0.10566000000E+00 0. -1.
     999900   -1    0    0    0    0 -0.00000000000E+00 -0.00000000000E+00 -0.74505805969E-08  0.93827000000E+00  0.93827000000E+00 0.  1.
     999902    2    1    2    0    0  0.17062488484E-02  0.17918821976E-01 -0.16266620009E-01  0.10196689532E+01  0.10193802900E+01 0.  0.
     999903    2    3    3    0    0 -0.11640409383E+00 -0.51443010460E-01 -0.46712249382E-02  0.12899753788E+00  0.20548675196E-01 0.  0.
         14    1    1    2    0    0 -0.17062488484E-02 -0.17918821976E-01  0.16266620009E-01  0.24261046817E-01  0.00000000000E+00 0.  1.
     999901    1    3    3    0    0  0.11811034268E+00  0.69361832436E-01 -0.11595395071E-01  0.89067141530E+00  0.88000000000E+00 0. -1.
        -11    1    4    4    0    0 -0.62798622677E-01 -0.38808319608E-01 -0.35467564847E-02  0.73909358565E-01  0.51100000000E-03 0. -1.
         11    1    4    4    0    0 -0.53605471151E-01 -0.12634690852E-01 -0.11244684535E-02  0.55088179318E-01  0.51100000000E-03 0.  1.
</event>
<event>
 8    1  0.1099921E+005  0.1043930E+01  0.7957747E-01            NaN
         13   -1    0    0    0    0  0.00000000000E+00  0.00000000000E+00  0.74505805969E-08  0.10566000000E+00  0.10566000000E+00 0. -1.
     999900   -1    0    0    0    0 -0.00000000000E+00 -0.00000000000E+00 -0.74505805969E-08  0.93827000000E+00  0.93827000000E+00 0.  1.
     999902    2    1    2    0    0  0.13909586943E-01  0.79553330901E-02  0.16427290408E-01  0.10209818017E+01  0.10207238704E+01 0.  0.
     999903    2    3    3    0    0 -0.79726903052E-01 -0.69141720957E-01  0.74384285254E-01  0.13077353326E+00  0.20778317119E-01 0.  0.
         14    1    1    2    0    0 -0.13909586943E-01 -0.79553330901E-02 -0.16427290408E-01  0.22948198266E-01  0.00000000000E+00 0.  1.
     999901    1    3    3    0    0  0.93636489995E-01  0.77097054047E-01 -0.57956994846E-01  0.89020826847E+00  0.88000000000E+00 0.  1.
        -11    1    4    4    0    0 -0.38033984058E-01 -0.20719675545E-01  0.35217599629E-01  0.55824988515E-01  0.51100000000E-03 0.  1.
         11    1    4    4    0    0 -0.41692918993E-01 -0.48422045412E-01  0.39166685626E-01  0.74948544749E-01  0.51100000000E-03 0. -1.
</event>
<event>
 8    1  0.1099921E+005  0.1043930E+01  0.7957747E-01            NaN
         13   -1    0    0    0    0  0.00000000000E+00  0.00000000000E+00  0.74505805969E-08  0.10566000000E+00  0.10566000000E+00 0. -1.
     999900   -1    0    0    0    0 -0.00000000000E+00 -0.00000000000E+00 -0.74505805969E-08  0.93827000000E+00  0.93827000000E+00 0. -1.
     999902    2    1    2    0    0 -0.46701504479E-02  0.20244904154E-01 -0.72669391301E-02  0.10219192105E+01  0.10216821414E+01 0.  0.
     999903    2    3    3    0    0  0.12853331130E+00  0.30208369834E-04 -0.19892208205E-01  0.13157590955E+00  0.19892385536E-01 0.  0.
         14    1    1    2    0    0  0.46701504479E-02 -0.20244904154E-01  0.72669391301E-02  0.22010789484E-01  0.00000000000E+00 0. -1.
     999901    1    3    3    0    0 -0.13320346175E+00  0.20214695784E-01  0.12625269074E-01  0.89034330096E+00  0.88000000000E+00 0.  1.
        -11    1    4    4    0    0  0.12192425688E-01 -0.43335906702E-03  0.39131150210E-02  0.12822504998E-01  0.51100000000E-03 0. -1.
         11    1    4    4    0    0  0.11634088561E+00  0.46356743685E-03 -0.23805323226E-01  0.11875340456E+00  0.51100000000E-03 0.  1.
</event>
<event>
 8    1  0.1099921E+005  0.1043930E+01  0.7957747E-01            NaN
         13   -1    0    0    0    0  0.00000000000E+00  0.00000000000E+00  0.74505805969E-08  0.10566000000E+00  0.10566000000E+00 0. -1.
     999900   -1    0    0    0    0 -0.00000000000E+00 -0.00000000000E+00 -0.74505805969E-08  0.93827000000E+00  0.93827000000E+00 0.  1.
     999902    2    1    2    0    0  0.84599418933E-02  0.19472564042E-01  0.12043941536E-01  0.10195208236E+01  0.10192285817E+01 0.  0.
     999903    2    3    3    0    0  0.11851372725E+00  0.37951545173E-01 -0.36266362421E-01  0.13115873865E+00  0.20038521758E-01 0.  0.
         14    1    1    2    0    0 -0.84599418933E-02 -0.19472564042E-01 -0.12043941536E-01  0.24409176449E-01  0.00000000000E+00 0. -1.
     999901    1    3    3    0    0 -0.11005378536E+00 -0.18478981131E-01  0.48310303957E-01  0.88836208490E+00  0.88000000000E+00 0.  1.
        -11    1    4    4    0    0  0.80686950070E-01  0.33862234991E-01 -0.19914800092E-01  0.89743497001E-01  0.51100000000E-03 0. -1.
         11    1    4    4    0    0  0.37826777179E-01  0.40893101822E-02 -0.16351562329E-01  0.41415241652E-01  0.51100000000E-03 0.  1.
</event>
<event>
 8    1  0.1099921E+005  0.1043930E+01  0.7957747E-01            NaN
         13   -1    0    0    0    0  0.00000000000E+00  0.00000000000E+00  0.74505805969E-08  0.10566000000E+00  0.10566000000E+00 0. -1.
     999900   -1    0    0    0    0 -0.00000000000E+00 -0.00000000000E+00 -0.74505805969E-08  0.93827000000E+00  0.93827000000E+00 0.  1.
     999902    2    1    2    0    0 -0.94379549480E-03  0.20232652306E-01  0.11320194764E-01  0.10207265998E+01  0.10204628332E+01 0.  0.
     999903    2    3    3    0    0  0.85184997594E-01 -0.57328580232E-01  0.78279579200E-01  0.13060443241E+00  0.19666604166E-01 0.  0.
         14    1    1    2    0    0  0.94379549480E-03 -0.20232652306E-01 -0.11320194764E-01  0.23203400155E-01  0.00000000000E+00 0. -1.
     999901    1    3    3    0    0 -0.86128793089E-01  0.77561232538E-01 -0.66959384436E-01  0.89012216743E+00  0.88000000000E+00 0. -1.
        -11    1    4    4    0    0  0.48397677827E-01 -0.36849373839E-01  0.57265875068E-01  0.83545515377E-01  0.51100000000E-03 0.  1.
         11    1    4    4    0    0  0.36787319767E-01 -0.20479206393E-01  0.21013704132E-01  0.47058917034E-01  0.51100000000E-03 0. -1.
</event>
<event>
 8    1  0.1099921E+005  0.1043930E+01  0.7957747E-01            NaN
         13   -1    0    0    0    0  0.00000000000E+00  0.00000000000E+00  0.74505805969E-08  0.10566000000E+00  0.10566000000E+00 0. -1.
     999900   -1    0    0    0    0 -0.00000000000E+00 -0.00000000000E+00 -0.74505805969E-08  0.93827000000E+00  0.93827000000E+00 0.  1.
     999902    2    1    2    0    0  0.14123323210E-01 -0.11375155643E-01  0.13370310407E-01  0.10213994069E+01  0.10211508805E+01 0.  0.
     999903    2    3    3    0    0  0.12195461666E+00 -0.89880358672E-02  0.50204405910E-01  0.13404939887E+00  0.22249621340E-01 0.  0.
         14    1    1    2    0    0 -0.14123323210E-01  0.11375155643E-01 -0.13370310407E-01  0.22530593085E-01  0.00000000000E+00 0.  1.
     999901    1    3    3    0    0 -0.10783129345E+00 -0.23871197753E-02 -0.36834095503E-01  0.88735000805E+00  0.88000000000E+00 0.  1.
        -11    1    4    4    0    0  0.10957843879E+00 -0.72794172199E-02  0.37055337183E-01  0.11590419879E+00  0.51100000000E-03 0.  1.
         11    1    4    4    0    0  0.12376177875E-01 -0.17086186473E-02  0.13149068727E-01  0.18145200078E-01  0.51100000000E-03 0. -1.
</event>
<event>
 8    1  0.1099921E+005  0.1043930E+01  0.7957747E-01            NaN
         13   -1    0    0    0    0  0.00000000000E+00  0.00000000000E+00  0.74505805969E-08  0.10566000000E+00  0.10566000000E+00 0.  1.
     999900   -1    0    0    0    0 -0.00000000000E+00 -0.00000000000E+00 -0.74505805969E-08  0.93827000000E+00  0.93827000000E+00 0.  1.
     999902    2    1    2    0    0 -0.45624650783E-02  0.22623576428E-01  0.82787898881E-02  0.10194110143E+01  0.10191161050E+01 0.  0.
     999903    2    3    3    0    0 -0.18680785902E-01 -0.10786361274E-02 -0.12584270065E+00  0.12882149264E+00  0.20210305313E-01 0.  0.
         14    1    1    2    0    0  0.45624650783E-02 -0.22623576428E-01 -0.82787898881E-02  0.24518985705E-01  0.00000000000E+00 0. -1.
     999901    1    3    3    0    0  0.14118320824E-01  0.23702212556E-01  0.13412149054E+00  0.89058952166E+00  0.88000000000E+00 0. -1.
        -11    1    4    4    0    0 -0.19743038283E-01 -0.12927225722E-02 -0.64527260651E-01  0.67494349248E-01  0.51100000000E-03 0. -1.
         11    1    4    4    0    0  0.10622523812E-02  0.21408644485E-03 -0.61315439997E-01  0.61327143388E-01  0.51100000000E-03 0.  1.
</event>
<event>
 8    1  0.1099921E+005  0.1043930E+01  0.7957747E-01            NaN
         13   -1    0    0    0    0  0.00000000000E+00  0.00000000000E+00  0.74505805969E-08  0.10566000000E+00  0.10566000000E+00 0.  1.
     999900   -1    0    0    0    0 -0.00000000000E+00 -0.00000000000E+00 -0.74505805969E-08  0.93827000000E+00  0.93827000000E+00 0. -1.
     999902    2    1    2    0    0 -0.16408846575E-01 -0.55338250422E-02  0.16577907871E-01  0.10199570883E+01  0.10196753216E+01 0.  0.
     999903    2    3    3    0    0 -0.70440201290E-01 -0.44708837378E-03 -0.10691899862E+00  0.12967806009E+00  0.20559794646E-01 0.  0.
         14    1    1    2    0    0  0.16408846575E-01  0.55338250422E-02 -0.16577907871E-01  0.23972911690E-01  0.00000000000E+00 0. -1.
     999901    1    3    3    0    0  0.54031354715E-01 -0.50867366685E-02  0.12349690649E+00  0.89027902822E+00  0.88000000000E+00 0.  1.
        -11    1    4    4    0    0 -0.48894733424E-01 -0.76319451368E-02 -0.83405428945E-01  0.96982824467E-01  0.51100000000E-03 0. -1.
         11    1    4    4    0    0 -0.21545467866E-01  0.71848567630E-02 -0.23513569676E-01  0.32695235619E-01  0.51100000000E-03 0.  1.
</event>
<event>
 8    1  0.1099921E+005  0.1043930E+01  0.7957747E-01            NaN
         13   -1    0    0    0    0  0.00000000000E+00  0.00000000000E+00  0.74505805969E-08  0.10566000000E+00  0.10566000000E+00 0. -1.
     999900   -1    0    0    0    0 -0.00000000000E+00 -0.00000000000E+00 -0.74505805969E-08  0.93827000000E+00  0.93827000000E+00 0. -1.
     999902    2    1    2    0    0 -0.12150685708E-01 -0.14510166989E-01  0.13127139559E-01  0.10208972863E+01  0.10206374298E+01 0.  0.
     999903    2    3    3    0    0  0.11035815002E+00 -0.62368015400E-02  0.67064425209E-01  0.13073657370E+00  0.19406071311E-01 0.  0.
         14    1    1    2    0    0  0.12150685708E-01  0.14510166989E-01 -0.13127139559E-01  0.23032713740E-01  0.00000000000E+00 0.  1.
     999901    1    3    3    0    0 -0.12250883573E+00 -0.82733654491E-02 -0.53937285650E-01  0.89016071256E+00  0.88000000000E+00 0. -1.
        -11    1    4    4    0    0  0.88978953438E-01  0.10466338663E-02  0.58905832288E-01  0.10671695177E+00  0.51100000000E-03 0.  1.
         11    1    4    4    0    0  0.21379196583E-01 -0.72834354062E-02  0.81585929218E-02  0.24019621923E-01  0.51100000000E-03 0. -1.
</event>
<event>
 8    1  0.1099921E+005  0.1043930E+01  0.7957747E-01            NaN
         13   -1    0    0    0    0  0.00000000000E+00  0.00000000000E+00  0.74505805969E-08  0.10566000000E+00  0.10566000000E+00 0.  1.
     999900   -1    0    0    0    0 -0.00000000000E+00 -0.00000000000E+00 -0.74505805969E-08  0.93827000000E+00  0.93827000000E+00 0.  1.
     999902    2    1    2    0    0 -0.39575450758E-02 -0.89570899436E-02  0.19934532438E-01  0.10217201552E+01  0.10214787312E+01 0.  0.
     999903    2    3    3    0    0  0.83289622066E-01 -0.34930552355E-01  0.96515741836E-01  0.13371600510E+00  0.20183581624E-01 0.  0.
         14    1    1    2    0    0  0.39575450758E-02  0.89570899436E-02 -0.19934532438E-01  0.22209844817E-01  0.00000000000E+00 0. -1.
     999901    1    3    3    0    0 -0.87247167142E-01  0.25973462412E-01 -0.76581209398E-01  0.88800415008E+00  0.88000000000E+00 0.  1.
        -11    1    4    4    0    0  0.32073928779E-01 -0.21114500700E-01  0.50828138474E-01  0.63704943520E-01  0.51100000000E-03 0.  1.
         11    1    4    4    0    0  0.51215693288E-01 -0.13816051656E-01  0.45687603361E-01  0.70011061584E-01  0.51100000000E-03 0. -1.
</event>
<event>
 8    1  0.1099921E+005  0.1043930E+01  0.7957747E-01            NaN
         13   -1    0    0    0    0  0.00000000000E+00  0.00000000000E+00  0.74505805969E-08  0.10566000000E+00  0.10566000000E+00 0.  1.
     999900   -1    0    0    0    0 -0.00000000000E+00 -0.00000000000E+00 -0.74505805969E-08  0.93827000000E+00  0.93827000000E+00 0.  1.
     999902    2    1    2    0    0 -0.12219366398E-01  0.16475174323E-02 -0.20685317831E-01  0.10198486877E+01  0.10195643365E+01 0.  0.
     999903    2    3    3    0    0  0.40362955201E-01  0.11479357326E+00  0.38490434139E-01  0.12908008692E+00  0.19324148219E-01 0.  0.
         14    1    1    2    0    0  0.12219366398E-01 -0.16475174323E-02  0.20685317831E-01  0.24081312311E-01  0.00000000000E+00 0.  1.
     999901    1    3    3    0    0 -0.52582321599E-01 -0.11314605583E+00 -0.59175751970E-01  0.89076860077E+00  0.88000000000E+00 0.  1.
        -11    1    4    4    0    0  0.35703497907E-01  0.74696462537E-01  0.27512635976E-01  0.87243954161E-01  0.51100000000E-03 0.  1.
         11    1    4    4    0    0  0.46594572943E-02  0.40097110724E-01  0.10977798163E-01  0.41836132758E-01  0.51100000000E-03 0. -1.
</event>
<event>
 8    1  0.1099921E+005  0.1043930E+01  0.7957747E-01            NaN
         13   -1    0    0    0    0  0.00000000000E+00  0.00000000000E+00  0.74505805969E-08  0.10566000000E+00  0.10566000000E+00 0. -1.
     999900   -1    0    0    0    0 -0.00000000000E+00 -0.00000000000E+00 -0.74505805969E-08  0.93827000000E+00  0.93827000000E+00 0. -1.
     999902    2    1    2    0    0  0.11757187861E-01 -0.18534884912E-01  0.34475369740E-02  0.10217115631E+01  0.10214699503E+01 0.  0.
     999903    2    3    3    0    0  0.12087514582E+00 -0.46799685537E-01  0.27607735872E-01  0.13419291944E+00  0.21084143444E-01 0.  0.
         14    1    1    2    0    0 -0.11757187861E-01  0.18534884912E-01 -0.34475369740E-02  0.22218436855E-01  0.00000000000E+00 0.  1.
     999901    1    3    3    0    0 -0.10911795796E+00  0.28264800625E-01 -0.24160198898E-01  0.88751864370E+00  0.88000000000E+00 0.  1.
        -11    1    4    4    0    0  0.28807443719E-01 -0.45977480950E-02  0.12701868629E-01  0.31821481563E-01  0.51100000000E-03 0. -1.
         11    1    4    4    0    0  0.92067702105E-01 -0.42201937442E-01  0.14905867242E-01  0.10237143788E+00  0.51100000000E-03 0.  1.
</event>
<event>
 8    1  0.1099921E+005  0.1043930E+01  0.7957747E-01            NaN
         13   -1    0    0    0    0  0.00000000000E+00  0.00000000000E+00  0.74505805969E-08  0.10566000000E+00  0.10566000000E+00 0. -1.
     999900   -1    0    0    0    0 -0.00000000000E+00 -0.00000000000E+00 -0.74505805969E-08  0.93827000000E+00  0.93827000000E+00 0.  1.
     999902    2    1    2    0    0 -0.24057817597E-02  0.19349426110E-01  0.11166989436E-01  0.10214602486E+01  0.10212130775E+01 0.  0.
     999903    2    3    3    0    0  0.13681627309E-01  0.12030027491E-01  0.13064198453E+00  0.13321104210E+00  0.18599600209E-01 0.  0.
         14    1    1    2    0    0  0.24057817597E-02 -0.19349426110E-01 -0.11166989436E-01  0.22469751438E-01  0.00000000000E+00 0. -1.
     999901    1    3    3    0    0 -0.16087409069E-01  0.73193986186E-02 -0.11947499510E+00  0.88824920646E+00  0.88000000000E+00 0.  1.
        -11    1    4    4    0    0 -0.12231634646E-02  0.10922887898E-01  0.50344363026E-01  0.51532723762E-01  0.51100000000E-03 0.  1.
         11    1    4    4    0    0  0.14904790774E-01  0.11071395931E-02  0.80297621505E-01  0.81678318338E-01  0.51100000000E-03 0. -1.
</event>
<event>
 8    1  0.1099921E+005  0.1043930E+01  0.7957747E-01            NaN
         13   -1    0    0    0    0  0.00000000000E+00  0.00000000000E+00  0.74505805969E-08  0.10566000000E+00  0.10566000000E+00 0.  1.
     999900   -1    0    0    0    0 -0.00000000000E+00 -0.00000000000E+00 -0.74505805969E-08  0.93827000000E+00  0.93827000000E+00 0.  1.
     999902    2    1    2    0    0  0.10059619236E-01 -0.11585673088E-01 -0.17033133419E-01  0.10210050923E+01  0.10207476902E+01 0.  0.
     999903    2    3    3    0    0 -0.78193058772E-01 -0.67257216134E-01 -0.80608886376E-01  0.13256278563E+00  0.20914397147E-01 0.  0.
         14    1    1    2    0    0 -0.10059619236E-01  0.11585673088E-01  0.17033133419E-01  0.22924907724E-01  0.00000000000E+00 0.  1.
     999901    1    3    3    0    0  0.88252678009E-01  0.55671543045E-01  0.63575752958E-01  0.88844230665E+00  0.88000000000E+00 0.  1.
        -11    1    4    4    0    0 -0.35493481343E-01 -0.38007716133E-01 -0.29347951441E-01  0.59715467664E-01  0.51100000000E-03 0. -1.
         11    1    4    4    0    0 -0.42699577429E-01 -0.29249500000E-01 -0.51260934936E-01  0.72847317963E-01  0.51100000000E-03 0.  1.
</event>
<event>
 8    1  0.1099921E+005  0.1043930E+01  0.7957747E-01            NaN
         13   -1    0    0    0    0  0.00000000000E+00  0.00000000000E+00  0.74505805969E-08  0.10566000000E+00  0.10566000000E+00 0. -1.
     999900   -1    0    0    0    0 -0.00000000000E+00 -0.00000000000E+00 -0.74505805969E-08  0.93827000000E+00  0.93827000000E+00 0.  1.
     999902    2    1    2    0    0  0.12610138541E-01 -0.13169946579E-01  0.13921864619E-01  0.10209891761E+01  0.10207314124E+01 0.  0.
     999903    2    3    3    0    0  0.33992258283E-02  0.12147297083E+00  0.42115929465E-01  0.13025438874E+00  0.20620787886E-01 0.  0.
         14    1    1    2    0    0 -0.12610138541E-01  0.13169946579E-01 -0.13921864619E-01  0.22940823904E-01  0.00000000000E+00 0.  1.
     999901    1    3    3    0    0  0.92109127127E-02 -0.13464291740E+00 -0.28194064846E-01  0.89073478736E+00  0.88000000000E+00 0.  1.
        -11    1    4    4    0    0  0.77126456083E-02  0.17824636538E-01  0.48498020240E-02  0.20024591647E-01  0.51100000000E-03 0.  1.
         11    1    4    4    0    0 -0.43134197800E-02  0.10364833429E+00  0.37266127441E-01  0.11022979709E+00  0.51100000000E-03 0. -1.
</event>
<event>
 8    1  0.1099921E+005  0.1043930E+01  0.7957747E-01            NaN
         13   -1    0    0    0    0  0.00000000000E+00  0.00000000000E+00  0.74505805969E-08  0.10566000000E+00  0.10566000000E+00 0.  1.
     999900   -1    0    0    0    0 -0.00000000000E+00 -0.00000000000E+00 -0.74505805969E-08  0.93827000000E+00  0.93827000000E+00 0.  1.
     999902    2    1    2    0    0  0.20751724851E-01 -0.55918478102E-02  0.99251284831E-02  0.10202569980E+01  0.10199823190E+01 0.  0.
     999903    2    3    3    0    0 -0.19912409213E-01 -0.49297007597E-01 -0.11616838512E+00  0.12926693807E+00  0.19701486734E-01 0.  0.
         14    1    1    2    0    0 -0.20751724851E-01  0.55918478102E-02 -0.99251284831E-02  0.23673001957E-01  0.00000000000E+00 0. -1.
     999901    1    3    3    0    0  0.40664134065E-01  0.43705159787E-01  0.12609351360E+00  0.89099005997E+00  0.88000000000E+00 0. -1.
        -11    1    4    4    0    0  0.16522051420E-02 -0.26957946658E-02 -0.19926491503E-01  0.20182251493E-01  0.51100000000E-03 0. -1.
         11    1    4    4    0    0 -0.21564614356E-01 -0.46601212931E-01 -0.96241893615E-01  0.10908468658E+00  0.51100000000E-03 0.  1.
</event>
<event>
 8    1  0.1099921E+005  0.1043930E+01  0.7957747E-01            NaN
         13   -1    0    0    0    0  0.00000000000E+00  0.00000000000E+00  0.74505805969E-08  0.10566000000E+00  0.10566000000E+00 0. -1.
     999900   -1    0    0    0    0 -0.00000000000E+00 -0.00000000000E+00 -0.74505805969E-08  0.93827000000E+00  0.93827000000E+00 0.  1.
     999902    2    1    2    0    0  0.21123137589E-01 -0.82417659043E-02 -0.82135183906E-02  0.10198141228E+01  0.10195289450E+01 0.  0.
     999903    2    3    3    0    0  0.58597025253E-01  0.86578748111E-01 -0.76826998682E-01  0.13127429154E+00  0.20026504913E-01 0.  0.
         14    1    1    2    0    0 -0.21123137589E-01  0.82417659043E-02  0.82135183906E-02  0.24115877159E-01  0.00000000000E+00 0.  1.
     999901    1    3    3    0    0 -0.37473887664E-01 -0.94820514016E-01  0.68613480292E-01  0.88853983130E+00  0.88000000000E+00 0. -1.
        -11    1    4    4    0    0  0.27245577167E-01  0.55280147976E-01 -0.50969141651E-01  0.79977063944E-01  0.51100000000E-03 0. -1.
         11    1    4    4    0    0  0.31351448086E-01  0.31298600135E-01 -0.25857857031E-01  0.51297227593E-01  0.51100000000E-03 0.  1.
</event>
<event>
 8    1  0.1099921E+005  0.1043930E+01  0.7957747E-01            NaN
         13   -1    0    0    0    0  0.00000000000E+00  0.00000000000E+00  0.74505805969E-08  0.10566000000E+00  0.10566000000E+00 0.  1.
     999900   -1    0    0    0    0 -0.00000000000E+00 -0.00000000000E+00 -0.74505805969E-08  0.93827000000E+00  0.93827000000E+00 0.  1.
     999902    2    1    2    0    0  0.98668531539E-02 -0.20053517979E-01 -0.73816542274E-02  0.10203930675E+01  0.10201215736E+01 0.  0.
     999903    2    3    3    0    0 -0.53063643252E-01  0.11452395300E+00 -0.45640830358E-02  0.12793618795E+00  0.20380168965E-01 0.  0.
         14    1    1    2    0    0 -0.98668531539E-02  0.20053517979E-01  0.73816542274E-02  0.23536932545E-01  0.00000000000E+00 0.  1.
     999901    1    3    3    0    0  0.62930496406E-01 -0.13457747098E+00 -0.28175711916E-02  0.89245687951E+00  0.88000000000E+00 0.  1.
        -11    1    4    4    0    0 -0.13623256518E-01  0.15842872820E-01 -0.56770633514E-02  0.21658252622E-01  0.51100000000E-03 0. -1.
         11    1    4    4    0    0 -0.39440386734E-01  0.98681080178E-01  0.11129803156E-02  0.10627793533E+00  0.51100000000E-03 0.  1.
</event>
<event>
 8    1  0.1099921E+005  0.1043930E+01  0.7957747E-01            NaN
         13   -1    0    0    0    0  0.00000000000E+00  0.00000000000E+00  0.74505805969E-08  0.10566000000E+00  0.10566000000E+00 0.  1.
     999900   -1    0    0    0    0 -0.00000000000E+00 -0.00000000000E+00 -0.74505805969E-08  0.93827000000E+00  0.93827000000E+00 0.  1.
     999902    2    1    2    0    0 -0.35396512922E-02 -0.18934174457E-01 -0.15427369714E-01  0.10192513487E+01  0.10189525386E+01 0.  0.
     999903    2    3    3    0    0 -0.90344369333E-01  0.82167067237E-01 -0.36294240358E-01  0.12897501720E+00  0.20093560392E-01 0.  0.
         14    1    1    2    0    0  0.35396512922E-02  0.18934174457E-01  0.15427369714E-01  0.24678651299E-01  0.00000000000E+00 0.  1.
     999901    1    3    3    0    0  0.86804718040E-01 -0.10110124169E+00  0.20866870645E-01  0.89027633150E+00  0.88000000000E+00 0.  1.
        -11    1    4    4    0    0 -0.33305098904E-01  0.43385235085E-01 -0.13621187811E-01  0.56367598093E-01  0.51100000000E-03 0. -1.
         11    1    4    4    0    0 -0.57039270429E-01  0.38781832152E-01 -0.22673052548E-01  0.72607419104E-01  0.51100000000E-03 0.  1.
</event>
<event>
 8    1  0.1103404E+005  0.1043930E+01  0.7957747E-01            NaN
         13   -1    0    0    0    0  0.00000000000E+00  0.00000000000E+00  0.74505805969E-08  0.10566000000E+00  0.10566000000E+00 0. -1.
     999900   -1    0    0    0    0 -0.00000000000E+00 -0.00000000000E+00 -0.74505805969E-08  0.93827000000E+00  0.93827000000E+00 0.  1.
     999902    2    1    2    0    0 -0.30709102845E-02 -0.98222145782E-02  0.21946065411E-01  0.10196908545E+01  0.10194027185E+01 0.  0.
     999903    2    3    3    0    0  0.72758112090E-01  0.48596560343E-01  0.95799761145E-01  0.13142447422E+00  0.20962577060E-01 0.  0.
         14    1    1    2    0    0  0.30709102845E-02  0.98222145782E-02 -0.21946065411E-01  0.24239145534E-01  0.00000000000E+00 0.  1.
     999901    1    3    3    0    0 -0.75829022375E-01 -0.58418774921E-01 -0.73853695734E-01  0.88826638024E+00  0.88000000000E+00 0.  1.
        -11    1    4    4    0    0  0.20568827876E-01  0.25154264662E-01  0.39569901367E-01  0.51204022558E-01  0.51100000000E-03 0. -1.
         11    1    4    4    0    0  0.52189284215E-01  0.23442295681E-01  0.56229859778E-01  0.80220451665E-01  0.51100000000E-03 0.  1.
</event>
<event>
 8    1  0.1099921E+005  0.1043930E+01  0.7957747E-01            NaN
         13   -1    0    0    0    0  0.00000000000E+00  0.00000000000E+00  0.74505805969E-08  0.10566000000E+00  0.10566000000E+00 0. -1.
     999900   -1    0    0    0    0 -0.00000000000E+00 -0.00000000000E+00 -0.74505805969E-08  0.93827000000E+00  0.93827000000E+00 0.  1.
     999902    2    1    2    0    0  0.77341533331E-02  0.12882795105E-01 -0.18006451174E-01  0.10204775839E+01  0.10202080589E+01 0.  0.
     999903    2    3    3    0    0  0.80811664683E-01 -0.67169685491E-01  0.72157840275E-01  0.12925464783E+00  0.21394351451E-01 0.  0.
         14    1    1    2    0    0 -0.77341533331E-02 -0.12882795105E-01  0.18006451174E-01  0.23452416109E-01  0.00000000000E+00 0. -1.
     999901    1    3    3    0    0 -0.73077511350E-01  0.80052480595E-01 -0.90164291448E-01  0.89122293606E+00  0.88000000000E+00 0.  1.
        -11    1    4    4    0    0  0.28379102418E-02 -0.84965496861E-02  0.23596956679E-02  0.92776277008E-02  0.51100000000E-03 0.  1.
         11    1    4    4    0    0  0.77973754441E-01 -0.58673135804E-01  0.69798144607E-01  0.11997702013E+00  0.51100000000E-03 0. -1.
</event>
<event>
 8    1  0.1099921E+005  0.1043930E+01  0.7957747E-01            NaN
         13   -1    0    0    0    0  0.00000000000E+00  0.00000000000E+00  0.74505805969E-08  0.10566000000E+00  0.10566000000E+00 0.  1.
     999900   -1    0    0    0    0 -0.00000000000E+00 -0.00000000000E+00 -0.74505805969E-08  0.93827000000E+00  0.93827000000E+00 0. -1.
     999902    2    1    2    0    0  0.20222389529E-02  0.23565781349E-01 -0.32406342985E-02  0.10200566422E+01  0.10197772385E+01 0.  0.
     999903    2    3    3    0    0  0.12120940496E+00  0.16976452228E-01 -0.42587424819E-01  0.13112629077E+00  0.20012386151E-01 0.  0.
         14    1    1    2    0    0 -0.20222389529E-02 -0.23565781349E-01  0.32406342985E-02  0.23873357779E-01  0.00000000000E+00 0. -1.
     999901    1    3    3    0    0 -0.11918716600E+00  0.65893291209E-02  0.39346790520E-01  0.88893035145E+00  0.88000000000E+00 0.  1.
        -11    1    4    4    0    0  0.77940385418E-01  0.12232888172E-02 -0.25758172579E-01  0.82097166152E-01  0.51100000000E-03 0.  1.
         11    1    4    4    0    0  0.43269019539E-01  0.15753163411E-01 -0.16829252240E-01  0.49029124623E-01  0.51100000000E-03 0. -1.
</event>
<event>
 8    1  0.1099921E+005  0.1043930E+01  0.7957747E-01            NaN
         13   -1    0    0    0    0  0.00000000000E+00  0.00000000000E+00  0.74505805969E-08  0.10566000000E+00  0.10566000000E+00 0.  1.
     999900   -1    0    0    0    0 -0.00000000000E+00 -0.00000000000E+00 -0.74505805969E-08  0.93827000000E+00  0.93827000000E+00 0.  1.
     999902    2    1    2    0    0 -0.18852042866E-02  0.22174662595E-01 -0.11105815088E-01  0.10190581528E+01  0.10187545877E+01 0.  0.
     999903    2    3    3    0    0 -0.12322490889E+00 -0.34848742896E-01 -0.11839871641E-01  0.12890337323E+00  0.87797503151E-02 0.  0.
         14    1    1    2    0    0  0.18852042866E-02 -0.22174662595E-01  0.11105815088E-01  0.24871847241E-01  0.00000000000E+00 0.  1.
     999901    1    3    3    0    0  0.12133970460E+00  0.57023405492E-01  0.73405655307E-03  0.89015477953E+00  0.88000000000E+00 0.  1.
        -11    1    4    4    0    0 -0.73034323243E-01 -0.23846431893E-01 -0.10074144258E-01  0.77488155154E-01  0.51100000000E-03 0. -1.
         11    1    4    4    0    0 -0.50190585649E-01 -0.11002311003E-01 -0.17657273828E-02  0.51415218072E-01  0.51100000000E-03 0.  1.
</event>
<event>
 8    1  0.1099921E+005  0.1043930E+01  0.7957747E-01            NaN
         13   -1    0    0    0    0  0.00000000000E+00  0.00000000000E+00  0.74505805969E-08  0.10566000000E+00  0.10566000000E+00 0. -1.
     999900   -1    0    0    0    0 -0.00000000000E+00 -0.00000000000E+00 -0.74505805969E-08  0.93827000000E+00  0.93827000000E+00 0.  1.
     999902    2    1    2    0    0 -0.55660111516E-02  0.22769058430E-01 -0.18992774790E-02  0.10204136704E+01  0.10201426572E+01 0.  0.
     999903    2    3    3    0    0 -0.62156682712E-02 -0.78384433642E-01  0.99937721360E-01  0.12878413673E+00  0.20372819000E-01 0.  0.
         14    1    1    2    0    0  0.55660111516E-02 -0.22769058430E-01  0.18992774790E-02  0.23516329579E-01  0.00000000000E+00 0.  1.
     999901    1    3    3    0    0  0.64965711961E-03  0.10115349207E+00 -0.10183699884E+00  0.89162953369E+00  0.88000000000E+00 0. -1.
        -11    1    4    4    0    0 -0.81858515241E-02 -0.63422542137E-01  0.91044940854E-01  0.11126036757E+00  0.51100000000E-03 0.  1.
         11    1    4    4    0    0  0.19701832529E-02 -0.14961891505E-01  0.88927805060E-02  0.17523769160E-01  0.51100000000E-03 0. -1.
</event>
<event>
 8    1  0.1099921E+005  0.1043930E+01  0.7957747E-01            NaN
         13   -1    0    0    0    0  0.00000000000E+00  0.00000000000E+00  0.74505805969E-08  0.10566000000E+00  0.10566000000E+00 0. -1.
     999900   -1    0    0    0    0 -0.00000000000E+00 -0.00000000000E+00 -0.74505805969E-08  0.93827000000E+00  0.93827000000E+00 0.  1.
     999902    2    1    2    0    0  0.21196440150E-01 -0.34450477289E-02 -0.94060146528E-02  0.10204857994E+01  0.10202164654E+01 0.  0.
     999903    2    3    3    0    0  0.12371789794E+00 -0.41881164713E-01  0.17315449236E-01  0.13329809605E+00  0.20209091980E-01 0.  0.
         14    1    1    2    0    0 -0.21196440150E-01  0.34450477289E-02  0.94060146528E-02  0.23444200573E-01  0.00000000000E+00 0. -1.
     999901    1    3    3    0    0 -0.10252145779E+00  0.38436116984E-01 -0.26721463889E-01  0.88718770338E+00  0.88000000000E+00 0. -1.
        -11    1    4    4    0    0  0.54483734930E-01 -0.80424485895E-02  0.86014098216E-02  0.55744091374E-01  0.51100000000E-03 0. -1.
         11    1    4    4    0    0  0.69234163011E-01 -0.33838716124E-01  0.87140394143E-02  0.77554004672E-01  0.51100000000E-03 0.  1.
</event>
<event>
 8    1  0.1099921E+005  0.1043930E+01  0.7957747E-01            NaN
         13   -1    0    0    0    0  0.00000000000E+00  0.00000000000E+00  0.74505805969E-08  0.10566000000E+00  0.10566000000E+00 0. -1.
     999900   -1    0    0    0    0 -0.00000000000E+00 -0.00000000000E+00 -0.74505805969E-08  0.93827000000E+00  0.93827000000E+00 0.  1.
     999902    2    1    2    0    0 -0.46297791255E-02  0.22230912203E-01 -0.64753217215E-02  0.10203169082E+01  0.10200436339E+01 0.  0.
     999903    2    3    3    0    0 -0.70169560361E-01 -0.14342234627E-01 -0.10857440338E+00  0.13124026334E+00  0.17496821334E-01 0.  0.
         14    1    1    2    0    0  0.46297791255E-02 -0.22230912203E-01  0.64753217215E-02  0.23613091782E-01  0.00000000000E+00 0.  1.
     999901    1    3    3    0    0  0.65539781236E-01  0.36573146830E-01  0.10209908166E+00  0.88907664488E+00  0.88000000000E+00 0. -1.
        -11    1    4    4    0    0 -0.42711767641E-01 -0.20498986477E-02 -0.53583344638E-01  0.68556058252E-01  0.51100000000E-03 0. -1.
         11    1    4    4    0    0 -0.27457792720E-01 -0.12292335979E-01 -0.54991058741E-01  0.62684205087E-01  0.51100000000E-03 0.  1.
</event>
<event>
 8    1  0.1099921E+005  0.1043930E+01  0.7957747E-01            NaN
         13   -1    0    0    0    0  0.00000000000E+00  0.00000000000E+00  0.74505805969E-08  0.10566000000E+00  0.10566000000E+00 0. -1.
     999900   -1    0    0    0    0 -0.00000000000E+00 -0.00000000000E+00 -0.74505805969E-08  0.93827000000E+00  0.93827000000E+00 0.  1.
     999902    2    1    2    0    0 -0.10789742855E-01  0.16865971834E-01 -0.12336162904E-01  0.10204127622E+01  0.10201417278E+01 0.  0.
     999903    2    3    3    0    0  0.10326775402E+00 -0.73729042909E-01 -0.41115009454E-02  0.12840143139E+00  0.19230765824E-01 0.  0.
         14    1    1    2    0    0  0.10789742855E-01 -0.16865971834E-01  0.12336162904E-01  0.23517237763E-01  0.00000000000E+00 0. -1.
     999901    1    3    3    0    0 -0.11405749688E+00  0.90595014743E-01 -0.82246619589E-02  0.89201133084E+00  0.88000000000E+00 0.  1.
        -11    1    4    4    0    0  0.54682418763E-01 -0.50480280839E-01 -0.62484847523E-03  0.74424977205E-01  0.51100000000E-03 0.  1.
         11    1    4    4    0    0  0.48585335261E-01 -0.23248762070E-01 -0.34866524702E-02  0.53976454188E-01  0.51100000000E-03 0. -1.
</event>
<event>
 8    1  0.1099921E+005  0.1043930E+01  0.7957747E-01            NaN
         13   -1    0    0    0    0  0.00000000000E+00  0.00000000000E+00  0.74505805969E-08  0.10566000000E+00  0.10566000000E+00 0. -1.
     999900   -1    0    0    0    0 -0.00000000000E+00 -0.00000000000E+00 -0.74505805969E-08  0.93827000000E+00  0.93827000000E+00 0. -1.
     999902    2    1    2    0    0  0.14861834226E-01 -0.18008454242E-01 -0.68246370516E-02  0.10196040013E+01  0.10193137718E+01 0.  0.
     999903    2    3    3    0    0 -0.26997125139E-01 -0.12135304597E+00 -0.39479613157E-01  0.13196746277E+00  0.20034091991E-01 0.  0.
         14    1    1    2    0    0 -0.14861834226E-01  0.18008454242E-01  0.68246370516E-02  0.24325998677E-01  0.00000000000E+00 0. -1.
     999901    1    3    3    0    0  0.41858959365E-01  0.10334459173E+00  0.32654976106E-01  0.88763653856E+00  0.88000000000E+00 0. -1.
        -11    1    4    4    0    0 -0.15218073264E-01 -0.69027024841E-01 -0.11992012169E-01  0.71696508904E-01  0.51100000000E-03 0.  1.
         11    1    4    4    0    0 -0.11779051876E-01 -0.52326021128E-01 -0.27487600988E-01  0.60270953861E-01  0.51100000000E-03 0. -1.
</event>
<event>
 8    1  0.1099921E+005  0.1043930E+01  0.7957747E-01            NaN
         13   -1    0    0    0    0  0.00000000000E+00  0.00000000000E+00  0.74505805969E-08  0.10566000000E+00  0.10566000000E+00 0. -1.
     999900   -1    0    0    0    0 -0.00000000000E+00 -0.00000000000E+00 -0.74505805969E-08  0.93827000000E+00  0.93827000000E+00 0. -1.
     999902    2    1    2    0    0 -0.27274174418E-02  0.16874716858E-01  0.16478075680E-01  0.10201871726E+01  0.10199108516E+01 0.  0.
     999903    2    3    3    0    0  0.32849859101E-01 -0.78035925472E-01 -0.92510399566E-01  0.12768940769E+00  0.24035222081E-01 0.  0.
         14    1    1    2    0    0  0.27274174418E-02 -0.16874716858E-01 -0.16478075680E-01  0.23742827402E-01  0.00000000000E+00 0.  1.
     999901    1    3    3    0    0 -0.35577276542E-01  0.94910642330E-01  0.10898847525E+00  0.89249776491E+00  0.88000000000E+00 0.  1.
        -11    1    4    4    0    0  0.28269628618E-02 -0.16318017152E-01 -0.68627838997E-02  0.17933999181E-01  0.51100000000E-03 0. -1.
         11    1    4    4    0    0  0.30022896239E-01 -0.61717908321E-01 -0.85647615666E-01  0.10975540851E+00  0.51100000000E-03 0.  1.
</event>
<event>
 8    1  0.1099921E+005  0.1043930E+01  0.7957747E-01            NaN
         13   -1    0    0    0    0  0.00000000000E+00  0.00000000000E+00  0.74505805969E-08  0.10566000000E+00  0.10566000000E+00 0.  1.
     999900   -1    0    0    0    0 -0.00000000000E+00 -0.00000000000E+00 -0.74505805969E-08  0.93827000000E+00  0.93827000000E+00 0. -1.
     999902    2    1    2    0    0 -0.81822053703E-02  0.78726685573E-02  0.20404172603E-01  0.10205792472E+01  0.10203120808E+01 0.  0.
     999903    2    3    3    0    0  0.39442129720E-01 -0.38898236089E-01 -0.11362714035E+00  0.12793150727E+00  0.19661870769E-01 0.  0.
         14    1    1    2    0    0  0.81822053703E-02 -0.78726685573E-02 -0.20404172603E-01  0.23350752762E-01  0.00000000000E+00 0. -1.
     999901    1    3    3    0    0 -0.47624335091E-01  0.46770904647E-01  0.13403131295E+00  0.89264773997E+00  0.88000000000E+00 0. -1.
        -11    1    4    4    0    0  0.23348948130E-01 -0.15073792595E-01 -0.73373201618E-01  0.78461968104E-01  0.51100000000E-03 0.  1.
         11    1    4    4    0    0  0.16093181591E-01 -0.23824443494E-01 -0.40253938727E-01  0.49469539169E-01  0.51100000000E-03 0. -1.
</event>
<event>
 8    1  0.1099921E+005  0.1043930E+01  0.7957747E-01            NaN
         13   -1    0    0    0    0  0.00000000000E+00  0.00000000000E+00  0.74505805969E-08  0.10566000000E+00  0.10566000000E+00 0.  1.
     999900   -1    0    0    0    0 -0.00000000000E+00 -0.00000000000E+00 -0.74505805969E-08  0.93827000000E+00  0.93827000000E+00 0.  1.
     999902    2    1    2    0    0 -0.11873226038E-01  0.12059945475E-01 -0.15229607698E-01  0.10211625510E+01  0.10209087123E+01 0.  0.
     999903    2    3    3    0    0 -0.10286735046E+00 -0.79565092531E-02  0.78730708066E-01  0.13126978780E+00  0.19703678993E-01 0.  0.
         14    1    1    2    0    0  0.11873226038E-01 -0.12059945475E-01  0.15229607698E-01  0.22767448957E-01  0.00000000000E+00 0.  1.
     999901    1    3    3    0    0  0.90994124420E-01  0.20016454728E-01 -0.93960315763E-01  0.88989276325E+00  0.88000000000E+00 0.  1.
        -11    1    4    4    0    0 -0.48639048840E-01 -0.13366136888E-01  0.40629958856E-01  0.64772412067E-01  0.51100000000E-03 0. -1.
         11    1    4    4    0    0 -0.54228301618E-01  0.54096276352E-02  0.38100749210E-01  0.66497375729E-01  0.51100000000E-03 0.  1.
</event>
<event>
 7    1  0.1099921E+005  0.1043930E+01  0.7957747E-01            NaN
         13   -1    0    0    0    0  0.00000000000E+00  0.00000000000E+00  0.74505805969E-08  0.10566000000E+00  0.10566000000E+00 0. -1.
     999900   -1    0    0    0    0 -0.00000000000E+00 -0.00000000000E+00 -0.74505805969E-08  0.93827000000E+00  0.93827000000E+00 0.  1.
     999903    2    1    2    0    0  0.58963052996E-01  0.82109351512E-01 -0.43201116265E-01  0.11150280226E+00  0.18653451208E-01 0.  0.
         14    1    1    2    0    0 -0.47186083790E-01 -0.35228034483E-02  0.91289441709E-02  0.48189981005E-01  0.00000000000E+00 0. -1.
     999901    1    1    2    0    0 -0.11776969206E-01 -0.78586548064E-01  0.34072172094E-01  0.88423721673E+00  0.88000000000E+00 0. -1.
        -11    1    3    3    0    0  0.56443885279E-02  0.17723092408E-01 -0.34089296945E-02  0.18916898504E-01  0.51100000000E-03 0. -1.
         11    1    3    3    0    0  0.53318664468E-01  0.64386259104E-01 -0.39792186570E-01  0.92585903761E-01  0.51100000000E-03 0.  1.
</event>
<event>
 8    1  0.1099921E+005  0.1043930E+01  0.7957747E-01            NaN
         13   -1    0    0    0    0  0.00000000000E+00  0.00000000000E+00  0.74505805969E-08  0.10566000000E+00  0.10566000000E+00 0. -1.
     999900   -1    0    0    0    0 -0.00000000000E+00 -0.00000000000E+00 -0.74505805969E-08  0.93827000000E+00  0.93827000000E+00 0.  1.
     999902    2    1    2    0    0  0.17701713853E-01 -0.17426338476E-01  0.74899602805E-03  0.10190786632E+01  0.10187756048E+01 0.  0.
     999903    2    3    3    0    0 -0.50451230015E-01  0.95081364063E-01  0.64667514872E-01  0.12700894398E+00  0.19068087707E-01 0.  0.
         14    1    1    2    0    0 -0.17701713853E-01  0.17426338476E-01 -0.74899602805E-03  0.24851336807E-01  0.00000000000E+00 0. -1.
     999901    1    3    3    0    0  0.68152943869E-01 -0.11250770254E+00 -0.63918518844E-01  0.89206971921E+00  0.88000000000E+00 0.  1.
        -11    1    4    4    0    0 -0.41745290970E-01  0.60812202381E-01  0.40184639521E-01  0.83999164585E-01  0.51100000000E-03 0. -1.
         11    1    4    4    0    0 -0.87059390457E-02  0.34269161682E-01  0.24482875350E-01  0.43009779394E-01  0.51100000000E-03 0.  1.
</event>
<event>
 8    1  0.1099921E+005  0.1043930E+01  0.7957747E-01            NaN
         13   -1    0    0    0    0  0.00000000000E+00  0.00000000000E+00  0.74505805969E-08  0.10566000000E+00  0.10566000000E+00 0. -1.
     999900   -1    0    0    0    0 -0.00000000000E+00 -0.00000000000E+00 -0.74505805969E-08  0.93827000000E+00  0.93827000000E+00 0.  1.
     999902    2    1    2    0    0  0.44934220223E-02  0.49073907101E-02  0.22601972520E-01  0.10203689625E+01  0.10200969058E+01 0.  0.
     999903    2    3    3    0    0 -0.60802291292E-01  0.67319364902E-01  0.93749327682E-01  0.13288897354E+00  0.25332337651E-01 0.  0.
         14    1    1    2    0    0 -0.44934220223E-02 -0.49073907101E-02 -0.22601972520E-01  0.23561037474E-01  0.00000000000E+00 0.  1.
     999901    1    3    3    0    0  0.65295713314E-01 -0.62411974192E-01 -0.71147355162E-01  0.88747998898E+00  0.88000000000E+00 0. -1.
        -11    1    4    4    0    0 -0.31601747715E-01  0.36870730211E-01  0.67657478492E-01  0.83282151280E-01  0.51100000000E-03 0.  1.
         11    1    4    4    0    0 -0.29200543577E-01  0.30448634691E-01  0.26091849191E-01  0.49606822262E-01  0.51100000000E-03 0. -1.
</event>
<event>
 8    1  0.1239969E+005  0.1043930E+01  0.7957747E-01            NaN
         13   -1    0    0    0    0  0.00000000000E+00  0.00000000000E+00  0.74505805969E-08  0.10566000000E+00  0.10566000000E+00 0.  1.
     999900   -1    0    0    0    0 -0.00000000000E+00 -0.00000000000E+00 -0.74505805969E-08  0.93827000000E+00  0.93827000000E+00 0.  1.
     999902    2    1    2    0    0  0.20342452980E-01  0.85938801580E-02  0.60528798275E-02  0.10210322376E+01  0.10207754516E+01 0.  0.
     999903    2    3    3    0    0 -0.50208860370E-01  0.69916347078E-01 -0.95632277913E-01  0.13025852666E+00  0.20310734635E-01 0.  0.
         14    1    1    2    0    0 -0.20342452980E-01 -0.85938801580E-02 -0.60528798275E-02  0.22897762415E-01  0.00000000000E+00 0. -1.
     999901    1    3    3    0    0  0.70551313349E-01 -0.61322466920E-01  0.10168515774E+00  0.89077371092E+00  0.88000000000E+00 0. -1.
        -11    1    4    4    0    0 -0.20798421907E-01  0.42810704370E-01 -0.42947276965E-01  0.64109753409E-01  0.51100000000E-03 0.  1.
         11    1    4    4    0    0 -0.29410438463E-01  0.27105642708E-01 -0.52685000948E-01  0.66148773255E-01  0.51100000000E-03 0. -1.
</event>
<event>
 8    1  0.1099921E+005  0.1043930E+01  0.7957747E-01            NaN
         13   -1    0    0    0    0  0.00000000000E+00  0.00000000000E+00  0.74505805969E-08  0.10566000000E+00  0.10566000000E+00 0.  1.
     999900   -1    0    0    0    0 -0.00000000000E+00 -0.00000000000E+00 -0.74505805969E-08  0.93827000000E+00  0.93827000000E+00 0. -1.
     999902    2    1    2    0    0  0.70002804695E-04 -0.73724976768E-02 -0.21746634432E-01  0.10209675365E+01  0.10207092807E+01 0.  0.
     999903    2    3    3    0    0  0.10403016943E+00 -0.64575165588E-01  0.41500349930E-01  0.13075405505E+00  0.19547780087E-01 0.  0.
         14    1    1    2    0    0 -0.70002804695E-04  0.73724976768E-02  0.21746634432E-01  0.22962463533E-01  0.00000000000E+00 0.  1.
     999901    1    3    3    0    0 -0.10396016662E+00  0.57202667912E-01 -0.63246984362E-01  0.89021348141E+00  0.88000000000E+00 0. -1.
        -11    1    4    4    0    0  0.53385922707E-01 -0.42476559917E-01  0.28807053748E-01  0.74056885921E-01  0.51100000000E-03 0. -1.
         11    1    4    4    0    0  0.50644246722E-01 -0.22098605672E-01  0.12693296182E-01  0.56697169132E-01  0.51100000000E-03 0.  1.
</event>
<event>
 7    1  0.1851114E+005  0.1043930E+01  0.7957747E-01            NaN
         13   -1    0    0    0    0  0.00000000000E+00  0.00000000000E+00  0.74505805969E-08  0.10566000000E+00  0.10566000000E+00 0. -1.
     999900   -1    0    0    0    0 -0.00000000000E+00 -0.00000000000E+00 -0.74505805969E-08  0.93827000000E+00  0.93827000000E+00 0. -1.
     999903    2    1    2    0    0 -0.29696962764E-03 -0.88537995397E-01  0.66493521562E-01  0.11244228626E+00  0.19565646137E-01 0.  0.
         14    1    1    2    0    0 -0.39152085132E-01  0.81304827359E-02 -0.22421551652E-01  0.45844481655E-01  0.00000000000E+00 0.  1.
     999901    1    1    2    0    0  0.39449054760E-01  0.80407512661E-01 -0.44071969910E-01  0.88564323209E+00  0.88000000000E+00 0.  1.
        -11    1    3    3    0    0 -0.75469542013E-02 -0.25555035351E-01  0.25877327626E-01  0.37147187721E-01  0.51100000000E-03 0. -1.
         11    1    3    3    0    0  0.72499845737E-02 -0.62982960047E-01  0.40616193936E-01  0.75295098535E-01  0.51100000000E-03 0.  1.
</event>
<event>
 8    1  0.1099921E+005  0.1043930E+01  0.7957747E-01            NaN
         13   -1    0    0    0    0  0.00000000000E+00  0.00000000000E+00  0.74505805969E-08  0.10566000000E+00  0.10566000000E+00 0. -1.
     999900   -1    0    0    0    0 -0.00000000000E+00 -0.00000000000E+00 -0.74505805969E-08  0.93827000000E+00  0.93827000000E+00 0. -1.
     999902    2    1    2    0    0 -0.37620464544E-02 -0.83396267381E-02  0.22067079642E-01  0.10200415431E+01  0.10197617817E+01 0.  0.
     999903    2    3    3    0    0  0.44552780097E-01 -0.26219392575E-01  0.12175174300E+00  0.13291638815E+00  0.13071822889E-01 0.  0.
         14    1    1    2    0    0  0.37620464544E-02  0.83396267381E-02 -0.22067079642E-01  0.23888456869E-01  0.00000000000E+00 0.  1.
     999901    1    3    3    0    0 -0.48314826551E-01  0.17879765837E-01 -0.99684663359E-01  0.88712515498E+00  0.88000000000E+00 0. -1.
        -11    1    4    4    0    0  0.31532511364E-01 -0.12091660980E-01  0.70312820954E-01  0.78004239946E-01  0.51100000000E-03 0.  1.
         11    1    4    4    0    0  0.13020268733E-01 -0.14127731595E-01  0.51438922048E-01  0.54912148204E-01  0.51100000000E-03 0. -1.
</event>
<event>
 8    1  0.1099921E+005  0.1043930E+01  0.7957747E-01            NaN
         13   -1    0    0    0    0  0.00000000000E+00  0.00000000000E+00  0.74505805969E-08  0.10566000000E+00  0.10566000000E+00 0. -1.
     999900   -1    0    0    0    0 -0.00000000000E+00 -0.00000000000E+00 -0.74505805969E-08  0.93827000000E+00  0.93827000000E+00 0. -1.
     999902    2    1    2    0    0  0.70297314899E-02  0.21306781797E-01  0.39381303633E-02  0.10211505148E+01  0.10208964046E+01 0.  0.
     999903    2    3    3    0    0  0.46408103753E-01 -0.53427364050E-01 -0.10723101147E+00  0.13014298012E+00  0.20748738010E-01 0.  0.
         14    1    1    2    0    0 -0.70297314899E-02 -0.21306781797E-01 -0.39381303633E-02  0.22779485203E-01  0.00000000000E+00 0. -1.
     999901    1    3    3    0    0 -0.39378372263E-01  0.74734145847E-01  0.11116914184E+00  0.89100753468E+00  0.88000000000E+00 0.  1.
        -11    1    4    4    0    0  0.10435635872E-01 -0.26713646284E-01 -0.47195517134E-01  0.55228609909E-01  0.51100000000E-03 0.  1.
         11    1    4    4    0    0  0.35972467881E-01 -0.26713717766E-01 -0.60035494339E-01  0.74914370209E-01  0.51100000000E-03 0. -1.
</event>
<event>
 8    1  0.1099921E+005  0.1043930E+01  0.7957747E-01            NaN
         13   -1    0    0    0    0  0.00000000000E+00  0.00000000000E+00  0.74505805969E-08  0.10566000000E+00  0.10566000000E+00 0.  1.
     999900   -1    0    0    0    0 -0.00000000000E+00 -0.00000000000E+00 -0.74505805969E-08  0.93827000000E+00  0.93827000000E+00 0. -1.
     999902    2    1    2    0    0 -0.14433117832E-01 -0.17470519388E-02  0.13797124153E-01  0.10238868536E+01  0.10236906571E+01 0.  0.
     999903    2    3    3    0    0 -0.11828786972E+00  0.53786992132E-01  0.33810492080E-01  0.13581569972E+00  0.20437570078E-01 0.  0.
         14    1    1    2    0    0  0.14433117832E-01  0.17470519388E-02 -0.13797124153E-01  0.20043146353E-01  0.00000000000E+00 0. -1.
     999901    1    3    3    0    0  0.10385475189E+00 -0.55534044071E-01 -0.20013367926E-01  0.88807115393E+00  0.88000000000E+00 0.  1.
        -11    1    4    4    0    0 -0.18282369059E-01  0.13580437755E-02  0.16796835063E-02  0.18416616383E-01  0.51100000000E-03 0. -1.
         11    1    4    4    0    0 -0.10000550066E+00  0.52428948357E-01  0.32130808573E-01  0.11739908334E+00  0.51100000000E-03 0.  1.
</event>
<event>
 8    1  0.1099921E+005  0.1043930E+01  0.7957747E-01            NaN
         13   -1    0    0    0    0  0.00000000000E+00  0.00000000000E+00  0.74505805969E-08  0.10566000000E+00  0.10566000000E+00 0.  1.
     999900   -1    0    0    0    0 -0.00000000000E+00 -0.00000000000E+00 -0.74505805969E-08  0.93827000000E+00  0.93827000000E+00 0. -1.
     999902    2    1    2    0    0 -0.10350545706E-02 -0.17033766239E-01 -0.16227767316E-01  0.10203808819E+01  0.10201091036E+01 0.  0.
     999903    2    3    3    0    0 -0.51682013322E-01  0.24042453049E-01  0.11336431476E+00  0.12850281965E+00  0.20308538794E-01 0.  0.
         14    1    1    2    0    0  0.10350545706E-02  0.17033766239E-01  0.16227767316E-01  0.23549118079E-01  0.00000000000E+00 0. -1.
     999901    1    3    3    0    0  0.50646958752E-01 -0.41076219288E-01 -0.12959208207E+00  0.89187806227E+00  0.88000000000E+00 0. -1.
        -11    1    4    4    0    0 -0.12046774976E-01 -0.31108476176E-02  0.22357671481E-01  0.25591575866E-01  0.51100000000E-03 0. -1.
         11    1    4    4    0    0 -0.39635238346E-01  0.27153300667E-01  0.91006643278E-01  0.10291124379E+00  0.51100000000E-03 0.  1.
</event>
<event>
 8    1  0.1099921E+005  0.1043930E+01  0.7957747E-01            NaN
         13   -1    0    0    0    0  0.00000000000E+00  0.00000000000E+00  0.74505805969E-08  0.10566000000E+00  0.10566000000E+00 0. -1.
     999900   -1    0    0    0    0 -0.00000000000E+00 -0.00000000000E+00 -0.74505805969E-08  0.93827000000E+00  0.93827000000E+00 0.  1.
     999902    2    1    2    0    0  0.77823149784E-02  0.22272721356E-01 -0.30284957246E-02  0.10201432321E+01  0.10198658753E+01 0.  0.
     999903    2    3    3    0    0  0.10894850497E+00  0.51217926116E-01 -0.52002068907E-01  0.13252234803E+00  0.19102483265E-01 0.  0.
         14    1    1    2    0    0 -0.77823149784E-02 -0.22272721356E-01  0.30284957246E-02  0.23786767947E-01  0.00000000000E+00 0. -1.
     999901    1    3    3    0    0 -0.10116618999E+00 -0.28945204760E-01  0.48973573183E-01  0.88762088402E+00  0.88000000000E+00 0. -1.
        -11    1    4    4    0    0  0.40063915067E-01  0.12511961226E-01 -0.25824313048E-01  0.49283087663E-01  0.51100000000E-03 0. -1.
         11    1    4    4    0    0  0.68884589904E-01  0.38705964890E-01 -0.26177755859E-01  0.83239260371E-01  0.51100000000E-03 0.  1.
</event>
<event>
 7    1  0.1099921E+005  0.1043930E+01  0.7957747E-01            NaN
         13   -1    0    0    0    0  0.00000000000E+00  0.00000000000E+00  0.74505805969E-08  0.10566000000E+00  0.10566000000E+00 0. -1.
     999900   -1    0    0    0    0 -0.00000000000E+00 -0.00000000000E+00 -0.74505805969E-08  0.93827000000E+00  0.93827000000E+00 0. -1.
     999903    2    1    2    0    0 -0.10535076251E+00 -0.94607867736E-03  0.21355811280E-01  0.10904265934E+00  0.18290780612E-01 0.  0.
         14    1    1    2    0    0 -0.31375151359E-01 -0.25333406860E-01 -0.17433020237E-01  0.43932810296E-01  0.00000000000E+00 0.  1.
     999901    1    1    2    0    0  0.13672591387E+00  0.26279485538E-01 -0.39227910430E-02  0.89095453036E+00  0.88000000000E+00 0.  1.
        -11    1    3    3    0    0 -0.38115268646E-01 -0.76455423048E-02  0.28407499491E-02  0.38981521293E-01  0.51100000000E-03 0. -1.
         11    1    3    3    0    0 -0.67235493861E-01  0.66994636275E-02  0.18515061331E-01  0.70061138048E-01  0.51100000000E-03 0.  1.
</event>
<event>
 8    1  0.1099921E+005  0.1043930E+01  0.7957747E-01            NaN
         13   -1    0    0    0    0  0.00000000000E+00  0.00000000000E+00  0.74505805969E-08  0.10566000000E+00  0.10566000000E+00 0. -1.
     999900   -1    0    0    0    0 -0.00000000000E+00 -0.00000000000E+00 -0.74505805969E-08  0.93827000000E+00  0.93827000000E+00 0.  1.
     999902    2    1    2    0    0 -0.49176234775E-02 -0.31198281221E-02  0.22744197730E-01  0.10204520342E+01  0.10201819148E+01 0.  0.
     999903    2    3    3    0    0  0.18426659129E-01 -0.10584300307E+00  0.75277662091E-01  0.13261377692E+00  0.19426897653E-01 0.  0.
         14    1    1    2    0    0  0.49176234775E-02  0.31198281221E-02 -0.22744197730E-01  0.23477965810E-01  0.00000000000E+00 0.  1.
     999901    1    3    3    0    0 -0.23344282606E-01  0.10272317495E+00 -0.52533464361E-01  0.88783825727E+00  0.88000000000E+00 0.  1.
        -11    1    4    4    0    0  0.55676582263E-02 -0.40325159980E-01  0.17487063126E-01  0.44307740219E-01  0.51100000000E-03 0.  1.
         11    1    4    4    0    0  0.12859000902E-01 -0.65517843091E-01  0.57790598964E-01  0.88306036697E-01  0.51100000000E-03 0. -1.
</event>
<event>
 8    1  0.1099921E+005  0.1043930E+01  0.7957747E-01            NaN
         13   -1    0    0    0    0  0.00000000000E+00  0.00000000000E+00  0.74505805969E-08  0.10566000000E+00  0.10566000000E+00 0.  1.
     999900   -1    0    0    0    0 -0.00000000000E+00 -0.00000000000E+00 -0.74505805969E-08  0.93827000000E+00  0.93827000000E+00 0. -1.
     999902    2    1    2    0    0 -0.32795191186E-02 -0.14842852957E-01 -0.17587509130E-01  0.10206837959E+01  0.10204190439E+01 0.  0.
     999903    2    3    3    0    0  0.96264493640E-01  0.82790543589E-01 -0.17814662631E-01  0.12970605080E+00  0.19625762795E-01 0.  0.
         14    1    1    2    0    0  0.32795191186E-02  0.14842852957E-01  0.17587509130E-01  0.23246204141E-01  0.00000000000E+00 0.  1.
     999901    1    3    3    0    0 -0.99544012758E-01 -0.97633396546E-01  0.22715350189E-03  0.89097774506E+00  0.88000000000E+00 0.  1.
        -11    1    4    4    0    0  0.57702168525E-01  0.39748473336E-01 -0.34448717160E-02  0.70154184816E-01  0.51100000000E-03 0. -1.
         11    1    4    4    0    0  0.38562325115E-01  0.43042070253E-01 -0.14369790915E-01  0.59551865982E-01  0.51100000000E-03 0.  1.
</event>
<event>
 8    1  0.1099921E+005  0.1043930E+01  0.7957747E-01            NaN
         13   -1    0    0    0    0  0.00000000000E+00  0.00000000000E+00  0.74505805969E-08  0.10566000000E+00  0.10566000000E+00 0. -1.
     999900   -1    0    0    0    0 -0.00000000000E+00 -0.00000000000E+00 -0.74505805969E-08  0.93827000000E+00  0.93827000000E+00 0. -1.
     999902    2    1    2    0    0  0.32178620716E-02 -0.13039357271E-01 -0.17115876586E-01  0.10221737893E+01  0.10219422306E+01 0.  0.
     999903    2    3    3    0    0 -0.12252312326E-01  0.89346313516E-01  0.90881816766E-01  0.12954528106E+00  0.19738093401E-01 0.  0.
         14    1    1    2    0    0 -0.32178620716E-02  0.13039357271E-01  0.17115876586E-01  0.21756210738E-01  0.00000000000E+00 0.  1.
     999901    1    3    3    0    0  0.15470174398E-01 -0.10238567079E+00 -0.10799769335E+00  0.89262850820E+00  0.88000000000E+00 0. -1.
        -11    1    4    4    0    0 -0.15946641703E-01  0.76998487587E-01  0.83438431370E-01  0.11465293465E+00  0.51100000000E-03 0.  1.
         11    1    4    4    0    0  0.36943293766E-02  0.12347825928E-01  0.74433853963E-02  0.14892346419E-01  0.51100000000E-03 0. -1.
</event>
<event>
 8    1  0.1099921E+005  0.1043930E+01  0.7957747E-01            NaN
         13   -1    0    0    0    0  0.00000000000E+00  0.00000000000E+00  0.74505805969E-08  0.10566000000E+00  0.10566000000E+00 0. -1.
     999900   -1    0    0    0    0 -0.00000000000E+00 -0.00000000000E+00 -0.74505805969E-08  0.93827000000E+00  0.93827000000E+00 0. -1.
     999902    2    1    2    0    0 -0.81790922125E-02  0.22205873196E-01 -0.79127974780E-02  0.10189778314E+01  0.10186722781E+01 0.  0.
     999903    2    3    3    0    0  0.38574115639E-01  0.76617256131E-01 -0.97690491317E-01  0.13150586263E+00  0.19803875354E-01 0.  0.
         14    1    1    2    0    0  0.81790922125E-02 -0.22205873196E-01  0.79127974780E-02  0.24952168598E-01  0.00000000000E+00 0.  1.
     999901    1    3    3    0    0 -0.46753207852E-01 -0.54411382935E-01  0.89777693839E-01  0.88747196877E+00  0.88000000000E+00 0.  1.
        -11    1    4    4    0    0  0.23164503648E-01  0.24666003622E-01 -0.36987599621E-01  0.50133318369E-01  0.51100000000E-03 0.  1.
         11    1    4    4    0    0  0.15409611991E-01  0.51951252509E-01 -0.60702891696E-01  0.81372544266E-01  0.51100000000E-03 0. -1.
</event>
<event>
 8    1  0.1099921E+005  0.1043930E+01  0.7957747E-01            NaN
         13   -1    0    0    0    0  0.00000000000E+00  0.00000000000E+00  0.74505805969E-08  0.10566000000E+00  0.10566000000E+00 0.  1.
     999900   -1    0    0    0    0 -0.00000000000E+00 -0.00000000000E+00 -0.74505805969E-08  0.93827000000E+00  0.93827000000E+00 0.  1.
     999902    2    1    2    0    0  0.22056896730E-01  0.47086483564E-02  0.20706232398E-02  0.10212812574E+01  0.10210300882E+01 0.  0.
     999903    2    3    3    0    0  0.62112734977E-02  0.12911595289E+00  0.18937641443E-01  0.13222965171E+00  0.20409245961E-01 0.  0.
         14    1    1    2    0    0 -0.22056896730E-01 -0.47086483564E-02 -0.20706232398E-02  0.22648742642E-01  0.00000000000E+00 0. -1.
     999901    1    3    3    0    0  0.15845623232E-01 -0.12440730453E+00 -0.16867018203E-01  0.88905160564E+00  0.88000000000E+00 0.  1.
        -11    1    4    4    0    0 -0.64665757192E-02  0.75090642562E-01  0.10655626736E-01  0.76119804940E-01  0.51100000000E-03 0. -1.
         11    1    4    4    0    0  0.12677849217E-01  0.54025310323E-01  0.82820147066E-02  0.56109846773E-01  0.51100000000E-03 0.  1.
</event>
<event>
 8    1  0.1099921E+005  0.1043930E+01  0.7957747E-01            NaN
         13   -1    0    0    0    0  0.00000000000E+00  0.00000000000E+00  0.74505805969E-08  0.10566000000E+00  0.10566000000E+00 0.  1.
     999900   -1    0    0    0    0 -0.00000000000E+00 -0.00000000000E+00 -0.74505805969E-08  0.93827000000E+00  0.93827000000E+00 0.  1.
     999902    2    1    2    0    0 -0.21616822365E-01 -0.40484622474E-02  0.10368901288E-01  0.10196155769E+01  0.10193256268E+01 0.  0.
     999903    2    3    3    0    0 -0.48881078056E-01 -0.10193428690E+00  0.65199754144E-01  0.13207324174E+00  0.20307008817E-01 0.  0.
         14    1    1    2    0    0  0.21616822365E-01  0.40484622474E-02 -0.10368901288E-01  0.24314423079E-01  0.00000000000E+00 0. -1.
     999901    1    3    3    0    0  0.27264255691E-01  0.97885824651E-01 -0.54830852856E-01  0.88754233518E+00  0.88000000000E+00 0.  1.
        -11    1    4    4    0    0 -0.13122568839E-01 -0.24400031513E-01  0.26451346720E-01  0.38307939321E-01  0.51100000000E-03 0.  1.
         11    1    4    4    0    0 -0.35758509217E-01 -0.77534255385E-01  0.38748407424E-01  0.93765302423E-01  0.51100000000E-03 0. -1.
</event>
<event>
 8    1  0.1099921E+005  0.1043930E+01  0.7957747E-01            NaN
         13   -1    0    0    0    0  0.00000000000E+00  0.00000000000E+00  0.74505805969E-08  0.10566000000E+00  0.10566000000E+00 0. -1.
     999900   -1    0    0    0    0 -0.00000000000E+00 -0.00000000000E+00 -0.74505805969E-08  0.93827000000E+00  0.93827000000E+00 0.  1.
     999902    2    1    2    0    0  0.19276956468E-01  0.11238045301E-01 -0.71843882984E-02  0.10204883672E+01  0.10202190929E+01 0.  0.
     999903    2    3    3    0    0 -0.10821744444E+00 -0.32476028437E-01  0.56608722023E-01  0.12794408067E+00  0.19985811564E-01 0.  0.
         14    1    1    2    0    0 -0.19276956468E-01 -0.11238045301E-01  0.71843882984E-02  0.23441632795E-01  0.00000000000E+00 0. -1.
     999901    1    3    3    0    0  0.12749440091E+00  0.43714073738E-01 -0.63793110322E-01  0.89254428654E+00  0.88000000000E+00 0.  1.
        -11    1    4    4    0    0 -0.19541566290E-01 -0.12275174844E-01  0.17385585077E-01  0.28897619625E-01  0.51100000000E-03 0. -1.
         11    1    4    4    0    0 -0.88675878154E-01 -0.20200853592E-01  0.39223136947E-01  0.99046461043E-01  0.51100000000E-03 0.  1.
</event>
<event>
 8    1  0.1099921E+005  0.1043930E+01  0.7957747E-01            NaN
         13   -1    0    0    0    0  0.00000000000E+00  0.00000000000E+00  0.74505805969E-08  0.10566000000E+00  0.10566000000E+00 0.  1.
     999900   -1    0    0    0    0 -0.00000000000E+00 -0.00000000000E+00 -0.74505805969E-08  0.93827000000E+00  0.93827000000E+00 0.  1.
     999902    2    1    2    0    0 -0.27183852259E-02  0.72994711355E-02  0.21521162170E-01  0.10210426166E+01  0.10207860660E+01 0.  0.
     999903    2    3    3    0    0  0.98399202284E-01 -0.81740256696E-01  0.19264514641E-01  0.13078538857E+00  0.19230802451E-01 0.  0.
         14    1    1    2    0    0  0.27183852259E-02 -0.72994711355E-02 -0.21521162170E-01  0.22887383386E-01  0.00000000000E+00 0. -1.
     999901    1    3    3    0    0 -0.10111758751E+00  0.89039727831E-01  0.22566475288E-02  0.89025722805E+00  0.88000000000E+00 0. -1.
        -11    1    4    4    0    0  0.73015435654E-01 -0.67312541139E-01  0.21096008377E-01  0.10152602981E+00  0.51100000000E-03 0. -1.
         11    1    4    4    0    0  0.25383766630E-01 -0.14427715557E-01 -0.18314937357E-02  0.29259358756E-01  0.51100000000E-03 0.  1.
</event>
<event>
 7    1  0.1099921E+005  0.1043930E+01  0.7957747E-01            NaN
         13   -1    0    0    0    0  0.00000000000E+00  0.00000000000E+00  0.74505805969E-08  0.10566000000E+00  0.10566000000E+00 0.  1.
     999900   -1    0    0    0    0 -0.00000000000E+00 -0.00000000000E+00 -0.74505805969E-08  0.93827000000E+00  0.93827000000E+00 0. -1.
     999902    2    1    2    0    0 -0.16067672987E-01  0.60392481207E-02  0.12884443056E-01  0.10224672065E+01  0.10222419170E+01 0.  0.
         14    1    1    2    0    0  0.16067672987E-01 -0.60392481207E-02 -0.12884443056E-01  0.21462793526E-01  0.00000000000E+00 0.  1.
     999901    1    3    3    0    0 -0.73482209041E-01  0.30106734757E-01 -0.97634726880E-01  0.88895364919E+00  0.88000000000E+00 0. -1.
        -11    1    3    3    0    0  0.14868777733E-01 -0.24556106461E-01  0.25327399010E-01  0.38286044159E-01  0.51100000000E-03 0. -1.
         11    1    3    3    0    0  0.42545758321E-01  0.48861982424E-03  0.85191770926E-01  0.95227513120E-01  0.51100000000E-03 0.  1.
</event>
<event>
 8    1  0.1099921E+005  0.1043930E+01  0.7957747E-01            NaN
         13   -1    0    0    0    0  0.00000000000E+00  0.00000000000E+00  0.74505805969E-08  0.10566000000E+00  0.10566000000E+00 0. -1.
     999900   -1    0    0    0    0 -0.00000000000E+00 -0.00000000000E+00 -0.74505805969E-08  0.93827000000E+00  0.93827000000E+00 0. -1.
     999902    2    1    2    0    0 -0.21090234869E-01  0.98280720475E-02  0.65940693235E-02  0.10197458987E+01  0.10194590855E+01 0.  0.
     999903    2    3    3    0    0 -0.82768188464E-01  0.63008803589E-01  0.79995928019E-01  0.13294254221E+00  0.21299968969E-01 0.  0.
         14    1    1    2    0    0  0.21090234869E-01 -0.98280720475E-02 -0.65940693235E-02  0.24184101332E-01  0.00000000000E+00 0.  1.
     999901    1    3    3    0    0  0.61677953596E-01 -0.53180731542E-01 -0.73401858695E-01  0.88680335646E+00  0.88000000000E+00 0. -1.
        -11    1    4    4    0    0 -0.29345408320E-01  0.11850758635E-01  0.17889291484E-01  0.36357686127E-01  0.51100000000E-03 0.  1.
         11    1    4    4    0    0 -0.53422780145E-01  0.51158044954E-01  0.62106636534E-01  0.96584856083E-01  0.51100000000E-03 0. -1.
</event>
<event>
 8    1  0.1099921E+005  0.1043930E+01  0.7957747E-01            NaN
         13   -1    0    0    0    0  0.00000000000E+00  0.00000000000E+00  0.74505805969E-08  0.10566000000E+00  0.10566000000E+00 0. -1.
     999900   -1    0    0    0    0 -0.00000000000E+00 -0.00000000000E+00 -0.74505805969E-08  0.93827000000E+00  0.93827000000E+00 0.  1.
     999902    2    1    2    0    0  0.20589277643E-01 -0.11888673333E-01 -0.17689004291E-03  0.10201541678E+01  0.10198770690E+01 0.  0.
     999903    2    3    3    0    0 -0.10862236238E-01  0.11678592656E+00  0.49681438452E-01  0.12884490423E+00  0.19386159987E-01 0.  0.
         14    1    1    2    0    0 -0.20589277643E-01  0.11888673333E-01  0.17689004291E-03  0.23775832217E-01  0.00000000000E+00 0. -1.
     999901    1    3    3    0    0  0.31451513881E-01 -0.12867459990E+00 -0.49858328495E-01  0.89130926356E+00  0.88000000000E+00 0. -1.
        -11    1    4    4    0    0 -0.15120143289E-01  0.70311911498E-01  0.25718972213E-01  0.76381347751E-01  0.51100000000E-03 0.  1.
         11    1    4    4    0    0  0.42579070517E-02  0.46474015064E-01  0.23962466239E-01  0.52463556474E-01  0.51100000000E-03 0. -1.
</event>
<event>
 8    1  0.1099921E+005  0.1043930E+01  0.7957747E-01            NaN
         13   -1    0    0    0    0  0.00000000000E+00  0.00000000000E+00  0.74505805969E-08  0.10566000000E+00  0.10566000000E+00 0. -1.
     999900   -1    0    0    0    0 -0.00000000000E+00 -0.00000000000E+00 -0.74505805969E-08  0.93827000000E+00  0.93827000000E+00 0.  1.
     999902    2    1    2    0    0 -0.18171153828E-01 -0.98279355022E-02  0.11350834039E-01  0.10203583946E+01  0.10200860909E+01 0.  0.
     999903    2    3    3    0    0  0.90267801424E-01  0.62791272163E-01  0.63302839387E-01  0.12921779559E+00  0.24473851155E-01 0.  0.
         14    1    1    2    0    0  0.18171153828E-01  0.98279355022E-02 -0.11350834039E-01  0.23571605399E-01  0.00000000000E+00 0.  1.
     999901    1    3    3    0    0 -0.10843895525E+00 -0.72619207665E-01 -0.51952005347E-01  0.89114059901E+00  0.88000000000E+00 0.  1.
        -11    1    4    4    0    0  0.59016275701E-01  0.53450493559E-01  0.39846960170E-01  0.89038853402E-01  0.51100000000E-03 0. -1.
         11    1    4    4    0    0  0.31251525723E-01  0.93407786030E-02  0.23455879217E-01  0.40178942193E-01  0.51100000000E-03 0.  1.
</event>
<event>
 8    1  0.1099921E+005  0.1043930E+01  0.7957747E-01            NaN
         13   -1    0    0    0    0  0.00000000000E+00  0.00000000000E+00  0.74505805969E-08  0.10566000000E+00  0.10566000000E+00 0. -1.
     999900   -1    0    0    0    0 -0.00000000000E+00 -0.00000000000E+00 -0.74505805969E-08  0.93827000000E+00  0.93827000000E+00 0.  1.
     999902    2    1    2    0    0 -0.14630178526E-02  0.22567829973E-01 -0.72339507166E-02  0.10201860026E+01  0.10199096541E+01 0.  0.
     999903    2    3    3    0    0  0.32274275097E-01  0.75705388336E-01  0.10050915626E+00  0.13138322234E+00  0.19660263609E-01 0.  0.
         14    1    1    2    0    0  0.14630178526E-02 -0.22567829973E-01  0.72339507166E-02  0.23743997429E-01  0.00000000000E+00 0.  1.
     999901    1    3    3    0    0 -0.33737292950E-01 -0.53137558363E-01 -0.10774310697E+00  0.88880278023E+00  0.88000000000E+00 0. -1.
        -11    1    4    4    0    0  0.31182658364E-01  0.53370288350E-01  0.79426760861E-01  0.10064600003E+00  0.51100000000E-03 0.  1.
         11    1    4    4    0    0  0.10916167335E-02  0.22335099986E-01  0.21082395396E-01  0.30737222306E-01  0.51100000000E-03 0. -1.
</event>
<event>
 8    1  0.1099921E+005  0.1043930E+01  0.7957747E-01            NaN
         13   -1    0    0    0    0  0.00000000000E+00  0.00000000000E+00  0.74505805969E-08  0.10566000000E+00  0.10566000000E+00 0. -1.
     999900   -1    0    0    0    0 -0.00000000000E+00 -0.00000000000E+00 -0.74505805969E-08  0.93827000000E+00  0.93827000000E+00 0.  1.
     999902    2    1    2    0    0 -0.99445346400E-02 -0.13863549330E-01  0.16470225226E-01  0.10202158673E+01  0.10199402217E+01 0.  0.
     999903    2    3    3    0    0 -0.29278258028E-01  0.11677058613E+00 -0.39909902148E-01  0.12857816682E+00  0.21141393445E-01 0.  0.
         14    1    1    2    0    0  0.99445346400E-02  0.13863549330E-01 -0.16470225226E-01  0.23714132669E-01  0.00000000000E+00 0. -1.
     999901    1    3    3    0    0  0.19333723388E-01 -0.13063413545E+00  0.56380127375E-01  0.89163770051E+00  0.88000000000E+00 0. -1.
        -11    1    4    4    0    0 -0.13300019938E-01  0.79515983996E-01 -0.34443517866E-01  0.87671542049E-01  0.51100000000E-03 0. -1.
         11    1    4    4    0    0 -0.15978238091E-01  0.37254602129E-01 -0.54663842824E-02  0.40906624774E-01  0.51100000000E-03 0.  1.
</event>
<event>
 8    1  0.1099921E+005  0.1043930E+01  0.7957747E-01            NaN
         13   -1    0    0    0    0  0.00000000000E+00  0.00000000000E+00  0.74505805969E-08  0.10566000000E+00  0.10566000000E+00 0.  1.
     999900   -1    0    0    0    0 -0.00000000000E+00 -0.00000000000E+00 -0.74505805969E-08  0.93827000000E+00  0.93827000000E+00 0.  1.
     999902    2    1    2    0    0 -0.19707586813E-02 -0.20573961158E-01  0.11063535801E-01  0.10204870140E+01  0.10202177082E+01 0.  0.
     999903    2    3    3    0    0 -0.63790769145E-01 -0.32860042722E-01  0.10994084825E+00  0.13270923528E+00  0.19383146808E-01 0.  0.
         14    1    1    2    0    0  0.19707586813E-02  0.20573961158E-01 -0.11063535801E-01  0.23442985986E-01  0.00000000000E+00 0. -1.
     999901    1    3    3    0    0  0.61820010464E-01  0.12286081564E-01 -0.98877312446E-01  0.88777777873E+00  0.88000000000E+00 0.  1.
        -11    1    4    4    0    0 -0.32064295635E-01 -0.72159966422E-02  0.57937787359E-01  0.66612596310E-01  0.51100000000E-03 0.  1.
         11    1    4    4    0    0 -0.31726473510E-01 -0.25644046080E-01  0.52003060887E-01  0.66096638972E-01  0.51100000000E-03 0. -1.
</event>
<event>
 8    1  0.1099921E+005  0.1043930E+01  0.7957747E-01            NaN
         13   -1    0    0    0    0  0.00000000000E+00  0.00000000000E+00  0.74505805969E-08  0.10566000000E+00  0.10566000000E+00 0. -1.
     999900   -1    0    0    0    0 -0.00000000000E+00 -0.00000000000E+00 -0.74505805969E-08  0.93827000000E+00  0.93827000000E+00 0.  1.
     999902    2    1    2    0    0 -0.69822917066E-02 -0.25853581139E-01 -0.12735476357E-01  0.10142761231E+01  0.10138425428E+01 0.  0.
     999903    2    3    3    0    0 -0.18392028483E-01 -0.12053212511E+00  0.33057634918E-01  0.12794028508E+00  0.20239798045E-01 0.  0.
         14    1    1    2    0    0  0.69822917066E-02  0.25853581139E-01  0.12735476357E-01  0.29653876867E-01  0.00000000000E+00 0.  1.
     999901    1    3    3    0    0  0.11409736777E-01  0.94678543968E-01 -0.45793111275E-01  0.88633583806E+00  0.88000000000E+00 0. -1.
        -11    1    4    4    0    0 -0.21142983240E-01 -0.73612935889E-01  0.20098480949E-01  0.79183963831E-01  0.51100000000E-03 0.  1.
         11    1    4    4    0    0  0.27509547573E-02 -0.46919189218E-01  0.12959153969E-01  0.48756321247E-01  0.51100000000E-03 0. -1.
</event>
<event>
 8    1  0.1099921E+005  0.1043930E+01  0.7957747E-01            NaN
         13   -1    0    0    0    0  0.00000000000E+00  0.00000000000E+00  0.74505805969E-08  0.10566000000E+00  0.10566000000E+00 0. -1.
     999900   -1    0    0    0    0 -0.00000000000E+00 -0.00000000000E+00 -0.74505805969E-08  0.93827000000E+00  0.93827000000E+00 0. -1.
     999902    2    1    2    0    0 -0.51127641811E-02 -0.12351448556E-01  0.19485904552E-01  0.10202995299E+01  0.10200258485E+01 0.  0.
     999903    2    3    3    0    0  0.96180724460E-01  0.43690634401E-01 -0.69928694594E-01  0.12822551034E+00  0.19802926117E-01 0.  0.
         14    1    1    2    0    0  0.51127641811E-02  0.12351448556E-01 -0.19485904552E-01  0.23630470059E-01  0.00000000000E+00 0.  1.
     999901    1    3    3    0    0 -0.10129348864E+00 -0.56042082958E-01  0.89414599146E-01  0.89207401960E+00  0.88000000000E+00 0.  1.
        -11    1    4    4    0    0  0.34434271099E-01  0.57863545051E-02 -0.20123172880E-01  0.40303897235E-01  0.51100000000E-03 0. -1.
         11    1    4    4    0    0  0.61746453361E-01  0.37904279896E-01 -0.49805521714E-01  0.87921613107E-01  0.51100000000E-03 0.  1.
</event>
<event>
 8    1  0.1099921E+005  0.1043930E+01  0.7957747E-01            NaN
         13   -1    0    0    0    0  0.00000000000E+00  0.00000000000E+00  0.74505805969E-08  0.10566000000E+00  0.10566000000E+00 0.  1.
     999900   -1    0    0    0    0 -0.00000000000E+00 -0.00000000000E+00 -0.74505805969E-08  0.93827000000E+00  0.93827000000E+00 0. -1.
     999902    2    1    2    0    0 -0.29576514218E-02 -0.48801116561E-03 -0.23298475954E-01  0.10204394734E+01  0.10201690615E+01 0.  0.
     999903    2    3    3    0    0 -0.27633323320E-01 -0.11462191215E+00 -0.56282526876E-01  0.13211330374E+00  0.19606603221E-01 0.  0.
         14    1    1    2    0    0  0.29576514218E-02  0.48801116561E-03  0.23298475954E-01  0.23490526572E-01  0.00000000000E+00 0.  1.
     999901    1    3    3    0    0  0.24675671898E-01  0.11413390099E+00  0.32984050921E-01  0.88832616969E+00  0.88000000000E+00 0. -1.
        -11    1    4    4    0    0 -0.93308367417E-02 -0.19975548600E-01 -0.17700165620E-01  0.28277978007E-01  0.51100000000E-03 0. -1.
         11    1    4    4    0    0 -0.18302486578E-01 -0.94646363554E-01 -0.38582361255E-01  0.10383532573E+00  0.51100000000E-03 0.  1.
</event>
<event>
 8    1  0.1099921E+005  0.1043930E+01  0.7957747E-01            NaN
         13   -1    0    0    0    0  0.00000000000E+00  0.00000000000E+00  0.74505805969E-08  0.10566000000E+00  0.10566000000E+00 0. -1.
     999900   -1    0    0    0    0 -0.00000000000E+00 -0.00000000000E+00 -0.74505805969E-08  0.93827000000E+00  0.93827000000E+00 0.  1.
     999902    2    1    2    0    0  0.13617859009E-01  0.18610378092E-01 -0.29225430749E-02  0.10206849249E+01  0.10204201990E+01 0.  0.
     999903    2    3    3    0    0 -0.99430550061E-01  0.31971290233E-01 -0.75295744586E-01  0.13040612756E+00  0.20681181467E-01 0.  0.
         14    1    1    2    0    0 -0.13617859009E-01 -0.18610378092E-01  0.29225430749E-02  0.23245075064E-01  0.00000000000E+00 0. -1.
     999901    1    3    3    0    0  0.11304840907E+00 -0.13360912142E-01  0.72373201511E-01  0.89027879738E+00  0.88000000000E+00 0. -1.
        -11    1    4    4    0    0 -0.46921438544E-01  0.25432331510E-01 -0.33999514038E-01  0.63282327367E-01  0.51100000000E-03 0.  1.
         11    1    4    4    0    0 -0.52509111517E-01  0.65389587235E-02 -0.41296230548E-01  0.67123800190E-01  0.51100000000E-03 0. -1.
</event>
<event>
 8    1  0.1270099E+005  0.1043930E+01  0.7957747E-01            NaN
         13   -1    0    0    0    0  0.00000000000E+00  0.00000000000E+00  0.74505805969E-08  0.10566000000E+00  0.10566000000E+00 0.  1.
     999900   -1    0    0    0    0 -0.00000000000E+00 -0.00000000000E+00 -0.74505805969E-08  0.93827000000E+00  0.93827000000E+00 0. -1.
     999902    2    1    2    0    0 -0.22443187098E-01 -0.42104944876E-02  0.84217844735E-02  0.10195917305E+01  0.10193012045E+01 0.  0.
     999903    2    3    3    0    0 -0.44280414086E-01 -0.11333649015E+00  0.46317316779E-01  0.13177338260E+00  0.20322781741E-01 0.  0.
         14    1    1    2    0    0  0.22443187098E-01  0.42104944876E-02 -0.84217844735E-02  0.24338269550E-01  0.00000000000E+00 0. -1.
     999901    1    3    3    0    0  0.21837226987E-01  0.10912599566E+00 -0.37895532305E-01  0.88781834785E+00  0.88000000000E+00 0.  1.
        -11    1    4    4    0    0 -0.25970619418E-01 -0.67973999992E-01  0.38193724217E-01  0.82182476468E-01  0.51100000000E-03 0.  1.
         11    1    4    4    0    0 -0.18309794667E-01 -0.45362490155E-01  0.81235925621E-02  0.49590906132E-01  0.51100000000E-03 0. -1.
</event>
<event>
 7    1  0.1099921E+005  0.1043930E+01  0.7957747E-01            NaN
         13   -1    0    0    0    0  0.00000000000E+00  0.00000000000E+00  0.74505805969E-08  0.10566000000E+00  0.10566000000E+00 0.  1.
     999900   -1    0    0    0    0 -0.00000000000E+00 -0.00000000000E+00 -0.74505805969E-08  0.93827000000E+00  0.93827000000E+00 0.  1.
     999902    2    1    2    0    0 -0.21101761489E-01 -0.10069560739E-01 -0.45164423756E-02  0.10201165869E+01  0.10198386011E+01 0.  0.
         14    1    1    2    0    0  0.21101761489E-01  0.10069560739E-01  0.45164423756E-02  0.23813413093E-01  0.00000000000E+00 0.  1.
     999901    1    3    3    0    0  0.46092582017E-01 -0.10637300890E+00 -0.50318267506E-01  0.88902849852E+00  0.88000000000E+00 0.  1.
        -11    1    3    3    0    0 -0.40342784760E-01  0.46159109989E-01  0.41521423266E-01  0.74043861516E-01  0.51100000000E-03 0. -1.
         11    1    3    3    0    0 -0.26851558746E-01  0.50144338174E-01  0.42804018642E-02  0.57044226869E-01  0.51100000000E-03 0.  1.
</event>
<event>
 8    1  0.1099921E+005  0.1043930E+01  0.7957747E-01            NaN
         13   -1    0    0    0    0  0.00000000000E+00  0.00000000000E+00  0.74505805969E-08  0.10566000000E+00  0.10566000000E+00 0.  1.
     999900   -1    0    0    0    0 -0.00000000000E+00 -0.00000000000E+00 -0.74505805969E-08  0.93827000000E+00  0.93827000000E+00 0. -1.
     999902    2    1    2    0    0  0.39458549780E-02  0.20759605106E-01  0.10223322285E-01  0.10204556034E+01  0.10201855671E+01 0.  0.
     999903    2    3    3    0    0  0.10468306951E+00 -0.73685702431E-01  0.21903960972E-02  0.12965123074E+00  0.20408723948E-01 0.  0.
         14    1    1    2    0    0 -0.39458549780E-02 -0.20759605106E-01 -0.10223322285E-01  0.23474396568E-01  0.00000000000E+00 0. -1.
     999901    1    3    3    0    0 -0.10073721453E+00  0.94445307537E-01  0.80329261876E-02  0.89080437269E+00  0.88000000000E+00 0.  1.
        -11    1    4    4    0    0  0.63350227545E-01 -0.54470993240E-01 -0.40189602683E-02  0.83646599436E-01  0.51100000000E-03 0. -1.
         11    1    4    4    0    0  0.41332841961E-01 -0.19214709191E-01  0.62093563655E-02  0.46004631303E-01  0.51100000000E-03 0.  1.
</event>
<event>
 8    1  0.1099921E+005  0.1043930E+01  0.7957747E-01            NaN
         13   -1    0    0    0    0  0.00000000000E+00  0.00000000000E+00  0.74505805969E-08  0.10566000000E+00  0.10566000000E+00 0. -1.
     999900   -1    0    0    0    0 -0.00000000000E+00 -0.00000000000E+00 -0.74505805969E-08  0.93827000000E+00  0.93827000000E+00 0. -1.
     999902    2    1    2    0    0  0.21001322063E-01  0.83944511162E-02  0.62543796850E-02  0.10204642888E+01  0.10201944545E+01 0.  0.
     999903    2    3    3    0    0  0.65087894722E-01 -0.96810654331E-01 -0.55909814850E-01  0.13092725909E+00  0.20181747823E-01 0.  0.
         14    1    1    2    0    0 -0.21001322063E-01 -0.83944511162E-02 -0.62543796850E-02  0.23465711222E-01  0.00000000000E+00 0. -1.
     999901    1    3    3    0    0 -0.44086572659E-01  0.10520510545E+00  0.62164194535E-01  0.88953702969E+00  0.88000000000E+00 0.  1.
        -11    1    4    4    0    0  0.27244406575E-01 -0.58311669895E-01 -0.32063562843E-01  0.71908564989E-01  0.51100000000E-03 0.  1.
         11    1    4    4    0    0  0.37843488147E-01 -0.38498984436E-01 -0.23846252007E-01  0.59018694102E-01  0.51100000000E-03 0. -1.
</event>
<event>
 8    1  0.1099921E+005  0.1043930E+01  0.7957747E-01            NaN
         13   -1    0    0    0    0  0.00000000000E+00  0.00000000000E+00  0.74505805969E-08  0.10566000000E+00  0.10566000000E+00 0. -1.
     999900   -1    0    0    0    0 -0.00000000000E+00 -0.00000000000E+00 -0.74505805969E-08  0.93827000000E+00  0.93827000000E+00 0.  1.
     999902    2    1    2    0    0  0.17423360549E-01 -0.83294389635E-02 -0.13632803937E-01  0.10202909139E+01  0.10200170306E+01 0.  0.
     999903    2    3    3    0    0 -0.93219640883E-01  0.84182589207E-01  0.15155460479E-01  0.12808627750E+00  0.19994917617E-01 0.  0.
         14    1    1    2    0    0 -0.17423360549E-01  0.83294389635E-02  0.13632803937E-01  0.23639086053E-01  0.00000000000E+00 0.  1.
     999901    1    3    3    0    0  0.11064300143E+00 -0.92512028170E-01 -0.28788264416E-01  0.89220463644E+00  0.88000000000E+00 0.  1.
        -11    1    4    4    0    0 -0.71808351508E-01  0.63093306903E-01  0.19947002848E-01  0.97649110420E-01  0.51100000000E-03 0. -1.
         11    1    4    4    0    0 -0.21411289375E-01  0.21089282304E-01 -0.47915423690E-02  0.30437167083E-01  0.51100000000E-03 0.  1.
</event>
<event>
 8    1  0.1099921E+005  0.1043930E+01  0.7957747E-01            NaN
         13   -1    0    0    0    0  0.00000000000E+00  0.00000000000E+00  0.74505805969E-08  0.10566000000E+00  0.10566000000E+00 0.  1.
     999900   -1    0    0    0    0 -0.00000000000E+00 -0.00000000000E+00 -0.74505805969E-08  0.93827000000E+00  0.93827000000E+00 0.  1.
     999902    2    1    2    0    0  0.19041013615E-01 -0.83251858005E-02  0.22646855721E-02  0.10230255096E+01  0.10228119063E+01 0.  0.
     999903    2    3    3    0    0 -0.10232058964E+00 -0.70331510394E-01  0.39230387707E-01  0.13176803492E+00  0.20193248641E-01 0.  0.
         14    1    1    2    0    0 -0.19041013615E-01  0.83251858005E-02 -0.22646855721E-02  0.20904490398E-01  0.00000000000E+00 0.  1.
     999901    1    3    3    0    0  0.12136160325E+00  0.62006324594E-01 -0.36965702135E-01  0.89125747468E+00  0.88000000000E+00 0.  1.
        -11    1    4    4    0    0 -0.65754142772E-01 -0.50189528980E-01  0.34940837463E-01  0.89798214651E-01  0.51100000000E-03 0.  1.
         11    1    4    4    0    0 -0.36566446864E-01 -0.20141981414E-01  0.42895502435E-02  0.41969820274E-01  0.51100000000E-03 0. -1.
</event>
<event>
 8    1  0.1099921E+005  0.1043930E+01  0.7957747E-01            NaN
         13   -1    0    0    0    0  0.00000000000E+00  0.00000000000E+00  0.74505805969E-08  0.10566000000E+00  0.10566000000E+00 0.  1.
     999900   -1    0    0    0    0 -0.00000000000E+00 -0.00000000000E+00 -0.74505805969E-08  0.93827000000E+00  0.93827000000E+00 0.  1.
     999902    2    1    2    0    0  0.21173746803E-01 -0.32258122403E-03  0.96086399798E-02  0.10206758052E+01  0.10204108691E+01 0.  0.
     999903    2    3    3    0    0  0.10785195229E+00  0.48753662679E-01 -0.56529751894E-01  0.13259029363E+00  0.19380657326E-01 0.  0.
         14    1    1    2    0    0 -0.21173746803E-01  0.32258122403E-03 -0.96086399798E-02  0.23254194774E-01  0.00000000000E+00 0. -1.
     999901    1    3    3    0    0 -0.86678205490E-01 -0.49076243903E-01  0.66138391873E-01  0.88808551159E+00  0.88000000000E+00 0.  1.
        -11    1    4    4    0    0  0.12698976719E-01  0.32647746302E-02 -0.42763796065E-03  0.13128852132E-01  0.51100000000E-03 0.  1.
         11    1    4    4    0    0  0.95152975574E-01  0.45488888049E-01 -0.56102113933E-01  0.11946144150E+00  0.51100000000E-03 0. -1.
</event>
<event>
 8    1  0.1099921E+005  0.1043930E+01  0.7957747E-01            NaN
         13   -1    0    0    0    0  0.00000000000E+00  0.00000000000E+00  0.74505805969E-08  0.10566000000E+00  0.10566000000E+00 0.  1.
     999900   -1    0    0    0    0 -0.00000000000E+00 -0.00000000000E+00 -0.74505805969E-08  0.93827000000E+00  0.93827000000E+00 0.  1.
     999902    2    1    2    0    0 -0.22885512552E-01 -0.86678059293E-02 -0.23708776934E-02  0.10193434467E+01  0.10190468898E+01 0.  0.
     999903    2    3    3    0    0  0.84102999591E-01  0.85242066215E-01 -0.38197020178E-01  0.12718364129E+00  0.19420140817E-01 0.  0.
         14    1    1    2    0    0  0.22885512552E-01  0.86678059293E-02  0.23708776934E-02  0.24586553346E-01  0.00000000000E+00 0.  1.
     999901    1    3    3    0    0 -0.10698851214E+00 -0.93909872145E-01  0.35826142484E-01  0.89215980536E+00  0.88000000000E+00 0.  1.
        -11    1    4    4    0    0  0.56473319975E-01  0.69149353729E-01 -0.26468552768E-01  0.93122040338E-01  0.51100000000E-03 0. -1.
         11    1    4    4    0    0  0.27629679616E-01  0.16092712486E-01 -0.11728467409E-01  0.34061600955E-01  0.51100000000E-03 0.  1.
</event>
<event>
 8    1  0.1099921E+005  0.1043930E+01  0.7957747E-01            NaN
         13   -1    0    0    0    0  0.00000000000E+00  0.00000000000E+00  0.74505805969E-08  0.10566000000E+00  0.10566000000E+00 0.  1.
     999900   -1    0    0    0    0 -0.00000000000E+00 -0.00000000000E+00 -0.74505805969E-08  0.93827000000E+00  0.93827000000E+00 0.  1.
     999902    2    1    2    0    0  0.20871169981E-01 -0.83472734991E-02 -0.89589502153E-02  0.10197319526E+01  0.10194448046E+01 0.  0.
     999903    2    3    3    0    0  0.10947171449E+00 -0.15007860396E-01  0.68463205494E-01  0.13187576482E+00  0.22242182711E-01 0.  0.
         14    1    1    2    0    0 -0.20871169981E-01  0.83472734991E-02  0.89589502153E-02  0.24198047446E-01  0.00000000000E+00 0.  1.
     999901    1    3    3    0    0 -0.88600544514E-01  0.66605868972E-02 -0.77422155709E-01  0.88785618774E+00  0.88000000000E+00 0. -1.
        -11    1    4    4    0    0  0.43700623189E-01 -0.14609755569E-01  0.36286273511E-01  0.58652742401E-01  0.51100000000E-03 0.  1.
         11    1    4    4    0    0  0.65771091306E-01 -0.39810482765E-03  0.32176931983E-01  0.73223022417E-01  0.51100000000E-03 0. -1.
</event>
<event>
 8    1  0.1099921E+005  0.1043930E+01  0.7957747E-01            NaN
         13   -1    0    0    0    0  0.00000000000E+00  0.00000000000E+00  0.74505805969E-08  0.10566000000E+00  0.10566000000E+00 0.  1.
     999900   -1    0    0    0    0 -0.00000000000E+00 -0.00000000000E+00 -0.74505805969E-08  0.93827000000E+00  0.93827000000E+00 0. -1.
     999902    2    1    2    0    0 -0.56868356757E-02 -0.14571439294E-01 -0.18180152124E-01  0.10199469878E+01  0.10196649808E+01 0.  0.
     999903    2    3    3    0    0  0.19348908002E-01 -0.57988507010E-01 -0.11649898003E+00  0.13305442263E+00  0.19860006236E-01 0.  0.
         14    1    1    2    0    0  0.56868356757E-02  0.14571439294E-01  0.18180152124E-01  0.23983012203E-01  0.00000000000E+00 0.  1.
     999901    1    3    3    0    0 -0.25035743678E-01  0.43417067715E-01  0.98318827903E-01  0.88689256517E+00  0.88000000000E+00 0.  1.
        -11    1    4    4    0    0  0.57285545691E-02 -0.93088080064E-02 -0.86590104979E-02  0.13953846343E-01  0.51100000000E-03 0.  1.
         11    1    4    4    0    0  0.13620353433E-01 -0.48679699003E-01 -0.10783996953E+00  0.11910057629E+00  0.51100000000E-03 0. -1.
</event>
<event>
 8    1  0.1099921E+005  0.1043930E+01  0.7957747E-01            NaN
         13   -1    0    0    0    0  0.00000000000E+00  0.00000000000E+00  0.74505805969E-08  0.10566000000E+00  0.10566000000E+00 0.  1.
     999900   -1    0    0    0    0 -0.00000000000E+00 -0.00000000000E+00 -0.74505805969E-08  0.93827000000E+00  0.93827000000E+00 0.  1.
     999902    2    1    2    0    0 -0.19859249726E-01  0.83914335081E-02  0.10010364938E-01  0.10201599903E+01  0.10198830288E+01 0.  0.
     999903    2    3    3    0    0 -0.51744918109E-01  0.22518348837E-01 -0.11587231076E+00  0.13051808837E+00  0.20590444557E-01 0.  0.
         14    1    1    2    0    0  0.19859249726E-01 -0.83914335081E-02 -0.10010364938E-01  0.23770009722E-01  0.00000000000E+00 0. -1.
     999901    1    3    3    0    0  0.31885668383E-01 -0.14126915329E-01  0.12588267570E+00  0.88964190191E+00  0.88000000000E+00 0. -1.
        -11    1    4    4    0    0 -0.36059473022E-01  0.58054674855E-02 -0.61826278627E-01  0.71810437244E-01  0.51100000000E-03 0. -1.
         11    1    4    4    0    0 -0.15685445087E-01  0.16712881351E-01 -0.54046032134E-01  0.58707651129E-01  0.51100000000E-03 0.  1.
</event>
<event>
 8    1  0.1099921E+005  0.1043930E+01  0.7957747E-01            NaN
         13   -1    0    0    0    0  0.00000000000E+00  0.00000000000E+00  0.74505805969E-08  0.10566000000E+00  0.10566000000E+00 0. -1.
     999900   -1    0    0    0    0 -0.00000000000E+00 -0.00000000000E+00 -0.74505805969E-08  0.93827000000E+00  0.93827000000E+00 0.  1.
     999902    2    1    2    0    0 -0.11570931194E-02  0.17142150968E-01 -0.16059090848E-01  0.10204122067E+01  0.10201411593E+01 0.  0.
     999903    2    3    3    0    0 -0.52754211195E-01  0.66302752307E-01  0.97438176333E-01  0.13026578221E+00  0.17202152360E-01 0.  0.
         14    1    1    2    0    0  0.11570931194E-02 -0.17142150968E-01  0.16059090848E-01  0.23517793331E-01  0.00000000000E+00 0. -1.
     999901    1    3    3    0    0  0.51597118075E-01 -0.49160601340E-01 -0.11349726718E+00  0.89014642446E+00  0.88000000000E+00 0.  1.
        -11    1    4    4    0    0 -0.23477340091E-01  0.18825380371E-01  0.41534883043E-01  0.51293158162E-01  0.51100000000E-03 0.  1.
         11    1    4    4    0    0 -0.29276871104E-01  0.47477371936E-01  0.55903293289E-01  0.78972624049E-01  0.51100000000E-03 0. -1.
</event>
<event>
 8    1  0.1099921E+005  0.1043930E+01  0.7957747E-01            NaN
         13   -1    0    0    0    0  0.00000000000E+00  0.00000000000E+00  0.74505805969E-08  0.10566000000E+00  0.10566000000E+00 0.  1.
     999900   -1    0    0    0    0 -0.00000000000E+00 -0.00000000000E+00 -0.74505805969E-08  0.93827000000E+00  0.93827000000E+00 0. -1.
     999902    2    1    2    0    0  0.10139895714E-02  0.38447343145E-02 -0.24978999239E-01  0.10186365115E+01  0.10183224352E+01 0.  0.
     999903    2    3    3    0    0 -0.10546780027E+00 -0.11787729375E-01 -0.73957513949E-01  0.13072793492E+00  0.18912208776E-01 0.  0.
         14    1    1    2    0    0 -0.10139895714E-02 -0.38447343145E-02  0.24978999239E-01  0.25293488486E-01  0.00000000000E+00 0.  1.
     999901    1    3    3    0    0  0.10648178984E+00  0.15632463689E-01  0.48978514710E-01  0.88790857660E+00  0.88000000000E+00 0.  1.
        -11    1    4    4    0    0 -0.89072589102E-01 -0.15100697536E-01 -0.56563653692E-01  0.10659111237E+00  0.51100000000E-03 0.  1.
         11    1    4    4    0    0 -0.16395211169E-01  0.33129681606E-02 -0.17393860257E-01  0.24136822553E-01  0.51100000000E-03 0. -1.
</event>
<event>
 8    1  0.1099921E+005  0.1043930E+01  0.7957747E-01            NaN
         13   -1    0    0    0    0  0.00000000000E+00  0.00000000000E+00  0.74505805969E-08  0.10566000000E+00  0.10566000000E+00 0.  1.
     999900   -1    0    0    0    0 -0.00000000000E+00 -0.00000000000E+00 -0.74505805969E-08  0.93827000000E+00  0.93827000000E+00 0.  1.
     999902    2    1    2    0    0 -0.63998087692E-02  0.21930158813E-01  0.80450901203E-02  0.10197099072E+01  0.10194222295E+01 0.  0.
     999903    2    3    3    0    0  0.14935830448E-01  0.89244369182E-01  0.94704626351E-01  0.13263815838E+00  0.20887277097E-01 0.  0.
         14    1    1    2    0    0  0.63998087692E-02 -0.21930158813E-01 -0.80450901203E-02  0.24220092752E-01  0.00000000000E+00 0. -1.
     999901    1    3    3    0    0 -0.21335639217E-01 -0.67314210369E-01 -0.86659536231E-01  0.88707174887E+00  0.88000000000E+00 0.  1.
        -11    1    4    4    0    0  0.18394178830E-01  0.78046698226E-01  0.75516116009E-01  0.11014798145E+00  0.51100000000E-03 0.  1.
         11    1    4    4    0    0 -0.34583483819E-02  0.11197670956E-01  0.19188510342E-01  0.22490176934E-01  0.51100000000E-03 0. -1.
</event>
<event>
 8    1  0.1099921E+005  0.1043930E+01  0.7957747E-01            NaN
         13   -1    0    0    0    0  0.00000000000E+00  0.00000000000E+00  0.74505805969E-08  0.10566000000E+00  0.10566000000E+00 0.  1.
     999900   -1    0    0    0    0 -0.00000000000E+00 -0.00000000000E+00 -0.74505805969E-08  0.93827000000E+00  0.93827000000E+00 0.  1.
     999902    2    1    2    0    0  0.12946889293E-01  0.19762553955E-01 -0.44513340202E-03  0.10202999635E+01  0.10200262923E+01 0.  0.
     999903    2    3    3    0    0 -0.10373571904E+00  0.75931151482E-01 -0.13492668492E-01  0.13072704316E+00  0.19515853567E-01 0.  0.
         14    1    1    2    0    0 -0.12946889293E-01 -0.19762553955E-01  0.44513340202E-03  0.23630036498E-01  0.00000000000E+00 0. -1.
     999901    1    3    3    0    0  0.11668260833E+00 -0.56168597527E-01  0.13047535090E-01  0.88957292034E+00  0.88000000000E+00 0.  1.
        -11    1    4    4    0    0 -0.42454301596E-01  0.29724997028E-01 -0.15019762004E-01  0.53961074341E-01  0.51100000000E-03 0.  1.
         11    1    4    4    0    0 -0.61281417442E-01  0.46206154453E-01  0.15270935122E-02  0.76765968818E-01  0.51100000000E-03 0. -1.
</event>
<event>
 8    1  0.1099921E+005  0.1043930E+01  0.7957747E-01            NaN
         13   -1    0    0    0    0  0.00000000000E+00  0.00000000000E+00  0.74505805969E-08  0.10566000000E+00  0.10566000000E+00 0. -1.
     999900   -1    0    0    0    0 -0.00000000000E+00 -0.00000000000E+00 -0.74505805969E-08  0.93827000000E+00  0.93827000000E+00 0. -1.
     999902    2    1    2    0    0 -0.66709679303E-02  0.19088917549E-01 -0.12868269561E-01  0.10199616678E+01  0.10196800100E+01 0.  0.
     999903    2    3    3    0    0  0.69913449498E-01  0.82071805881E-01 -0.73927305184E-01  0.13229043191E+00  0.20293845923E-01 0.  0.
         14    1    1    2    0    0  0.66709679303E-02 -0.19088917549E-01  0.12868269561E-01  0.23968332187E-01  0.00000000000E+00 0. -1.
     999901    1    3    3    0    0 -0.76584417429E-01 -0.62982888331E-01  0.61059035623E-01  0.88767123590E+00  0.88000000000E+00 0. -1.
        -11    1    4    4    0    0  0.61192598096E-02  0.37983526722E-02 -0.13357493291E-03  0.72216194100E-02  0.51100000000E-03 0. -1.
         11    1    4    4    0    0  0.63794189689E-01  0.78273453208E-01 -0.73793730251E-01  0.12506881250E+00  0.51100000000E-03 0.  1.
</event>
<event>
 8    1  0.1099921E+005  0.1043930E+01  0.7957747E-01            NaN
         13   -1    0    0    0    0  0.00000000000E+00  0.00000000000E+00  0.74505805969E-08  0.10566000000E+00  0.10566000000E+00 0. -1.
     999900   -1    0    0    0    0 -0.00000000000E+00 -0.00000000000E+00 -0.74505805969E-08  0.93827000000E+00  0.93827000000E+00 0.  1.
     999902    2    1    2    0    0  0.20247221293E-01  0.64114701593E-03  0.13027710358E-01  0.10198451027E+01  0.10195606658E+01 0.  0.
     999903    2    3    3    0    0 -0.69497830572E-02 -0.10620786106E+00  0.73755282049E-01  0.13088828401E+00  0.19065466869E-01 0.  0.
         14    1    1    2    0    0 -0.20247221293E-01 -0.64114701593E-03 -0.13027710358E-01  0.24084897275E-01  0.00000000000E+00 0.  1.
     999901    1    3    3    0    0  0.27197004350E-01  0.10684900807E+00 -0.60727571691E-01  0.88895681871E+00  0.88000000000E+00 0.  1.
        -11    1    4    4    0    0 -0.12949194217E-01 -0.65350394153E-01  0.49436728002E-01  0.82961478069E-01  0.51100000000E-03 0. -1.
         11    1    4    4    0    0  0.59994111598E-02 -0.40857466904E-01  0.24318554046E-01  0.47926805944E-01  0.51100000000E-03 0.  1.
</event>
<event>
 8    1  0.1099921E+005  0.1043930E+01  0.7957747E-01            NaN
         13   -1    0    0    0    0  0.00000000000E+00  0.00000000000E+00  0.74505805969E-08  0.10566000000E+00  0.10566000000E+00 0. -1.
     999900   -1    0    0    0    0 -0.00000000000E+00 -0.00000000000E+00 -0.74505805969E-08  0.93827000000E+00  0.93827000000E+00 0. -1.
     999902    2    1    2    0    0  0.96842504130E-02 -0.20187840413E-01  0.99228706710E-02  0.10194392473E+01  0.10191450250E+01 0.  0.
     999903    2    3    3    0    0  0.76515312533E-01 -0.50425448718E-01 -0.90838050228E-01  0.13065723407E+00  0.20553406408E-01 0.  0.
         14    1    1    2    0    0 -0.96842504130E-02  0.20187840413E-01 -0.99228706710E-02  0.24490752723E-01  0.00000000000E+00 0.  1.
     999901    1    3    3    0    0 -0.66831062120E-01  0.30237608305E-01  0.10076092090E+00  0.88878201321E+00  0.88000000000E+00 0.  1.
        -11    1    4    4    0    0  0.17192458776E-01 -0.94520810919E-02 -0.90050080596E-02  0.21593373217E-01  0.51100000000E-03 0. -1.
         11    1    4    4    0    0  0.59322853757E-01 -0.40973367626E-01 -0.81833042168E-01  0.10906386085E+00  0.51100000000E-03 0.  1.
</event>
<event>
 8    1  0.1099921E+005  0.1043930E+01  0.7957747E-01            NaN
         13   -1    0    0    0    0  0.00000000000E+00  0.00000000000E+00  0.74505805969E-08  0.10566000000E+00  0.10566000000E+00 0.  1.
     999900   -1    0    0    0    0 -0.00000000000E+00 -0.00000000000E+00 -0.74505805969E-08  0.93827000000E+00  0.93827000000E+00 0. -1.
     999902    2    1    2    0    0  0.13272233463E-01 -0.12838528065E-01  0.14918616464E-01  0.10201908951E+01  0.10199146618E+01 0.  0.
     999903    2    3    3    0    0 -0.58046182236E-01 -0.13295538925E-01 -0.11181160423E+00  0.12825643893E+00  0.20043668800E-01 0.  0.
         14    1    1    2    0    0 -0.13272233463E-01  0.12838528065E-01 -0.14918616464E-01  0.23739104894E-01  0.00000000000E+00 0. -1.
     999901    1    3    3    0    0  0.71318415699E-01  0.45701086000E-03  0.12673022069E+00  0.89193445618E+00  0.88000000000E+00 0.  1.
        -11    1    4    4    0    0 -0.28777372199E-01 -0.16134687771E-01 -0.51634356919E-01  0.61276694065E-01  0.51100000000E-03 0. -1.
         11    1    4    4    0    0 -0.29268810038E-01  0.28391488462E-02 -0.60177247311E-01  0.66979744865E-01  0.51100000000E-03 0.  1.
</event>
<event>
 8    1  0.1099921E+005  0.1043930E+01  0.7957747E-01            NaN
         13   -1    0    0    0    0  0.00000000000E+00  0.00000000000E+00  0.74505805969E-08  0.10566000000E+00  0.10566000000E+00 0. -1.
     999900   -1    0    0    0    0 -0.00000000000E+00 -0.00000000000E+00 -0.74505805969E-08  0.93827000000E+00  0.93827000000E+00 0.  1.
     999902    2    1    2    0    0 -0.17459352322E-01 -0.61593595610E-03  0.16650384375E-01  0.10197961304E+01  0.10195105218E+01 0.  0.
     999903    2    3    3    0    0  0.24521399237E-01 -0.20131120853E-01 -0.12165483441E+00  0.12779189306E+00  0.22897776091E-01 0.  0.
         14    1    1    2    0    0  0.17459352322E-01  0.61593595610E-03 -0.16650384375E-01  0.24133869571E-01  0.00000000000E+00 0.  1.
     999901    1    3    3    0    0 -0.41980751559E-01  0.19515184897E-01  0.13830521878E+00  0.89200423737E+00  0.88000000000E+00 0. -1.
        -11    1    4    4    0    0 -0.31753566621E-02 -0.52969297145E-02 -0.96980613390E-02  0.11508860459E-01  0.51100000000E-03 0. -1.
         11    1    4    4    0    0  0.27696755899E-01 -0.14834191138E-01 -0.11195677307E+00  0.11628303260E+00  0.51100000000E-03 0.  1.
</event>
<event>
 7    1  0.1099921E+005  0.1043930E+01  0.7957747E-01            NaN
         13   -1    0    0    0    0  0.00000000000E+00  0.00000000000E+00  0.74505805969E-08  0.10566000000E+00  0.10566000000E+00 0. -1.
     999900   -1    0    0    0    0 -0.00000000000E+00 -0.00000000000E+00 -0.74505805969E-08  0.93827000000E+00  0.93827000000E+00 0. -1.
     999902    2    1    2    0    0 -0.18234661705E-02  0.11229298827E-01 -0.21036572372E-01  0.10200143240E+01  0.10197339171E+01 0.  0.
         14    1    1    2    0    0  0.18234661705E-02 -0.11229298827E-01  0.21036572372E-01  0.23915675993E-01  0.00000000000E+00 0. -1.
     999901    1    3    3    0    0  0.91931933438E-01  0.24411250492E-01  0.62102084174E-01  0.88730156001E+00  0.88000000000E+00 0. -1.
        -11    1    3    3    0    0 -0.47608212774E-01 -0.22408120544E-01 -0.61423890795E-01  0.80881526143E-01  0.51100000000E-03 0.  1.
         11    1    3    3    0    0 -0.46147186835E-01  0.92261688801E-02 -0.21714765751E-01  0.51831237855E-01  0.51100000000E-03 0. -1.
</event>
<event>
 8    1  0.1099921E+005  0.1043930E+01  0.7957747E-01            NaN
         13   -1    0    0    0    0  0.00000000000E+00  0.00000000000E+00  0.74505805969E-08  0.10566000000E+00  0.10566000000E+00 0. -1.
     999900   -1    0    0    0    0 -0.00000000000E+00 -0.00000000000E+00 -0.74505805969E-08  0.93827000000E+00  0.93827000000E+00 0.  1.
     999902    2    1    2    0    0 -0.16178018245E-01 -0.16917228962E-01  0.39697581824E-02  0.10201880563E+01  0.10199117562E+01 0.  0.
     999903    2    3    3    0    0 -0.12549515205E+00 -0.23266643663E-01 -0.30812167132E-01  0.13271955933E+00  0.19357734613E-01 0.  0.
         14    1    1    2    0    0  0.16178018245E-01  0.16917228962E-01 -0.39697581824E-02  0.23741943689E-01  0.00000000000E+00 0. -1.
     999901    1    3    3    0    0  0.10931713380E+00  0.63494147008E-02  0.34781925315E-01  0.88746849698E+00  0.88000000000E+00 0. -1.
        -11    1    4    4    0    0 -0.10136752711E+00 -0.17331196137E-01 -0.32382999623E-01  0.10781774297E+00  0.51100000000E-03 0.  1.
         11    1    4    4    0    0 -0.24127624935E-01 -0.59354475255E-02  0.15708324906E-02  0.24901816361E-01  0.51100000000E-03 0. -1.
</event>
<event>
 8    1  0.1099921E+005  0.1043930E+01  0.7957747E-01            NaN
         13   -1    0    0    0    0  0.00000000000E+00  0.00000000000E+00  0.74505805969E-08  0.10566000000E+00  0.10566000000E+00 0.  1.
     999900   -1    0    0    0    0 -0.00000000000E+00 -0.00000000000E+00 -0.74505805969E-08  0.93827000000E+00  0.93827000000E+00 0.  1.
     999902    2    1    2    0    0 -0.18265541483E-01 -0.15296360697E-01  0.26522688193E-02  0.10199582836E+01  0.10196765454E+01 0.  0.
     999903    2    3    3    0    0  0.63445238603E-01  0.83034812223E-01  0.73067165863E-01  0.12793590225E+00  0.10426217621E-01 0.  0.
         14    1    1    2    0    0  0.18265541483E-01  0.15296360697E-01 -0.26522688193E-02  0.23971716378E-01  0.00000000000E+00 0.  1.
     999901    1    3    3    0    0 -0.81710780086E-01 -0.98331172919E-01 -0.70414897044E-01  0.89202238138E+00  0.88000000000E+00 0. -1.
        -11    1    4    4    0    0  0.55683395784E-01  0.70503014273E-01  0.58524970125E-01  0.10722289325E+00  0.51100000000E-03 0. -1.
         11    1    4    4    0    0  0.77618428191E-02  0.12531797950E-01  0.14542195738E-01  0.20713008997E-01  0.51100000000E-03 0.  1.
</event>
<event>
 8    1  0.1099921E+005  0.1043930E+01  0.7957747E-01            NaN
         13   -1    0    0    0    0  0.00000000000E+00  0.00000000000E+00  0.74505805969E-08  0.10566000000E+00  0.10566000000E+00 0. -1.
     999900   -1    0    0    0    0 -0.00000000000E+00 -0.00000000000E+00 -0.74505805969E-08  0.93827000000E+00  0.93827000000E+00 0.  1.
     999902    2    1    2    0    0 -0.83702611638E-03  0.22862968671E-01 -0.45892540026E-02  0.10205959647E+01  0.10203291851E+01 0.  0.
     999903    2    3    3    0    0  0.96372671010E-01  0.36647317769E-01 -0.79928351609E-01  0.13193646126E+00  0.19696974444E-01 0.  0.
         14    1    1    2    0    0  0.83702611638E-03 -0.22862968671E-01  0.45892540026E-02  0.23334035259E-01  0.00000000000E+00 0. -1.
     999901    1    3    3    0    0 -0.97209697126E-01 -0.13784349098E-01  0.75339097607E-01  0.88865950348E+00  0.88000000000E+00 0. -1.
        -11    1    4    4    0    0  0.22215917923E-01  0.32914654900E-02 -0.96077418376E-02  0.24432572080E-01  0.51100000000E-03 0.  1.
         11    1    4    4    0    0  0.74156753087E-01  0.33355852279E-01 -0.70320609772E-01  0.10750388918E+00  0.51100000000E-03 0. -1.
</event>
<event>
 8    1  0.1099921E+005  0.1043930E+01  0.7957747E-01            NaN
         13   -1    0    0    0    0  0.00000000000E+00  0.00000000000E+00  0.74505805969E-08  0.10566000000E+00  0.10566000000E+00 0. -1.
     999900   -1    0    0    0    0 -0.00000000000E+00 -0.00000000000E+00 -0.74505805969E-08  0.93827000000E+00  0.93827000000E+00 0.  1.
     999902    2    1    2    0    0  0.93179542830E-02 -0.59719707207E-02 -0.20367548518E-01  0.10207497123E+01  0.10204864768E+01 0.  0.
     999903    2    3    3    0    0  0.67089248931E-02  0.49291137037E-02 -0.13206114919E+00  0.13361888703E+00  0.18562166096E-01 0.  0.
         14    1    1    2    0    0 -0.93179542830E-02  0.59719707207E-02  0.20367548518E-01  0.23180287723E-01  0.00000000000E+00 0. -1.
     999901    1    3    3    0    0  0.26090293900E-02 -0.10901084424E-01  0.11169360067E+00  0.88713082525E+00  0.88000000000E+00 0. -1.
        -11    1    4    4    0    0  0.11106700143E-02  0.10911923898E-01 -0.52539892856E-01  0.53674995420E-01  0.51100000000E-03 0. -1.
         11    1    4    4    0    0  0.55982548787E-02 -0.59828101946E-02 -0.79521256334E-01  0.79943891608E-01  0.51100000000E-03 0.  1.
</event>
<event>
 8    1  0.1099921E+005  0.1043930E+01  0.7957747E-01            NaN
         13   -1    0    0    0    0  0.00000000000E+00  0.00000000000E+00  0.74505805969E-08  0.10566000000E+00  0.10566000000E+00 0.  1.
     999900   -1    0    0    0    0 -0.00000000000E+00 -0.00000000000E+00 -0.74505805969E-08  0.93827000000E+00  0.93827000000E+00 0. -1.
     999902    2    1    2    0    0  0.14564858623E-01 -0.32841034262E-03  0.20436269535E-01  0.10188325086E+01  0.10185233412E+01 0.  0.
     999903    2    3    3    0    0  0.29439469573E-01  0.44464501441E-01  0.11918437990E+00  0.13205246359E+00  0.19727201316E-01 0.  0.
         14    1    1    2    0    0 -0.14564858623E-01  0.32841034262E-03 -0.20436269535E-01  0.25097491360E-01  0.00000000000E+00 0. -1.
     999901    1    3    3    0    0 -0.14874610950E-01 -0.44792911784E-01 -0.98748110362E-01  0.88678004505E+00  0.88000000000E+00 0. -1.
        -11    1    4    4    0    0  0.47053668466E-02  0.23584879286E-01  0.42913367821E-01  0.49195581782E-01  0.51100000000E-03 0. -1.
         11    1    4    4    0    0  0.24734102726E-01  0.20879622155E-01  0.76271012076E-01  0.82856881809E-01  0.51100000000E-03 0.  1.
</event>
<event>
 8    1  0.1099921E+005  0.1043930E+01  0.7957747E-01            NaN
         13   -1    0    0    0    0  0.00000000000E+00  0.00000000000E+00  0.74505805969E-08  0.10566000000E+00  0.10566000000E+00 0.  1.
     999900   -1    0    0    0    0 -0.00000000000E+00 -0.00000000000E+00 -0.74505805969E-08  0.93827000000E+00  0.93827000000E+00 0.  1.
     999902    2    1    2    0    0  0.20823167868E-01  0.79435123279E-02  0.79039789984E-02  0.10202830849E+01  0.10200090180E+01 0.  0.
     999903    2    3    3    0    0  0.54248426598E-01  0.11783343502E+00  0.19405754208E-01  0.13274416530E+00  0.20416168302E-01 0.  0.
         14    1    1    2    0    0 -0.20823167868E-01 -0.79435123279E-02 -0.79039789984E-02  0.23646915067E-01  0.00000000000E+00 0. -1.
     999901    1    3    3    0    0 -0.33425258730E-01 -0.10988992269E+00 -0.11501775210E-01  0.88753891963E+00  0.88000000000E+00 0.  1.
        -11    1    4    4    0    0  0.32661401732E-01  0.84549576383E-01  0.20986264069E-01  0.93038069789E-01  0.51100000000E-03 0.  1.
         11    1    4    4    0    0  0.21587024866E-01  0.33283858637E-01 -0.15805098608E-02  0.39706095511E-01  0.51100000000E-03 0. -1.
</event>
<event>
 8    1  0.1099921E+005  0.1043930E+01  0.7957747E-01            NaN
         13   -1    0    0    0    0  0.00000000000E+00  0.00000000000E+00  0.74505805969E-08  0.10566000000E+00  0.10566000000E+00 0. -1.
     999900   -1    0    0    0    0 -0.00000000000E+00 -0.00000000000E+00 -0.74505805969E-08  0.93827000000E+00  0.93827000000E+00 0.  1.
     999902    2    1    2    0    0  0.13465290046E-01 -0.19039361765E-01 -0.59974212207E-02  0.10198513706E+01  0.10195670835E+01 0.  0.
     999903    2    3    3    0    0  0.68630883480E-01 -0.63718333203E-01 -0.92026470771E-01  0.13281109499E+00  0.19992285430E-01 0.  0.
         14    1    1    2    0    0 -0.13465290046E-01  0.19039361765E-01  0.59974212207E-02  0.24078629399E-01  0.00000000000E+00 0.  1.
     999901    1    3    3    0    0 -0.55165593434E-01  0.44678971438E-01  0.86029049550E-01  0.88704027561E+00  0.88000000000E+00 0. -1.
        -11    1    4    4    0    0  0.18181459272E-01 -0.29870744749E-01 -0.35304779402E-01  0.49694219209E-01  0.51100000000E-03 0.  1.
         11    1    4    4    0    0  0.50449424208E-01 -0.33847588453E-01 -0.56721691369E-01  0.83116875782E-01  0.51100000000E-03 0. -1.
</event>
<event>
 8    1  0.1099921E+005  0.1043930E+01  0.7957747E-01            NaN
         13   -1    0    0    0    0  0.00000000000E+00  0.00000000000E+00  0.74505805969E-08  0.10566000000E+00  0.10566000000E+00 0. -1.
     999900   -1    0    0    0    0 -0.00000000000E+00 -0.00000000000E+00 -0.74505805969E-08  0.93827000000E+00  0.93827000000E+00 0.  1.
     999902    2    1    2    0    0 -0.76858071830E-02 -0.17187104837E-01  0.14381047480E-01  0.10202385937E+01  0.10199634824E+01 0.  0.
     999903    2    3    3    0    0  0.28832936351E-01  0.12329192384E+00 -0.25835757658E-02  0.12818715206E+00  0.19825094859E-01 0.  0.
         14    1    1    2    0    0  0.76858071830E-02  0.17187104837E-01 -0.14381047480E-01  0.23691406277E-01  0.00000000000E+00 0.  1.
     999901    1    3    3    0    0 -0.36518743534E-01 -0.14047902868E+00  0.16964623245E-01  0.89205144166E+00  0.88000000000E+00 0. -1.
        -11    1    4    4    0    0  0.17304447657E-01  0.60277729179E-01 -0.10673302470E-01  0.63616264039E-01  0.51100000000E-03 0. -1.
         11    1    4    4    0    0  0.11528488694E-01  0.63014194666E-01  0.80897267043E-02  0.64570888023E-01  0.51100000000E-03 0.  1.
</event>
<event>
 8    1  0.1099921E+005  0.1043930E+01  0.7957747E-01            NaN
         13   -1    0    0    0    0  0.00000000000E+00  0.00000000000E+00  0.74505805969E-08  0.10566000000E+00  0.10566000000E+00 0. -1.
     999900   -1    0    0    0    0 -0.00000000000E+00 -0.00000000000E+00 -0.74505805969E-08  0.93827000000E+00  0.93827000000E+00 0. -1.
     999902    2    1    2    0    0 -0.22092857963E-01  0.91594009387E-02  0.10204249832E-02  0.10199919494E+01  0.10197110113E+01 0.  0.
     999903    2    3    3    0    0  0.11818793659E-01 -0.11473556117E+00 -0.53863650803E-01  0.12897442797E+00  0.20716595053E-01 0.  0.
         14    1    1    2    0    0  0.22092857963E-01 -0.91594009387E-02 -0.10204249832E-02  0.23938050582E-01  0.00000000000E+00 0.  1.
     999901    1    3    3    0    0 -0.33911651622E-01  0.12389496211E+00  0.54884075786E-01  0.89101752145E+00  0.88000000000E+00 0.  1.
        -11    1    4    4    0    0  0.10199698360E-01 -0.22710591673E-01 -0.14961588750E-01  0.29050216517E-01  0.51100000000E-03 0.  1.
         11    1    4    4    0    0  0.16190952989E-02 -0.92024969502E-01 -0.38902062053E-01  0.99924211452E-01  0.51100000000E-03 0. -1.
</event>
<event>
 8    1  0.1099921E+005  0.1043930E+01  0.7957747E-01            NaN
         13   -1    0    0    0    0  0.00000000000E+00  0.00000000000E+00  0.74505805969E-08  0.10566000000E+00  0.10566000000E+00 0. -1.
     999900   -1    0    0    0    0 -0.00000000000E+00 -0.00000000000E+00 -0.74505805969E-08  0.93827000000E+00  0.93827000000E+00 0. -1.
     999902    2    1    2    0    0  0.79244093953E-03 -0.24452584730E-01 -0.64834354517E-03  0.10194559890E+01  0.10191621737E+01 0.  0.
     999903    2    3    3    0    0  0.44650511455E-01  0.10820129930E+00 -0.45786937273E-01  0.12729116350E+00  0.20134729678E-01 0.  0.
         14    1    1    2    0    0 -0.79244093953E-03  0.24452584730E-01  0.64834354517E-03  0.24474010950E-01  0.00000000000E+00 0.  1.
     999901    1    3    3    0    0 -0.43858070515E-01 -0.13265388403E+00  0.45138593727E-01  0.89216482555E+00  0.88000000000E+00 0.  1.
        -11    1    4    4    0    0  0.18327792902E-01  0.70065161658E-01 -0.27321822300E-01  0.77406575726E-01  0.51100000000E-03 0.  1.
         11    1    4    4    0    0  0.26322718553E-01  0.38136137637E-01 -0.18465114973E-01  0.49884587778E-01  0.51100000000E-03 0. -1.
</event>
<event>
 8    1  0.1099921E+005  0.1043930E+01  0.7957747E-01            NaN
         13   -1    0    0    0    0  0.00000000000E+00  0.00000000000E+00  0.74505805969E-08  0.10566000000E+00  0.10566000000E+00 0.  1.
     999900   -1    0    0    0    0 -0.00000000000E+00 -0.00000000000E+00 -0.74505805969E-08  0.93827000000E+00  0.93827000000E+00 0. -1.
     999902    2    1    2    0    0 -0.14317966608E-01 -0.71903967624E-02  0.16143932624E-01  0.10211850548E+01  0.10209317232E+01 0.  0.
     999903    2    3    3    0    0  0.99981556637E-01  0.42918651681E-01 -0.65724957039E-01  0.12861695492E+00  0.19601754686E-01 0.  0.
         14    1    1    2    0    0  0.14317966608E-01  0.71903967624E-02 -0.16143932624E-01  0.22744945239E-01  0.00000000000E+00 0.  1.
     999901    1    3    3    0    0 -0.11429952324E+00 -0.50109048444E-01  0.81868889663E-01  0.89256809984E+00  0.88000000000E+00 0.  1.
        -11    1    4    4    0    0  0.47847773505E-01  0.13429864314E-01 -0.38269407042E-01  0.62726225147E-01  0.51100000000E-03 0. -1.
         11    1    4    4    0    0  0.52133783132E-01  0.29488787367E-01 -0.27455549997E-01  0.65890729778E-01  0.51100000000E-03 0.  1.
</event>
<event>
 8    1  0.1099921E+005  0.1043930E+01  0.7957747E-01            NaN
         13   -1    0    0    0    0  0.00000000000E+00  0.00000000000E+00  0.74505805969E-08  0.10566000000E+00  0.10566000000E+00 0. -1.
     999900   -1    0    0    0    0 -0.00000000000E+00 -0.00000000000E+00 -0.74505805969E-08  0.93827000000E+00  0.93827000000E+00 0.  1.
     999902    2    1    2    0    0  0.21474350608E-02 -0.15223294311E-01  0.17214069650E-01  0.10208500442E+01  0.10205891085E+01 0.  0.
     999903    2    3    3    0    0  0.65361993324E-01  0.80075058480E-01 -0.74080449171E-01  0.12876678260E+00  0.20217966983E-01 0.  0.
         14    1    1    2    0    0 -0.21474350608E-02  0.15223294311E-01 -0.17214069650E-01  0.23079955826E-01  0.00000000000E+00 0.  1.
     999901    1    3    3    0    0 -0.63214558263E-01 -0.95298352790E-01  0.91294518821E-01  0.89208326158E+00  0.88000000000E+00 0. -1.
        -11    1    4    4    0    0  0.17285926580E-01  0.21695867703E-01 -0.95294177008E-02  0.29335726612E-01  0.51100000000E-03 0. -1.
         11    1    4    4    0    0  0.48076066744E-01  0.58379190777E-01 -0.64551031470E-01  0.99431055984E-01  0.51100000000E-03 0.  1.
</event>
<event>
 8    1  0.1099921E+005  0.1043930E+01  0.7957747E-01            NaN
         13   -1    0    0    0    0  0.00000000000E+00  0.00000000000E+00  0.74505805969E-08  0.10566000000E+00  0.10566000000E+00 0.  1.
     999900   -1    0    0    0    0 -0.00000000000E+00 -0.00000000000E+00 -0.74505805969E-08  0.93827000000E+00  0.93827000000E+00 0.  1.
     999902    2    1    2    0    0 -0.28568300788E-02  0.28293935938E-02  0.23043518601E-01  0.10205383199E+01  0.10202702053E+01 0.  0.
     999903    2    3    3    0    0  0.27950406541E-01  0.65026854176E-01  0.11118100465E+00  0.13341610380E+00  0.20710479677E-01 0.  0.
         14    1    1    2    0    0  0.28568300788E-02 -0.28293935938E-02 -0.23043518601E-01  0.23391680054E-01  0.00000000000E+00 0. -1.
     999901    1    3    3    0    0 -0.30807236620E-01 -0.62197460583E-01 -0.88137486050E-01  0.88712221615E+00  0.88000000000E+00 0.  1.
        -11    1    4    4    0    0  0.11087638308E-01  0.48739163929E-01  0.69808228486E-01  0.85859721110E-01  0.51100000000E-03 0.  1.
         11    1    4    4    0    0  0.16862768233E-01  0.16287690247E-01  0.41372776165E-01  0.47556382691E-01  0.51100000000E-03 0. -1.
</event>
<event>
 8    1  0.1099921E+005  0.1043930E+01  0.7957747E-01            NaN
         13   -1    0    0    0    0  0.00000000000E+00  0.00000000000E+00  0.74505805969E-08  0.10566000000E+00  0.10566000000E+00 0.  1.
     999900   -1    0    0    0    0 -0.00000000000E+00 -0.00000000000E+00 -0.74505805969E-08  0.93827000000E+00  0.93827000000E+00 0. -1.
     999902    2    1    2    0    0 -0.12476064845E-01 -0.58631644384E-02 -0.19451845313E-01  0.10200887925E+01  0.10198101496E+01 0.  0.
     999903    2    3    3    0    0 -0.69483965091E-01 -0.72833512332E-01 -0.84982902586E-01  0.13328033080E+00  0.20219073254E-01 0.  0.
         14    1    1    2    0    0  0.12476064845E-01  0.58631644384E-02  0.19451845313E-01  0.23841207548E-01  0.00000000000E+00 0.  1.
     999901    1    3    3    0    0  0.57007900246E-01  0.66970347894E-01  0.65531057273E-01  0.88680846165E+00  0.88000000000E+00 0.  1.
        -11    1    4    4    0    0 -0.26463284051E-01 -0.33350929423E-01 -0.47986358829E-01  0.64152487487E-01  0.51100000000E-03 0. -1.
         11    1    4    4    0    0 -0.43020681040E-01 -0.39482582909E-01 -0.36996543757E-01  0.69127843314E-01  0.51100000000E-03 0.  1.
</event>
<event>
 8    1  0.1099921E+005  0.1043930E+01  0.7957747E-01            NaN
         13   -1    0    0    0    0  0.00000000000E+00  0.00000000000E+00  0.74505805969E-08  0.10566000000E+00  0.10566000000E+00 0. -1.
     999900   -1    0    0    0    0 -0.00000000000E+00 -0.00000000000E+00 -0.74505805969E-08  0.93827000000E+00  0.93827000000E+00 0.  1.
     999902    2    1    2    0    0  0.10298871683E-01 -0.20607943571E-01 -0.11435030804E-02  0.10208635374E+01  0.10206029102E+01 0.  0.
     999903    2    3    3    0    0 -0.10125376541E+00  0.73631109886E-01 -0.22070262862E-01  0.12858391797E+00  0.19309637613E-01 0.  0.
         14    1    1    2    0    0 -0.10298871683E-01  0.20607943571E-01  0.11435030804E-02  0.23066462570E-01  0.00000000000E+00 0. -1.
     999901    1    3    3    0    0  0.11155263709E+00 -0.94239053457E-01  0.20926759782E-01  0.89227961947E+00  0.88000000000E+00 0. -1.
        -11    1    4    4    0    0 -0.37105206889E-01  0.36274946480E-01 -0.14975261791E-01  0.54010996169E-01  0.51100000000E-03 0. -1.
         11    1    4    4    0    0 -0.64148558516E-01  0.37356163406E-01 -0.70950010714E-02  0.74572921797E-01  0.51100000000E-03 0.  1.
</event>
<event>
 8    1  0.1099921E+005  0.1043930E+01  0.7957747E-01            NaN
         13   -1    0    0    0    0  0.00000000000E+00  0.00000000000E+00  0.74505805969E-08  0.10566000000E+00  0.10566000000E+00 0. -1.
     999900   -1    0    0    0    0 -0.00000000000E+00 -0.00000000000E+00 -0.74505805969E-08  0.93827000000E+00  0.93827000000E+00 0.  1.
     999902    2    1    2    0    0  0.73257945356E-02 -0.69056129323E-02 -0.21783003527E-01  0.10199330419E+01  0.10196507029E+01 0.  0.
     999903    2    3    3    0    0  0.12428570782E+00 -0.35750486898E-01 -0.22407815915E-01  0.13172583721E+00  0.11160264054E-01 0.  0.
         14    1    1    2    0    0 -0.73257945356E-02  0.69056129323E-02  0.21783003527E-01  0.23996958104E-01  0.00000000000E+00 0. -1.
     999901    1    3    3    0    0 -0.11695991328E+00  0.28844873965E-01  0.62481238719E-03  0.88820720469E+00  0.88000000000E+00 0. -1.
        -11    1    4    4    0    0  0.11470538669E+00 -0.29792958731E-01 -0.20378158535E-01  0.12025172178E+00  0.51100000000E-03 0. -1.
         11    1    4    4    0    0  0.95803211284E-02 -0.59575281670E-02 -0.20296573794E-02  0.11474115428E-01  0.51100000000E-03 0.  1.
</event>
<event>
 8    1  0.1099921E+005  0.1043930E+01  0.7957747E-01            NaN
         13   -1    0    0    0    0  0.00000000000E+00  0.00000000000E+00  0.74505805969E-08  0.10566000000E+00  0.10566000000E+00 0. -1.
     999900   -1    0    0    0    0 -0.00000000000E+00 -0.00000000000E+00 -0.74505805969E-08  0.93827000000E+00  0.93827000000E+00 0.  1.
     999902    2    1    2    0    0  0.15886668598E-01  0.17220791227E-01 -0.21536676175E-02  0.10204017155E+01  0.10201304234E+01 0.  0.
     999903    2    3    3    0    0  0.22986281725E-01 -0.12895652385E-01  0.12619374159E+00  0.13055315410E+00  0.20605791187E-01 0.  0.
         14    1    1    2    0    0 -0.15886668598E-01 -0.17220791227E-01  0.21536676175E-02  0.23528284549E-01  0.00000000000E+00 0.  1.
     999901    1    3    3    0    0 -0.70996131271E-02  0.30116443612E-01 -0.12834740921E+00  0.88984856135E+00  0.88000000000E+00 0.  1.
        -11    1    4    4    0    0  0.11597735441E-01  0.14729124022E-02  0.79998909418E-01  0.80850253972E-01  0.51100000000E-03 0.  1.
         11    1    4    4    0    0  0.11388546284E-01 -0.14368564788E-01  0.46194832177E-01  0.49702900130E-01  0.51100000000E-03 0. -1.
</event>
<event>
 8    1  0.1099921E+005  0.1043930E+01  0.7957747E-01            NaN
         13   -1    0    0    0    0  0.00000000000E+00  0.00000000000E+00  0.74505805969E-08  0.10566000000E+00  0.10566000000E+00 0. -1.
     999900   -1    0    0    0    0 -0.00000000000E+00 -0.00000000000E+00 -0.74505805969E-08  0.93827000000E+00  0.93827000000E+00 0.  1.
     999902    2    1    2    0    0  0.99976182478E-03 -0.11962702442E-02 -0.24051335697E-01  0.10198281881E+01  0.10195433468E+01 0.  0.
     999903    2    3    3    0    0 -0.78692459630E-01  0.75511878647E-02  0.98397060560E-01  0.12774020036E+00  0.19648247291E-01 0.  0.
         14    1    1    2    0    0 -0.99976182478E-03  0.11962702442E-02  0.24051335697E-01  0.24101811862E-01  0.00000000000E+00 0. -1.
     999901    1    3    3    0    0  0.79692221455E-01 -0.87474581089E-02 -0.12244839626E+00  0.89208798777E+00  0.88000000000E+00 0.  1.
        -11    1    4    4    0    0 -0.93438693003E-02  0.62825064785E-02  0.20828713478E-01  0.23682782930E-01  0.51100000000E-03 0.  1.
         11    1    4    4    0    0 -0.69348590330E-01  0.12686813862E-02  0.77568347081E-01  0.10405741743E+00  0.51100000000E-03 0. -1.
</event>
<event>
 8    1  0.1099921E+005  0.1043930E+01  0.7957747E-01            NaN
         13   -1    0    0    0    0  0.00000000000E+00  0.00000000000E+00  0.74505805969E-08  0.10566000000E+00  0.10566000000E+00 0.  1.
     999900   -1    0    0    0    0 -0.00000000000E+00 -0.00000000000E+00 -0.74505805969E-08  0.93827000000E+00  0.93827000000E+00 0. -1.
     999902    2    1    2    0    0  0.84378655388E-02  0.20544295067E-02 -0.23312613925E-01  0.10190523750E+01  0.10187486672E+01 0.  0.
     999903    2    3    3    0    0  0.36413404599E-02  0.12671389178E+00  0.15316542649E-01  0.12941469603E+00  0.21068871297E-01 0.  0.
         14    1    1    2    0    0 -0.84378655388E-02 -0.20544295067E-02  0.23312613925E-01  0.24877624957E-01  0.00000000000E+00 0.  1.
     999901    1    3    3    0    0  0.47965250789E-02 -0.12465946228E+00 -0.38629156575E-01  0.88963767902E+00  0.88000000000E+00 0.  1.
        -11    1    4    4    0    0 -0.22010018104E-02  0.11741110202E+00  0.15237791987E-01  0.11841732437E+00  0.51100000000E-03 0. -1.
         11    1    4    4    0    0  0.58423422703E-02  0.93027897652E-02  0.78750662917E-04  0.10997371654E-01  0.51100000000E-03 0.  1.
</event>
<event>
 8    1  0.1099921E+005  0.1043930E+01  0.7957747E-01            NaN
         13   -1    0    0    0    0  0.00000000000E+00  0.00000000000E+00  0.74505805969E-08  0.10566000000E+00  0.10566000000E+00 0. -1.
     999900   -1    0    0    0    0 -0.00000000000E+00 -0.00000000000E+00 -0.74505805969E-08  0.93827000000E+00  0.93827000000E+00 0. -1.
     999902    2    1    2    0    0  0.18486038115E-01 -0.12978837892E-01 -0.70569827748E-02  0.10202660011E+01  0.10199915334E+01 0.  0.
     999903    2    3    3    0    0 -0.64150000199E-01 -0.30521970068E-01 -0.10771103168E+00  0.13050889161E+00  0.19598246417E-01 0.  0.
         14    1    1    2    0    0 -0.18486038115E-01  0.12978837892E-01  0.70569827748E-02  0.23663998904E-01  0.00000000000E+00 0. -1.
     999901    1    3    3    0    0  0.82636038314E-01  0.17543132176E-01  0.10065404890E+00  0.88975710948E+00  0.88000000000E+00 0.  1.
        -11    1    4    4    0    0 -0.51846574896E-01 -0.16337186430E-01 -0.86621313222E-01  0.10226672975E+00  0.51100000000E-03 0.  1.
         11    1    4    4    0    0 -0.12303425303E-01 -0.14184783638E-01 -0.21089718456E-01  0.28242161861E-01  0.51100000000E-03 0. -1.
</event>
<event>
 8    1  0.1099921E+005  0.1043930E+01  0.7957747E-01            NaN
         13   -1    0    0    0    0  0.00000000000E+00  0.00000000000E+00  0.74505805969E-08  0.10566000000E+00  0.10566000000E+00 0. -1.
     999900   -1    0    0    0    0 -0.00000000000E+00 -0.00000000000E+00 -0.74505805969E-08  0.93827000000E+00  0.93827000000E+00 0.  1.
     999902    2    1    2    0    0 -0.10736931671E-01 -0.29210976187E-02 -0.21340824295E-01  0.10198624847E+01  0.10195784631E+01 0.  0.
     999903    2    3    3    0    0 -0.48317928649E-01 -0.11858251071E+00 -0.22282399698E-01  0.13149838117E+00  0.19972101485E-01 0.  0.
         14    1    1    2    0    0  0.10736931671E-01  0.29210976187E-02  0.21340824295E-01  0.24067515339E-01  0.00000000000E+00 0. -1.
     999901    1    3    3    0    0  0.37580996978E-01  0.11566141309E+00  0.94157540297E-03  0.88836410349E+00  0.88000000000E+00 0. -1.
        -11    1    4    4    0    0 -0.38402243722E-01 -0.85696879912E-01 -0.78462080187E-02  0.94236466672E-01  0.51100000000E-03 0. -1.
         11    1    4    4    0    0 -0.99156849272E-02 -0.32885630799E-01 -0.14436191679E-01  0.37261914495E-01  0.51100000000E-03 0.  1.
</event>
<event>
 8    1  0.1099921E+005  0.1043930E+01  0.7957747E-01            NaN
         13   -1    0    0    0    0  0.00000000000E+00  0.00000000000E+00  0.74505805969E-08  0.10566000000E+00  0.10566000000E+00 0. -1.
     999900   -1    0    0    0    0 -0.00000000000E+00 -0.00000000000E+00 -0.74505805969E-08  0.93827000000E+00  0.93827000000E+00 0.  1.
     999902    2    1    2    0    0  0.24370491795E-01 -0.13957311179E-01 -0.24168676383E-01  0.10068779781E+01  0.10061960100E+01 0.  0.
     999903    2    3    3    0    0  0.77231133031E-01  0.75999103390E-01  0.42705388996E-01  0.11819437610E+00  0.20140721626E-01 0.  0.
         14    1    1    2    0    0 -0.24370491795E-01  0.13957311179E-01  0.24168676383E-01  0.37052021858E-01  0.00000000000E+00 0.  1.
     999901    1    3    3    0    0 -0.52860641236E-01 -0.89956414569E-01 -0.66874065378E-01  0.88868360204E+00  0.88000000000E+00 0.  1.
        -11    1    4    4    0    0 -0.14996087103E-03  0.55033666318E-02  0.20174242920E-02  0.58856311744E-02  0.51100000000E-03 0. -1.
         11    1    4    4    0    0  0.77381093902E-01  0.70495736758E-01  0.40687964704E-01  0.11230874493E+00  0.51100000000E-03 0.  1.
</event>
<event>
 8    1  0.1099921E+005  0.1043930E+01  0.7957747E-01            NaN
         13   -1    0    0    0    0  0.00000000000E+00  0.00000000000E+00  0.74505805969E-08  0.10566000000E+00  0.10566000000E+00 0. -1.
     999900   -1    0    0    0    0 -0.00000000000E+00 -0.00000000000E+00 -0.74505805969E-08  0.93827000000E+00  0.93827000000E+00 0. -1.
     999902    2    1    2    0    0 -0.16823359512E-01  0.82533893331E-02  0.14716426170E-01  0.10201031861E+01  0.10198248836E+01 0.  0.
     999903    2    3    3    0    0  0.10261305483E+00  0.17519764192E-01 -0.71483404309E-01  0.12781324806E+00  0.19747610736E-01 0.  0.
         14    1    1    2    0    0  0.16823359512E-01 -0.82533893331E-02 -0.14716426170E-01  0.23826813886E-01  0.00000000000E+00 0.  1.
     999901    1    3    3    0    0 -0.11943641434E+00 -0.92663748587E-02  0.86199830479E-01  0.89228993805E+00  0.88000000000E+00 0.  1.
        -11    1    4    4    0    0  0.31659712338E-01  0.12020574924E-01 -0.31124322684E-01  0.45998002026E-01  0.51100000000E-03 0.  1.
         11    1    4    4    0    0  0.70953342492E-01  0.54991892675E-02 -0.40359081624E-01  0.81815246036E-01  0.51100000000E-03 0. -1.
</event>
<event>
 8    1  0.1099921E+005  0.1043930E+01  0.7957747E-01            NaN
         13   -1    0    0    0    0  0.00000000000E+00  0.00000000000E+00  0.74505805969E-08  0.10566000000E+00  0.10566000000E+00 0.  1.
     999900   -1    0    0    0    0 -0.00000000000E+00 -0.00000000000E+00 -0.74505805969E-08  0.93827000000E+00  0.93827000000E+00 0.  1.
     999902    2    1    2    0    0 -0.22855187973E-01  0.46887952686E-02 -0.52453669820E-02  0.10200164412E+01  0.10197360845E+01 0.  0.
     999903    2    3    3    0    0  0.11621502631E+00  0.47232493605E-01  0.15213314641E-01  0.12784546635E+00  0.19395296634E-01 0.  0.
         14    1    1    2    0    0  0.22855187973E-01 -0.46887952686E-02  0.52453669820E-02  0.23913558772E-01  0.00000000000E+00 0.  1.
     999901    1    3    3    0    0 -0.13907021428E+00 -0.42543698337E-01 -0.20458681623E-01  0.89217097488E+00  0.88000000000E+00 0.  1.
        -11    1    4    4    0    0  0.96655528065E-01  0.40145043393E-01  0.53044182123E-02  0.10479653424E+00  0.51100000000E-03 0. -1.
         11    1    4    4    0    0  0.19559498241E-01  0.70874502119E-02  0.99088964283E-02  0.23048932109E-01  0.51100000000E-03 0.  1.
</event>
<event>
 8    1  0.1099921E+005  0.1043930E+01  0.7957747E-01            NaN
         13   -1    0    0    0    0  0.00000000000E+00  0.00000000000E+00  0.74505805969E-08  0.10566000000E+00  0.10566000000E+00 0. -1.
     999900   -1    0    0    0    0 -0.00000000000E+00 -0.00000000000E+00 -0.74505805969E-08  0.93827000000E+00  0.93827000000E+00 0. -1.
     999902    2    1    2    0    0  0.19970155969E-01  0.62125654105E-02  0.11204135654E-01  0.10202037328E+01  0.10199278017E+01 0.  0.
     999903    2    3    3    0    0  0.13076666369E-01  0.27441426902E-01 -0.12433379126E+00  0.12954739372E+00  0.19990108931E-01 0.  0.
         14    1    1    2    0    0 -0.19970155969E-01 -0.62125654105E-02 -0.11204135654E-01  0.23726267178E-01  0.00000000000E+00 0.  1.
     999901    1    3    3    0    0  0.68934896004E-02 -0.21228861491E-01  0.13553792692E+00  0.89065633911E+00  0.88000000000E+00 0.  1.
        -11    1    4    4    0    0  0.16522788582E-01  0.11686274822E-01 -0.69818434841E-01  0.72694198712E-01  0.51100000000E-03 0. -1.
         11    1    4    4    0    0 -0.34461222129E-02  0.15755152080E-01 -0.54515356421E-01  0.56853195003E-01  0.51100000000E-03 0.  1.
</event>
<event>
 8    1  0.1099921E+005  0.1043930E+01  0.7957747E-01            NaN
         13   -1    0    0    0    0  0.00000000000E+00  0.00000000000E+00  0.74505805969E-08  0.10566000000E+00  0.10566000000E+00 0.  1.
     999900   -1    0    0    0    0 -0.00000000000E+00 -0.00000000000E+00 -0.74505805969E-08  0.93827000000E+00  0.93827000000E+00 0. -1.
     999902    2    1    2    0    0  0.33636385676E-02  0.14092685672E-01  0.19107638495E-01  0.10199504316E+01  0.10196685065E+01 0.  0.
     999903    2    3    3    0    0 -0.69360159256E-01  0.78769159719E-01  0.78196336594E-01  0.13261550533E+00  0.21372715817E-01 0.  0.
         14    1    1    2    0    0 -0.33636385676E-02 -0.14092685672E-01 -0.19107638495E-01  0.23979568443E-01  0.00000000000E+00 0. -1.
     999901    1    3    3    0    0  0.72723797824E-01 -0.64676474047E-01 -0.59088698099E-01  0.88733492623E+00  0.88000000000E+00 0.  1.
        -11    1    4    4    0    0 -0.29143612573E-01  0.43438915154E-01  0.28506865528E-01  0.59575095525E-01  0.51100000000E-03 0. -1.
         11    1    4    4    0    0 -0.40216546684E-01  0.35330244565E-01  0.49689471066E-01  0.73040409802E-01  0.51100000000E-03 0.  1.
</event>
<event>
 8    1  0.1099921E+005  0.1043930E+01  0.7957747E-01            NaN
         13   -1    0    0    0    0  0.00000000000E+00  0.00000000000E+00  0.74505805969E-08  0.10566000000E+00  0.10566000000E+00 0.  1.
     999900   -1    0    0    0    0 -0.00000000000E+00 -0.00000000000E+00 -0.74505805969E-08  0.93827000000E+00  0.93827000000E+00 0. -1.
     999902    2    1    2    0    0 -0.18451316476E-02 -0.23120437721E-01 -0.65624929475E-02  0.10198255302E+01  0.10195406253E+01 0.  0.
     999903    2    3    3    0    0  0.61684896930E-01  0.79522287506E-01  0.76095283064E-01  0.12774711351E+00  0.20000304628E-01 0.  0.
         14    1    1    2    0    0  0.18451316476E-02  0.23120437721E-01  0.65624929475E-02  0.24104469812E-01  0.00000000000E+00 0. -1.
     999901    1    3    3    0    0 -0.63530028578E-01 -0.10264272523E+00 -0.82657776012E-01  0.89207841668E+00  0.88000000000E+00 0. -1.
        -11    1    4    4    0    0  0.47342955650E-01  0.71416329677E-01  0.67975099117E-01  0.10937331857E+00  0.51100000000E-03 0.  1.
         11    1    4    4    0    0  0.14341941281E-01  0.81059578292E-02  0.81201839478E-02  0.18373794937E-01  0.51100000000E-03 0. -1.
</event>
<event>
 8    1  0.1099921E+005  0.1043930E+01  0.7957747E-01            NaN
         13   -1    0    0    0    0  0.00000000000E+00  0.00000000000E+00  0.74505805969E-08  0.10566000000E+00  0.10566000000E+00 0. -1.
     999900   -1    0    0    0    0 -0.00000000000E+00 -0.00000000000E+00 -0.74505805969E-08  0.93827000000E+00  0.93827000000E+00 0. -1.
     999902    2    1    2    0    0  0.14275975114E-01  0.97491953287E-02 -0.14401533074E-01  0.10214299016E+01  0.10211820550E+01 0.  0.
     999903    2    3    3    0    0 -0.59914942801E-01  0.11461089820E+00 -0.18488006302E-01  0.13209477446E+00  0.19538799992E-01 0.  0.
         14    1    1    2    0    0 -0.14275975114E-01 -0.97491953287E-02  0.14401533074E-01  0.22500098442E-01  0.00000000000E+00 0. -1.
     999901    1    3    3    0    0  0.74190917915E-01 -0.10486170287E+00  0.40864732282E-02  0.88933512710E+00  0.88000000000E+00 0. -1.
        -11    1    4    4    0    0 -0.12724019268E-01  0.37321790118E-01  0.10671768065E-02  0.39448912169E-01  0.51100000000E-03 0.  1.
         11    1    4    4    0    0 -0.47190923533E-01  0.77289108082E-01 -0.19555183109E-01  0.92645862290E-01  0.51100000000E-03 0. -1.
</event>
<event>
 8    1  0.1099921E+005  0.1043930E+01  0.7957747E-01            NaN
         13   -1    0    0    0    0  0.00000000000E+00  0.00000000000E+00  0.74505805969E-08  0.10566000000E+00  0.10566000000E+00 0.  1.
     999900   -1    0    0    0    0 -0.00000000000E+00 -0.00000000000E+00 -0.74505805969E-08  0.93827000000E+00  0.93827000000E+00 0.  1.
     999902    2    1    2    0    0 -0.19630664218E-01  0.30841209978E-02 -0.12440469574E-01  0.10204855963E+01  0.10202162576E+01 0.  0.
     999903    2    3    3    0    0 -0.10868531663E+00 -0.73733419406E-01 -0.33634746099E-02  0.13261507792E+00  0.18064626809E-01 0.  0.
         14    1    1    2    0    0  0.19630664218E-01 -0.30841209978E-02  0.12440469574E-01  0.23444403665E-01  0.00000000000E+00 0.  1.
     999901    1    3    3    0    0  0.89054652415E-01  0.76817540404E-01 -0.90769949642E-02  0.88787051841E+00  0.88000000000E+00 0.  1.
        -11    1    4    4    0    0 -0.50058778897E-01 -0.27855951313E-01  0.59143680202E-02  0.57594064262E-01  0.51100000000E-03 0.  1.
         11    1    4    4    0    0 -0.58626537736E-01 -0.45877468093E-01 -0.92778426301E-02  0.75021013659E-01  0.51100000000E-03 0. -1.
</event>
<event>
 8    1  0.1099921E+005  0.1043930E+01  0.7957747E-01            NaN
         13   -1    0    0    0    0  0.00000000000E+00  0.00000000000E+00  0.74505805969E-08  0.10566000000E+00  0.10566000000E+00 0. -1.
     999900   -1    0    0    0    0 -0.00000000000E+00 -0.00000000000E+00 -0.74505805969E-08  0.93827000000E+00  0.93827000000E+00 0.  1.
     999902    2    1    2    0    0  0.29824272228E-01  0.88427989434E-02  0.16943853384E-01  0.10085071758E+01  0.10078848879E+01 0.  0.
     999903    2    3    3    0    0  0.53280066915E-02 -0.99666013441E-01 -0.60155791946E-01  0.11815972412E+00  0.19526884281E-01 0.  0.
         14    1    1    2    0    0 -0.29824272228E-01 -0.88427989434E-02 -0.16943853384E-01  0.35422824204E-01  0.00000000000E+00 0.  1.
     999901    1    3    3    0    0  0.24496265536E-01  0.10850881238E+00  0.77099645330E-01  0.89034745167E+00  0.88000000000E+00 0.  1.
        -11    1    4    4    0    0  0.30739634768E-02 -0.92749257264E-01 -0.49305750735E-01  0.10508659358E+00  0.51100000000E-03 0.  1.
         11    1    4    4    0    0  0.22540432147E-02 -0.69167561771E-02 -0.10850041211E-01  0.13073130540E-01  0.51100000000E-03 0. -1.
</event>
<event>
 8    1  0.1099921E+005  0.1043930E+01  0.7957747E-01            NaN
         13   -1    0    0    0    0  0.00000000000E+00  0.00000000000E+00  0.74505805969E-08  0.10566000000E+00  0.10566000000E+00 0.  1.
     999900   -1    0    0    0    0 -0.00000000000E+00 -0.00000000000E+00 -0.74505805969E-08  0.93827000000E+00  0.93827000000E+00 0. -1.
     999902    2    1    2    0    0  0.26618846536E-02 -0.23617059839E-01 -0.96623149290E-02  0.10182743676E+01  0.10179511168E+01 0.  0.
     999903    2    3    3    0    0 -0.29634191639E-01  0.16961649409E-01  0.12091894632E+00  0.12712840087E+00  0.19348278018E-01 0.  0.
         14    1    1    2    0    0 -0.26618846536E-02  0.23617059839E-01  0.96623149290E-02  0.25655632425E-01  0.00000000000E+00 0.  1.
     999901    1    3    3    0    0  0.32296076293E-01 -0.40578709248E-01 -0.13058126125E+00  0.89114596671E+00  0.88000000000E+00 0. -1.
        -11    1    4    4    0    0 -0.12226540854E-01  0.17169175170E-01  0.78279496872E-01  0.81069165709E-01  0.51100000000E-03 0. -1.
         11    1    4    4    0    0 -0.17407650786E-01 -0.20752576020E-03  0.42639449452E-01  0.46059235158E-01  0.51100000000E-03 0.  1.
</event>
<event>
 8    1  0.1099921E+005  0.1043930E+01  0.7957747E-01            NaN
         13   -1    0    0    0    0  0.00000000000E+00  0.00000000000E+00  0.74505805969E-08  0.10566000000E+00  0.10566000000E+00 0. -1.
     999900   -1    0    0    0    0 -0.00000000000E+00 -0.00000000000E+00 -0.74505805969E-08  0.93827000000E+00  0.93827000000E+00 0. -1.
     999902    2    1    2    0    0 -0.10436233320E-01 -0.15152793195E-01  0.16217168399E-01  0.10194041227E+01  0.10191090455E+01 0.  0.
     999903    2    3    3    0    0 -0.70615223567E-02  0.13014492873E-01  0.12928034394E+00  0.13171720358E+00  0.20415000987E-01 0.  0.
         14    1    1    2    0    0  0.10436233320E-01  0.15152793195E-01 -0.16217168399E-01  0.24525877322E-01  0.00000000000E+00 0.  1.
     999901    1    3    3    0    0 -0.33747109634E-02 -0.28167286068E-01 -0.11306317554E+00  0.88768691910E+00  0.88000000000E+00 0. -1.
        -11    1    4    4    0    0  0.76589195684E-03  0.16576779575E-01  0.85883148532E-01  0.87473153220E-01  0.51100000000E-03 0. -1.
         11    1    4    4    0    0 -0.78274143136E-02 -0.35622867022E-02  0.43397195411E-01  0.44244050357E-01  0.51100000000E-03 0.  1.
</event>
<event>
 7    1  0.1099921E+005  0.1043930E+01  0.7957747E-01            NaN
         13   -1    0    0    0    0  0.00000000000E+00  0.00000000000E+00  0.74505805969E-08  0.10566000000E+00  0.10566000000E+00 0.  1.
     999900   -1    0    0    0    0 -0.00000000000E+00 -0.00000000000E+00 -0.74505805969E-08  0.93827000000E+00  0.93827000000E+00 0.  1.
     999903    2    1    2    0    0 -0.28817318958E-02  0.10710552620E+00  0.38312211788E-01  0.11548204147E+00  0.19707313597E-01 0.  0.
         14    1    1    2    0    0 -0.10932212958E-02 -0.15190074197E-01 -0.40904939938E-01  0.43647996497E-01  0.00000000000E+00 0. -1.
     999901    1    1    2    0    0  0.39749531916E-02 -0.91915452003E-01  0.25927281502E-02  0.88479996203E+00  0.88000000000E+00 0.  1.
        -11    1    3    3    0    0 -0.12645425945E-02  0.29234521699E-01  0.14290182163E-02  0.29301186683E-01  0.51100000000E-03 0.  1.
         11    1    3    3    0    0 -0.16171893013E-02  0.77871004501E-01  0.36883193571E-01  0.86180854789E-01  0.51100000000E-03 0. -1.
</event>
<event>
 8    1  0.1099921E+005  0.1043930E+01  0.7957747E-01            NaN
         13   -1    0    0    0    0  0.00000000000E+00  0.00000000000E+00  0.74505805969E-08  0.10566000000E+00  0.10566000000E+00 0. -1.
     999900   -1    0    0    0    0 -0.00000000000E+00 -0.00000000000E+00 -0.74505805969E-08  0.93827000000E+00  0.93827000000E+00 0.  1.
     999902    2    1    2    0    0  0.12449946796E-01  0.16338758420E-01 -0.91363139102E-02  0.10214482644E+01  0.10212008267E+01 0.  0.
     999903    2    3    3    0    0  0.81437844402E-01  0.82032406277E-01 -0.65825277868E-01  0.13449357336E+00  0.19852352240E-01 0.  0.
         14    1    1    2    0    0 -0.12449946796E-01 -0.16338758420E-01  0.91363139102E-02  0.22481735560E-01  0.00000000000E+00 0. -1.
     999901    1    3    3    0    0 -0.68987897606E-01 -0.65693647857E-01  0.56688963958E-01  0.88695469107E+00  0.88000000000E+00 0. -1.
        -11    1    4    4    0    0  0.25138335043E-01  0.23235871628E-01 -0.30127726549E-01  0.45604634052E-01  0.51100000000E-03 0. -1.
         11    1    4    4    0    0  0.56299509360E-01  0.58796534649E-01 -0.35697551319E-01  0.88888939312E-01  0.51100000000E-03 0.  1.
</event>
<event>
 8    1  0.1099921E+005  0.1043930E+01  0.7957747E-01            NaN
         13   -1    0    0    0    0  0.00000000000E+00  0.00000000000E+00  0.74505805969E-08  0.10566000000E+00  0.10566000000E+00 0. -1.
     999900   -1    0    0    0    0 -0.00000000000E+00 -0.00000000000E+00 -0.74505805969E-08  0.93827000000E+00  0.93827000000E+00 0. -1.
     999902    2    1    2    0    0  0.47344242567E-02 -0.18031504205E-01 -0.14858275523E-01  0.10200905732E+01  0.10198119725E+01 0.  0.
     999903    2    3    3    0    0 -0.10561358015E+00  0.70083035443E-01  0.62530947213E-02  0.12858255638E+00  0.20700542080E-01 0.  0.
         14    1    1    2    0    0 -0.47344242567E-02  0.18031504205E-01  0.14858275523E-01  0.23839426764E-01  0.00000000000E+00 0.  1.
     999901    1    3    3    0    0  0.11034800440E+00 -0.88114539648E-01 -0.21111370244E-01  0.89150801686E+00  0.88000000000E+00 0.  1.
        -11    1    4    4    0    0 -0.28340492491E-01  0.26999947909E-01  0.85920515223E-02  0.40078238136E-01  0.51100000000E-03 0.  1.
         11    1    4    4    0    0 -0.77273087654E-01  0.43083087533E-01 -0.23389568010E-02  0.88504318239E-01  0.51100000000E-03 0. -1.
</event>
<event>
 8    1  0.1099921E+005  0.1043930E+01  0.7957747E-01            NaN
         13   -1    0    0    0    0  0.00000000000E+00  0.00000000000E+00  0.74505805969E-08  0.10566000000E+00  0.10566000000E+00 0.  1.
     999900   -1    0    0    0    0 -0.00000000000E+00 -0.00000000000E+00 -0.74505805969E-08  0.93827000000E+00  0.93827000000E+00 0. -1.
     999902    2    1    2    0    0 -0.16977926980E-01  0.13346499958E-01  0.11267999802E-01  0.10195712873E+01  0.10192802671E+01 0.  0.
     999903    2    3    3    0    0 -0.13429462575E-02 -0.12682583204E+00  0.46020472123E-02  0.12831533628E+00  0.18895806633E-01 0.  0.
         14    1    1    2    0    0  0.16977926980E-01 -0.13346499958E-01 -0.11267999802E-01  0.24358712717E-01  0.00000000000E+00 0. -1.
     999901    1    3    3    0    0 -0.15634980723E-01  0.14017233200E+00  0.66659525897E-02  0.89125595101E+00  0.88000000000E+00 0.  1.
        -11    1    4    4    0    0  0.19575441026E-02 -0.43342756983E-01  0.10218355398E-01  0.44576927550E-01  0.51100000000E-03 0.  1.
         11    1    4    4    0    0 -0.33004903601E-02 -0.83483075056E-01 -0.56163081854E-02  0.83738408727E-01  0.51100000000E-03 0. -1.
</event>
<event>
 8    1  0.1099921E+005  0.1043930E+01  0.7957747E-01            NaN
         13   -1    0    0    0    0  0.00000000000E+00  0.00000000000E+00  0.74505805969E-08  0.10566000000E+00  0.10566000000E+00 0. -1.
     999900   -1    0    0    0    0 -0.00000000000E+00 -0.00000000000E+00 -0.74505805969E-08  0.93827000000E+00  0.93827000000E+00 0.  1.
     999902    2    1    2    0    0  0.19275579940E-01  0.85980879361E-02 -0.97814024185E-02  0.10206673490E+01  0.10204022179E+01 0.  0.
     999903    2    3    3    0    0  0.12214452492E+00 -0.45146303699E-01  0.16730694043E-01  0.13265081158E+00  0.18943283347E-01 0.  0.
         14    1    1    2    0    0 -0.19275579940E-01 -0.85980879361E-02  0.97814024185E-02  0.23262650998E-01  0.00000000000E+00 0.  1.
     999901    1    3    3    0    0 -0.10286894498E+00  0.53744391635E-01 -0.26512096461E-01  0.88801653742E+00  0.88000000000E+00 0.  1.
        -11    1    4    4    0    0  0.61629948243E-01 -0.24696643429E-01 -0.83445756620E-03  0.66401296354E-01  0.51100000000E-03 0.  1.
         11    1    4    4    0    0  0.60514576679E-01 -0.20449660270E-01  0.17565151609E-01  0.66249515227E-01  0.51100000000E-03 0. -1.
</event>
<event>
 8    1  0.1099921E+005  0.1043930E+01  0.7957747E-01            NaN
         13   -1    0    0    0    0  0.00000000000E+00  0.00000000000E+00  0.74505805969E-08  0.10566000000E+00  0.10566000000E+00 0.  1.
     999900   -1    0    0    0    0 -0.00000000000E+00 -0.00000000000E+00 -0.74505805969E-08  0.93827000000E+00  0.93827000000E+00 0. -1.
     999902    2    1    2    0    0 -0.13453238742E-01 -0.13580874166E-01  0.15562712189E-01  0.10192798928E+01  0.10189817820E+01 0.  0.
     999903    2    3    3    0    0 -0.18370084039E-02 -0.12898707123E+00 -0.11976783690E-01  0.13124163292E+00  0.20973405023E-01 0.  0.
         14    1    1    2    0    0  0.13453238742E-01  0.13580874166E-01 -0.15562712189E-01  0.24650107230E-01  0.00000000000E+00 0.  1.
     999901    1    3    3    0    0 -0.11616230338E-01  0.11540619707E+00  0.27539495879E-01  0.88803825985E+00  0.88000000000E+00 0.  1.
        -11    1    4    4    0    0 -0.10706199477E-01 -0.82232482945E-01 -0.43388892081E-02  0.83041501908E-01  0.51100000000E-03 0.  1.
         11    1    4    4    0    0  0.88691910735E-02 -0.46754588287E-01 -0.76378944816E-02  0.48200131009E-01  0.51100000000E-03 0. -1.
</event>
<event>
 8    1  0.1099921E+005  0.1043930E+01  0.7957747E-01            NaN
         13   -1    0    0    0    0  0.00000000000E+00  0.00000000000E+00  0.74505805969E-08  0.10566000000E+00  0.10566000000E+00 0.  1.
     999900   -1    0    0    0    0 -0.00000000000E+00 -0.00000000000E+00 -0.74505805969E-08  0.93827000000E+00  0.93827000000E+00 0. -1.
     999902    2    1    2    0    0  0.11502071687E-01 -0.12555270352E-01 -0.16607982367E-01  0.10201443416E+01  0.10198670110E+01 0.  0.
     999903    2    3    3    0    0  0.10774332117E+00  0.61339573555E-01 -0.38181386078E-01  0.13155656440E+00  0.21866523607E-01 0.  0.
         14    1    1    2    0    0 -0.11502071687E-01  0.12555270352E-01  0.16607982367E-01  0.23785658389E-01  0.00000000000E+00 0.  1.
     999901    1    3    3    0    0 -0.96241249480E-01 -0.73894843907E-01  0.21573403711E-01  0.88858777721E+00  0.88000000000E+00 0. -1.
        -11    1    4    4    0    0  0.31931624446E-01  0.28786377126E-01 -0.81901206126E-02  0.43767834587E-01  0.51100000000E-03 0.  1.
         11    1    4    4    0    0  0.75811696720E-01  0.32553196429E-01 -0.29991265465E-01  0.87788729815E-01  0.51100000000E-03 0. -1.
</event>
<event>
 8    1  0.1099921E+005  0.1043930E+01  0.7957747E-01            NaN
         13   -1    0    0    0    0  0.00000000000E+00  0.00000000000E+00  0.74505805969E-08  0.10566000000E+00  0.10566000000E+00 0. -1.
     999900   -1    0    0    0    0 -0.00000000000E+00 -0.00000000000E+00 -0.74505805969E-08  0.93827000000E+00  0.93827000000E+00 0. -1.
     999902    2    1    2    0    0 -0.18634518053E-01 -0.11891974534E-01 -0.46873066457E-02  0.10213327620E+01  0.10210827467E+01 0.  0.
     999903    2    3    3    0    0 -0.11009660718E+00 -0.73919888422E-01  0.68451864214E-02  0.13434585441E+00  0.20409292101E-01 0.  0.
         14    1    1    2    0    0  0.18634518053E-01  0.11891974534E-01  0.46873066457E-02  0.22597237995E-01  0.00000000000E+00 0. -1.
     999901    1    3    3    0    0  0.91462089123E-01  0.62027913888E-01 -0.11532493067E-01  0.88698690759E+00  0.88000000000E+00 0. -1.
        -11    1    4    4    0    0 -0.53558497380E-02 -0.21498935417E-02  0.45274666281E-02  0.73529751615E-02  0.51100000000E-03 0. -1.
         11    1    4    4    0    0 -0.10474075744E+00 -0.71769994881E-01  0.23177197932E-02  0.12699287925E+00  0.51100000000E-03 0.  1.
</event>
<event>
 8    1  0.1099921E+005  0.1043930E+01  0.7957747E-01            NaN
         13   -1    0    0    0    0  0.00000000000E+00  0.00000000000E+00  0.74505805969E-08  0.10566000000E+00  0.10566000000E+00 0. -1.
     999900   -1    0    0    0    0 -0.00000000000E+00 -0.00000000000E+00 -0.74505805969E-08  0.93827000000E+00  0.93827000000E+00 0. -1.
     999902    2    1    2    0    0  0.16105864742E-01 -0.73708360290E-02 -0.13192131910E-01  0.10218447007E+01  0.10216060062E+01 0.  0.
     999903    2    3    3    0    0  0.28247635079E-01 -0.10031415454E+00  0.78402325326E-01  0.13213945304E+00  0.21285016884E-01 0.  0.
         14    1    1    2    0    0 -0.16105864742E-01  0.73708360290E-02  0.13192131910E-01  0.22085299346E-01  0.00000000000E+00 0. -1.
     999901    1    3    3    0    0 -0.12141770336E-01  0.92943318510E-01 -0.91594457236E-01  0.88970524762E+00  0.88000000000E+00 0. -1.
        -11    1    4    4    0    0  0.74626023515E-02 -0.42328689039E-01  0.44312895521E-01  0.61735744752E-01  0.51100000000E-03 0. -1.
         11    1    4    4    0    0  0.20785032727E-01 -0.57985465500E-01  0.34089429805E-01  0.70403708284E-01  0.51100000000E-03 0.  1.
</event>
<event>
 7    1  0.1099921E+005  0.1043930E+01  0.7957747E-01            NaN
         13   -1    0    0    0    0  0.00000000000E+00  0.00000000000E+00  0.74505805969E-08  0.10566000000E+00  0.10566000000E+00 0. -1.
     999900   -1    0    0    0    0 -0.00000000000E+00 -0.00000000000E+00 -0.74505805969E-08  0.93827000000E+00  0.93827000000E+00 0. -1.
     999903    2    1    2    0    0 -0.12175311075E-01 -0.67379855308E-01  0.51414441755E-01  0.87856485903E-01  0.19673184623E-01 0.  0.
         14    1    1    2    0    0 -0.13326495178E-01 -0.60316627617E-01 -0.23385330037E-01  0.66049713866E-01  0.00000000000E+00 0. -1.
     999901    1    1    2    0    0  0.25501806253E-01  0.12769648292E+00 -0.28029111718E-01  0.89002380023E+00  0.88000000000E+00 0. -1.
        -11    1    3    3    0    0  0.36869094024E-02 -0.26388966477E-01  0.13840705414E-01  0.30029936730E-01  0.51100000000E-03 0.  1.
         11    1    3    3    0    0 -0.15862220477E-01 -0.40990888831E-01  0.37573736342E-01  0.57826549173E-01  0.51100000000E-03 0. -1.
</event>
<event>
 8    1  0.1099921E+005  0.1043930E+01  0.7957747E-01            NaN
         13   -1    0    0    0    0  0.00000000000E+00  0.00000000000E+00  0.74505805969E-08  0.10566000000E+00  0.10566000000E+00 0.  1.
     999900   -1    0    0    0    0 -0.00000000000E+00 -0.00000000000E+00 -0.74505805969E-08  0.93827000000E+00  0.93827000000E+00 0. -1.
     999902    2    1    2    0    0 -0.64894568109E-02  0.19647592532E-01  0.11241401349E-01  0.10203819630E+01  0.10201102099E+01 0.  0.
     999903    2    3    3    0    0  0.71489970302E-01 -0.66819004046E-01  0.83152643047E-01  0.12980434704E+00  0.18952870738E-01 0.  0.
         14    1    1    2    0    0  0.64894568109E-02 -0.19647592532E-01 -0.11241401349E-01  0.23548036994E-01  0.00000000000E+00 0. -1.
     999901    1    3    3    0    0 -0.77979427113E-01  0.86466596578E-01 -0.71911241699E-01  0.89057761597E+00  0.88000000000E+00 0. -1.
        -11    1    4    4    0    0  0.14280586392E-01 -0.18748536700E-01  0.29751871229E-01  0.37958895383E-01  0.51100000000E-03 0.  1.
         11    1    4    4    0    0  0.57209383910E-01 -0.48070467345E-01  0.53400771818E-01  0.91845451657E-01  0.51100000000E-03 0. -1.
</event>
<event>
 8    1  0.1099921E+005  0.1043930E+01  0.7957747E-01            NaN
         13   -1    0    0    0    0  0.00000000000E+00  0.00000000000E+00  0.74505805969E-08  0.10566000000E+00  0.10566000000E+00 0.  1.
     999900   -1    0    0    0    0 -0.00000000000E+00 -0.00000000000E+00 -0.74505805969E-08  0.93827000000E+00  0.93827000000E+00 0.  1.
     999902    2    1    2    0    0 -0.18432780037E-02  0.22789087801E-01  0.58654388043E-02  0.10203261111E+01  0.10200530523E+01 0.  0.
     999903    2    3    3    0    0  0.14528693941E-01  0.13074274779E+00  0.10393562116E-01  0.13356653941E+00  0.20669912133E-01 0.  0.
         14    1    1    2    0    0  0.18432780037E-02 -0.22789087801E-01 -0.58654388043E-02  0.23603888852E-01  0.00000000000E+00 0.  1.
     999901    1    3    3    0    0 -0.16371971944E-01 -0.10795365999E+00 -0.45281233121E-02  0.88675957174E+00  0.88000000000E+00 0.  1.
        -11    1    4    4    0    0  0.21162610572E-02  0.45979523091E-01 -0.57539623506E-02  0.46389269323E-01  0.51100000000E-03 0. -1.
         11    1    4    4    0    0  0.12412432884E-01  0.84763224703E-01  0.16147524467E-01  0.87177270085E-01  0.51100000000E-03 0.  1.
</event>
<event>
 8    1  0.1099921E+005  0.1043930E+01  0.7957747E-01            NaN
         13   -1    0    0    0    0  0.00000000000E+00  0.00000000000E+00  0.74505805969E-08  0.10566000000E+00  0.10566000000E+00 0.  1.
     999900   -1    0    0    0    0 -0.00000000000E+00 -0.00000000000E+00 -0.74505805969E-08  0.93827000000E+00  0.93827000000E+00 0. -1.
     999902    2    1    2    0    0  0.54461105662E-03 -0.24146534130E-02 -0.12342172520E-01  0.10313420544E+01  0.10312652310E+01 0.  0.
     999903    2    3    3    0    0 -0.63370342144E-01  0.30619713073E-01 -0.12150233623E+00  0.14168350643E+00  0.18921712223E-01 0.  0.
         14    1    1    2    0    0 -0.54461105662E-03  0.24146534130E-02  0.12342172520E-01  0.12587945615E-01  0.00000000000E+00 0.  1.
     999901    1    3    3    0    0  0.63914953200E-01 -0.33034366486E-01  0.10916016371E+00  0.88965854796E+00  0.88000000000E+00 0.  1.
        -11    1    4    4    0    0 -0.42557308163E-01  0.12189681228E-01 -0.64111004144E-01  0.77911454741E-01  0.51100000000E-03 0. -1.
         11    1    4    4    0    0 -0.20813033981E-01  0.18430031845E-01 -0.57391332082E-01  0.63772051687E-01  0.51100000000E-03 0.  1.
</event>
<event>
 8    1  0.1099921E+005  0.1043930E+01  0.7957747E-01            NaN
         13   -1    0    0    0    0  0.00000000000E+00  0.00000000000E+00  0.74505805969E-08  0.10566000000E+00  0.10566000000E+00 0. -1.
     999900   -1    0    0    0    0 -0.00000000000E+00 -0.00000000000E+00 -0.74505805969E-08  0.93827000000E+00  0.93827000000E+00 0. -1.
     999902    2    1    2    0    0 -0.20090467539E-01  0.11029403814E-01 -0.68189028063E-02  0.10200182441E+01  0.10197379302E+01 0.  0.
     999903    2    3    3    0    0  0.79558590422E-01  0.71541547232E-01 -0.71144235342E-01  0.13000172591E+00  0.19778377774E-01 0.  0.
         14    1    1    2    0    0  0.20090467539E-01 -0.11029403814E-01  0.68189028063E-02  0.23911755893E-01  0.00000000000E+00 0. -1.
     999901    1    3    3    0    0 -0.99649057961E-01 -0.60512143418E-01  0.64325332536E-01  0.89001651819E+00  0.88000000000E+00 0.  1.
        -11    1    4    4    0    0  0.14996992780E-01  0.87584329519E-02 -0.44432058001E-02  0.17933854549E-01  0.51100000000E-03 0.  1.
         11    1    4    4    0    0  0.64561597643E-01  0.62783114280E-01 -0.66701029542E-01  0.11206787136E+00  0.51100000000E-03 0. -1.
</event>
<event>
 8    1  0.1099921E+005  0.1043930E+01  0.7957747E-01            NaN
         13   -1    0    0    0    0  0.00000000000E+00  0.00000000000E+00  0.74505805969E-08  0.10566000000E+00  0.10566000000E+00 0.  1.
     999900   -1    0    0    0    0 -0.00000000000E+00 -0.00000000000E+00 -0.74505805969E-08  0.93827000000E+00  0.93827000000E+00 0.  1.
     999902    2    1    2    0    0 -0.19005158655E-01 -0.12756792286E-01  0.90118544329E-02  0.10193302983E+01  0.10190334203E+01 0.  0.
     999903    2    3    3    0    0 -0.99357402612E-01  0.81976404015E-01  0.74866845022E-02  0.13060470072E+00  0.20236430934E-01 0.  0.
         14    1    1    2    0    0  0.19005158655E-01  0.12756792286E-01 -0.90118544329E-02  0.24599701731E-01  0.00000000000E+00 0. -1.
     999901    1    3    3    0    0  0.80352243957E-01 -0.94733196301E-01  0.15251699307E-02  0.88872559755E+00  0.88000000000E+00 0.  1.
        -11    1    4    4    0    0 -0.73044035696E-01  0.68028264037E-01 -0.29907170319E-03  0.99817966436E-01  0.51100000000E-03 0.  1.
         11    1    4    4    0    0 -0.26313366917E-01  0.13948139978E-01  0.77857562054E-02  0.30786734286E-01  0.51100000000E-03 0. -1.
</event>
<event>
 8    1  0.1099921E+005  0.1043930E+01  0.7957747E-01            NaN
         13   -1    0    0    0    0  0.00000000000E+00  0.00000000000E+00  0.74505805969E-08  0.10566000000E+00  0.10566000000E+00 0.  1.
     999900   -1    0    0    0    0 -0.00000000000E+00 -0.00000000000E+00 -0.74505805969E-08  0.93827000000E+00  0.93827000000E+00 0.  1.
     999902    2    1    2    0    0 -0.15151400527E-01  0.20354284864E-02 -0.18950398235E-01  0.10195819919E+01  0.10192912305E+01 0.  0.
     999903    2    3    3    0    0 -0.83506986727E-01 -0.53220979699E-01 -0.85985696158E-01  0.13266627547E+00  0.20022766835E-01 0.  0.
         14    1    1    2    0    0  0.15151400527E-01 -0.20354284864E-02  0.18950398235E-01  0.24348008139E-01  0.00000000000E+00 0. -1.
     999901    1    3    3    0    0  0.68355586200E-01  0.55256408185E-01  0.67035297923E-01  0.88691571639E+00  0.88000000000E+00 0. -1.
        -11    1    4    4    0    0 -0.46615815338E-01 -0.40187308472E-01 -0.47119980079E-01  0.77515209123E-01  0.51100000000E-03 0.  1.
         11    1    4    4    0    0 -0.36891171389E-01 -0.13033671227E-01 -0.38865716079E-01  0.55151066349E-01  0.51100000000E-03 0. -1.
</event>
<event>
 8    1  0.1099921E+005  0.1043930E+01  0.7957747E-01            NaN
         13   -1    0    0    0    0  0.00000000000E+00  0.00000000000E+00  0.74505805969E-08  0.10566000000E+00  0.10566000000E+00 0.  1.
     999900   -1    0    0    0    0 -0.00000000000E+00 -0.00000000000E+00 -0.74505805969E-08  0.93827000000E+00  0.93827000000E+00 0.  1.
     999902    2    1    2    0    0  0.26244840354E-02  0.23434028653E-01  0.69250976153E-03  0.10203392988E+01  0.10200665485E+01 0.  0.
     999903    2    3    3    0    0 -0.94218029886E-01  0.52627020244E-01 -0.72393406904E-01  0.13153546524E+00  0.20350253984E-01 0.  0.
         14    1    1    2    0    0 -0.26244840354E-02 -0.23434028653E-01 -0.69250976153E-03  0.23590701243E-01  0.00000000000E+00 0.  1.
     999901    1    3    3    0    0  0.96842513922E-01 -0.29192991591E-01  0.73085916665E-01  0.88880383352E+00  0.88000000000E+00 0. -1.
        -11    1    4    4    0    0 -0.52445134657E-01  0.26217504023E-01 -0.27490104811E-01  0.64759683831E-01  0.51100000000E-03 0. -1.
         11    1    4    4    0    0 -0.41772895229E-01  0.26409516221E-01 -0.44903302093E-01  0.66775781408E-01  0.51100000000E-03 0.  1.
</event>
<event>
 8    1  0.1099921E+005  0.1043930E+01  0.7957747E-01            NaN
         13   -1    0    0    0    0  0.00000000000E+00  0.00000000000E+00  0.74505805969E-08  0.10566000000E+00  0.10566000000E+00 0. -1.
     999900   -1    0    0    0    0 -0.00000000000E+00 -0.00000000000E+00 -0.74505805969E-08  0.93827000000E+00  0.93827000000E+00 0. -1.
     999902    2    1    2    0    0  0.18308678319E-01  0.14891354260E-01  0.78878859561E-02  0.10190466948E+01  0.10187428465E+01 0.  0.
     999903    2    3    3    0    0  0.14451273546E-01  0.98548087557E-01 -0.81523777794E-01  0.13056046855E+00  0.21893942857E-01 0.  0.
         14    1    1    2    0    0 -0.18308678319E-01 -0.14891354260E-01 -0.78878859561E-02  0.24883305214E-01  0.00000000000E+00 0. -1.
     999901    1    3    3    0    0  0.38574047732E-02 -0.83656733297E-01  0.89411663751E-01  0.88848622624E+00  0.88000000000E+00 0.  1.
        -11    1    4    4    0    0  0.11237433360E-01  0.30947261719E-01 -0.37094062930E-01  0.49600842151E-01  0.51100000000E-03 0. -1.
         11    1    4    4    0    0  0.32138401858E-02  0.67600825838E-01 -0.44429714865E-01  0.80959626399E-01  0.51100000000E-03 0.  1.
</event>
<event>
 8    1  0.1099921E+005  0.1043930E+01  0.7957747E-01            NaN
         13   -1    0    0    0    0  0.00000000000E+00  0.00000000000E+00  0.74505805969E-08  0.10566000000E+00  0.10566000000E+00 0.  1.
     999900   -1    0    0    0    0 -0.00000000000E+00 -0.00000000000E+00 -0.74505805969E-08  0.93827000000E+00  0.93827000000E+00 0.  1.
     999902    2    1    2    0    0  0.44709152875E-02 -0.12886496351E-01  0.18289434726E-01  0.10211143410E+01  0.10208594140E+01 0.  0.
     999903    2    3    3    0    0  0.56314828526E-01 -0.94514344608E-01 -0.69160814483E-01  0.13150856146E+00  0.20173304868E-01 0.  0.
         14    1    1    2    0    0 -0.44709152875E-02  0.12886496351E-01 -0.18289434726E-01  0.22815658972E-01  0.00000000000E+00 0. -1.
     999901    1    3    3    0    0 -0.51843913238E-01  0.81627848257E-01  0.87450249209E-01  0.88960577957E+00  0.88000000000E+00 0.  1.
        -11    1    4    4    0    0  0.31342553187E-01 -0.41495429539E-01 -0.42313479611E-01  0.67044149563E-01  0.51100000000E-03 0.  1.
         11    1    4    4    0    0  0.24972275338E-01 -0.53018915069E-01 -0.26847334872E-01  0.64464411898E-01  0.51100000000E-03 0. -1.
</event>
<event>
 8    1  0.1099921E+005  0.1043930E+01  0.7957747E-01            NaN
         13   -1    0    0    0    0  0.00000000000E+00  0.00000000000E+00  0.74505805969E-08  0.10566000000E+00  0.10566000000E+00 0. -1.
     999900   -1    0    0    0    0 -0.00000000000E+00 -0.00000000000E+00 -0.74505805969E-08  0.93827000000E+00  0.93827000000E+00 0.  1.
     999902    2    1    2    0    0 -0.20266494398E-01  0.57864024343E-02  0.10785705204E-01  0.10202541751E+01  0.10199794297E+01 0.  0.
     999903    2    3    3    0    0 -0.95380059651E-01 -0.75599362548E-01  0.47675782361E-01  0.13254556963E+00  0.21971081154E-01 0.  0.
         14    1    1    2    0    0  0.20266494398E-01 -0.57864024343E-02 -0.10785705204E-01  0.23675824908E-01  0.00000000000E+00 0.  1.
     999901    1    3    3    0    0  0.75113565253E-01  0.81385764982E-01 -0.36890077157E-01  0.88770860547E+00  0.88000000000E+00 0.  1.
        -11    1    4    4    0    0 -0.64018614438E-01 -0.52333257333E-01  0.21196338921E-01  0.85362162123E-01  0.51100000000E-03 0.  1.
         11    1    4    4    0    0 -0.31361445213E-01 -0.23266105215E-01  0.26479443440E-01  0.47183407503E-01  0.51100000000E-03 0. -1.
</event>
<event>
 8    1  0.1099921E+005  0.1043930E+01  0.7957747E-01            NaN
         13   -1    0    0    0    0  0.00000000000E+00  0.00000000000E+00  0.74505805969E-08  0.10566000000E+00  0.10566000000E+00 0. -1.
     999900   -1    0    0    0    0 -0.00000000000E+00 -0.00000000000E+00 -0.74505805969E-08  0.93827000000E+00  0.93827000000E+00 0.  1.
     999902    2    1    2    0    0 -0.23337043315E-01  0.30695217127E-02  0.30334564012E-02  0.10201972924E+01  0.10199212097E+01 0.  0.
     999903    2    3    3    0    0  0.10248495123E+00  0.52256318429E-01  0.53401518567E-01  0.12846445290E+00  0.20432949621E-01 0.  0.
         14    1    1    2    0    0  0.23337043315E-01 -0.30695217127E-02 -0.30334564012E-02  0.23732707641E-01  0.00000000000E+00 0.  1.
     999901    1    3    3    0    0 -0.12582199454E+00 -0.49186796717E-01 -0.50368062166E-01  0.89173283946E+00  0.88000000000E+00 0.  1.
        -11    1    4    4    0    0  0.28279730780E-01  0.22894003894E-01  0.23093838494E-01  0.43098318815E-01  0.51100000000E-03 0.  1.
         11    1    4    4    0    0  0.74205220446E-01  0.29362314535E-01  0.30307680073E-01  0.85366134086E-01  0.51100000000E-03 0. -1.
</event>
<event>
 8    1  0.1099921E+005  0.1043930E+01  0.7957747E-01            NaN
         13   -1    0    0    0    0  0.00000000000E+00  0.00000000000E+00  0.74505805969E-08  0.10566000000E+00  0.10566000000E+00 0.  1.
     999900   -1    0    0    0    0 -0.00000000000E+00 -0.00000000000E+00 -0.74505805969E-08  0.93827000000E+00  0.93827000000E+00 0.  1.
     999902    2    1    2    0    0  0.12216853342E-01 -0.12358596316E-01  0.16180290895E-01  0.10201857750E+01  0.10199094211E+01 0.  0.
     999903    2    3    3    0    0  0.25129256758E-01 -0.92759451680E-01 -0.85554270150E-01  0.13058982815E+00  0.22324306333E-01 0.  0.
         14    1    1    2    0    0 -0.12216853342E-01  0.12358596316E-01 -0.16180290895E-01  0.23744225023E-01  0.00000000000E+00 0. -1.
     999901    1    3    3    0    0 -0.12912403415E-01  0.80400855364E-01  0.10173456105E+00  0.88959594683E+00  0.88000000000E+00 0. -1.
        -11    1    4    4    0    0  0.15088198514E-02 -0.39819257249E-01 -0.43334179851E-01  0.58872421809E-01  0.51100000000E-03 0. -1.
         11    1    4    4    0    0  0.23620436906E-01 -0.52940194431E-01 -0.42220090299E-01  0.71717406338E-01  0.51100000000E-03 0.  1.
</event>
<event>
 8    1  0.1099921E+005  0.1043930E+01  0.7957747E-01            NaN
         13   -1    0    0    0    0  0.00000000000E+00  0.00000000000E+00  0.74505805969E-08  0.10566000000E+00  0.10566000000E+00 0. -1.
     999900   -1    0    0    0    0 -0.00000000000E+00 -0.00000000000E+00 -0.74505805969E-08  0.93827000000E+00  0.93827000000E+00 0.  1.
     999902    2    1    2    0    0  0.19839643512E-01 -0.48954493846E-02 -0.10947448751E-01  0.10207476034E+01  0.10204843195E+01 0.  0.
     999903    2    3    3    0    0 -0.60922324245E-01  0.10718663119E+00 -0.34882140419E-01  0.12964841827E+00  0.19784972611E-01 0.  0.
         14    1    1    2    0    0 -0.19839643512E-01  0.48954493846E-02  0.10947448751E-01  0.23182396630E-01  0.00000000000E+00 0. -1.
     999901    1    3    3    0    0  0.80761967757E-01 -0.11208208058E+00  0.23934691668E-01  0.89109918510E+00  0.88000000000E+00 0. -1.
        -11    1    4    4    0    0 -0.46441964450E-01  0.62640381134E-01 -0.20123926053E-01  0.80535128555E-01  0.51100000000E-03 0. -1.
         11    1    4    4    0    0 -0.14480359795E-01  0.44546250061E-01 -0.14758214366E-01  0.49113289714E-01  0.51100000000E-03 0.  1.
</event>
<event>
 8    1  0.1099921E+005  0.1043930E+01  0.7957747E-01            NaN
         13   -1    0    0    0    0  0.00000000000E+00  0.00000000000E+00  0.74505805969E-08  0.10566000000E+00  0.10566000000E+00 0.  1.
     999900   -1    0    0    0    0 -0.00000000000E+00 -0.00000000000E+00 -0.74505805969E-08  0.93827000000E+00  0.93827000000E+00 0. -1.
     999902    2    1    2    0    0 -0.20701598550E-01  0.62394720710E-02  0.96252302200E-02  0.10202628867E+01  0.10199883459E+01 0.  0.
     999903    2    3    3    0    0 -0.15776071985E-01 -0.52576041443E-01 -0.11552163972E+00  0.12945131040E+00  0.19981690113E-01 0.  0.
         14    1    1    2    0    0  0.20701598550E-01 -0.62394720710E-02 -0.96252302200E-02  0.23667113281E-01  0.00000000000E+00 0.  1.
     999901    1    3    3    0    0 -0.49255265654E-02  0.58815513514E-01  0.12514686994E+00  0.89081157632E+00  0.88000000000E+00 0. -1.
        -11    1    4    4    0    0 -0.14707082604E-01 -0.17614173994E-01 -0.37851027990E-01  0.44266452818E-01  0.51100000000E-03 0. -1.
         11    1    4    4    0    0 -0.10689893807E-02 -0.34961867450E-01 -0.77670611733E-01  0.85184857585E-01  0.51100000000E-03 0.  1.
</event>
<event>
 8    1  0.1099921E+005  0.1043930E+01  0.7957747E-01            NaN
         13   -1    0    0    0    0  0.00000000000E+00  0.00000000000E+00  0.74505805969E-08  0.10566000000E+00  0.10566000000E+00 0. -1.
     999900   -1    0    0    0    0 -0.00000000000E+00 -0.00000000000E+00 -0.74505805969E-08  0.93827000000E+00  0.93827000000E+00 0.  1.
     999902    2    1    2    0    0  0.67594125690E-02 -0.47288470330E-02 -0.22759653728E-01  0.10197214583E+01  0.10194340582E+01 0.  0.
     999903    2    3    3    0    0 -0.12499516686E+00 -0.18824188294E-01  0.12577008593E-01  0.12909997444E+00  0.23032161270E-01 0.  0.
         14    1    1    2    0    0 -0.67594125690E-02  0.47288470330E-02  0.22759653728E-01  0.24208541682E-01  0.00000000000E+00 0. -1.
     999901    1    3    3    0    0  0.13175457942E+00  0.14095341261E-01 -0.35336662321E-01  0.89062148388E+00  0.88000000000E+00 0.  1.
        -11    1    4    4    0    0 -0.62801608768E-01 -0.14546596230E-01 -0.40025154160E-02  0.64590454221E-01  0.51100000000E-03 0.  1.
         11    1    4    4    0    0 -0.62193558087E-01 -0.42775920632E-02  0.16579524009E-01  0.64509520218E-01  0.51100000000E-03 0. -1.
</event>
<event>
 8    1  0.1099921E+005  0.1043930E+01  0.7957747E-01            NaN
         13   -1    0    0    0    0  0.00000000000E+00  0.00000000000E+00  0.74505805969E-08  0.10566000000E+00  0.10566000000E+00 0.  1.
     999900   -1    0    0    0    0 -0.00000000000E+00 -0.00000000000E+00 -0.74505805969E-08  0.93827000000E+00  0.93827000000E+00 0. -1.
     999902    2    1    2    0    0 -0.13040331700E-01  0.12359625521E-01  0.17314940106E-01  0.10189776906E+01  0.10186721338E+01 0.  0.
     999903    2    3    3    0    0  0.39362248340E-01 -0.11406104984E+00  0.38250037295E-01  0.12815419750E+00  0.20028062795E-01 0.  0.
         14    1    1    2    0    0  0.13040331700E-01 -0.12359625521E-01 -0.17314940106E-01  0.24952309407E-01  0.00000000000E+00 0. -1.
     999901    1    3    3    0    0 -0.52402580040E-01  0.12642067536E+00 -0.20935097189E-01  0.89082349309E+00  0.88000000000E+00 0. -1.
        -11    1    4    4    0    0  0.33281507787E-01 -0.66634524274E-01  0.22497633148E-01  0.77808888978E-01  0.51100000000E-03 0. -1.
         11    1    4    4    0    0  0.60807405528E-02 -0.47426525563E-01  0.15752404147E-01  0.50345308521E-01  0.51100000000E-03 0.  1.
</event>
<event>
 8    1  0.1099921E+005  0.1043930E+01  0.7957747E-01            NaN
         13   -1    0    0    0    0  0.00000000000E+00  0.00000000000E+00  0.74505805969E-08  0.10566000000E+00  0.10566000000E+00 0.  1.
     999900   -1    0    0    0    0 -0.00000000000E+00 -0.00000000000E+00 -0.74505805969E-08  0.93827000000E+00  0.93827000000E+00 0. -1.
     999902    2    1    2    0    0 -0.12269197174E-02  0.23409887574E-01  0.24531143266E-02  0.10203599780E+01  0.10200877113E+01 0.  0.
     999903    2    3    3    0    0  0.46665111918E-01 -0.97135460262E-01  0.66549525153E-01  0.12854543590E+00  0.21958130209E-01 0.  0.
         14    1    1    2    0    0  0.12269197174E-02 -0.23409887574E-01 -0.24531143266E-02  0.23570022022E-01  0.00000000000E+00 0.  1.
     999901    1    3    3    0    0 -0.47892031635E-01  0.12054534784E+00 -0.64096410826E-01  0.89181454208E+00  0.88000000000E+00 0. -1.
        -11    1    4    4    0    0  0.39155473968E-01 -0.81210378492E-01  0.45158925246E-01  0.10083583870E+00  0.51100000000E-03 0. -1.
         11    1    4    4    0    0  0.75096379499E-02 -0.15925081769E-01  0.21390599907E-01  0.27709597198E-01  0.51100000000E-03 0.  1.
</event>
<event>
 8    1  0.1099921E+005  0.1043930E+01  0.7957747E-01            NaN
         13   -1    0    0    0    0  0.00000000000E+00  0.00000000000E+00  0.74505805969E-08  0.10566000000E+00  0.10566000000E+00 0.  1.
     999900   -1    0    0    0    0 -0.00000000000E+00 -0.00000000000E+00 -0.74505805969E-08  0.93827000000E+00  0.93827000000E+00 0. -1.
     999902    2    1    2    0    0  0.17850320297E-01 -0.11887714310E-01  0.87628472524E-02  0.10207623679E+01  0.10204994231E+01 0.  0.
     999903    2    3    3    0    0  0.27643830738E-01 -0.12655261705E+00 -0.20672089284E-01  0.13278130487E+00  0.20586242678E-01 0.  0.
         14    1    1    2    0    0 -0.17850320297E-01  0.11887714310E-01 -0.87628472524E-02  0.23167632123E-01  0.00000000000E+00 0. -1.
     999901    1    3    3    0    0 -0.97935104409E-02  0.11466490274E+00  0.29434936537E-01  0.88798106301E+00  0.88000000000E+00 0.  1.
        -11    1    4    4    0    0  0.72753784185E-02 -0.36613330792E-01 -0.15486579336E-01  0.40417352503E-01  0.51100000000E-03 0.  1.
         11    1    4    4    0    0  0.20368452320E-01 -0.89939286259E-01 -0.51855099484E-02  0.92363952368E-01  0.51100000000E-03 0. -1.
</event>
<event>
 8    1  0.1099921E+005  0.1043930E+01  0.7957747E-01            NaN
         13   -1    0    0    0    0  0.00000000000E+00  0.00000000000E+00  0.74505805969E-08  0.10566000000E+00  0.10566000000E+00 0. -1.
     999900   -1    0    0    0    0 -0.00000000000E+00 -0.00000000000E+00 -0.74505805969E-08  0.93827000000E+00  0.93827000000E+00 0. -1.
     999902    2    1    2    0    0  0.13959164015E-01 -0.17651712325E-01  0.82723487770E-02  0.10199534914E+01  0.10196716392E+01 0.  0.
     999903    2    3    3    0    0 -0.68693724714E-03  0.12650607899E+00  0.39833099411E-02  0.12809342791E+00  0.19692628342E-01 0.  0.
         14    1    1    2    0    0 -0.13959164015E-01  0.17651712325E-01 -0.82723487770E-02  0.23976508551E-01  0.00000000000E+00 0.  1.
     999901    1    3    3    0    0  0.14646101262E-01 -0.14415779132E+00  0.42890388360E-02  0.89186006354E+00  0.88000000000E+00 0.  1.
        -11    1    4    4    0    0  0.52415004785E-02  0.33061268334E-01 -0.57004410376E-02  0.33959931391E-01  0.51100000000E-03 0. -1.
         11    1    4    4    0    0 -0.59284377256E-02  0.93444810659E-01  0.96837509787E-02  0.94133496520E-01  0.51100000000E-03 0.  1.
</event>
<event>
 8    1  0.1099921E+005  0.1043930E+01  0.7957747E-01            NaN
         13   -1    0    0    0    0  0.00000000000E+00  0.00000000000E+00  0.74505805969E-08  0.10566000000E+00  0.10566000000E+00 0. -1.
     999900   -1    0    0    0    0 -0.00000000000E+00 -0.00000000000E+00 -0.74505805969E-08  0.93827000000E+00  0.93827000000E+00 0. -1.
     999902    2    1    2    0    0  0.22269745487E-01  0.67444319418E-02 -0.40733220003E-02  0.10203075345E+01  0.10200340406E+01 0.  0.
     999903    2    3    3    0    0 -0.28093374594E-01 -0.11682780195E+00 -0.43616638095E-01  0.12936970570E+00  0.19903181399E-01 0.  0.
         14    1    1    2    0    0 -0.22269745487E-01 -0.67444319418E-02  0.40733220003E-02  0.23622465544E-01  0.00000000000E+00 0. -1.
     999901    1    3    3    0    0  0.50363120081E-01  0.12357223389E+00  0.39543316095E-01  0.89093782875E+00  0.88000000000E+00 0.  1.
        -11    1    4    4    0    0 -0.41320897343E-02 -0.58808173655E-01 -0.19010643885E-01  0.61944662047E-01  0.51100000000E-03 0. -1.
         11    1    4    4    0    0 -0.23961284860E-01 -0.58019628298E-01 -0.24605994210E-01  0.67425043656E-01  0.51100000000E-03 0.  1.
</event>
<event>
 8    1  0.1099921E+005  0.1043930E+01  0.7957747E-01            NaN
         13   -1    0    0    0    0  0.00000000000E+00  0.00000000000E+00  0.74505805969E-08  0.10566000000E+00  0.10566000000E+00 0.  1.
     999900   -1    0    0    0    0 -0.00000000000E+00 -0.00000000000E+00 -0.74505805969E-08  0.93827000000E+00  0.93827000000E+00 0.  1.
     999902    2    1    2    0    0  0.12060077357E-01 -0.10301879127E-01  0.17274790903E-01  0.10204780794E+01  0.10202085659E+01 0.  0.
     999903    2    3    3    0    0 -0.77529623568E-01  0.39735520235E-01  0.95901461101E-01  0.13103319121E+00  0.19566626141E-01 0.  0.
         14    1    1    2    0    0 -0.12060077357E-01  0.10301879127E-01 -0.17274790903E-01  0.23451920607E-01  0.00000000000E+00 0. -1.
     999901    1    3    3    0    0  0.89589700926E-01 -0.50037399362E-01 -0.78626670197E-01  0.88944488818E+00  0.88000000000E+00 0. -1.
        -11    1    4    4    0    0 -0.29914811906E-01  0.13908416316E-01  0.23046643742E-01  0.40246104465E-01  0.51100000000E-03 0.  1.
         11    1    4    4    0    0 -0.47614811662E-01  0.25827103920E-01  0.72854817358E-01  0.90787086746E-01  0.51100000000E-03 0. -1.
</event>
<event>
 8    1  0.1099921E+005  0.1043930E+01  0.7957747E-01            NaN
         13   -1    0    0    0    0  0.00000000000E+00  0.00000000000E+00  0.74505805969E-08  0.10566000000E+00  0.10566000000E+00 0. -1.
     999900   -1    0    0    0    0 -0.00000000000E+00 -0.00000000000E+00 -0.74505805969E-08  0.93827000000E+00  0.93827000000E+00 0. -1.
     999902    2    1    2    0    0  0.12973822980E-02  0.21018981413E-01  0.11984630224E-01  0.10196996029E+01  0.10194116774E+01 0.  0.
     999903    2    3    3    0    0 -0.85012983589E-01 -0.76466086299E-01  0.56500863850E-01  0.12900632647E+00  0.19391104137E-01 0.  0.
         14    1    1    2    0    0 -0.12973822980E-02 -0.21018981413E-01 -0.11984630224E-01  0.24230397068E-01  0.00000000000E+00 0.  1.
     999901    1    3    3    0    0  0.86310365887E-01  0.97485067712E-01 -0.44516233626E-01  0.89069327647E+00  0.88000000000E+00 0. -1.
        -11    1    4    4    0    0 -0.26849519960E-01 -0.13987162693E-01  0.10569104128E-01  0.32070305975E-01  0.51100000000E-03 0. -1.
         11    1    4    4    0    0 -0.58163463630E-01 -0.62478923606E-01  0.45931759722E-01  0.96936020490E-01  0.51100000000E-03 0.  1.
</event>
<event>
 8    1  0.1099921E+005  0.1043930E+01  0.7957747E-01            NaN
         13   -1    0    0    0    0  0.00000000000E+00  0.00000000000E+00  0.74505805969E-08  0.10566000000E+00  0.10566000000E+00 0. -1.
     999900   -1    0    0    0    0 -0.00000000000E+00 -0.00000000000E+00 -0.74505805969E-08  0.93827000000E+00  0.93827000000E+00 0.  1.
     999902    2    1    2    0    0 -0.12816390894E-01  0.20020553297E-01  0.19490339467E-02  0.10200787702E+01  0.10197998903E+01 0.  0.
     999903    2    3    3    0    0  0.85727851165E-01 -0.22557209283E-01 -0.91044953184E-01  0.12869124776E+00  0.20350960521E-01 0.  0.
         14    1    1    2    0    0  0.12816390894E-01 -0.20020553297E-01 -0.19490339467E-02  0.23851229804E-01  0.00000000000E+00 0. -1.
     999901    1    3    3    0    0 -0.98544242059E-01  0.42577762579E-01  0.92993987131E-01  0.89138752243E+00  0.88000000000E+00 0. -1.
        -11    1    4    4    0    0  0.55089843301E-01 -0.13370948214E-01 -0.71328738390E-01  0.91113792218E-01  0.51100000000E-03 0. -1.
         11    1    4    4    0    0  0.30638007864E-01 -0.91862610689E-02 -0.19716214794E-01  0.37577455544E-01  0.51100000000E-03 0.  1.
</event>
<event>
 8    1  0.1099921E+005  0.1043930E+01  0.7957747E-01            NaN
         13   -1    0    0    0    0  0.00000000000E+00  0.00000000000E+00  0.74505805969E-08  0.10566000000E+00  0.10566000000E+00 0.  1.
     999900   -1    0    0    0    0 -0.00000000000E+00 -0.00000000000E+00 -0.74505805969E-08  0.93827000000E+00  0.93827000000E+00 0. -1.
     999902    2    1    2    0    0 -0.14502851576E-01  0.87805994959E-02  0.20467442561E-01  0.10173527948E+01  0.10170055857E+01 0.  0.
     999903    2    3    3    0    0  0.66081262417E-01  0.54277428054E-01  0.94939061780E-01  0.12937206139E+00  0.20271467084E-01 0.  0.
         14    1    1    2    0    0  0.14502851576E-01 -0.87805994959E-02 -0.20467442561E-01  0.26577205202E-01  0.00000000000E+00 0.  1.
     999901    1    3    3    0    0 -0.80584113993E-01 -0.45496828558E-01 -0.74471619218E-01  0.88798073341E+00  0.88000000000E+00 0. -1.
        -11    1    4    4    0    0  0.39796856189E-01  0.44825916578E-01  0.64279639982E-01  0.87893604982E-01  0.51100000000E-03 0.  1.
         11    1    4    4    0    0  0.26284406228E-01  0.94515114758E-02  0.30659421798E-01  0.41478456407E-01  0.51100000000E-03 0. -1.
</event>
<event>
 7    1  0.1099921E+005  0.1043930E+01  0.7957747E-01            NaN
         13   -1    0    0    0    0  0.00000000000E+00  0.00000000000E+00  0.74505805969E-08  0.10566000000E+00  0.10566000000E+00 0.  1.
     999900   -1    0    0    0    0 -0.00000000000E+00 -0.00000000000E+00 -0.74505805969E-08  0.93827000000E+00  0.93827000000E+00 0. -1.
     999903    2    1    2    0    0 -0.10442396846E+00  0.27307394438E-01  0.16011550258E-01  0.11076058761E+00  0.19012602292E-01 0.  0.
         14    1    1    2    0    0  0.95938800282E-02  0.25681858809E-01 -0.37231264229E-01  0.46235997253E-01  0.00000000000E+00 0. -1.
     999901    1    1    2    0    0  0.94830088430E-01 -0.52989253247E-01  0.21219713971E-01  0.88693341514E+00  0.88000000000E+00 0.  1.
        -11    1    3    3    0    0 -0.22575328924E-01 -0.54101920461E-03  0.78728723416E-02  0.23920313913E-01  0.51100000000E-03 0.  1.
         11    1    3    3    0    0 -0.81848639534E-01  0.27848413643E-01  0.81386779166E-02  0.86840273694E-01  0.51100000000E-03 0. -1.
</event>
<event>
 8    1  0.1099921E+005  0.1043930E+01  0.7957747E-01            NaN
         13   -1    0    0    0    0  0.00000000000E+00  0.00000000000E+00  0.74505805969E-08  0.10566000000E+00  0.10566000000E+00 0. -1.
     999900   -1    0    0    0    0 -0.00000000000E+00 -0.00000000000E+00 -0.74505805969E-08  0.93827000000E+00  0.93827000000E+00 0.  1.
     999902    2    1    2    0    0  0.64309224032E-02 -0.94832766512E-02 -0.20618133303E-01  0.10203419369E+01  0.10200692484E+01 0.  0.
     999903    2    3    3    0    0  0.82165303456E-01 -0.76352685983E-01 -0.69054027425E-01  0.13323808155E+00  0.20076302491E-01 0.  0.
         14    1    1    2    0    0 -0.64309224032E-02  0.94832766512E-02  0.20618133303E-01  0.23588063081E-01  0.00000000000E+00 0. -1.
     999901    1    3    3    0    0 -0.75734381053E-01  0.66869409331E-01  0.48435894122E-01  0.88710385537E+00  0.88000000000E+00 0.  1.
        -11    1    4    4    0    0  0.12315288010E-01 -0.48451492061E-02 -0.35038224528E-02  0.13699623440E-01  0.51100000000E-03 0.  1.
         11    1    4    4    0    0  0.69850015446E-01 -0.71507536776E-01 -0.65550204972E-01  0.11953845811E+00  0.51100000000E-03 0. -1.
</event>
<event>
 8    1  0.1099921E+005  0.1043930E+01  0.7957747E-01            NaN
         13   -1    0    0    0    0  0.00000000000E+00  0.00000000000E+00  0.74505805969E-08  0.10566000000E+00  0.10566000000E+00 0. -1.
     999900   -1    0    0    0    0 -0.00000000000E+00 -0.00000000000E+00 -0.74505805969E-08  0.93827000000E+00  0.93827000000E+00 0.  1.
     999902    2    1    2    0    0  0.11117400253E-01  0.16682788321E-01 -0.90763151945E-02  0.10219233757E+01  0.10216863973E+01 0.  0.
     999903    2    3    3    0    0  0.81136971167E-01  0.53852415475E-01 -0.90577295768E-01  0.13460903947E+00  0.20785962925E-01 0.  0.
         14    1    1    2    0    0 -0.11117400253E-01 -0.16682788321E-01  0.90763151945E-02  0.22006624277E-01  0.00000000000E+00 0.  1.
     999901    1    3    3    0    0 -0.70019570914E-01 -0.37169627154E-01  0.81500980573E-01  0.88731433626E+00  0.88000000000E+00 0. -1.
        -11    1    4    4    0    0  0.71204131788E-01  0.52655337884E-01 -0.74809914229E-01  0.11592841489E+00  0.51100000000E-03 0.  1.
         11    1    4    4    0    0  0.99328393786E-02  0.11970775906E-02 -0.15767381539E-01  0.18680624574E-01  0.51100000000E-03 0. -1.
</event>
<event>
 8    1  0.1099921E+005  0.1043930E+01  0.7957747E-01            NaN
         13   -1    0    0    0    0  0.00000000000E+00  0.00000000000E+00  0.74505805969E-08  0.10566000000E+00  0.10566000000E+00 0. -1.
     999900   -1    0    0    0    0 -0.00000000000E+00 -0.00000000000E+00 -0.74505805969E-08  0.93827000000E+00  0.93827000000E+00 0. -1.
     999902    2    1    2    0    0 -0.14592182430E-01  0.19871474041E-01 -0.41429012994E-02  0.10189305820E+01  0.10186238560E+01 0.  0.
     999903    2    3    3    0    0 -0.12057787242E+00  0.37764039056E-01 -0.32399285551E-01  0.13194042783E+00  0.19834737924E-01 0.  0.
         14    1    1    2    0    0  0.14592182430E-01 -0.19871474041E-01  0.41429012994E-02  0.24999417989E-01  0.00000000000E+00 0.  1.
     999901    1    3    3    0    0  0.10598568999E+00 -0.17892565015E-01  0.28256384252E-01  0.88699015418E+00  0.88000000000E+00 0.  1.
        -11    1    4    4    0    0 -0.70845475688E-01  0.13383429734E-01 -0.23547605016E-01  0.75848193386E-01  0.51100000000E-03 0. -1.
         11    1    4    4    0    0 -0.49732396730E-01  0.24380609322E-01 -0.88516805355E-02  0.56092234442E-01  0.51100000000E-03 0.  1.
</event>
<event>
 8    1  0.1099921E+005  0.1043930E+01  0.7957747E-01            NaN
         13   -1    0    0    0    0  0.00000000000E+00  0.00000000000E+00  0.74505805969E-08  0.10566000000E+00  0.10566000000E+00 0.  1.
     999900   -1    0    0    0    0 -0.00000000000E+00 -0.00000000000E+00 -0.74505805969E-08  0.93827000000E+00  0.93827000000E+00 0.  1.
     999902    2    1    2    0    0 -0.58184489842E-02 -0.17913742838E-01  0.11385194485E-01  0.10219213839E+01  0.10216843620E+01 0.  0.
     999903    2    3    3    0    0 -0.12427416869E+00 -0.12385359075E-01 -0.34155450666E-01  0.13280031734E+00  0.29527332316E-01 0.  0.
         14    1    1    2    0    0  0.58184489842E-02  0.17913742838E-01 -0.11385194485E-01  0.22008616143E-01  0.00000000000E+00 0. -1.
     999901    1    3    3    0    0  0.11845571970E+00 -0.55283837633E-02  0.45540645151E-01  0.88912106651E+00  0.88000000000E+00 0.  1.
        -11    1    4    4    0    0 -0.67982824770E-01  0.64938656148E-02 -0.11530935753E-01  0.69260799553E-01  0.51100000000E-03 0. -1.
         11    1    4    4    0    0 -0.56291343918E-01 -0.18879224690E-01 -0.22624514913E-01  0.63539517791E-01  0.51100000000E-03 0.  1.
</event>
<event>
 8    1  0.1099921E+005  0.1043930E+01  0.7957747E-01            NaN
         13   -1    0    0    0    0  0.00000000000E+00  0.00000000000E+00  0.74505805969E-08  0.10566000000E+00  0.10566000000E+00 0.  1.
     999900   -1    0    0    0    0 -0.00000000000E+00 -0.00000000000E+00 -0.74505805969E-08  0.93827000000E+00  0.93827000000E+00 0.  1.
     999902    2    1    2    0    0  0.36489010443E-02 -0.21393210182E-01 -0.30337258052E-02  0.10220168210E+01  0.10217818725E+01 0.  0.
     999903    2    3    3    0    0  0.12734929690E+00 -0.14525417635E-01  0.27984711049E-01  0.13279744543E+00  0.20571491969E-01 0.  0.
         14    1    1    2    0    0 -0.36489010443E-02  0.21393210182E-01  0.30337258052E-02  0.21913178980E-01  0.00000000000E+00 0. -1.
     999901    1    3    3    0    0 -0.12370039585E+00 -0.68677925472E-02 -0.31018436855E-01  0.88921937559E+00  0.88000000000E+00 0.  1.
        -11    1    4    4    0    0  0.84772313191E-01 -0.56696537819E-03  0.22051305576E-01  0.87596733569E-01  0.51100000000E-03 0. -1.
         11    1    4    4    0    0  0.42576983705E-01 -0.13958452257E-01  0.59334054738E-02  0.45200711856E-01  0.51100000000E-03 0.  1.
</event>
<event>
 8    1  0.1099921E+005  0.1043930E+01  0.7957747E-01            NaN
         13   -1    0    0    0    0  0.00000000000E+00  0.00000000000E+00  0.74505805969E-08  0.10566000000E+00  0.10566000000E+00 0. -1.
     999900   -1    0    0    0    0 -0.00000000000E+00 -0.00000000000E+00 -0.74505805969E-08  0.93827000000E+00  0.93827000000E+00 0. -1.
     999902    2    1    2    0    0 -0.20025579489E-01 -0.16624763458E-01  0.15018276708E-01  0.10138807865E+01  0.10134353922E+01 0.  0.
     999903    2    3    3    0    0 -0.93898957630E-01 -0.49588298173E-01 -0.65417614928E-01  0.12651738676E+00  0.21240792115E-01 0.  0.
         14    1    1    2    0    0  0.20025579489E-01  0.16624763458E-01 -0.15018276708E-01  0.30049213454E-01  0.00000000000E+00 0. -1.
     999901    1    3    3    0    0  0.73873378141E-01  0.32963534715E-01  0.80435891637E-01  0.88736339979E+00  0.88000000000E+00 0.  1.
        -11    1    4    4    0    0 -0.39164297694E-01 -0.24575455656E-01 -0.40183451034E-01  0.61259824457E-01  0.51100000000E-03 0.  1.
         11    1    4    4    0    0 -0.54734659936E-01 -0.25012842518E-01 -0.25234163895E-01  0.65257562302E-01  0.51100000000E-03 0. -1.
</event>
<event>
 8    1  0.1099921E+005  0.1043930E+01  0.7957747E-01            NaN
         13   -1    0    0    0    0  0.00000000000E+00  0.00000000000E+00  0.74505805969E-08  0.10566000000E+00  0.10566000000E+00 0.  1.
     999900   -1    0    0    0    0 -0.00000000000E+00 -0.00000000000E+00 -0.74505805969E-08  0.93827000000E+00  0.93827000000E+00 0. -1.
     999902    2    1    2    0    0 -0.57270649445E-02 -0.15851963637E-01 -0.15869500156E-01  0.10207799447E+01  0.10205174033E+01 0.  0.
     999903    2    3    3    0    0  0.62503942842E-01  0.93164752162E-01  0.59122986027E-01  0.12827560987E+00  0.19305198656E-01 0.  0.
         14    1    1    2    0    0  0.57270649445E-02  0.15851963637E-01  0.15869500156E-01  0.23150055275E-01  0.00000000000E+00 0.  1.
     999901    1    3    3    0    0 -0.68231007786E-01 -0.10901671580E+00 -0.74992486184E-01  0.89250433485E+00  0.88000000000E+00 0. -1.
        -11    1    4    4    0    0  0.12110755075E-01  0.33714954157E-01  0.20787002663E-01  0.41421360709E-01  0.51100000000E-03 0. -1.
         11    1    4    4    0    0  0.50393187767E-01  0.59449798004E-01  0.38335983365E-01  0.86854249163E-01  0.51100000000E-03 0.  1.
</event>
<event>
 8    1  0.1099921E+005  0.1043930E+01  0.7957747E-01            NaN
         13   -1    0    0    0    0  0.00000000000E+00  0.00000000000E+00  0.74505805969E-08  0.10566000000E+00  0.10566000000E+00 0. -1.
     999900   -1    0    0    0    0 -0.00000000000E+00 -0.00000000000E+00 -0.74505805969E-08  0.93827000000E+00  0.93827000000E+00 0. -1.
     999902    2    1    2    0    0  0.18427315775E-01 -0.12322106319E-01 -0.56799054113E-02  0.10210463465E+01  0.10207898805E+01 0.  0.
     999903    2    3    3    0    0 -0.58414543063E-01  0.79761583069E-01 -0.81397790481E-01  0.12968936123E+00  0.20483191781E-01 0.  0.
         14    1    1    2    0    0 -0.18427315775E-01  0.12322106319E-01  0.56799054113E-02  0.22883653473E-01  0.00000000000E+00 0. -1.
     999901    1    3    3    0    0  0.76841858838E-01 -0.92083689388E-01  0.75717885070E-01  0.89135698530E+00  0.88000000000E+00 0.  1.
        -11    1    4    4    0    0 -0.77666617817E-02  0.19580467227E-01 -0.26071437929E-01  0.33521586012E-01  0.51100000000E-03 0.  1.
         11    1    4    4    0    0 -0.50647881281E-01  0.60181115842E-01 -0.55326352552E-01  0.96167775216E-01  0.51100000000E-03 0. -1.
</event>
<event>
 8    1  0.1099921E+005  0.1043930E+01  0.7957747E-01            NaN
         13   -1    0    0    0    0  0.00000000000E+00  0.00000000000E+00  0.74505805969E-08  0.10566000000E+00  0.10566000000E+00 0.  1.
     999900   -1    0    0    0    0 -0.00000000000E+00 -0.00000000000E+00 -0.74505805969E-08  0.93827000000E+00  0.93827000000E+00 0.  1.
     999902    2    1    2    0    0 -0.12620644922E-01 -0.12339436033E-01  0.15544253164E-01  0.10204105152E+01  0.10201394284E+01 0.  0.
     999903    2    3    3    0    0 -0.98649614708E-01  0.81588349331E-01 -0.16941103921E-01  0.13064722591E+00  0.19831576013E-01 0.  0.
         14    1    1    2    0    0  0.12620644922E-01  0.12339436033E-01 -0.15544253164E-01  0.23519484822E-01  0.00000000000E+00 0. -1.
     999901    1    3    3    0    0  0.86028969785E-01 -0.93927785364E-01  0.32485357085E-01  0.88976328927E+00  0.88000000000E+00 0. -1.
        -11    1    4    4    0    0 -0.28250798613E-01  0.29182458051E-01 -0.13538086203E-01  0.42816636711E-01  0.51100000000E-03 0. -1.
         11    1    4    4    0    0 -0.70398816094E-01  0.52405891280E-01 -0.34030177179E-02  0.87830589198E-01  0.51100000000E-03 0.  1.
</event>
<event>
 8    1  0.1099921E+005  0.1043930E+01  0.7957747E-01            NaN
         13   -1    0    0    0    0  0.00000000000E+00  0.00000000000E+00  0.74505805969E-08  0.10566000000E+00  0.10566000000E+00 0.  1.
     999900   -1    0    0    0    0 -0.00000000000E+00 -0.00000000000E+00 -0.74505805969E-08  0.93827000000E+00  0.93827000000E+00 0. -1.
     999902    2    1    2    0    0 -0.18357776784E-01 -0.11170629788E-01  0.92783298199E-02  0.10205231988E+01  0.10202547334E+01 0.  0.
     999903    2    3    3    0    0  0.10207804382E+00  0.21331511828E-01  0.74071933109E-01  0.12936699076E+00  0.19344420298E-01 0.  0.
         14    1    1    2    0    0  0.18357776784E-01  0.11170629788E-01 -0.92783298199E-02  0.23406801203E-01  0.00000000000E+00 0. -1.
     999901    1    3    3    0    0 -0.12043582061E+00 -0.32502141616E-01 -0.64793603289E-01  0.89115620804E+00  0.88000000000E+00 0. -1.
        -11    1    4    4    0    0  0.85676919809E-01  0.19494140287E-01  0.70047443544E-01  0.11237197854E+00  0.51100000000E-03 0. -1.
         11    1    4    4    0    0  0.16401124012E-01  0.18373715408E-02  0.40244895657E-02  0.16995012218E-01  0.51100000000E-03 0.  1.
</event>
<event>
 8    1  0.1099921E+005  0.1043930E+01  0.7957747E-01            NaN
         13   -1    0    0    0    0  0.00000000000E+00  0.00000000000E+00  0.74505805969E-08  0.10566000000E+00  0.10566000000E+00 0.  1.
     999900   -1    0    0    0    0 -0.00000000000E+00 -0.00000000000E+00 -0.74505805969E-08  0.93827000000E+00  0.93827000000E+00 0. -1.
     999902    2    1    2    0    0 -0.93575918504E-02  0.22369415535E-01 -0.11254237760E-01  0.10171977509E+01  0.10168464246E+01 0.  0.
     999903    2    3    3    0    0  0.94211293562E-02 -0.98922960884E-01  0.72704166274E-01  0.12472170381E+00  0.19877065661E-01 0.  0.
         14    1    1    2    0    0  0.93575918504E-02 -0.22369415535E-01  0.11254237760E-01  0.26732249141E-01  0.00000000000E+00 0.  1.
     999901    1    3    3    0    0 -0.18778721207E-01  0.12129237642E+00 -0.83958404034E-01  0.89247604705E+00  0.88000000000E+00 0. -1.
        -11    1    4    4    0    0  0.62910983465E-02 -0.86215971555E-01  0.54133594753E-01  0.10199744542E+00  0.51100000000E-03 0.  1.
         11    1    4    4    0    0  0.31300310098E-02 -0.12706989329E-01  0.18570571521E-01  0.22724258394E-01  0.51100000000E-03 0. -1.
</event>
<event>
 8    1  0.1099921E+005  0.1043930E+01  0.7957747E-01            NaN
         13   -1    0    0    0    0  0.00000000000E+00  0.00000000000E+00  0.74505805969E-08  0.10566000000E+00  0.10566000000E+00 0.  1.
     999900   -1    0    0    0    0 -0.00000000000E+00 -0.00000000000E+00 -0.74505805969E-08  0.93827000000E+00  0.93827000000E+00 0. -1.
     999902    2    1    2    0    0  0.39465499583E-02 -0.39580996016E-02  0.22161724552E-01  0.10210742820E+01  0.10208184489E+01 0.  0.
     999903    2    3    3    0    0  0.11196264646E+00 -0.55415902072E-01 -0.34989185248E-01  0.13114079629E+00  0.19160087791E-01 0.  0.
         14    1    1    2    0    0 -0.39465499583E-02  0.39580996016E-02 -0.22161724552E-01  0.22855717975E-01  0.00000000000E+00 0. -1.
     999901    1    3    3    0    0 -0.10801609650E+00  0.51457802470E-01  0.57150909800E-01  0.88993348573E+00  0.88000000000E+00 0.  1.
        -11    1    4    4    0    0  0.79026761774E-01 -0.35497321235E-01 -0.32626199507E-01  0.92574396604E-01  0.51100000000E-03 0.  1.
         11    1    4    4    0    0  0.32935884682E-01 -0.19918580837E-01 -0.23629857405E-02  0.38566399688E-01  0.51100000000E-03 0. -1.
</event>
<event>
 8    1  0.1099921E+005  0.1043930E+01  0.7957747E-01            NaN
         13   -1    0    0    0    0  0.00000000000E+00  0.00000000000E+00  0.74505805969E-08  0.10566000000E+00  0.10566000000E+00 0. -1.
     999900   -1    0    0    0    0 -0.00000000000E+00 -0.00000000000E+00 -0.74505805969E-08  0.93827000000E+00  0.93827000000E+00 0. -1.
     999902    2    1    2    0    0  0.11554675406E-01  0.13679767441E-01  0.15759575629E-01  0.10200760531E+01  0.10197971089E+01 0.  0.
     999903    2    3    3    0    0 -0.74657220608E-01  0.10007811993E+00  0.35770276879E-01  0.13142674399E+00  0.20103374131E-01 0.  0.
         14    1    1    2    0    0 -0.11554675406E-01 -0.13679767441E-01 -0.15759575629E-01  0.23853946948E-01  0.00000000000E+00 0.  1.
     999901    1    3    3    0    0  0.86211896014E-01 -0.86398352486E-01 -0.20010701250E-01  0.88864930906E+00  0.88000000000E+00 0.  1.
        -11    1    4    4    0    0 -0.27332869457E-01  0.32983240468E-01  0.27476104170E-02  0.42927734491E-01  0.51100000000E-03 0. -1.
         11    1    4    4    0    0 -0.47324351150E-01  0.67094879460E-01  0.33022666462E-01  0.88499009502E-01  0.51100000000E-03 0.  1.
</event>
<event>
 8    1  0.1099921E+005  0.1043930E+01  0.7957747E-01            NaN
         13   -1    0    0    0    0  0.00000000000E+00  0.00000000000E+00  0.74505805969E-08  0.10566000000E+00  0.10566000000E+00 0. -1.
     999900   -1    0    0    0    0 -0.00000000000E+00 -0.00000000000E+00 -0.74505805969E-08  0.93827000000E+00  0.93827000000E+00 0. -1.
     999902    2    1    2    0    0 -0.13987211700E-02 -0.27953240464E-01 -0.11623909801E-02  0.10159176594E+01  0.10155313877E+01 0.  0.
     999903    2    3    3    0    0  0.29245762525E-01  0.83651102273E-01  0.84688275932E-01  0.12419743942E+00  0.20001958447E-01 0.  0.
         14    1    1    2    0    0  0.13987211700E-02  0.27953240464E-01  0.11623909801E-02  0.28012340605E-01  0.00000000000E+00 0. -1.
     999901    1    3    3    0    0 -0.30644483695E-01 -0.11160434274E+00 -0.85850666912E-01  0.89172021997E+00  0.88000000000E+00 0. -1.
        -11    1    4    4    0    0  0.25855528053E-01  0.44399385809E-01  0.45638911221E-01  0.68723977836E-01  0.51100000000E-03 0.  1.
         11    1    4    4    0    0  0.33902344721E-02  0.39251716464E-01  0.39049364711E-01  0.55473461587E-01  0.51100000000E-03 0. -1.
</event>
<event>
 8    1  0.1099921E+005  0.1043930E+01  0.7957747E-01            NaN
         13   -1    0    0    0    0  0.00000000000E+00  0.00000000000E+00  0.74505805969E-08  0.10566000000E+00  0.10566000000E+00 0. -1.
     999900   -1    0    0    0    0 -0.00000000000E+00 -0.00000000000E+00 -0.74505805969E-08  0.93827000000E+00  0.93827000000E+00 0. -1.
     999902    2    1    2    0    0 -0.83067762937E-02 -0.10894650834E-01 -0.19656152912E-01  0.10199704446E+01  0.10196889955E+01 0.  0.
     999903    2    3    3    0    0  0.81368665914E-01  0.67784102483E-01  0.68299091197E-01  0.12757582551E+00  0.19881676336E-01 0.  0.
         14    1    1    2    0    0  0.83067762937E-02  0.10894650834E-01  0.19656152912E-01  0.23959555432E-01  0.00000000000E+00 0. -1.
     999901    1    3    3    0    0 -0.89675442208E-01 -0.78678753318E-01 -0.87955244109E-01  0.89239461906E+00  0.88000000000E+00 0. -1.
        -11    1    4    4    0    0  0.47571409046E-01  0.47235892024E-01  0.33758440793E-01  0.75061054480E-01  0.51100000000E-03 0. -1.
         11    1    4    4    0    0  0.33797256868E-01  0.20548210460E-01  0.34540650404E-01  0.52514771029E-01  0.51100000000E-03 0.  1.
</event>
<event>
 8    1  0.1099921E+005  0.1043930E+01  0.7957747E-01            NaN
         13   -1    0    0    0    0  0.00000000000E+00  0.00000000000E+00  0.74505805969E-08  0.10566000000E+00  0.10566000000E+00 0. -1.
     999900   -1    0    0    0    0 -0.00000000000E+00 -0.00000000000E+00 -0.74505805969E-08  0.93827000000E+00  0.93827000000E+00 0.  1.
     999902    2    1    2    0    0 -0.23373137616E-02 -0.19160980419E-02 -0.23814227455E-01  0.10199247527E+01  0.10196422163E+01 0.  0.
     999903    2    3    3    0    0  0.71902158394E-01  0.86523033306E-01  0.58020147990E-01  0.12861681257E+00  0.22798930447E-01 0.  0.
         14    1    1    2    0    0  0.23373137616E-02  0.19160980419E-02  0.23814227455E-01  0.24005247272E-01  0.00000000000E+00 0. -1.
     999901    1    3    3    0    0 -0.74239472155E-01 -0.88439131348E-01 -0.81834375445E-01  0.89130794016E+00  0.88000000000E+00 0. -1.
        -11    1    4    4    0    0  0.36630115484E-01  0.47783774716E-01  0.18497284987E-01  0.62987817547E-01  0.51100000000E-03 0. -1.
         11    1    4    4    0    0  0.35272042909E-01  0.38739258590E-01  0.39522863003E-01  0.65628995026E-01  0.51100000000E-03 0.  1.
</event>
<event>
 8    1  0.1099921E+005  0.1043930E+01  0.7957747E-01            NaN
         13   -1    0    0    0    0  0.00000000000E+00  0.00000000000E+00  0.74505805969E-08  0.10566000000E+00  0.10566000000E+00 0.  1.
     999900   -1    0    0    0    0 -0.00000000000E+00 -0.00000000000E+00 -0.74505805969E-08  0.93827000000E+00  0.93827000000E+00 0.  1.
     999902    2    1    2    0    0  0.12244662964E-01  0.13650119969E-01 -0.14143106643E-01  0.10207721717E+01  0.10205094519E+01 0.  0.
     999903    2    3    3    0    0 -0.11242416784E+00  0.47095371011E-01  0.39909049844E-01  0.12971519382E+00  0.19394116738E-01 0.  0.
         14    1    1    2    0    0 -0.12244662964E-01 -0.13650119969E-01  0.14143106643E-01  0.23157828304E-01  0.00000000000E+00 0.  1.
     999901    1    3    3    0    0  0.12466883081E+00 -0.33445251043E-01 -0.54052156487E-01  0.89105697787E+00  0.88000000000E+00 0.  1.
        -11    1    4    4    0    0 -0.40135463453E-01  0.25168686134E-01  0.21117794392E-01  0.51870420755E-01  0.51100000000E-03 0. -1.
         11    1    4    4    0    0 -0.72288704388E-01  0.21926684877E-01  0.18791255452E-01  0.77844773069E-01  0.51100000000E-03 0.  1.
</event>
<event>
 8    1  0.1099921E+005  0.1043930E+01  0.7957747E-01            NaN
         13   -1    0    0    0    0  0.00000000000E+00  0.00000000000E+00  0.74505805969E-08  0.10566000000E+00  0.10566000000E+00 0.  1.
     999900   -1    0    0    0    0 -0.00000000000E+00 -0.00000000000E+00 -0.74505805969E-08  0.93827000000E+00  0.93827000000E+00 0. -1.
     999902    2    1    2    0    0 -0.11954369774E-01  0.62182974002E-02  0.19482160764E-01  0.10202418433E+01  0.10199668083E+01 0.  0.
     999903    2    3    3    0    0 -0.81420435568E-01  0.69621588942E-01 -0.71668379353E-01  0.13054867562E+00  0.20739988719E-01 0.  0.
         14    1    1    2    0    0  0.11954369774E-01 -0.62182974002E-02 -0.19482160764E-01  0.23688156688E-01  0.00000000000E+00 0. -1.
     999901    1    3    3    0    0  0.69466065794E-01 -0.63403291542E-01  0.91150540116E-01  0.88969316769E+00  0.88000000000E+00 0.  1.
        -11    1    4    4    0    0 -0.45644119713E-01  0.33429896463E-01 -0.48952042994E-01  0.74816490670E-01  0.51100000000E-03 0.  1.
         11    1    4    4    0    0 -0.35776315855E-01  0.36191692480E-01 -0.22716336359E-01  0.55732184950E-01  0.51100000000E-03 0. -1.
</event>
<event>
 8    1  0.1099921E+005  0.1043930E+01  0.7957747E-01            NaN
         13   -1    0    0    0    0  0.00000000000E+00  0.00000000000E+00  0.74505805969E-08  0.10566000000E+00  0.10566000000E+00 0.  1.
     999900   -1    0    0    0    0 -0.00000000000E+00 -0.00000000000E+00 -0.74505805969E-08  0.93827000000E+00  0.93827000000E+00 0. -1.
     999902    2    1    2    0    0  0.89760878931E-02  0.19065516972E-04 -0.23576005272E-01  0.10187030592E+01  0.10183906541E+01 0.  0.
     999903    2    3    3    0    0  0.88414289980E-01 -0.54266114644E-01 -0.78384555706E-01  0.13176377947E+00  0.21346126939E-01 0.  0.
         14    1    1    2    0    0 -0.89760878931E-02 -0.19065516972E-04  0.23576005272E-01  0.25226940797E-01  0.00000000000E+00 0.  1.
     999901    1    3    3    0    0 -0.79438202087E-01  0.54285180161E-01  0.54808550434E-01  0.88693927973E+00  0.88000000000E+00 0.  1.
        -11    1    4    4    0    0  0.82657805137E-01 -0.48183319679E-01 -0.77864030729E-01  0.12335725940E+00  0.51100000000E-03 0.  1.
         11    1    4    4    0    0  0.57564848429E-02 -0.60827949653E-02 -0.52052497717E-03  0.84065200641E-02  0.51100000000E-03 0. -1.
</event>
<event>
 8    1  0.1099921E+005  0.1043930E+01  0.7957747E-01            NaN
         13   -1    0    0    0    0  0.00000000000E+00  0.00000000000E+00  0.74505805969E-08  0.10566000000E+00  0.10566000000E+00 0.  1.
     999900   -1    0    0    0    0 -0.00000000000E+00 -0.00000000000E+00 -0.74505805969E-08  0.93827000000E+00  0.93827000000E+00 0.  1.
     999902    2    1    2    0    0  0.23002272702E-02  0.17271756277E-01 -0.14416816272E-01  0.10213147573E+01  0.10210643390E+01 0.  0.
     999903    2    3    3    0    0 -0.36969654071E-01  0.27629230364E-02 -0.12645247618E+00  0.13322432334E+00  0.19598533887E-01 0.  0.
         14    1    1    2    0    0 -0.23002272702E-02 -0.17271756277E-01  0.14416816272E-01  0.22615242688E-01  0.00000000000E+00 0.  1.
     999901    1    3    3    0    0  0.39269881342E-01  0.14508833241E-01  0.11203565991E+00  0.88809043397E+00  0.88000000000E+00 0. -1.
        -11    1    4    4    0    0 -0.89689201165E-02 -0.10920897451E-02 -0.10435565706E-01  0.13812904860E-01  0.51100000000E-03 0.  1.
         11    1    4    4    0    0 -0.28000733955E-01  0.38550127816E-02 -0.11601691048E+00  0.11941141848E+00  0.51100000000E-03 0. -1.
</event>
<event>
 8    1  0.1099921E+005  0.1043930E+01  0.7957747E-01            NaN
         13   -1    0    0    0    0  0.00000000000E+00  0.00000000000E+00  0.74505805969E-08  0.10566000000E+00  0.10566000000E+00 0. -1.
     999900   -1    0    0    0    0 -0.00000000000E+00 -0.00000000000E+00 -0.74505805969E-08  0.93827000000E+00  0.93827000000E+00 0. -1.
     999902    2    1    2    0    0  0.19153778795E-01 -0.63848534087E-02  0.12914602285E-01  0.10199629279E+01  0.10196813000E+01 0.  0.
     999903    2    3    3    0    0  0.11252535374E+00  0.65204824688E-01 -0.92022022174E-02  0.13185680466E+00  0.19695482027E-01 0.  0.
         14    1    1    2    0    0 -0.19153778795E-01  0.63848534087E-02 -0.12914602285E-01  0.23967072148E-01  0.00000000000E+00 0.  1.
     999901    1    3    3    0    0 -0.93371574942E-01 -0.71589678096E-01  0.22116804502E-01  0.88810612320E+00  0.88000000000E+00 0. -1.
        -11    1    4    4    0    0  0.89950900500E-01  0.42746806117E-01 -0.91231488879E-02  0.10000973403E+00  0.51100000000E-03 0. -1.
         11    1    4    4    0    0  0.22574453237E-01  0.22458018571E-01 -0.79053329554E-04  0.31847070627E-01  0.51100000000E-03 0.  1.
</event>
<event>
 8    1  0.1099921E+005  0.1043930E+01  0.7957747E-01            NaN
         13   -1    0    0    0    0  0.00000000000E+00  0.00000000000E+00  0.74505805969E-08  0.10566000000E+00  0.10566000000E+00 0.  1.
     999900   -1    0    0    0    0 -0.00000000000E+00 -0.00000000000E+00 -0.74505805969E-08  0.93827000000E+00  0.93827000000E+00 0.  1.
     999902    2    1    2    0    0  0.18229960779E-01  0.10017276245E-01 -0.10801574021E-01  0.10204917557E+01  0.10202225601E+01 0.  0.
     999903    2    3    3    0    0  0.99062563968E-02  0.70480429542E-01  0.10743372771E+00  0.13048913576E+00  0.20488627058E-01 0.  0.
         14    1    1    2    0    0 -0.18229960779E-01 -0.10017276245E-01  0.10801574021E-01  0.23438244275E-01  0.00000000000E+00 0.  1.
     999901    1    3    3    0    0  0.83237043822E-02 -0.60463153297E-01 -0.11823530173E+00  0.89000261996E+00  0.88000000000E+00 0.  1.
        -11    1    4    4    0    0  0.95113710270E-02  0.18830868343E-01  0.43067118991E-01  0.47959416599E-01  0.51100000000E-03 0. -1.
         11    1    4    4    0    0  0.39488536976E-03  0.51649561199E-01  0.64366608718E-01  0.82529719165E-01  0.51100000000E-03 0.  1.
</event>
<event>
 8    1  0.1148263E+005  0.1043930E+01  0.7957747E-01            NaN
         13   -1    0    0    0    0  0.00000000000E+00  0.00000000000E+00  0.74505805969E-08  0.10566000000E+00  0.10566000000E+00 0.  1.
     999900   -1    0    0    0    0 -0.00000000000E+00 -0.00000000000E+00 -0.74505805969E-08  0.93827000000E+00  0.93827000000E+00 0.  1.
     999902    2    1    2    0    0 -0.99487425049E-02 -0.19559979029E-01  0.94395383303E-02  0.10200411921E+01  0.10197614224E+01 0.  0.
     999903    2    3    3    0    0 -0.12546545904E+00  0.28944268131E-01 -0.12322644015E-01  0.13090095215E+00  0.20096259586E-01 0.  0.
         14    1    1    2    0    0  0.99487425049E-02  0.19559979029E-01 -0.94395383303E-02  0.23888807859E-01  0.00000000000E+00 0. -1.
     999901    1    3    3    0    0  0.11551671653E+00 -0.48504247160E-01  0.21762182345E-01  0.88914023999E+00  0.88000000000E+00 0.  1.
        -11    1    4    4    0    0 -0.57794383248E-01  0.22589472858E-01 -0.14881557314E-02  0.62072141476E-01  0.51100000000E-03 0. -1.
         11    1    4    4    0    0 -0.67671075789E-01  0.63547952731E-02 -0.10834488283E-01  0.68828810674E-01  0.51100000000E-03 0.  1.
</event>
<event>
 8    1  0.1205910E+005  0.1043930E+01  0.7957747E-01            NaN
         13   -1    0    0    0    0  0.00000000000E+00  0.00000000000E+00  0.74505805969E-08  0.10566000000E+00  0.10566000000E+00 0.  1.
     999900   -1    0    0    0    0 -0.00000000000E+00 -0.00000000000E+00 -0.74505805969E-08  0.93827000000E+00  0.93827000000E+00 0. -1.
     999902    2    1    2    0    0  0.10673212901E-02  0.17080153620E-01 -0.17088193999E-01  0.10197457655E+01  0.10194589492E+01 0.  0.
     999903    2    3    3    0    0 -0.10042827019E+00  0.81800526217E-01  0.71924270160E-02  0.13121910287E+00  0.19737234068E-01 0.  0.
         14    1    1    2    0    0 -0.10673212901E-02 -0.17080153620E-01  0.17088193999E-01  0.24184234464E-01  0.00000000000E+00 0.  1.
     999901    1    3    3    0    0  0.10149559148E+00 -0.64720372597E-01 -0.24280621015E-01  0.88852666267E+00  0.88000000000E+00 0. -1.
        -11    1    4    4    0    0 -0.57845734587E-01  0.49415767796E-01  0.13765806331E-01  0.77316270356E-01  0.51100000000E-03 0.  1.
         11    1    4    4    0    0 -0.42582535600E-01  0.32384758420E-01 -0.65733793145E-02  0.53902832511E-01  0.51100000000E-03 0. -1.
</event>
<event>
 8    1  0.1099921E+005  0.1043930E+01  0.7957747E-01            NaN
         13   -1    0    0    0    0  0.00000000000E+00  0.00000000000E+00  0.74505805969E-08  0.10566000000E+00  0.10566000000E+00 0. -1.
     999900   -1    0    0    0    0 -0.00000000000E+00 -0.00000000000E+00 -0.74505805969E-08  0.93827000000E+00  0.93827000000E+00 0. -1.
     999902    2    1    2    0    0  0.56174655679E-03  0.19875754639E-01  0.13654979882E-01  0.10198090618E+01  0.10195237628E+01 0.  0.
     999903    2    3    3    0    0 -0.11267649754E+00  0.18281880909E-01  0.61698917086E-01  0.13125199544E+00  0.19751194171E-01 0.  0.
         14    1    1    2    0    0 -0.56174655679E-03 -0.19875754639E-01 -0.13654979882E-01  0.24120938150E-01  0.00000000000E+00 0.  1.
     999901    1    3    3    0    0  0.11323824409E+00  0.15938737301E-02 -0.48043937204E-01  0.88855706641E+00  0.88000000000E+00 0. -1.
        -11    1    4    4    0    0 -0.41325464987E-01  0.15938088751E-01  0.26990388326E-01  0.51870597764E-01  0.51100000000E-03 0. -1.
         11    1    4    4    0    0 -0.71351032551E-01  0.23437921586E-02  0.34708528759E-01  0.79381397679E-01  0.51100000000E-03 0.  1.
</event>
<event>
 8    1  0.1099921E+005  0.1043930E+01  0.7957747E-01            NaN
         13   -1    0    0    0    0  0.00000000000E+00  0.00000000000E+00  0.74505805969E-08  0.10566000000E+00  0.10566000000E+00 0.  1.
     999900   -1    0    0    0    0 -0.00000000000E+00 -0.00000000000E+00 -0.74505805969E-08  0.93827000000E+00  0.93827000000E+00 0. -1.
     999902    2    1    2    0    0  0.14282336578E-02 -0.22516463075E-01 -0.73835484066E-02  0.10201908394E+01  0.10199146047E+01 0.  0.
     999903    2    3    3    0    0 -0.10800134647E+00  0.25386081310E-01 -0.65150236891E-01  0.13024338189E+00  0.20249473918E-01 0.  0.
         14    1    1    2    0    0 -0.14282336578E-02  0.22516463075E-01  0.73835484066E-02  0.23739160640E-01  0.00000000000E+00 0.  1.
     999901    1    3    3    0    0  0.10942958013E+00 -0.47902544386E-01  0.57766688484E-01  0.88994745747E+00  0.88000000000E+00 0. -1.
        -11    1    4    4    0    0 -0.74693451870E-01  0.23999805092E-01 -0.53347445194E-01  0.94875251917E-01  0.51100000000E-03 0. -1.
         11    1    4    4    0    0 -0.33307894603E-01  0.13862762185E-02 -0.11802791697E-01  0.35368129969E-01  0.51100000000E-03 0.  1.
</event>
<event>
 8    1  0.1099921E+005  0.1043930E+01  0.7957747E-01            NaN
         13   -1    0    0    0    0  0.00000000000E+00  0.00000000000E+00  0.74505805969E-08  0.10566000000E+00  0.10566000000E+00 0. -1.
     999900   -1    0    0    0    0 -0.00000000000E+00 -0.00000000000E+00 -0.74505805969E-08  0.93827000000E+00  0.93827000000E+00 0.  1.
     999902    2    1    2    0    0 -0.13575404624E-01  0.63657300530E-02  0.16971678288E-01  0.10212837642E+01  0.10210326513E+01 0.  0.
     999903    2    3    3    0    0  0.10027628851E+00 -0.79698626281E-01  0.77407356773E-02  0.12973763994E+00  0.19097936028E-01 0.  0.
         14    1    1    2    0    0  0.13575404624E-01 -0.63657300530E-02 -0.16971678288E-01  0.22646235752E-01  0.00000000000E+00 0. -1.
     999901    1    3    3    0    0 -0.11385169314E+00  0.86064356334E-01  0.92309426112E-02  0.89154612430E+00  0.88000000000E+00 0. -1.
        -11    1    4    4    0    0  0.77692596274E-01 -0.54563276916E-01 -0.54867454038E-03  0.94941312759E-01  0.51100000000E-03 0. -1.
         11    1    4    4    0    0  0.22583692237E-01 -0.25135349365E-01  0.82894102177E-02  0.34796327184E-01  0.51100000000E-03 0.  1.
</event>
<event>
 8    1  0.1099921E+005  0.1043930E+01  0.7957747E-01            NaN
         13   -1    0    0    0    0  0.00000000000E+00  0.00000000000E+00  0.74505805969E-08  0.10566000000E+00  0.10566000000E+00 0. -1.
     999900   -1    0    0    0    0 -0.00000000000E+00 -0.00000000000E+00 -0.74505805969E-08  0.93827000000E+00  0.93827000000E+00 0.  1.
     999902    2    1    2    0    0  0.23373002635E-02 -0.27294826396E-02  0.22796052641E-01  0.10208524554E+01  0.10205915749E+01 0.  0.
     999903    2    3    3    0    0  0.49243607296E-01 -0.11567430762E+00  0.36978907833E-01  0.13228175563E+00  0.18042864105E-01 0.  0.
         14    1    1    2    0    0 -0.23373002635E-02  0.27294826396E-02 -0.22796052641E-01  0.23077544583E-01  0.00000000000E+00 0.  1.
     999901    1    3    3    0    0 -0.46906307033E-01  0.11294482499E+00 -0.14182855192E-01  0.88857069978E+00  0.88000000000E+00 0.  1.
        -11    1    4    4    0    0  0.20743772742E-01 -0.68885110522E-01  0.25310376166E-01  0.76264925239E-01  0.51100000000E-03 0.  1.
         11    1    4    4    0    0  0.28499834554E-01 -0.46789197103E-01  0.11668531667E-01  0.56016830395E-01  0.51100000000E-03 0. -1.
</event>
<event>
 8    1  0.1099921E+005  0.1043930E+01  0.7957747E-01            NaN
         13   -1    0    0    0    0  0.00000000000E+00  0.00000000000E+00  0.74505805969E-08  0.10566000000E+00  0.10566000000E+00 0. -1.
     999900   -1    0    0    0    0 -0.00000000000E+00 -0.00000000000E+00 -0.74505805969E-08  0.93827000000E+00  0.93827000000E+00 0.  1.
     999902    2    1    2    0    0 -0.79468575449E-02  0.14328495663E-01 -0.16773850949E-01  0.10204817504E+01  0.10202123223E+01 0.  0.
     999903    2    3    3    0    0 -0.58951411377E-02  0.57469065437E-02 -0.13127982249E+00  0.13301937334E+00  0.19798542019E-01 0.  0.
         14    1    1    2    0    0  0.79468575449E-02 -0.14328495663E-01  0.16773850949E-01  0.23448249582E-01  0.00000000000E+00 0. -1.
     999901    1    3    3    0    0 -0.20517164072E-02  0.85815891195E-02  0.11450597154E+00  0.88746237708E+00  0.88000000000E+00 0. -1.
        -11    1    4    4    0    0 -0.10466538041E-01 -0.10090090472E-02 -0.39583046336E-01  0.40959067324E-01  0.51100000000E-03 0.  1.
         11    1    4    4    0    0  0.45713969034E-02  0.67559155908E-02 -0.91696776156E-01  0.92060306015E-01  0.51100000000E-03 0. -1.
</event>
<event>
 8    1  0.1099921E+005  0.1043930E+01  0.7957747E-01            NaN
         13   -1    0    0    0    0  0.00000000000E+00  0.00000000000E+00  0.74505805969E-08  0.10566000000E+00  0.10566000000E+00 0. -1.
     999900   -1    0    0    0    0 -0.00000000000E+00 -0.00000000000E+00 -0.74505805969E-08  0.93827000000E+00  0.93827000000E+00 0. -1.
     999902    2    1    2    0    0  0.21592340986E-01  0.56276554945E-02  0.10188634360E-01  0.10194002636E+01  0.10191050925E+01 0.  0.
     999903    2    3    3    0    0  0.59335282752E-01  0.11498636365E+00 -0.11804273785E-01  0.13155593905E+00  0.20617580252E-01 0.  0.
         14    1    1    2    0    0 -0.21592340986E-01 -0.56276554945E-02 -0.10188634360E-01  0.24529736357E-01  0.00000000000E+00 0. -1.
     999901    1    3    3    0    0 -0.37742941765E-01 -0.10935870815E+00  0.21992908145E-01  0.88784432459E+00  0.88000000000E+00 0. -1.
        -11    1    4    4    0    0  0.41178214798E-01  0.96525577617E-01 -0.66836444360E-02  0.10515590679E+00  0.51100000000E-03 0.  1.
         11    1    4    4    0    0  0.18157067953E-01  0.18460786032E-01 -0.51206293492E-02  0.26400032263E-01  0.51100000000E-03 0. -1.
</event>
<event>
 8    1  0.1099921E+005  0.1043930E+01  0.7957747E-01            NaN
         13   -1    0    0    0    0  0.00000000000E+00  0.00000000000E+00  0.74505805969E-08  0.10566000000E+00  0.10566000000E+00 0. -1.
     999900   -1    0    0    0    0 -0.00000000000E+00 -0.00000000000E+00 -0.74505805969E-08  0.93827000000E+00  0.93827000000E+00 0.  1.
     999902    2    1    2    0    0  0.16216193591E-01  0.32995049504E-02  0.16803685803E-01  0.10203457781E+01  0.10200731794E+01 0.  0.
     999903    2    3    3    0    0 -0.98883661728E-01 -0.24243915494E-01  0.78341633337E-01  0.13029323148E+00  0.21752440335E-01 0.  0.
         14    1    1    2    0    0 -0.16216193591E-01 -0.32995049504E-02 -0.16803685803E-01  0.23584221930E-01  0.00000000000E+00 0. -1.
     999901    1    3    3    0    0  0.11509985532E+00  0.27543420444E-01 -0.61537947534E-01  0.89005254659E+00  0.88000000000E+00 0. -1.
        -11    1    4    4    0    0 -0.51420853970E-01 -0.14408776975E-02  0.37923838862E-01  0.63911337230E-01  0.51100000000E-03 0.  1.
         11    1    4    4    0    0 -0.47462807758E-01 -0.22803037796E-01  0.40417794475E-01  0.66381894250E-01  0.51100000000E-03 0. -1.
</event>
<event>
 8    1  0.1099921E+005  0.1043930E+01  0.7957747E-01            NaN
         13   -1    0    0    0    0  0.00000000000E+00  0.00000000000E+00  0.74505805969E-08  0.10566000000E+00  0.10566000000E+00 0.  1.
     999900   -1    0    0    0    0 -0.00000000000E+00 -0.00000000000E+00 -0.74505805969E-08  0.93827000000E+00  0.93827000000E+00 0. -1.
     999902    2    1    2    0    0 -0.11039939827E-01  0.18237295255E-01 -0.61974221811E-02  0.10217289358E+01  0.10214877048E+01 0.  0.
     999903    2    3    3    0    0 -0.20587444781E-01 -0.70975079791E-02  0.12783270641E+00  0.13116895328E+00  0.19745277287E-01 0.  0.
         14    1    1    2    0    0  0.11039939827E-01 -0.18237295255E-01  0.61974221811E-02  0.22201064193E-01  0.00000000000E+00 0.  1.
     999901    1    3    3    0    0  0.95475049544E-02  0.25334803234E-01 -0.13403012859E+00  0.89055998253E+00  0.88000000000E+00 0. -1.
        -11    1    4    4    0    0 -0.18492282162E-01 -0.12867852080E-01  0.86849909529E-01  0.89725771230E-01  0.51100000000E-03 0.  1.
         11    1    4    4    0    0 -0.20951626191E-02  0.57703441012E-02  0.40982796880E-01  0.41443182052E-01  0.51100000000E-03 0. -1.
</event>
<event>
 8    1  0.1099921E+005  0.1043930E+01  0.7957747E-01            NaN
         13   -1    0    0    0    0  0.00000000000E+00  0.00000000000E+00  0.74505805969E-08  0.10566000000E+00  0.10566000000E+00 0. -1.
     999900   -1    0    0    0    0 -0.00000000000E+00 -0.00000000000E+00 -0.74505805969E-08  0.93827000000E+00  0.93827000000E+00 0. -1.
     999902    2    1    2    0    0 -0.51059859194E-02 -0.22961602260E-01 -0.79966270790E-02  0.10190854369E+01  0.10187825457E+01 0.  0.
     999903    2    3    3    0    0 -0.12287420789E+00  0.34071872576E-01 -0.13617603739E-01  0.12939236245E+00  0.17262122202E-01 0.  0.
         14    1    1    2    0    0  0.51059859194E-02  0.22961602260E-01  0.79966270790E-02  0.24844563091E-01  0.00000000000E+00 0.  1.
     999901    1    3    3    0    0  0.11776822197E+00 -0.57033474835E-01  0.56209766597E-02  0.88969307446E+00  0.88000000000E+00 0.  1.
        -11    1    4    4    0    0 -0.46750138227E-01  0.43919805184E-02 -0.56664552319E-02  0.47299415990E-01  0.51100000000E-03 0.  1.
         11    1    4    4    0    0 -0.76124069667E-01  0.29679892057E-01 -0.79511485068E-02  0.82092946461E-01  0.51100000000E-03 0. -1.
</event>
<event>
 8    1  0.1099921E+005  0.1043930E+01  0.7957747E-01            NaN
         13   -1    0    0    0    0  0.00000000000E+00  0.00000000000E+00  0.74505805969E-08  0.10566000000E+00  0.10566000000E+00 0. -1.
     999900   -1    0    0    0    0 -0.00000000000E+00 -0.00000000000E+00 -0.74505805969E-08  0.93827000000E+00  0.93827000000E+00 0. -1.
     999902    2    1    2    0    0  0.10134089584E-01  0.10951262043E-01  0.18343700288E-01  0.10202842551E+01  0.10200102156E+01 0.  0.
     999903    2    3    3    0    0  0.34796232546E-01 -0.12266068233E+00  0.13784743333E-01  0.12984551095E+00  0.20332652985E-01 0.  0.
         14    1    1    2    0    0 -0.10134089584E-01 -0.10951262043E-01 -0.18343700288E-01  0.23645744909E-01  0.00000000000E+00 0.  1.
     999901    1    3    3    0    0 -0.24662142962E-01  0.13361194437E+00  0.45589569555E-02  0.89043874414E+00  0.88000000000E+00 0. -1.
        -11    1    4    4    0    0  0.87528453389E-02 -0.13000093526E-01 -0.27736588397E-02  0.15923851216E-01  0.51100000000E-03 0. -1.
         11    1    4    4    0    0  0.26043387207E-01 -0.10966058880E+00  0.16558402173E-01  0.11392165974E+00  0.51100000000E-03 0.  1.
</event>
<event>
 8    1  0.1099921E+005  0.1043930E+01  0.7957747E-01            NaN
         13   -1    0    0    0    0  0.00000000000E+00  0.00000000000E+00  0.74505805969E-08  0.10566000000E+00  0.10566000000E+00 0. -1.
     999900   -1    0    0    0    0 -0.00000000000E+00 -0.00000000000E+00 -0.74505805969E-08  0.93827000000E+00  0.93827000000E+00 0. -1.
     999902    2    1    2    0    0 -0.80149922666E-02 -0.12966923555E-01 -0.17813702545E-01  0.10204841218E+01  0.10202147488E+01 0.  0.
     999903    2    3    3    0    0 -0.14701113463E-01 -0.27501606248E-01  0.12354835353E+00  0.12905875074E+00  0.20481806556E-01 0.  0.
         14    1    1    2    0    0  0.80149922666E-02  0.12966923555E-01  0.17813702545E-01  0.23445878227E-01  0.00000000000E+00 0. -1.
     999901    1    3    3    0    0  0.66861211963E-02  0.14534682693E-01 -0.14136205608E+00  0.89142537103E+00  0.88000000000E+00 0. -1.
        -11    1    4    4    0    0  0.32710527385E-02 -0.38751990972E-02  0.62676414729E-02  0.80784531127E-02  0.51100000000E-03 0.  1.
         11    1    4    4    0    0 -0.17972166201E-01 -0.23626407151E-01  0.11728071206E+00  0.12098029763E+00  0.51100000000E-03 0. -1.
</event>
<event>
 8    1  0.1099921E+005  0.1043930E+01  0.7957747E-01            NaN
         13   -1    0    0    0    0  0.00000000000E+00  0.00000000000E+00  0.74505805969E-08  0.10566000000E+00  0.10566000000E+00 0.  1.
     999900   -1    0    0    0    0 -0.00000000000E+00 -0.00000000000E+00 -0.74505805969E-08  0.93827000000E+00  0.93827000000E+00 0.  1.
     999902    2    1    2    0    0  0.23349703726E-01  0.38001442721E-02 -0.25051510964E-02  0.10201408104E+01  0.10198633965E+01 0.  0.
     999903    2    3    3    0    0  0.30713392885E-01 -0.11473948640E+00 -0.51710403462E-01  0.13080002935E+00  0.18061550593E-01 0.  0.
         14    1    1    2    0    0 -0.23349703726E-01 -0.38001442721E-02  0.25051510964E-02  0.23789189616E-01  0.00000000000E+00 0.  1.
     999901    1    3    3    0    0 -0.73636891591E-02  0.11853963067E+00  0.49205252365E-01  0.88934078104E+00  0.88000000000E+00 0. -1.
        -11    1    4    4    0    0  0.24651311821E-01 -0.66599984228E-01 -0.24236030682E-01  0.75039265574E-01  0.51100000000E-03 0.  1.
         11    1    4    4    0    0  0.60620810641E-02 -0.48139502169E-01 -0.27474372779E-01  0.55760763773E-01  0.51100000000E-03 0. -1.
</event>
<event>
 8    1  0.1099921E+005  0.1043930E+01  0.7957747E-01            NaN
         13   -1    0    0    0    0  0.00000000000E+00  0.00000000000E+00  0.74505805969E-08  0.10566000000E+00  0.10566000000E+00 0.  1.
     999900   -1    0    0    0    0 -0.00000000000E+00 -0.00000000000E+00 -0.74505805969E-08  0.93827000000E+00  0.93827000000E+00 0.  1.
     999902    2    1    2    0    0  0.52089178685E-02  0.48861232919E-02  0.22802479537E-01  0.10200352286E+01  0.10197553175E+01 0.  0.
     999903    2    3    3    0    0  0.69796776517E-01 -0.10469152810E+00  0.29529072118E-01  0.13086477240E+00  0.20535736841E-01 0.  0.
         14    1    1    2    0    0 -0.52089178685E-02 -0.48861232919E-02 -0.22802479537E-01  0.23894771378E-01  0.00000000000E+00 0. -1.
     999901    1    3    3    0    0 -0.64587858648E-01  0.10957765139E+00 -0.67265925813E-02  0.88917045622E+00  0.88000000000E+00 0. -1.
        -11    1    4    4    0    0  0.59894381148E-01 -0.86257129933E-01  0.16752533428E-01  0.10634160923E+00  0.51100000000E-03 0. -1.
         11    1    4    4    0    0  0.99023953687E-02 -0.18434398166E-01  0.12776538690E-01  0.24523163166E-01  0.51100000000E-03 0.  1.
</event>
<event>
 8    1  0.1099921E+005  0.1043930E+01  0.7957747E-01            NaN
         13   -1    0    0    0    0  0.00000000000E+00  0.00000000000E+00  0.74505805969E-08  0.10566000000E+00  0.10566000000E+00 0. -1.
     999900   -1    0    0    0    0 -0.00000000000E+00 -0.00000000000E+00 -0.74505805969E-08  0.93827000000E+00  0.93827000000E+00 0.  1.
     999902    2    1    2    0    0 -0.15609791689E-01 -0.49796202356E-02 -0.17388742264E-01  0.10200379391E+01  0.10197580923E+01 0.  0.
     999903    2    3    3    0    0  0.73526745978E-01  0.97693114350E-01 -0.34792257887E-01  0.12942584899E+00  0.24298605163E-01 0.  0.
         14    1    1    2    0    0  0.15609791689E-01  0.49796202356E-02  0.17388742264E-01  0.23892060853E-01  0.00000000000E+00 0. -1.
     999901    1    3    3    0    0 -0.89136537667E-01 -0.10267273459E+00  0.17403515622E-01  0.89061209016E+00  0.88000000000E+00 0. -1.
        -11    1    4    4    0    0  0.33026110191E-01  0.41263630737E-01 -0.27399324829E-02  0.52926170530E-01  0.51100000000E-03 0. -1.
         11    1    4    4    0    0  0.40500635787E-01  0.56429483614E-01 -0.32052325404E-01  0.76499678462E-01  0.51100000000E-03 0.  1.
</event>
<event>
 8    1  0.1099921E+005  0.1043930E+01  0.7957747E-01            NaN
         13   -1    0    0    0    0  0.00000000000E+00  0.00000000000E+00  0.74505805969E-08  0.10566000000E+00  0.10566000000E+00 0.  1.
     999900   -1    0    0    0    0 -0.00000000000E+00 -0.00000000000E+00 -0.74505805969E-08  0.93827000000E+00  0.93827000000E+00 0.  1.
     999902    2    1    2    0    0 -0.12388881534E-01  0.18947538340E-01  0.66194805347E-02  0.10203437515E+01  0.10200711054E+01 0.  0.
     999903    2    3    3    0    0  0.65408789516E-02 -0.73227879397E-01 -0.10314025209E+00  0.12854677778E+00  0.21937571808E-01 0.  0.
         14    1    1    2    0    0  0.12388881534E-01 -0.18947538340E-01 -0.66194805347E-02  0.23586248480E-01  0.00000000000E+00 0.  1.
     999901    1    3    3    0    0 -0.18929760486E-01  0.92175417737E-01  0.10975973263E+00  0.89179697374E+00  0.88000000000E+00 0. -1.
        -11    1    4    4    0    0  0.64994689469E-02 -0.19265484395E-01 -0.15287872646E-01  0.25443705638E-01  0.51100000000E-03 0.  1.
         11    1    4    4    0    0  0.41410004710E-04 -0.53962395002E-01 -0.87852379448E-01  0.10310307214E+00  0.51100000000E-03 0. -1.
</event>
<event>
 8    1  0.1099921E+005  0.1043930E+01  0.7957747E-01            NaN
         13   -1    0    0    0    0  0.00000000000E+00  0.00000000000E+00  0.74505805969E-08  0.10566000000E+00  0.10566000000E+00 0. -1.
     999900   -1    0    0    0    0 -0.00000000000E+00 -0.00000000000E+00 -0.74505805969E-08  0.93827000000E+00  0.93827000000E+00 0. -1.
     999902    2    1    2    0    0  0.10553407153E-02  0.31198647023E-02  0.25337161783E-01  0.10183796758E+01  0.10180591068E+01 0.  0.
     999903    2    3    3    0    0  0.59402604225E-02 -0.78369937447E-01  0.10294833861E+00  0.13119990536E+00  0.20926561000E-01 0.  0.
         14    1    1    2    0    0 -0.10553407153E-02 -0.31198647023E-02 -0.25337161783E-01  0.25550324206E-01  0.00000000000E+00 0.  1.
     999901    1    3    3    0    0 -0.48849197072E-02  0.81489802149E-01 -0.77611176826E-01  0.88717977043E+00  0.88000000000E+00 0. -1.
        -11    1    4    4    0    0 -0.23798854856E-02 -0.59301833507E-01  0.65749230374E-01  0.88575356211E-01  0.51100000000E-03 0.  1.
         11    1    4    4    0    0  0.83201459081E-02 -0.19068103940E-01  0.37199108236E-01  0.42624549151E-01  0.51100000000E-03 0. -1.
</event>
<event>
 8    1  0.1099921E+005  0.1043930E+01  0.7957747E-01            NaN
         13   -1    0    0    0    0  0.00000000000E+00  0.00000000000E+00  0.74505805969E-08  0.10566000000E+00  0.10566000000E+00 0.  1.
     999900   -1    0    0    0    0 -0.00000000000E+00 -0.00000000000E+00 -0.74505805969E-08  0.93827000000E+00  0.93827000000E+00 0.  1.
     999902    2    1    2    0    0  0.18546521271E-01 -0.10252269346E-01  0.24286610640E-02  0.10225997194E+01  0.10223772323E+01 0.  0.
     999903    2    3    3    0    0  0.10695140598E+00  0.11440197661E-01  0.78589659521E-01  0.13463210482E+00  0.19493273233E-01 0.  0.
         14    1    1    2    0    0 -0.18546521271E-01  0.10252269346E-01 -0.24286610640E-02  0.21330280649E-01  0.00000000000E+00 0.  1.
     999901    1    3    3    0    0 -0.88404884711E-01 -0.21692467007E-01 -0.76160998457E-01  0.88796761453E+00  0.88000000000E+00 0.  1.
        -11    1    4    4    0    0  0.81107929214E-01  0.13672532667E-01  0.67549738711E-01  0.10643619052E+00  0.51100000000E-03 0.  1.
         11    1    4    4    0    0  0.25843476767E-01 -0.22323350059E-02  0.11039920810E-01  0.28195914305E-01  0.51100000000E-03 0. -1.
</event>
<event>
 8    1  0.1099921E+005  0.1043930E+01  0.7957747E-01            NaN
         13   -1    0    0    0    0  0.00000000000E+00  0.00000000000E+00  0.74505805969E-08  0.10566000000E+00  0.10566000000E+00 0.  1.
     999900   -1    0    0    0    0 -0.00000000000E+00 -0.00000000000E+00 -0.74505805969E-08  0.93827000000E+00  0.93827000000E+00 0.  1.
     999902    2    1    2    0    0  0.54682819155E-02 -0.12429435586E-01  0.19564107175E-01  0.10201151461E+01  0.10198371262E+01 0.  0.
     999903    2    3    3    0    0  0.88298920589E-01  0.19754114128E-02 -0.91772046947E-01  0.12912459985E+00  0.21223855856E-01 0.  0.
         14    1    1    2    0    0 -0.54682819155E-02  0.12429435586E-01 -0.19564107175E-01  0.23814853887E-01  0.00000000000E+00 0. -1.
     999901    1    3    3    0    0 -0.82830638673E-01 -0.14404846999E-01  0.11133615412E+00  0.89099054627E+00  0.88000000000E+00 0. -1.
        -11    1    4    4    0    0  0.53755048499E-01 -0.44680213655E-02 -0.42864089160E-01  0.68899635083E-01  0.51100000000E-03 0.  1.
         11    1    4    4    0    0  0.34543872090E-01  0.64434327783E-02 -0.48907957787E-01  0.60224964764E-01  0.51100000000E-03 0. -1.
</event>
<event>
 8    1  0.1099921E+005  0.1043930E+01  0.7957747E-01            NaN
         13   -1    0    0    0    0  0.00000000000E+00  0.00000000000E+00  0.74505805969E-08  0.10566000000E+00  0.10566000000E+00 0.  1.
     999900   -1    0    0    0    0 -0.00000000000E+00 -0.00000000000E+00 -0.74505805969E-08  0.93827000000E+00  0.93827000000E+00 0. -1.
     999902    2    1    2    0    0 -0.23415753226E-01  0.16481639017E-02 -0.36679850797E-03  0.10204534482E+01  0.10201833617E+01 0.  0.
     999903    2    3    3    0    0 -0.59311028365E-02  0.23782419640E-02  0.12914673825E+00  0.13080182974E+00  0.19733338464E-01 0.  0.
         14    1    1    2    0    0  0.23415753226E-01 -0.16481639017E-02  0.36679850797E-03  0.23476551803E-01  0.00000000000E+00 0. -1.
     999901    1    3    3    0    0 -0.17484650390E-01 -0.73007806230E-03 -0.12951353676E+00  0.88965161845E+00  0.88000000000E+00 0. -1.
        -11    1    4    4    0    0  0.73190376476E-02  0.65782939767E-03  0.44540269262E-01  0.45145296085E-01  0.51100000000E-03 0. -1.
         11    1    4    4    0    0 -0.13250140484E-01  0.17204125664E-02  0.84606468991E-01  0.85656533658E-01  0.51100000000E-03 0.  1.
</event>
<event>
 8    1  0.1099921E+005  0.1043930E+01  0.7957747E-01            NaN
         13   -1    0    0    0    0  0.00000000000E+00  0.00000000000E+00  0.74505805969E-08  0.10566000000E+00  0.10566000000E+00 0. -1.
     999900   -1    0    0    0    0 -0.00000000000E+00 -0.00000000000E+00 -0.74505805969E-08  0.93827000000E+00  0.93827000000E+00 0.  1.
     999902    2    1    2    0    0  0.21948894889E-01 -0.71410184530E-02  0.48321294806E-02  0.10203482781E+01  0.10200757379E+01 0.  0.
     999903    2    3    3    0    0 -0.90825767861E-01 -0.67728437571E-01  0.59536242209E-01  0.12940411609E+00  0.19089257733E-01 0.  0.
         14    1    1    2    0    0 -0.21948894889E-01  0.71410184530E-02 -0.48321294806E-02  0.23581721878E-01  0.00000000000E+00 0.  1.
     999901    1    3    3    0    0  0.11277466275E+00  0.60587419118E-01 -0.54704112729E-01  0.89094416203E+00  0.88000000000E+00 0.  1.
        -11    1    4    4    0    0 -0.64552256948E-01 -0.38390989071E-01  0.44128991065E-01  0.87111944602E-01  0.51100000000E-03 0.  1.
         11    1    4    4    0    0 -0.26273510913E-01 -0.29337448500E-01  0.15407251145E-01  0.42292171486E-01  0.51100000000E-03 0. -1.
</event>
<event>
 8    1  0.1099921E+005  0.1043930E+01  0.7957747E-01            NaN
         13   -1    0    0    0    0  0.00000000000E+00  0.00000000000E+00  0.74505805969E-08  0.10566000000E+00  0.10566000000E+00 0.  1.
     999900   -1    0    0    0    0 -0.00000000000E+00 -0.00000000000E+00 -0.74505805969E-08  0.93827000000E+00  0.93827000000E+00 0.  1.
     999902    2    1    2    0    0 -0.15306088115E-01  0.11209687100E-01  0.13773010844E-01  0.10204858270E+01  0.10202164937E+01 0.  0.
     999903    2    3    3    0    0  0.90182845992E-01 -0.65436832206E-01 -0.59522368465E-01  0.12786338906E+00  0.19779008948E-01 0.  0.
         14    1    1    2    0    0  0.15306088115E-01 -0.11209687100E-01 -0.13773010844E-01  0.23444172964E-01  0.00000000000E+00 0.  1.
     999901    1    3    3    0    0 -0.10548893411E+00  0.76646519306E-01  0.73295379310E-01  0.89262243797E+00  0.88000000000E+00 0. -1.
        -11    1    4    4    0    0  0.10918871152E-01 -0.13928462797E-01 -0.37247400993E-02  0.18093054826E-01  0.51100000000E-03 0.  1.
         11    1    4    4    0    0  0.79263974840E-01 -0.51508369409E-01 -0.55797628366E-01  0.10977033424E+00  0.51100000000E-03 0. -1.
</event>
<event>
 8    1  0.1099921E+005  0.1043930E+01  0.7957747E-01            NaN
         13   -1    0    0    0    0  0.00000000000E+00  0.00000000000E+00  0.74505805969E-08  0.10566000000E+00  0.10566000000E+00 0. -1.
     999900   -1    0    0    0    0 -0.00000000000E+00 -0.00000000000E+00 -0.74505805969E-08  0.93827000000E+00  0.93827000000E+00 0. -1.
     999902    2    1    2    0    0 -0.11037134692E-01 -0.18344040743E-01 -0.10237838153E-01  0.10201995238E+01  0.10199234936E+01 0.  0.
     999903    2    3    3    0    0 -0.68997293780E-01  0.26737797491E-01  0.10452798824E+00  0.12971485398E+00  0.20598705189E-01 0.  0.
         14    1    1    2    0    0  0.11037134692E-01  0.18344040743E-01  0.10237838153E-01  0.23730476249E-01  0.00000000000E+00 0. -1.
     999901    1    3    3    0    0  0.57960159088E-01 -0.45081838234E-01 -0.11476582639E+00  0.89048466977E+00  0.88000000000E+00 0.  1.
        -11    1    4    4    0    0 -0.67355162448E-01  0.26900378455E-01  0.92409856484E-01  0.11747421405E+00  0.51100000000E-03 0.  1.
         11    1    4    4    0    0 -0.16421313320E-02 -0.16258096383E-03  0.12118131755E-01  0.12240639939E-01  0.51100000000E-03 0. -1.
</event>
<event>
 8    1  0.1099921E+005  0.1043930E+01  0.7957747E-01            NaN
         13   -1    0    0    0    0  0.00000000000E+00  0.00000000000E+00  0.74505805969E-08  0.10566000000E+00  0.10566000000E+00 0.  1.
     999900   -1    0    0    0    0 -0.00000000000E+00 -0.00000000000E+00 -0.74505805969E-08  0.93827000000E+00  0.93827000000E+00 0.  1.
     999902    2    1    2    0    0  0.10728261753E-01  0.53698501914E-02 -0.20588024277E-01  0.10201014953E+01  0.10198231529E+01 0.  0.
     999903    2    3    3    0    0  0.42938320354E-01  0.56809332594E-01  0.10571249371E+00  0.12901489512E+00  0.19967779314E-01 0.  0.
         14    1    1    2    0    0 -0.10728261753E-01 -0.53698501914E-02  0.20588024277E-01  0.23828504673E-01  0.00000000000E+00 0.  1.
     999901    1    3    3    0    0 -0.32210058601E-01 -0.51439482403E-01 -0.12630051799E+00  0.89108660021E+00  0.88000000000E+00 0.  1.
        -11    1    4    4    0    0  0.12858271230E-01  0.20773033930E-01  0.53414119230E-01  0.58738261226E-01  0.51100000000E-03 0.  1.
         11    1    4    4    0    0  0.30080049124E-01  0.36036298665E-01  0.52298374484E-01  0.70276633894E-01  0.51100000000E-03 0. -1.
</event>
<event>
 8    1  0.1099921E+005  0.1043930E+01  0.7957747E-01            NaN
         13   -1    0    0    0    0  0.00000000000E+00  0.00000000000E+00  0.74505805969E-08  0.10566000000E+00  0.10566000000E+00 0.  1.
     999900   -1    0    0    0    0 -0.00000000000E+00 -0.00000000000E+00 -0.74505805969E-08  0.93827000000E+00  0.93827000000E+00 0.  1.
     999902    2    1    2    0    0 -0.45444318679E-02 -0.17545827149E-01 -0.15113672855E-01  0.10203306140E+01  0.10200576606E+01 0.  0.
     999903    2    3    3    0    0  0.11539464728E+00  0.47154492839E-01  0.26199945425E-01  0.12888329131E+00  0.19621284947E-01 0.  0.
         14    1    1    2    0    0  0.45444318679E-02  0.17545827149E-01  0.15113672855E-01  0.23599385978E-01  0.00000000000E+00 0.  1.
     999901    1    3    3    0    0 -0.11993907915E+00 -0.64700319988E-01 -0.41313618281E-01  0.89144732271E+00  0.88000000000E+00 0.  1.
        -11    1    4    4    0    0  0.36211770086E-01  0.24466370212E-01  0.64592123235E-02  0.44180064610E-01  0.51100000000E-03 0. -1.
         11    1    4    4    0    0  0.79182877195E-01  0.22688122627E-01  0.19740733102E-01  0.84703226701E-01  0.51100000000E-03 0.  1.
</event>
<event>
 8    1  0.1099921E+005  0.1043930E+01  0.7957747E-01            NaN
         13   -1    0    0    0    0  0.00000000000E+00  0.00000000000E+00  0.74505805969E-08  0.10566000000E+00  0.10566000000E+00 0.  1.
     999900   -1    0    0    0    0 -0.00000000000E+00 -0.00000000000E+00 -0.74505805969E-08  0.93827000000E+00  0.93827000000E+00 0.  1.
     999902    2    1    2    0    0 -0.12664522023E-03  0.79598847207E-03 -0.24721568939E-01  0.10191952955E+01  0.10188951098E+01 0.  0.
     999903    2    3    3    0    0  0.19015338282E-01 -0.11187182653E+00 -0.59590819595E-01  0.13112079596E+00  0.27653366721E-01 0.  0.
         14    1    1    2    0    0  0.12664522023E-03 -0.79598847207E-03  0.24721568939E-01  0.24734704516E-01  0.00000000000E+00 0.  1.
     999901    1    3    3    0    0 -0.19141983502E-01  0.11266781500E+00  0.34869250656E-01  0.88807449953E+00  0.88000000000E+00 0.  1.
        -11    1    4    4    0    0  0.22591347998E-02 -0.53177174810E-01 -0.41380968816E-01  0.67420778044E-01  0.51100000000E-03 0. -1.
         11    1    4    4    0    0  0.16756203482E-01 -0.58694651720E-01 -0.18209850779E-01  0.63700017913E-01  0.51100000000E-03 0.  1.
</event>
<event>
 8    1  0.1099921E+005  0.1043930E+01  0.7957747E-01            NaN
         13   -1    0    0    0    0  0.00000000000E+00  0.00000000000E+00  0.74505805969E-08  0.10566000000E+00  0.10566000000E+00 0.  1.
     999900   -1    0    0    0    0 -0.00000000000E+00 -0.00000000000E+00 -0.74505805969E-08  0.93827000000E+00  0.93827000000E+00 0. -1.
     999902    2    1    2    0    0 -0.20461880868E-01  0.75748762284E-02 -0.87204242578E-02  0.10204329126E+01  0.10201623478E+01 0.  0.
     999903    2    3    3    0    0 -0.10544223243E-01 -0.81090566660E-02  0.12759905728E+00  0.12974365883E+00  0.19363887607E-01 0.  0.
         14    1    1    2    0    0  0.20461880868E-01 -0.75748762284E-02  0.87204242578E-02  0.23497087431E-01  0.00000000000E+00 0.  1.
     999901    1    3    3    0    0 -0.99176576251E-02  0.15683932894E-01 -0.13631948154E+00  0.89068925374E+00  0.88000000000E+00 0. -1.
        -11    1    4    4    0    0 -0.33417888359E-03 -0.12391440991E-01  0.66450316527E-01  0.67598558956E-01  0.51100000000E-03 0.  1.
         11    1    4    4    0    0 -0.10210044359E-01  0.42823843247E-02  0.61148740753E-01  0.62145099871E-01  0.51100000000E-03 0. -1.
</event>
<event>
 8    1  0.1099921E+005  0.1043930E+01  0.7957747E-01            NaN
         13   -1    0    0    0    0  0.00000000000E+00  0.00000000000E+00  0.74505805969E-08  0.10566000000E+00  0.10566000000E+00 0.  1.
     999900   -1    0    0    0    0 -0.00000000000E+00 -0.00000000000E+00 -0.74505805969E-08  0.93827000000E+00  0.93827000000E+00 0. -1.
     999902    2    1    2    0    0  0.21362709206E-01  0.12791332327E-01  0.31890060145E-02  0.10188271458E+01  0.10185178446E+01 0.  0.
     999903    2    3    3    0    0 -0.57386806882E-01 -0.10933206013E+00  0.21186298906E-01  0.12672877020E+00  0.19093898484E-01 0.  0.
         14    1    1    2    0    0 -0.21362709206E-01 -0.12791332327E-01 -0.31890060145E-02  0.25102854154E-01  0.00000000000E+00 0. -1.
     999901    1    3    3    0    0  0.78749516088E-01  0.12212339246E+00 -0.17997292892E-01  0.89209837564E+00  0.88000000000E+00 0. -1.
        -11    1    4    4    0    0 -0.50056237796E-01 -0.77399319184E-01  0.15879016185E-01  0.93534409862E-01  0.51100000000E-03 0. -1.
         11    1    4    4    0    0 -0.73305690865E-02 -0.31932740949E-01  0.53072827215E-02  0.33194360342E-01  0.51100000000E-03 0.  1.
</event>
<event>
 8    1  0.1099921E+005  0.1043930E+01  0.7957747E-01            NaN
         13   -1    0    0    0    0  0.00000000000E+00  0.00000000000E+00  0.74505805969E-08  0.10566000000E+00  0.10566000000E+00 0. -1.
     999900   -1    0    0    0    0 -0.00000000000E+00 -0.00000000000E+00 -0.74505805969E-08  0.93827000000E+00  0.93827000000E+00 0.  1.
     999902    2    1    2    0    0 -0.27916703000E-01 -0.15168946465E-01 -0.92540428832E-03  0.10121448523E+01  0.10116456427E+01 0.  0.
     999903    2    3    3    0    0 -0.11410151365E+00 -0.29273844355E-01  0.42789932540E-01  0.12674223176E+00  0.18881250046E-01 0.  0.
         14    1    1    2    0    0  0.27916703000E-01  0.15168946465E-01  0.92540428832E-03  0.31785147732E-01  0.00000000000E+00 0.  1.
     999901    1    3    3    0    0  0.86184810651E-01  0.14104897889E-01 -0.43715336829E-01  0.88540262051E+00  0.88000000000E+00 0.  1.
        -11    1    4    4    0    0 -0.56310578265E-01 -0.99952249454E-02  0.11832489194E-01  0.58404235016E-01  0.51100000000E-03 0.  1.
         11    1    4    4    0    0 -0.57790935386E-01 -0.19278619409E-01  0.30957443347E-01  0.68337996742E-01  0.51100000000E-03 0. -1.
</event>
<event>
 8    1  0.1099921E+005  0.1043930E+01  0.7957747E-01            NaN
         13   -1    0    0    0    0  0.00000000000E+00  0.00000000000E+00  0.74505805969E-08  0.10566000000E+00  0.10566000000E+00 0. -1.
     999900   -1    0    0    0    0 -0.00000000000E+00 -0.00000000000E+00 -0.74505805969E-08  0.93827000000E+00  0.93827000000E+00 0.  1.
     999902    2    1    2    0    0  0.15482840002E-01 -0.24981959369E-02  0.21369969757E-01  0.10174227383E+01  0.10170773783E+01 0.  0.
     999903    2    3    3    0    0  0.11280890687E+00 -0.50598092565E-01  0.36516155272E-01  0.13062210098E+00  0.21040133763E-01 0.  0.
         14    1    1    2    0    0 -0.15482840002E-01  0.24981959369E-02 -0.21369969757E-01  0.26507261738E-01  0.00000000000E+00 0.  1.
     999901    1    3    3    0    0 -0.97326066866E-01  0.48099896628E-01 -0.15146185515E-01  0.88680063728E+00  0.88000000000E+00 0. -1.
        -11    1    4    4    0    0  0.29614923682E-01 -0.23157053308E-01  0.14476148932E-01  0.40287874498E-01  0.51100000000E-03 0.  1.
         11    1    4    4    0    0  0.83193983186E-01 -0.27441039256E-01  0.22040006339E-01  0.90334226482E-01  0.51100000000E-03 0. -1.
</event>
<event>
 8    1  0.1099921E+005  0.1043930E+01  0.7957747E-01            NaN
         13   -1    0    0    0    0  0.00000000000E+00  0.00000000000E+00  0.74505805969E-08  0.10566000000E+00  0.10566000000E+00 0. -1.
     999900   -1    0    0    0    0 -0.00000000000E+00 -0.00000000000E+00 -0.74505805969E-08  0.93827000000E+00  0.93827000000E+00 0.  1.
     999902    2    1    2    0    0 -0.16774318202E-01  0.16638676577E-01  0.64694097874E-02  0.10194335396E+01  0.10191391785E+01 0.  0.
     999903    2    3    3    0    0 -0.10592495267E+00  0.28153724118E-01  0.71248606703E-01  0.13248552742E+00  0.21524944560E-01 0.  0.
         14    1    1    2    0    0  0.16774318202E-01 -0.16638676577E-01 -0.64694097874E-02  0.24496460406E-01  0.00000000000E+00 0.  1.
     999901    1    3    3    0    0  0.89150634471E-01 -0.11515047541E-01 -0.64779196915E-01  0.88694801217E+00  0.88000000000E+00 0.  1.
        -11    1    4    4    0    0 -0.38551047965E-01 -0.17497218590E-03  0.26542624706E-01  0.46807968999E-01  0.51100000000E-03 0. -1.
         11    1    4    4    0    0 -0.67373904708E-01  0.28328696304E-01  0.44705981996E-01  0.85677558422E-01  0.51100000000E-03 0.  1.
</event>
<event>
 8    1  0.1099921E+005  0.1043930E+01  0.7957747E-01            NaN
         13   -1    0    0    0    0  0.00000000000E+00  0.00000000000E+00  0.74505805969E-08  0.10566000000E+00  0.10566000000E+00 0.  1.
     999900   -1    0    0    0    0 -0.00000000000E+00 -0.00000000000E+00 -0.74505805969E-08  0.93827000000E+00  0.93827000000E+00 0.  1.
     999902    2    1    2    0    0 -0.31064904136E-02  0.62910679191E-02 -0.22830491256E-01  0.10200457133E+01  0.10197660507E+01 0.  0.
     999903    2    3    3    0    0  0.96037699482E-01 -0.16015594604E-01  0.81182926423E-01  0.12811188808E+00  0.18499981966E-01 0.  0.
         14    1    1    2    0    0  0.31064904136E-02 -0.62910679191E-02  0.22830491256E-01  0.23884286660E-01  0.00000000000E+00 0.  1.
     999901    1    3    3    0    0 -0.99144189896E-01  0.22306662523E-01 -0.10401341768E+00  0.89193382526E+00  0.88000000000E+00 0.  1.
        -11    1    4    4    0    0  0.20966167323E-01 -0.69898207632E-02  0.27966694145E-01  0.35648770931E-01  0.51100000000E-03 0. -1.
         11    1    4    4    0    0  0.75071532159E-01 -0.90257738409E-02  0.53216232278E-01  0.92463117150E-01  0.51100000000E-03 0.  1.
</event>
<event>
 8    1  0.1099921E+005  0.1043930E+01  0.7957747E-01            NaN
         13   -1    0    0    0    0  0.00000000000E+00  0.00000000000E+00  0.74505805969E-08  0.10566000000E+00  0.10566000000E+00 0. -1.
     999900   -1    0    0    0    0 -0.00000000000E+00 -0.00000000000E+00 -0.74505805969E-08  0.93827000000E+00  0.93827000000E+00 0. -1.
     999902    2    1    2    0    0 -0.59713734259E-02  0.80119488199E-02  0.21760919668E-01  0.10199845151E+01  0.10197034004E+01 0.  0.
     999903    2    3    3    0    0 -0.75238582681E-01 -0.70858732663E-01 -0.73885966542E-01  0.12859971738E+00  0.19923527321E-01 0.  0.
         14    1    1    2    0    0  0.59713734259E-02 -0.80119488199E-02 -0.21760919668E-01  0.23945484946E-01  0.00000000000E+00 0.  1.
     999901    1    3    3    0    0  0.69267209255E-01  0.78870681483E-01  0.95646886211E-01  0.89138479767E+00  0.88000000000E+00 0.  1.
        -11    1    4    4    0    0 -0.39541878416E-01 -0.48369565718E-01 -0.50664683666E-01  0.80438462991E-01  0.51100000000E-03 0. -1.
         11    1    4    4    0    0 -0.35696704265E-01 -0.22489166945E-01 -0.23221282876E-01  0.48161254393E-01  0.51100000000E-03 0.  1.
</event>
<event>
 8    1  0.1099921E+005  0.1043930E+01  0.7957747E-01            NaN
         13   -1    0    0    0    0  0.00000000000E+00  0.00000000000E+00  0.74505805969E-08  0.10566000000E+00  0.10566000000E+00 0.  1.
     999900   -1    0    0    0    0 -0.00000000000E+00 -0.00000000000E+00 -0.74505805969E-08  0.93827000000E+00  0.93827000000E+00 0.  1.
     999902    2    1    2    0    0  0.39806603774E-02 -0.15055305229E-01 -0.19574680364E-01  0.10189164840E+01  0.10186094076E+01 0.  0.
     999903    2    3    3    0    0 -0.11536384239E+00  0.38538940759E-01  0.32113581809E-01  0.12774471041E+00  0.22211772017E-01 0.  0.
         14    1    1    2    0    0 -0.39806603774E-02  0.15055305229E-01  0.19574680364E-01  0.25013516025E-01  0.00000000000E+00 0.  1.
     999901    1    3    3    0    0  0.11934450277E+00 -0.53594245989E-01 -0.51688262173E-01  0.89117177356E+00  0.88000000000E+00 0. -1.
        -11    1    4    4    0    0 -0.98141014176E-01  0.27335881974E-01  0.19795174708E-01  0.10378352070E+00  0.51100000000E-03 0. -1.
         11    1    4    4    0    0 -0.17222828215E-01  0.11203058785E-01  0.12318407101E-01  0.23961189711E-01  0.51100000000E-03 0.  1.
</event>
<event>
 8    1  0.1099921E+005  0.1043930E+01  0.7957747E-01            NaN
         13   -1    0    0    0    0  0.00000000000E+00  0.00000000000E+00  0.74505805969E-08  0.10566000000E+00  0.10566000000E+00 0.  1.
     999900   -1    0    0    0    0 -0.00000000000E+00 -0.00000000000E+00 -0.74505805969E-08  0.93827000000E+00  0.93827000000E+00 0.  1.
     999902    2    1    2    0    0 -0.12346143247E-01 -0.21584709350E-01  0.68970236722E-02  0.10181250418E+01  0.10177979686E+01 0.  0.
     999903    2    3    3    0    0 -0.77298381604E-01 -0.44018365665E-01  0.95787032687E-01  0.13098159463E+00  0.82683847341E-02 0.  0.
         14    1    1    2    0    0  0.12346143247E-01  0.21584709350E-01 -0.68970236722E-02  0.25804958173E-01  0.00000000000E+00 0. -1.
     999901    1    3    3    0    0  0.64952238358E-01  0.22433656315E-01 -0.88890009015E-01  0.88714344720E+00  0.88000000000E+00 0.  1.
        -11    1    4    4    0    0 -0.37455025125E-01 -0.17358663736E-01  0.47551181858E-01  0.62972836453E-01  0.51100000000E-03 0.  1.
         11    1    4    4    0    0 -0.39843356480E-01 -0.26659701929E-01  0.48235850829E-01  0.68008758176E-01  0.51100000000E-03 0. -1.
</event>
<event>
 8    1  0.1099921E+005  0.1043930E+01  0.7957747E-01            NaN
         13   -1    0    0    0    0  0.00000000000E+00  0.00000000000E+00  0.74505805969E-08  0.10566000000E+00  0.10566000000E+00 0. -1.
     999900   -1    0    0    0    0 -0.00000000000E+00 -0.00000000000E+00 -0.74505805969E-08  0.93827000000E+00  0.93827000000E+00 0. -1.
     999902    2    1    2    0    0 -0.10873859965E-01 -0.94446045148E-03  0.20161757190E-01  0.10210033934E+01  0.10207459528E+01 0.  0.
     999903    2    3    3    0    0 -0.64800467846E-01  0.94979694573E-01  0.63978524231E-01  0.13306790499E+00  0.19838668310E-01 0.  0.
         14    1    1    2    0    0  0.10873859965E-01  0.94446045148E-03 -0.20161757190E-01  0.22926606576E-01  0.00000000000E+00 0.  1.
     999901    1    3    3    0    0  0.53926607880E-01 -0.95924155024E-01 -0.43816767041E-01  0.88793548844E+00  0.88000000000E+00 0. -1.
        -11    1    4    4    0    0 -0.40624841324E-01  0.65579839907E-01  0.52476997171E-01  0.93301604959E-01  0.51100000000E-03 0. -1.
         11    1    4    4    0    0 -0.24175626522E-01  0.29399854666E-01  0.11501527059E-01  0.39766300027E-01  0.51100000000E-03 0.  1.
</event>
<event>
 8    1  0.1099921E+005  0.1043930E+01  0.7957747E-01            NaN
         13   -1    0    0    0    0  0.00000000000E+00  0.00000000000E+00  0.74505805969E-08  0.10566000000E+00  0.10566000000E+00 0.  1.
     999900   -1    0    0    0    0 -0.00000000000E+00 -0.00000000000E+00 -0.74505805969E-08  0.93827000000E+00  0.93827000000E+00 0. -1.
     999902    2    1    2    0    0 -0.30427710279E-03  0.21327201205E-01 -0.11520299160E-01  0.10196883130E+01  0.10194001159E+01 0.  0.
     999903    2    3    3    0    0 -0.10436684412E+00 -0.70495514876E-01 -0.16844789123E-01  0.12879618753E+00  0.21039373379E-01 0.  0.
         14    1    1    2    0    0  0.30427710279E-03 -0.21327201205E-01  0.11520299160E-01  0.24241686999E-01  0.00000000000E+00 0. -1.
     999901    1    3    3    0    0  0.10406256701E+00  0.91822716081E-01  0.53244899629E-02  0.89089212548E+00  0.88000000000E+00 0.  1.
        -11    1    4    4    0    0 -0.59803503221E-01 -0.49675686924E-01 -0.34811350892E-02  0.77823597266E-01  0.51100000000E-03 0. -1.
         11    1    4    4    0    0 -0.44563340894E-01 -0.20819827952E-01 -0.13363654034E-01  0.50972590260E-01  0.51100000000E-03 0.  1.
</event>
<event>
 8    1  0.1099921E+005  0.1043930E+01  0.7957747E-01            NaN
         13   -1    0    0    0    0  0.00000000000E+00  0.00000000000E+00  0.74505805969E-08  0.10566000000E+00  0.10566000000E+00 0.  1.
     999900   -1    0    0    0    0 -0.00000000000E+00 -0.00000000000E+00 -0.74505805969E-08  0.93827000000E+00  0.93827000000E+00 0. -1.
     999902    2    1    2    0    0  0.17233091055E-01  0.61359116436E-02 -0.15535809827E-01  0.10199302036E+01  0.10196477971E+01 0.  0.
     999903    2    3    3    0    0 -0.46811237120E-01  0.77061830470E-01 -0.93622611163E-01  0.13131909044E+00  0.18700068372E-01 0.  0.
         14    1    1    2    0    0 -0.17233091055E-01 -0.61359116436E-02  0.15535809827E-01  0.23999796374E-01  0.00000000000E+00 0.  1.
     999901    1    3    3    0    0  0.64044328175E-01 -0.70925918827E-01  0.78086801336E-01  0.88861111318E+00  0.88000000000E+00 0.  1.
        -11    1    4    4    0    0 -0.69153143153E-02  0.27331699167E-01 -0.31965082112E-01  0.42624769171E-01  0.51100000000E-03 0. -1.
         11    1    4    4    0    0 -0.39895922805E-01  0.49730131303E-01 -0.61657529051E-01  0.88694321270E-01  0.51100000000E-03 0.  1.
</event>
<event>
 8    1  0.1099921E+005  0.1043930E+01  0.7957747E-01            NaN
         13   -1    0    0    0    0  0.00000000000E+00  0.00000000000E+00  0.74505805969E-08  0.10566000000E+00  0.10566000000E+00 0.  1.
     999900   -1    0    0    0    0 -0.00000000000E+00 -0.00000000000E+00 -0.74505805969E-08  0.93827000000E+00  0.93827000000E+00 0.  1.
     999902    2    1    2    0    0 -0.32706036693E-02  0.25510619413E-01  0.15332994139E-01  0.10139868996E+01  0.10135446923E+01 0.  0.
     999903    2    3    3    0    0 -0.81779625563E-01 -0.25482850173E-01  0.90069890460E-01  0.12587113907E+00  0.19841261893E-01 0.  0.
         14    1    1    2    0    0  0.32706036693E-02 -0.25510619413E-01 -0.15332994139E-01  0.29943100382E-01  0.00000000000E+00 0. -1.
     999901    1    3    3    0    0  0.78509021894E-01  0.50993469587E-01 -0.74736896321E-01  0.88811576055E+00  0.88000000000E+00 0.  1.
        -11    1    4    4    0    0 -0.10798767944E-01 -0.31157247973E-02  0.36638973433E-02  0.11832429795E-01  0.51100000000E-03 0. -1.
         11    1    4    4    0    0 -0.70980857619E-01 -0.22367125376E-01  0.86405993117E-01  0.11403870928E+00  0.51100000000E-03 0.  1.
</event>
<event>
 7    1  0.1099921E+005  0.1043930E+01  0.7957747E-01            NaN
         13   -1    0    0    0    0  0.00000000000E+00  0.00000000000E+00  0.74505805969E-08  0.10566000000E+00  0.10566000000E+00 0. -1.
     999900   -1    0    0    0    0 -0.00000000000E+00 -0.00000000000E+00 -0.74505805969E-08  0.93827000000E+00  0.93827000000E+00 0. -1.
     999903    2    1    2    0    0 -0.50339460706E-01  0.32695037395E-01  0.16089330131E-01  0.64952758778E-01  0.18893585006E-01 0.  0.
         14    1    1    2    0    0  0.25737165613E-01 -0.90300309320E-01  0.20040167316E-01  0.96011227797E-01  0.00000000000E+00 0. -1.
     999901    1    1    2    0    0  0.24602295093E-01  0.57605271924E-01 -0.36129497447E-01  0.88296601342E+00  0.88000000000E+00 0.  1.
        -11    1    3    3    0    0 -0.19179786829E-01  0.70778512685E-02 -0.23724954398E-02  0.20587619022E-01  0.51100000000E-03 0. -1.
         11    1    3    3    0    0 -0.31159673878E-01  0.25617186127E-01  0.18461825570E-01  0.44365139756E-01  0.51100000000E-03 0.  1.
</event>
<event>
 8    1  0.1099921E+005  0.1043930E+01  0.7957747E-01            NaN
         13   -1    0    0    0    0  0.00000000000E+00  0.00000000000E+00  0.74505805969E-08  0.10566000000E+00  0.10566000000E+00 0. -1.
     999900   -1    0    0    0    0 -0.00000000000E+00 -0.00000000000E+00 -0.74505805969E-08  0.93827000000E+00  0.93827000000E+00 0. -1.
     999902    2    1    2    0    0 -0.41688278195E-03 -0.10542322679E-01  0.21835305118E-01  0.10196793318E+01  0.10193909185E+01 0.  0.
     999903    2    3    3    0    0  0.52196764304E-01  0.37942722491E-01 -0.10797325885E+00  0.12728409495E+00  0.19464424165E-01 0.  0.
         14    1    1    2    0    0  0.41688278195E-03  0.10542322679E-01 -0.21835305118E-01  0.24250668204E-01  0.00000000000E+00 0.  1.
     999901    1    3    3    0    0 -0.52613647086E-01 -0.48485045170E-01  0.12980856396E+00  0.89239523684E+00  0.88000000000E+00 0. -1.
        -11    1    4    4    0    0  0.90366010769E-02  0.17132427084E-01 -0.27905065345E-01  0.33972547884E-01  0.51100000000E-03 0.  1.
         11    1    4    4    0    0  0.43160163227E-01  0.20810295407E-01 -0.80068193500E-01  0.93311547067E-01  0.51100000000E-03 0. -1.
</event>
<event>
 8    1  0.1099921E+005  0.1043930E+01  0.7957747E-01            NaN
         13   -1    0    0    0    0  0.00000000000E+00  0.00000000000E+00  0.74505805969E-08  0.10566000000E+00  0.10566000000E+00 0.  1.
     999900   -1    0    0    0    0 -0.00000000000E+00 -0.00000000000E+00 -0.74505805969E-08  0.93827000000E+00  0.93827000000E+00 0. -1.
     999902    2    1    2    0    0 -0.74512154509E-02 -0.42469680533E-02  0.21735775554E-01  0.10205633295E+01  0.10202957945E+01 0.  0.
     999903    2    3    3    0    0  0.54531133812E-01 -0.10139942355E+00  0.61639201152E-01  0.13215312327E+00  0.20237816587E-01 0.  0.
         14    1    1    2    0    0  0.74512154509E-02  0.42469680533E-02 -0.21735775554E-01  0.23366670458E-01  0.00000000000E+00 0. -1.
     999901    1    3    3    0    0 -0.61982349263E-01  0.97152455500E-01 -0.39903425598E-01  0.88841020627E+00  0.88000000000E+00 0. -1.
        -11    1    4    4    0    0  0.50868237978E-01 -0.81275206507E-01  0.45702329434E-01  0.10621770504E+00  0.51100000000E-03 0. -1.
         11    1    4    4    0    0  0.36628958344E-02 -0.20124217047E-01  0.15936871718E-01  0.25935418231E-01  0.51100000000E-03 0.  1.
</event>
<event>
 8    1  0.1099921E+005  0.1043930E+01  0.7957747E-01            NaN
         13   -1    0    0    0    0  0.00000000000E+00  0.00000000000E+00  0.74505805969E-08  0.10566000000E+00  0.10566000000E+00 0. -1.
     999900   -1    0    0    0    0 -0.00000000000E+00 -0.00000000000E+00 -0.74505805969E-08  0.93827000000E+00  0.93827000000E+00 0.  1.
     999902    2    1    2    0    0  0.18136269369E-01 -0.16020357737E-01  0.18062217577E-02  0.10196640039E+01  0.10193752216E+01 0.  0.
     999903    2    3    3    0    0  0.27035578572E-01 -0.12435258003E+00  0.30595632260E-01  0.13250905790E+00  0.20689877815E-01 0.  0.
         14    1    1    2    0    0 -0.18136269369E-01  0.16020357737E-01 -0.18062217577E-02  0.24265996079E-01  0.00000000000E+00 0.  1.
     999901    1    3    3    0    0 -0.88993092029E-02  0.10833222229E+00 -0.28789410502E-01  0.88715494602E+00  0.88000000000E+00 0. -1.
        -11    1    4    4    0    0  0.19171669702E-01 -0.69819243647E-01  0.27057261999E-01  0.77295771233E-01  0.51100000000E-03 0.  1.
         11    1    4    4    0    0  0.78639088699E-02 -0.54533336381E-01  0.35383702607E-02  0.55213286668E-01  0.51100000000E-03 0. -1.
</event>
<event>
 8    1  0.1099921E+005  0.1043930E+01  0.7957747E-01            NaN
         13   -1    0    0    0    0  0.00000000000E+00  0.00000000000E+00  0.74505805969E-08  0.10566000000E+00  0.10566000000E+00 0.  1.
     999900   -1    0    0    0    0 -0.00000000000E+00 -0.00000000000E+00 -0.74505805969E-08  0.93827000000E+00  0.93827000000E+00 0.  1.
     999902    2    1    2    0    0 -0.18284795778E-01  0.80407837491E-02  0.12759156464E-01  0.10202280163E+01  0.10199526563E+01 0.  0.
     999903    2    3    3    0    0  0.29317877168E-01  0.89417148200E-01  0.88231932672E-01  0.13198015270E+00  0.27909182159E-01 0.  0.
         14    1    1    2    0    0  0.18284795778E-01 -0.80407837491E-02 -0.12759156464E-01  0.23701983749E-01  0.00000000000E+00 0. -1.
     999901    1    3    3    0    0 -0.47602672945E-01 -0.81376364451E-01 -0.75472776207E-01  0.88824786356E+00  0.88000000000E+00 0.  1.
        -11    1    4    4    0    0  0.37293853436E-02  0.26885063871E-01  0.42361766598E-01  0.50313967888E-01  0.51100000000E-03 0.  1.
         11    1    4    4    0    0  0.25588491824E-01  0.62532084329E-01  0.45870166074E-01  0.81666184808E-01  0.51100000000E-03 0. -1.
</event>
<event>
 8    1  0.1099921E+005  0.1043930E+01  0.7957747E-01            NaN
         13   -1    0    0    0    0  0.00000000000E+00  0.00000000000E+00  0.74505805969E-08  0.10566000000E+00  0.10566000000E+00 0.  1.
     999900   -1    0    0    0    0 -0.00000000000E+00 -0.00000000000E+00 -0.74505805969E-08  0.93827000000E+00  0.93827000000E+00 0. -1.
     999902    2    1    2    0    0  0.16871969319E-03  0.23452926299E-01  0.26319384134E-02  0.10203292517E+01  0.10200562664E+01 0.  0.
     999903    2    3    3    0    0  0.10579263833E-01 -0.10874383760E+00  0.64347219265E-01  0.12825686696E+00  0.19290315083E-01 0.  0.
         14    1    1    2    0    0 -0.16871969319E-03 -0.23452926299E-01 -0.26319384134E-02  0.23600748254E-01  0.00000000000E+00 0.  1.
     999901    1    3    3    0    0 -0.10410544140E-01  0.13219676390E+00 -0.61715280851E-01  0.89207238479E+00  0.88000000000E+00 0. -1.
        -11    1    4    4    0    0 -0.21673505654E-02 -0.58629651370E-01  0.27743128279E-01  0.64900506284E-01  0.51100000000E-03 0.  1.
         11    1    4    4    0    0  0.12746614399E-01 -0.50114186226E-01  0.36604090986E-01  0.63356360672E-01  0.51100000000E-03 0. -1.
</event>
<event>
 8    1  0.1099921E+005  0.1043930E+01  0.7957747E-01            NaN
         13   -1    0    0    0    0  0.00000000000E+00  0.00000000000E+00  0.74505805969E-08  0.10566000000E+00  0.10566000000E+00 0.  1.
     999900   -1    0    0    0    0 -0.00000000000E+00 -0.00000000000E+00 -0.74505805969E-08  0.93827000000E+00  0.93827000000E+00 0. -1.
     999902    2    1    2    0    0 -0.11872678261E-01 -0.79306158758E-02  0.20851517125E-01  0.10186586541E+01  0.10183451343E+01 0.  0.
     999903    2    3    3    0    0 -0.71117141026E-01  0.49373119460E-02 -0.10409862068E+00  0.12776695088E+00  0.20145622636E-01 0.  0.
         14    1    1    2    0    0  0.11872678261E-01  0.79306158758E-02 -0.20851517125E-01  0.25271345902E-01  0.00000000000E+00 0. -1.
     999901    1    3    3    0    0  0.59244462765E-01 -0.12867927822E-01  0.12495013781E+00  0.89089170322E+00  0.88000000000E+00 0.  1.
        -11    1    4    4    0    0 -0.16044405971E-01 -0.73314368167E-02 -0.24027349472E-01  0.29811869656E-01  0.51100000000E-03 0. -1.
         11    1    4    4    0    0 -0.55072735055E-01  0.12268748763E-01 -0.80071271208E-01  0.97955081219E-01  0.51100000000E-03 0.  1.
</event>
<event>
 8    1  0.1099921E+005  0.1043930E+01  0.7957747E-01            NaN
         13   -1    0    0    0    0  0.00000000000E+00  0.00000000000E+00  0.74505805969E-08  0.10566000000E+00  0.10566000000E+00 0. -1.
     999900   -1    0    0    0    0 -0.00000000000E+00 -0.00000000000E+00 -0.74505805969E-08  0.93827000000E+00  0.93827000000E+00 0.  1.
     999902    2    1    2    0    0  0.16288323326E-02 -0.13091288124E-01  0.19730776866E-01  0.10201952475E+01  0.10199191167E+01 0.  0.
     999903    2    3    3    0    0 -0.32499599081E-02  0.85152821514E-01  0.96768315766E-01  0.13136990467E+00  0.25147160197E-01 0.  0.
         14    1    1    2    0    0 -0.16288323326E-02  0.13091288124E-01 -0.19730776866E-01  0.23734752479E-01  0.00000000000E+00 0.  1.
     999901    1    3    3    0    0  0.48787922407E-02 -0.98244109638E-01 -0.77037538900E-01  0.88882534285E+00  0.88000000000E+00 0.  1.
        -11    1    4    4    0    0 -0.51833214431E-02  0.23591472012E-01  0.44293202899E-01  0.50453674960E-01  0.51100000000E-03 0.  1.
         11    1    4    4    0    0  0.19333615350E-02  0.61561349502E-01  0.52475112866E-01  0.80916229711E-01  0.51100000000E-03 0. -1.
</event>
<event>
 8    1  0.1099921E+005  0.1043930E+01  0.7957747E-01            NaN
         13   -1    0    0    0    0  0.00000000000E+00  0.00000000000E+00  0.74505805969E-08  0.10566000000E+00  0.10566000000E+00 0. -1.
     999900   -1    0    0    0    0 -0.00000000000E+00 -0.00000000000E+00 -0.74505805969E-08  0.93827000000E+00  0.93827000000E+00 0. -1.
     999902    2    1    2    0    0 -0.13043570760E-01 -0.12120393349E-01  0.27169656838E-01  0.10114457126E+01  0.10109239342E+01 0.  0.
     999903    2    3    3    0    0 -0.96377726438E-01  0.66643801128E-01 -0.28300539002E-01  0.12227456912E+00  0.20496032846E-01 0.  0.
         14    1    1    2    0    0  0.13043570760E-01  0.12120393349E-01 -0.27169656838E-01  0.32484287368E-01  0.00000000000E+00 0.  1.
     999901    1    3    3    0    0  0.83334155678E-01 -0.78764194478E-01  0.55470195840E-01  0.88917114352E+00  0.88000000000E+00 0.  1.
        -11    1    4    4    0    0 -0.19341590824E-01  0.59456481101E-02 -0.16581745805E-03  0.20241948609E-01  0.51100000000E-03 0. -1.
         11    1    4    4    0    0 -0.77036135615E-01  0.60698153018E-01 -0.28134721544E-01  0.10203262051E+00  0.51100000000E-03 0.  1.
</event>
<event>
 8    1  0.1099921E+005  0.1043930E+01  0.7957747E-01            NaN
         13   -1    0    0    0    0  0.00000000000E+00  0.00000000000E+00  0.74505805969E-08  0.10566000000E+00  0.10566000000E+00 0.  1.
     999900   -1    0    0    0    0 -0.00000000000E+00 -0.00000000000E+00 -0.74505805969E-08  0.93827000000E+00  0.93827000000E+00 0. -1.
     999902    2    1    2    0    0 -0.51996759278E-02  0.22505606568E-01  0.46097244670E-02  0.10203760509E+01  0.10201041598E+01 0.  0.
     999903    2    3    3    0    0  0.16698760683E-01 -0.10445614969E+00  0.70430073472E-01  0.12856264701E+00  0.19442817237E-01 0.  0.
         14    1    1    2    0    0  0.51996759278E-02 -0.22505606568E-01 -0.46097244670E-02  0.23553949062E-01  0.00000000000E+00 0. -1.
     999901    1    3    3    0    0 -0.21898436611E-01  0.12696175625E+00 -0.65820349005E-01  0.89181340393E+00  0.88000000000E+00 0. -1.
        -11    1    4    4    0    0  0.16722960447E-01 -0.72778037786E-01  0.57897463483E-01  0.94491679998E-01  0.51100000000E-03 0. -1.
         11    1    4    4    0    0 -0.24199763966E-04 -0.31678111901E-01  0.12532609989E-01  0.34070967015E-01  0.51100000000E-03 0.  1.
</event>
<event>
 8    1  0.1099921E+005  0.1043930E+01  0.7957747E-01            NaN
         13   -1    0    0    0    0  0.00000000000E+00  0.00000000000E+00  0.74505805969E-08  0.10566000000E+00  0.10566000000E+00 0. -1.
     999900   -1    0    0    0    0 -0.00000000000E+00 -0.00000000000E+00 -0.74505805969E-08  0.93827000000E+00  0.93827000000E+00 0. -1.
     999902    2    1    2    0    0 -0.16076444092E-01 -0.84535129151E-02 -0.15283314458E-01  0.10201919791E+01  0.10199157713E+01 0.  0.
     999903    2    3    3    0    0 -0.62500856539E-01  0.28202883356E-01 -0.11208802558E+00  0.13290957223E+00  0.19986725918E-01 0.  0.
         14    1    1    2    0    0  0.16076444092E-01  0.84535129151E-02  0.15283314458E-01  0.23738020896E-01  0.00000000000E+00 0. -1.
     999901    1    3    3    0    0  0.46424412447E-01 -0.36656396271E-01  0.96804711124E-01  0.88728240688E+00  0.88000000000E+00 0. -1.
        -11    1    4    4    0    0 -0.55407728390E-01  0.16812778676E-01 -0.88284999814E-01  0.10558024534E+00  0.51100000000E-03 0. -1.
         11    1    4    4    0    0 -0.70931281483E-02  0.11390104680E-01 -0.23803025768E-01  0.27329326890E-01  0.51100000000E-03 0.  1.
</event>
<event>
 8    1  0.1099921E+005  0.1043930E+01  0.7957747E-01            NaN
         13   -1    0    0    0    0  0.00000000000E+00  0.00000000000E+00  0.74505805969E-08  0.10566000000E+00  0.10566000000E+00 0. -1.
     999900   -1    0    0    0    0 -0.00000000000E+00 -0.00000000000E+00 -0.74505805969E-08  0.93827000000E+00  0.93827000000E+00 0.  1.
     999902    2    1    2    0    0 -0.32029389854E-03  0.60642579982E-02  0.22431588049E-01  0.10206909390E+01  0.10204263516E+01 0.  0.
     999903    2    3    3    0    0  0.47041004699E-01 -0.11889184290E+00  0.15580219413E-01  0.13057630538E+00  0.21431328857E-01 0.  0.
         14    1    1    2    0    0  0.32029389854E-03 -0.60642579982E-02 -0.22431588049E-01  0.23239060989E-01  0.00000000000E+00 0.  1.
     999901    1    3    3    0    0 -0.47361298598E-01  0.12495610090E+00  0.68513686356E-02  0.89011463363E+00  0.88000000000E+00 0.  1.
        -11    1    4    4    0    0  0.62430152864E-02 -0.26511446554E-01 -0.44980236140E-02  0.27610240413E-01  0.51100000000E-03 0.  1.
         11    1    4    4    0    0  0.40797989413E-01 -0.92380396351E-01  0.20078243027E-01  0.10296606496E+00  0.51100000000E-03 0. -1.
</event>
<event>
 7    1  0.1099921E+005  0.1043930E+01  0.7957747E-01            NaN
         13   -1    0    0    0    0  0.00000000000E+00  0.00000000000E+00  0.74505805969E-08  0.10566000000E+00  0.10566000000E+00 0.  1.
     999900   -1    0    0    0    0 -0.00000000000E+00 -0.00000000000E+00 -0.74505805969E-08  0.93827000000E+00  0.93827000000E+00 0. -1.
     999902    2    1    2    0    0 -0.20806223693E-01  0.11467991676E-01 -0.16418112312E-02  0.10201159428E+01  0.10198379417E+01 0.  0.
         14    1    1    2    0    0  0.20806223693E-01 -0.11467991676E-01  0.16418112312E-02  0.23814057226E-01  0.00000000000E+00 0.  1.
     999901    1    3    3    0    0 -0.14819613225E+00  0.38040141817E-02 -0.46814316439E-02  0.89241160903E+00  0.88000000000E+00 0. -1.
        -11    1    3    3    0    0  0.71501144985E-02  0.10354654843E-02  0.89205532330E-05  0.72427568430E-02  0.51100000000E-03 0. -1.
         11    1    3    3    0    0  0.12023979406E+00  0.66285120101E-02  0.30306998594E-02  0.12046157690E+00  0.51100000000E-03 0.  1.
</event>
<event>
 8    1  0.1099921E+005  0.1043930E+01  0.7957747E-01            NaN
         13   -1    0    0    0    0  0.00000000000E+00  0.00000000000E+00  0.74505805969E-08  0.10566000000E+00  0.10566000000E+00 0. -1.
     999900   -1    0    0    0    0 -0.00000000000E+00 -0.00000000000E+00 -0.74505805969E-08  0.93827000000E+00  0.93827000000E+00 0.  1.
     999902    2    1    2    0    0 -0.76356766959E-02  0.87795744901E-02  0.20464083796E-01  0.10203893285E+01  0.10201177474E+01 0.  0.
     999903    2    3    3    0    0 -0.42493425018E-01 -0.70240774035E-01  0.10213343845E+00  0.13239768355E+00  0.18932771893E-01 0.  0.
         14    1    1    2    0    0  0.76356766959E-02 -0.87795744901E-02 -0.20464083796E-01  0.23540671452E-01  0.00000000000E+00 0.  1.
     999901    1    3    3    0    0  0.34857748322E-01  0.79020348525E-01 -0.81669354659E-01  0.88799164500E+00  0.88000000000E+00 0. -1.
        -11    1    4    4    0    0 -0.35568859808E-01 -0.52148811234E-01  0.65581875426E-01  0.91026841133E-01  0.51100000000E-03 0. -1.
         11    1    4    4    0    0 -0.69245652096E-02 -0.18091962800E-01  0.36551563028E-01  0.41370842415E-01  0.51100000000E-03 0.  1.
</event>
<event>
 8    1  0.1099921E+005  0.1043930E+01  0.7957747E-01            NaN
         13   -1    0    0    0    0  0.00000000000E+00  0.00000000000E+00  0.74505805969E-08  0.10566000000E+00  0.10566000000E+00 0. -1.
     999900   -1    0    0    0    0 -0.00000000000E+00 -0.00000000000E+00 -0.74505805969E-08  0.93827000000E+00  0.93827000000E+00 0. -1.
     999902    2    1    2    0    0 -0.49141386322E-02  0.13426960187E-01  0.19771706361E-01  0.10195301559E+01  0.10192381402E+01 0.  0.
     999903    2    3    3    0    0 -0.55062407231E-01  0.11326340704E+00  0.36080573122E-01  0.13231645895E+00  0.18584119233E-01 0.  0.
         14    1    1    2    0    0  0.49141386322E-02 -0.13426960187E-01 -0.19771706361E-01  0.24399844073E-01  0.00000000000E+00 0.  1.
     999901    1    3    3    0    0  0.50148268599E-01 -0.99836446857E-01 -0.16308866761E-01  0.88721369697E+00  0.88000000000E+00 0.  1.
        -11    1    4    4    0    0 -0.48792621543E-01  0.86257778843E-01  0.23411226463E-01  0.10183059940E+00  0.51100000000E-03 0. -1.
         11    1    4    4    0    0 -0.62697856879E-02  0.27005628201E-01  0.12669346659E-01  0.30485859556E-01  0.51100000000E-03 0.  1.
</event>
<event>
 8    1  0.1099921E+005  0.1043930E+01  0.7957747E-01            NaN
         13   -1    0    0    0    0  0.00000000000E+00  0.00000000000E+00  0.74505805969E-08  0.10566000000E+00  0.10566000000E+00 0. -1.
     999900   -1    0    0    0    0 -0.00000000000E+00 -0.00000000000E+00 -0.74505805969E-08  0.93827000000E+00  0.93827000000E+00 0.  1.
     999902    2    1    2    0    0 -0.12685979977E-01 -0.16949444273E-01  0.10231565643E-01  0.10204161172E+01  0.10201451610E+01 0.  0.
     999903    2    3    3    0    0 -0.12891618191E-01 -0.74127767621E-01 -0.10487378221E+00  0.13108004795E+00  0.22854956209E-01 0.  0.
         14    1    1    2    0    0  0.12685979977E-01  0.16949444273E-01 -0.10231565643E-01  0.23513882806E-01  0.00000000000E+00 0.  1.
     999901    1    3    3    0    0  0.20563821437E-03  0.57178323348E-01  0.11510534786E+00  0.88933606924E+00  0.88000000000E+00 0. -1.
        -11    1    4    4    0    0  0.87314878290E-03 -0.45767932481E-01 -0.49984083781E-01  0.67780054476E-01  0.51100000000E-03 0. -1.
         11    1    4    4    0    0 -0.13764766974E-01 -0.28359835140E-01 -0.54889698433E-01  0.63299993476E-01  0.51100000000E-03 0.  1.
</event>
<event>
 8    1  0.1099921E+005  0.1043930E+01  0.7957747E-01            NaN
         13   -1    0    0    0    0  0.00000000000E+00  0.00000000000E+00  0.74505805969E-08  0.10566000000E+00  0.10566000000E+00 0.  1.
     999900   -1    0    0    0    0 -0.00000000000E+00 -0.00000000000E+00 -0.74505805969E-08  0.93827000000E+00  0.93827000000E+00 0.  1.
     999902    2    1    2    0    0 -0.19977242459E-01 -0.61962933501E-02 -0.10631980417E-01  0.10204667676E+01  0.10201969910E+01 0.  0.
     999903    2    3    3    0    0  0.11400204727E+00 -0.56960786256E-01 -0.80456325317E-02  0.12887595729E+00  0.17414999660E-01 0.  0.
         14    1    1    2    0    0  0.19977242459E-01  0.61962933501E-02  0.10631980417E-01  0.23463232410E-01  0.00000000000E+00 0. -1.
     999901    1    3    3    0    0 -0.13397928972E+00  0.50764492906E-01 -0.25863478850E-02  0.89159081030E+00  0.88000000000E+00 0. -1.
        -11    1    4    4    0    0  0.50334858155E-01 -0.26977569616E-01  0.48948959428E-02  0.57320226231E-01  0.51100000000E-03 0.  1.
         11    1    4    4    0    0  0.63667189110E-01 -0.29983216640E-01 -0.12940528474E-01  0.71555731059E-01  0.51100000000E-03 0. -1.
</event>
<event>
 7    1  0.1289947E+005  0.1043930E+01  0.7957747E-01            NaN
         13   -1    0    0    0    0  0.00000000000E+00  0.00000000000E+00  0.74505805969E-08  0.10566000000E+00  0.10566000000E+00 0. -1.
     999900   -1    0    0    0    0 -0.00000000000E+00 -0.00000000000E+00 -0.74505805969E-08  0.93827000000E+00  0.93827000000E+00 0. -1.
     999903    2    1    2    0    0  0.19746463204E-01  0.11470906926E+00 -0.19998705490E-01  0.11987468012E+00  0.20540139578E-01 0.  0.
         14    1    1    2    0    0 -0.26187640391E-01 -0.18611803623E-01  0.21751987219E-01  0.38798720228E-01  0.00000000000E+00 0. -1.
     999901    1    1    2    0    0  0.64411771863E-02 -0.96097265636E-01 -0.17532817294E-02  0.88525659965E+00  0.88000000000E+00 0.  1.
        -11    1    3    3    0    0  0.11232302830E-02  0.65842091676E-01 -0.95362889707E-02  0.66540548622E-01  0.51100000000E-03 0. -1.
         11    1    3    3    0    0  0.18623232921E-01  0.48866977583E-01 -0.10462416519E-01  0.53334131501E-01  0.51100000000E-03 0.  1.
</event>
<event>
 8    1  0.1099921E+005  0.1043930E+01  0.7957747E-01            NaN
         13   -1    0    0    0    0  0.00000000000E+00  0.00000000000E+00  0.74505805969E-08  0.10566000000E+00  0.10566000000E+00 0. -1.
     999900   -1    0    0    0    0 -0.00000000000E+00 -0.00000000000E+00 -0.74505805969E-08  0.93827000000E+00  0.93827000000E+00 0. -1.
     999902    2    1    2    0    0 -0.18905836334E-01 -0.10945467263E-01 -0.82571275041E-02  0.10205758985E+01  0.10203086546E+01 0.  0.
     999903    2    3    3    0    0 -0.11571438859E-01 -0.12635706867E-01  0.12752395822E+00  0.13013041814E+00  0.19442389778E-01 0.  0.
         14    1    1    2    0    0  0.18905836334E-01  0.10945467263E-01  0.82571275041E-02  0.23354101475E-01  0.00000000000E+00 0. -1.
     999901    1    3    3    0    0 -0.73343974753E-02  0.16902396046E-02 -0.13578108572E+00  0.89044548038E+00  0.88000000000E+00 0. -1.
        -11    1    4    4    0    0 -0.16212389456E-03 -0.11769612078E-01  0.93295680627E-01  0.94036669429E-01  0.51100000000E-03 0. -1.
         11    1    4    4    0    0 -0.11409314964E-01 -0.86609478893E-03  0.34228277592E-01  0.36093748712E-01  0.51100000000E-03 0.  1.
</event>
<event>
 8    1  0.1099921E+005  0.1043930E+01  0.7957747E-01            NaN
         13   -1    0    0    0    0  0.00000000000E+00  0.00000000000E+00  0.74505805969E-08  0.10566000000E+00  0.10566000000E+00 0.  1.
     999900   -1    0    0    0    0 -0.00000000000E+00 -0.00000000000E+00 -0.74505805969E-08  0.93827000000E+00  0.93827000000E+00 0. -1.
     999902    2    1    2    0    0 -0.11587088799E-01  0.26917138802E-02  0.19973304240E-01  0.10206826597E+01  0.10204178815E+01 0.  0.
     999903    2    3    3    0    0  0.68130042096E-01  0.10073949544E+00  0.45300843887E-01  0.13129541403E+00  0.19904037562E-01 0.  0.
         14    1    1    2    0    0  0.11587088799E-01 -0.26917138802E-02 -0.19973304240E-01  0.23247340336E-01  0.00000000000E+00 0. -1.
     999901    1    3    3    0    0 -0.79717130894E-01 -0.98047781562E-01 -0.25327539647E-01  0.88938724563E+00  0.88000000000E+00 0.  1.
        -11    1    4    4    0    0  0.30785190380E-02  0.14665181071E-01  0.23890968462E-02  0.15182678290E-01  0.51100000000E-03 0.  1.
         11    1    4    4    0    0  0.65051523058E-01  0.86074314371E-01  0.42911747040E-01  0.11611273574E+00  0.51100000000E-03 0. -1.
</event>
<event>
 8    1  0.1099921E+005  0.1043930E+01  0.7957747E-01            NaN
         13   -1    0    0    0    0  0.00000000000E+00  0.00000000000E+00  0.74505805969E-08  0.10566000000E+00  0.10566000000E+00 0. -1.
     999900   -1    0    0    0    0 -0.00000000000E+00 -0.00000000000E+00 -0.74505805969E-08  0.93827000000E+00  0.93827000000E+00 0.  1.
     999902    2    1    2    0    0 -0.18737156125E-01  0.28073650049E-02 -0.14210205957E-01  0.10202468357E+01  0.10199719180E+01 0.  0.
     999903    2    3    3    0    0 -0.50616530409E-01 -0.70748740832E-01 -0.98100743521E-01  0.13262956598E+00  0.19985705213E-01 0.  0.
         14    1    1    2    0    0  0.18737156125E-01 -0.28073650049E-02  0.14210205957E-01  0.23683164301E-01  0.00000000000E+00 0. -1.
     999901    1    3    3    0    0  0.31879374284E-01  0.73556105837E-01  0.83890537563E-01  0.88761726972E+00  0.88000000000E+00 0. -1.
        -11    1    4    4    0    0 -0.51054915584E-01 -0.61365271104E-01 -0.88629591346E-01  0.11928020157E+00  0.51100000000E-03 0. -1.
         11    1    4    4    0    0  0.43838517488E-03 -0.93834697279E-02 -0.94711521745E-02  0.13349364412E-01  0.51100000000E-03 0.  1.
</event>
<event>
 8    1  0.1099921E+005  0.1043930E+01  0.7957747E-01            NaN
         13   -1    0    0    0    0  0.00000000000E+00  0.00000000000E+00  0.74505805969E-08  0.10566000000E+00  0.10566000000E+00 0. -1.
     999900   -1    0    0    0    0 -0.00000000000E+00 -0.00000000000E+00 -0.74505805969E-08  0.93827000000E+00  0.93827000000E+00 0.  1.
     999902    2    1    2    0    0 -0.68220771316E-02 -0.21856882195E-01 -0.56417557461E-02  0.10203483664E+01  0.10200758282E+01 0.  0.
     999903    2    3    3    0    0  0.18317340569E-01  0.60337685795E-01 -0.11310667432E+00  0.12965389237E+00  0.63914582096E-02 0.  0.
         14    1    1    2    0    0  0.68220771316E-02  0.21856882195E-01  0.56417557461E-02  0.23581633607E-01  0.00000000000E+00 0. -1.
     999901    1    3    3    0    0 -0.25139417701E-01 -0.82194567990E-01  0.10746491858E+00  0.89069447402E+00  0.88000000000E+00 0. -1.
        -11    1    4    4    0    0  0.81612702455E-02  0.30207961885E-01 -0.62248580161E-01  0.69672621211E-01  0.51100000000E-03 0.  1.
         11    1    4    4    0    0  0.10156070324E-01  0.30129723910E-01 -0.50858094162E-01  0.59981271161E-01  0.51100000000E-03 0. -1.
</event>
<event>
 8    1  0.1099921E+005  0.1043930E+01  0.7957747E-01            NaN
         13   -1    0    0    0    0  0.00000000000E+00  0.00000000000E+00  0.74505805969E-08  0.10566000000E+00  0.10566000000E+00 0.  1.
     999900   -1    0    0    0    0 -0.00000000000E+00 -0.00000000000E+00 -0.74505805969E-08  0.93827000000E+00  0.93827000000E+00 0. -1.
     999902    2    1    2    0    0  0.23022628627E-01  0.14381556942E-02  0.30935604808E-02  0.10206559836E+01  0.10203905905E+01 0.  0.
     999903    2    3    3    0    0 -0.44771758425E-01  0.11667836181E+00 -0.29263340215E-01  0.12996897182E+00  0.20426455576E-01 0.  0.
         14    1    1    2    0    0 -0.23022628627E-01 -0.14381556942E-02 -0.30935604808E-02  0.23274016352E-01  0.00000000000E+00 0.  1.
     999901    1    3    3    0    0  0.67794387052E-01 -0.11524020612E+00  0.32356900696E-01  0.89068701183E+00  0.88000000000E+00 0.  1.
        -11    1    4    4    0    0 -0.18642232216E-01  0.38074327400E-01 -0.87722045116E-03  0.42405399016E-01  0.51100000000E-03 0. -1.
         11    1    4    4    0    0 -0.26129526209E-01  0.78604034411E-01 -0.28386119764E-01  0.87563572802E-01  0.51100000000E-03 0.  1.
</event>
<event>
 8    1  0.1099921E+005  0.1043930E+01  0.7957747E-01            NaN
         13   -1    0    0    0    0  0.00000000000E+00  0.00000000000E+00  0.74505805969E-08  0.10566000000E+00  0.10566000000E+00 0.  1.
     999900   -1    0    0    0    0 -0.00000000000E+00 -0.00000000000E+00 -0.74505805969E-08  0.93827000000E+00  0.93827000000E+00 0. -1.
     999902    2    1    2    0    0 -0.16005434816E-01  0.13371561524E-01 -0.12618768060E-01  0.10195536609E+01  0.10192622143E+01 0.  0.
     999903    2    3    3    0    0  0.10221621507E+00 -0.63646927333E-01  0.35202014161E-01  0.12703193379E+00  0.19971089589E-01 0.  0.
         14    1    1    2    0    0  0.16005434816E-01 -0.13371561524E-01  0.12618768060E-01  0.24376339114E-01  0.00000000000E+00 0.  1.
     999901    1    3    3    0    0 -0.11822164988E+00  0.77018488858E-01 -0.47820782221E-01  0.89252172710E+00  0.88000000000E+00 0.  1.
        -11    1    4    4    0    0  0.74066016269E-01 -0.47164966128E-01  0.16245452415E-01  0.89299969994E-01  0.51100000000E-03 0.  1.
         11    1    4    4    0    0  0.28150198800E-01 -0.16481961205E-01  0.18956561745E-01  0.37731963795E-01  0.51100000000E-03 0. -1.
</event>
<event>
 8    1  0.1099921E+005  0.1043930E+01  0.7957747E-01            NaN
         13   -1    0    0    0    0  0.00000000000E+00  0.00000000000E+00  0.74505805969E-08  0.10566000000E+00  0.10566000000E+00 0.  1.
     999900   -1    0    0    0    0 -0.00000000000E+00 -0.00000000000E+00 -0.74505805969E-08  0.93827000000E+00  0.93827000000E+00 0.  1.
     999902    2    1    2    0    0  0.22975692209E-01 -0.38212521697E-02 -0.36618648602E-02  0.10203526029E+01  0.10200801638E+01 0.  0.
     999903    2    3    3    0    0  0.57126700149E-01 -0.11209049668E+00 -0.36095589374E-01  0.13246721212E+00  0.20418898043E-01 0.  0.
         14    1    1    2    0    0 -0.22975692209E-01  0.38212521697E-02  0.36618648602E-02  0.23577397118E-01  0.00000000000E+00 0.  1.
     999901    1    3    3    0    0 -0.34151007940E-01  0.10826924451E+00  0.32433724513E-01  0.88788539077E+00  0.88000000000E+00 0.  1.
        -11    1    4    4    0    0  0.42754144940E-01 -0.74721086225E-01 -0.15622758526E-01  0.87495653270E-01  0.51100000000E-03 0.  1.
         11    1    4    4    0    0  0.14372555209E-01 -0.37369410456E-01 -0.20472830847E-01  0.44971558845E-01  0.51100000000E-03 0. -1.
</event>
<event>
 7    1  0.1099921E+005  0.1043930E+01  0.7957747E-01            NaN
         13   -1    0    0    0    0  0.00000000000E+00  0.00000000000E+00  0.74505805969E-08  0.10566000000E+00  0.10566000000E+00 0.  1.
     999900   -1    0    0    0    0 -0.00000000000E+00 -0.00000000000E+00 -0.74505805969E-08  0.93827000000E+00  0.93827000000E+00 0. -1.
     999902    2    1    2    0    0  0.23049132562E-01  0.53019608488E-02  0.43716678169E-02  0.10198782895E+01  0.10195946452E+01 0.  0.
         14    1    1    2    0    0 -0.23049132562E-01 -0.53019608488E-02 -0.43716678169E-02  0.24051710546E-01  0.00000000000E+00 0.  1.
     999901    1    3    3    0    0 -0.12322962396E-01  0.11197596055E+00 -0.43535688753E-01  0.88824874182E+00  0.88000000000E+00 0. -1.
        -11    1    3    3    0    0  0.96104981511E-02 -0.84971052340E-01  0.47745160657E-01  0.97940302724E-01  0.51100000000E-03 0.  1.
         11    1    3    3    0    0  0.25761596807E-01 -0.21702947362E-01  0.16219591287E-03  0.33689244913E-01  0.51100000000E-03 0. -1.
</event>
<event>
 8    1  0.1099921E+005  0.1043930E+01  0.7957747E-01            NaN
         13   -1    0    0    0    0  0.00000000000E+00  0.00000000000E+00  0.74505805969E-08  0.10566000000E+00  0.10566000000E+00 0.  1.
     999900   -1    0    0    0    0 -0.00000000000E+00 -0.00000000000E+00 -0.74505805969E-08  0.93827000000E+00  0.93827000000E+00 0. -1.
     999902    2    1    2    0    0 -0.58682048111E-02  0.15335605162E-02 -0.22873857460E-01  0.10202656599E+01  0.10199911842E+01 0.  0.
     999903    2    3    3    0    0  0.11866535844E+00  0.47300102629E-01 -0.15974900958E-01  0.13029331185E+00  0.20059477842E-01 0.  0.
         14    1    1    2    0    0  0.58682048111E-02 -0.15335605162E-02  0.22873857460E-01  0.23664340064E-01  0.00000000000E+00 0.  1.
     999901    1    3    3    0    0 -0.12453356325E+00 -0.45766542113E-01 -0.68989565020E-02  0.88997234808E+00  0.88000000000E+00 0. -1.
        -11    1    4    4    0    0  0.10453149889E+00  0.40651227535E-01 -0.72457994066E-02  0.11239270123E+00  0.51100000000E-03 0. -1.
         11    1    4    4    0    0  0.14133859550E-01  0.66488750935E-02 -0.87291015514E-02  0.17900610624E-01  0.51100000000E-03 0.  1.
</event>
<event>
 8    1  0.1099921E+005  0.1043930E+01  0.7957747E-01            NaN
         13   -1    0    0    0    0  0.00000000000E+00  0.00000000000E+00  0.74505805969E-08  0.10566000000E+00  0.10566000000E+00 0. -1.
     999900   -1    0    0    0    0 -0.00000000000E+00 -0.00000000000E+00 -0.74505805969E-08  0.93827000000E+00  0.93827000000E+00 0.  1.
     999902    2    1    2    0    0  0.48307276235E-03 -0.21203029902E-01 -0.11206318103E-01  0.10199428492E+01  0.10196607437E+01 0.  0.
     999903    2    3    3    0    0  0.96635791751E-01 -0.57496985436E-01  0.63446938020E-01  0.13082210084E+00  0.21083845538E-01 0.  0.
         14    1    1    2    0    0 -0.48307276235E-03  0.21203029902E-01  0.11206318103E-01  0.23987150764E-01  0.00000000000E+00 0. -1.
     999901    1    3    3    0    0 -0.96152718989E-01  0.36293955534E-01 -0.74653256123E-01  0.88912074840E+00  0.88000000000E+00 0. -1.
        -11    1    4    4    0    0  0.33767425239E-01 -0.90310355155E-02  0.21458081719E-01  0.41018398333E-01  0.51100000000E-03 0. -1.
         11    1    4    4    0    0  0.62868366512E-01 -0.48465949921E-01  0.41988856301E-01  0.89803702508E-01  0.51100000000E-03 0.  1.
</event>
<event>
 8    1  0.1099921E+005  0.1043930E+01  0.7957747E-01            NaN
         13   -1    0    0    0    0  0.00000000000E+00  0.00000000000E+00  0.74505805969E-08  0.10566000000E+00  0.10566000000E+00 0.  1.
     999900   -1    0    0    0    0 -0.00000000000E+00 -0.00000000000E+00 -0.74505805969E-08  0.93827000000E+00  0.93827000000E+00 0. -1.
     999902    2    1    2    0    0  0.79481127232E-02  0.67751319201E-02 -0.21726496177E-01  0.10198236617E+01  0.10195387121E+01 0.  0.
     999903    2    3    3    0    0  0.26202246756E-01  0.19832019962E-01  0.12229860880E+00  0.12783323208E+00  0.17450465868E-01 0.  0.
         14    1    1    2    0    0 -0.79481127232E-02 -0.67751319201E-02  0.21726496177E-01  0.24106338265E-01  0.00000000000E+00 0.  1.
     999901    1    3    3    0    0 -0.18254134033E-01 -0.13056888042E-01 -0.14402510498E+00  0.89199042966E+00  0.88000000000E+00 0. -1.
        -11    1    4    4    0    0  0.13983579751E-01  0.12497387049E-01  0.96951441656E-01  0.98750029600E-01  0.51100000000E-03 0. -1.
         11    1    4    4    0    0  0.12218667005E-01  0.73346329130E-02  0.25347167142E-01  0.29083202479E-01  0.51100000000E-03 0.  1.
</event>
<event>
 8    1  0.1099921E+005  0.1043930E+01  0.7957747E-01            NaN
         13   -1    0    0    0    0  0.00000000000E+00  0.00000000000E+00  0.74505805969E-08  0.10566000000E+00  0.10566000000E+00 0.  1.
     999900   -1    0    0    0    0 -0.00000000000E+00 -0.00000000000E+00 -0.74505805969E-08  0.93827000000E+00  0.93827000000E+00 0.  1.
     999902    2    1    2    0    0  0.23451279921E-01 -0.79419151185E-03  0.25122446070E-02  0.10203311728E+01  0.10200582325E+01 0.  0.
     999903    2    3    3    0    0 -0.55937355154E-01  0.34983637983E-01 -0.10911637479E+00  0.12901554013E+00  0.19641377700E-01 0.  0.
         14    1    1    2    0    0 -0.23451279921E-01  0.79419151185E-03 -0.25122446070E-02  0.23598827154E-01  0.00000000000E+00 0.  1.
     999901    1    3    3    0    0  0.79388635075E-01 -0.35777829495E-01  0.11162861940E+00  0.89131563272E+00  0.88000000000E+00 0. -1.
        -11    1    4    4    0    0 -0.30594523382E-01  0.77059585383E-02 -0.47694573435E-01  0.57187761926E-01  0.51100000000E-03 0. -1.
         11    1    4    4    0    0 -0.25342831772E-01  0.27277679445E-01 -0.61421801357E-01  0.71827778200E-01  0.51100000000E-03 0.  1.
</event>
<event>
 8    1  0.1099921E+005  0.1043930E+01  0.7957747E-01            NaN
         13   -1    0    0    0    0  0.00000000000E+00  0.00000000000E+00  0.74505805969E-08  0.10566000000E+00  0.10566000000E+00 0.  1.
     999900   -1    0    0    0    0 -0.00000000000E+00 -0.00000000000E+00 -0.74505805969E-08  0.93827000000E+00  0.93827000000E+00 0. -1.
     999902    2    1    2    0    0  0.23277683226E-01 -0.48426297176E-02 -0.27027832766E-02  0.10200007995E+01  0.10197200716E+01 0.  0.
     999903    2    3    3    0    0 -0.12580164073E+00 -0.35398608696E-02 -0.61250157699E-03  0.12745908546E+00  0.20170768024E-01 0.  0.
         14    1    1    2    0    0 -0.23277683226E-01  0.48426297176E-02  0.27027832766E-02  0.23929200496E-01  0.00000000000E+00 0.  1.
     999901    1    3    3    0    0  0.14907932395E+00 -0.13027688480E-02 -0.20902816996E-02  0.89254171405E+00  0.88000000000E+00 0.  1.
        -11    1    4    4    0    0 -0.11248721293E+00  0.31214359862E-02  0.33851915012E-03  0.11253218274E+00  0.51100000000E-03 0. -1.
         11    1    4    4    0    0 -0.13314427793E-01 -0.66612968558E-02 -0.95102072710E-03  0.14926902716E-01  0.51100000000E-03 0.  1.
</event>
<event>
 8    1  0.1099921E+005  0.1043930E+01  0.7957747E-01            NaN
         13   -1    0    0    0    0  0.00000000000E+00  0.00000000000E+00  0.74505805969E-08  0.10566000000E+00  0.10566000000E+00 0.  1.
     999900   -1    0    0    0    0 -0.00000000000E+00 -0.00000000000E+00 -0.74505805969E-08  0.93827000000E+00  0.93827000000E+00 0. -1.
     999902    2    1    2    0    0  0.18386142825E-01  0.14351420503E-01 -0.35184648681E-02  0.10203420134E+01  0.10200693266E+01 0.  0.
     999903    2    3    3    0    0  0.71399444718E-01  0.10557907461E+00  0.33541893154E-01  0.13326458428E+00  0.19737505592E-01 0.  0.
         14    1    1    2    0    0 -0.18386142825E-01 -0.14351420503E-01  0.35184648681E-02  0.23587986634E-01  0.00000000000E+00 0.  1.
     999901    1    3    3    0    0 -0.53013301893E-01 -0.91227654103E-01 -0.37060358022E-01  0.88707742908E+00  0.88000000000E+00 0.  1.
        -11    1    4    4    0    0  0.54325656468E-01  0.92835129816E-01  0.26033976165E-01  0.11066917961E+00  0.51100000000E-03 0. -1.
         11    1    4    4    0    0  0.17073788250E-01  0.12743944791E-01  0.75079169889E-02  0.22595404678E-01  0.51100000000E-03 0.  1.
</event>
<event>
 8    1  0.1099921E+005  0.1043930E+01  0.7957747E-01            NaN
         13   -1    0    0    0    0  0.00000000000E+00  0.00000000000E+00  0.74505805969E-08  0.10566000000E+00  0.10566000000E+00 0. -1.
     999900   -1    0    0    0    0 -0.00000000000E+00 -0.00000000000E+00 -0.74505805969E-08  0.93827000000E+00  0.93827000000E+00 0.  1.
     999902    2    1    2    0    0 -0.14385088851E-01 -0.47280868142E-02  0.18665488358E-01  0.10198948998E+01  0.10196116518E+01 0.  0.
     999903    2    3    3    0    0  0.82508295213E-01 -0.90371036400E-01  0.39685399160E-01  0.13019558017E+00  0.20035348536E-01 0.  0.
         14    1    1    2    0    0  0.14385088851E-01  0.47280868142E-02 -0.18665488358E-01  0.24035100204E-01  0.00000000000E+00 0.  1.
     999901    1    3    3    0    0 -0.96893384064E-01  0.85642949585E-01 -0.21019910802E-01  0.88969931962E+00  0.88000000000E+00 0.  1.
        -11    1    4    4    0    0  0.21138163288E-01 -0.32948143804E-01  0.58086035138E-02  0.39577810994E-01  0.51100000000E-03 0.  1.
         11    1    4    4    0    0  0.61370131924E-01 -0.57422892596E-01  0.33876795646E-01  0.90617769178E-01  0.51100000000E-03 0. -1.
</event>
<event>
 8    1  0.1099921E+005  0.1043930E+01  0.7957747E-01            NaN
         13   -1    0    0    0    0  0.00000000000E+00  0.00000000000E+00  0.74505805969E-08  0.10566000000E+00  0.10566000000E+00 0. -1.
     999900   -1    0    0    0    0 -0.00000000000E+00 -0.00000000000E+00 -0.74505805969E-08  0.93827000000E+00  0.93827000000E+00 0. -1.
     999902    2    1    2    0    0  0.17583679594E-01 -0.72830762759E-02 -0.10698771118E-01  0.10220967068E+01  0.10218634867E+01 0.  0.
     999903    2    3    3    0    0 -0.69741254261E-01  0.13020200132E-01 -0.10960402370E+00  0.13202922842E+00  0.19629238073E-01 0.  0.
         14    1    1    2    0    0 -0.17583679594E-01  0.72830762759E-02  0.10698771118E-01  0.21833293190E-01  0.00000000000E+00 0. -1.
     999901    1    3    3    0    0  0.87324933855E-01 -0.20303276408E-01  0.98905252583E-01  0.89006747839E+00  0.88000000000E+00 0.  1.
        -11    1    4    4    0    0 -0.31205897312E-01  0.13770743711E-01 -0.40978277989E-01  0.53319056606E-01  0.51100000000E-03 0.  1.
         11    1    4    4    0    0 -0.38535356949E-01 -0.75054357949E-03 -0.68625745712E-01  0.78710171810E-01  0.51100000000E-03 0. -1.
</event>
<event>
 8    1  0.1099921E+005  0.1043930E+01  0.7957747E-01            NaN
         13   -1    0    0    0    0  0.00000000000E+00  0.00000000000E+00  0.74505805969E-08  0.10566000000E+00  0.10566000000E+00 0. -1.
     999900   -1    0    0    0    0 -0.00000000000E+00 -0.00000000000E+00 -0.74505805969E-08  0.93827000000E+00  0.93827000000E+00 0. -1.
     999902    2    1    2    0    0 -0.15265304608E-01  0.12919669349E-01  0.11552383285E-01  0.10208344389E+01  0.10205731462E+01 0.  0.
     999903    2    3    3    0    0  0.14854342018E-01  0.12606891908E+00 -0.30936284491E-01  0.13206268381E+00  0.19221730471E-01 0.  0.
         14    1    1    2    0    0  0.15265304608E-01 -0.12919669349E-01 -0.11552383285E-01  0.23095561055E-01  0.00000000000E+00 0.  1.
     999901    1    3    3    0    0 -0.30119646626E-01 -0.11314924974E+00  0.42488667776E-01  0.88877175513E+00  0.88000000000E+00 0. -1.
        -11    1    4    4    0    0  0.12696265506E-01  0.41298271241E-01 -0.56718535209E-02  0.43579506751E-01  0.51100000000E-03 0.  1.
         11    1    4    4    0    0  0.21580765119E-02  0.84770647843E-01 -0.25264430970E-01  0.88483177063E-01  0.51100000000E-03 0. -1.
</event>
<event>
 8    1  0.1099921E+005  0.1043930E+01  0.7957747E-01            NaN
         13   -1    0    0    0    0  0.00000000000E+00  0.00000000000E+00  0.74505805969E-08  0.10566000000E+00  0.10566000000E+00 0.  1.
     999900   -1    0    0    0    0 -0.00000000000E+00 -0.00000000000E+00 -0.74505805969E-08  0.93827000000E+00  0.93827000000E+00 0. -1.
     999902    2    1    2    0    0  0.13663094082E-01  0.11967710084E-01 -0.15376956450E-01  0.10201317435E+01  0.10198541156E+01 0.  0.
     999903    2    3    3    0    0  0.40468628706E-01 -0.28394732857E-01 -0.12134299963E+00  0.13245135853E+00  0.19371836604E-01 0.  0.
         14    1    1    2    0    0 -0.13663094082E-01 -0.11967710084E-01  0.15376956450E-01  0.23798256538E-01  0.00000000000E+00 0.  1.
     999901    1    3    3    0    0 -0.26805534624E-01  0.40362442941E-01  0.10596604318E+00  0.88768038493E+00  0.88000000000E+00 0.  1.
        -11    1    4    4    0    0  0.97162885065E-02  0.19102236397E-02 -0.22132044145E-01  0.24251674494E-01  0.51100000000E-03 0. -1.
         11    1    4    4    0    0  0.30752340200E-01 -0.30304956497E-01 -0.99210955486E-01  0.10819968404E+00  0.51100000000E-03 0.  1.
</event>
<event>
 8    1  0.1099921E+005  0.1043930E+01  0.7957747E-01            NaN
         13   -1    0    0    0    0  0.00000000000E+00  0.00000000000E+00  0.74505805969E-08  0.10566000000E+00  0.10566000000E+00 0.  1.
     999900   -1    0    0    0    0 -0.00000000000E+00 -0.00000000000E+00 -0.74505805969E-08  0.93827000000E+00  0.93827000000E+00 0.  1.
     999902    2    1    2    0    0  0.12657533358E-01 -0.69972719979E-02  0.17920953552E-01  0.10209009848E+01  0.10206412128E+01 0.  0.
     999903    2    3    3    0    0  0.12154401281E+00 -0.16107010481E-01 -0.44257368862E-01  0.13196600598E+00  0.20589540990E-01 0.  0.
         14    1    1    2    0    0 -0.12657533358E-01  0.69972719979E-02 -0.17920953552E-01  0.23029015227E-01  0.00000000000E+00 0. -1.
     999901    1    3    3    0    0 -0.10888647946E+00  0.91097384830E-02  0.62178322415E-01  0.88893497879E+00  0.88000000000E+00 0. -1.
        -11    1    4    4    0    0  0.44878263937E-01  0.67219953134E-03 -0.83352774635E-02  0.45653569385E-01  0.51100000000E-03 0. -1.
         11    1    4    4    0    0  0.76665748877E-01 -0.16779210012E-01 -0.35922091399E-01  0.86312436595E-01  0.51100000000E-03 0.  1.
</event>
<event>
 8    1  0.1099921E+005  0.1043930E+01  0.7957747E-01            NaN
         13   -1    0    0    0    0  0.00000000000E+00  0.00000000000E+00  0.74505805969E-08  0.10566000000E+00  0.10566000000E+00 0. -1.
     999900   -1    0    0    0    0 -0.00000000000E+00 -0.00000000000E+00 -0.74505805969E-08  0.93827000000E+00  0.93827000000E+00 0.  1.
     999902    2    1    2    0    0  0.30183003730E-02  0.26154981504E-01  0.55345016710E-02  0.10170260244E+01  0.10166701089E+01 0.  0.
     999903    2    3    3    0    0 -0.27804792275E-01  0.85046045861E-01  0.92581767669E-01  0.13023662041E+00  0.19602479470E-01 0.  0.
         14    1    1    2    0    0 -0.30183003730E-02 -0.26154981504E-01 -0.55345016710E-02  0.26903975605E-01  0.00000000000E+00 0.  1.
     999901    1    3    3    0    0  0.30823092648E-01 -0.58891064357E-01 -0.87047265998E-01  0.88678940398E+00  0.88000000000E+00 0.  1.
        -11    1    4    4    0    0 -0.26102830867E-01  0.71392602493E-01  0.67669583850E-01  0.10177276241E+00  0.51100000000E-03 0.  1.
         11    1    4    4    0    0 -0.17019614083E-02  0.13653443368E-01  0.24912183819E-01  0.28463857997E-01  0.51100000000E-03 0. -1.
</event>
<event>
 8    1  0.1099921E+005  0.1043930E+01  0.7957747E-01            NaN
         13   -1    0    0    0    0  0.00000000000E+00  0.00000000000E+00  0.74505805969E-08  0.10566000000E+00  0.10566000000E+00 0.  1.
     999900   -1    0    0    0    0 -0.00000000000E+00 -0.00000000000E+00 -0.74505805969E-08  0.93827000000E+00  0.93827000000E+00 0.  1.
     999902    2    1    2    0    0  0.11688941784E-01 -0.31343003221E-03  0.25904267945E-01  0.10155088688E+01  0.10151110787E+01 0.  0.
     999903    2    3    3    0    0  0.12397056686E+00 -0.92703588740E-02  0.23826738025E-01  0.12832697879E+00  0.21105900629E-01 0.  0.
         14    1    1    2    0    0 -0.11688941784E-01  0.31343003221E-03 -0.25904267945E-01  0.28421131156E-01  0.00000000000E+00 0. -1.
     999901    1    3    3    0    0 -0.11228162507E+00  0.89569288418E-02  0.20775299193E-02  0.88718189005E+00  0.88000000000E+00 0.  1.
        -11    1    4    4    0    0  0.58347888466E-01  0.60478591167E-02  0.93959556041E-02  0.59410418203E-01  0.51100000000E-03 0.  1.
         11    1    4    4    0    0  0.65622678389E-01 -0.15318217991E-01  0.14430782421E-01  0.68916560591E-01  0.51100000000E-03 0. -1.
</event>
<event>
 8    1  0.1099921E+005  0.1043930E+01  0.7957747E-01            NaN
         13   -1    0    0    0    0  0.00000000000E+00  0.00000000000E+00  0.74505805969E-08  0.10566000000E+00  0.10566000000E+00 0.  1.
     999900   -1    0    0    0    0 -0.00000000000E+00 -0.00000000000E+00 -0.74505805969E-08  0.93827000000E+00  0.93827000000E+00 0. -1.
     999902    2    1    2    0    0 -0.49967524375E-02 -0.46821067797E-03 -0.22480875924E-01  0.10208957529E+01  0.10206358615E+01 0.  0.
     999903    2    3    3    0    0  0.11638469543E+00  0.35635397928E-01  0.40213942142E-01  0.12962274949E+00  0.19225429139E-01 0.  0.
         14    1    1    2    0    0  0.49967524375E-02  0.46821067797E-03  0.22480875924E-01  0.23034247078E-01  0.00000000000E+00 0.  1.
     999901    1    3    3    0    0 -0.12138144787E+00 -0.36103608606E-01 -0.62694818066E-01  0.89127300344E+00  0.88000000000E+00 0. -1.
        -11    1    4    4    0    0  0.83893453169E-01  0.24953798148E-01  0.37771926355E-01  0.95329864514E-01  0.51100000000E-03 0.  1.
         11    1    4    4    0    0  0.32491242262E-01  0.10681599780E-01  0.24420157863E-02  0.34292884972E-01  0.51100000000E-03 0. -1.
</event>
<event>
 8    1  0.1099921E+005  0.1043930E+01  0.7957747E-01            NaN
         13   -1    0    0    0    0  0.00000000000E+00  0.00000000000E+00  0.74505805969E-08  0.10566000000E+00  0.10566000000E+00 0. -1.
     999900   -1    0    0    0    0 -0.00000000000E+00 -0.00000000000E+00 -0.74505805969E-08  0.93827000000E+00  0.93827000000E+00 0.  1.
     999902    2    1    2    0    0 -0.27958086913E-02 -0.11253271206E-01  0.19439399856E-01  0.10212950066E+01  0.10210441458E+01 0.  0.
     999903    2    3    3    0    0 -0.55058024500E-01 -0.10470848886E+00  0.59301514449E-01  0.13390884203E+00  0.20485474271E-01 0.  0.
         14    1    1    2    0    0  0.27958086913E-02  0.11253271206E-01 -0.19439399856E-01  0.22634993392E-01  0.00000000000E+00 0.  1.
     999901    1    3    3    0    0  0.52262215809E-01  0.93455217655E-01 -0.39862114592E-01  0.88738616458E+00  0.88000000000E+00 0.  1.
        -11    1    4    4    0    0 -0.47025129200E-01 -0.71037843764E-01  0.38207253153E-01  0.93369124112E-01  0.51100000000E-03 0.  1.
         11    1    4    4    0    0 -0.80328952999E-02 -0.33670645097E-01  0.21094261296E-01  0.40539717916E-01  0.51100000000E-03 0. -1.
</event>
<event>
 8    1  0.1099921E+005  0.1043930E+01  0.7957747E-01            NaN
         13   -1    0    0    0    0  0.00000000000E+00  0.00000000000E+00  0.74505805969E-08  0.10566000000E+00  0.10566000000E+00 0.  1.
     999900   -1    0    0    0    0 -0.00000000000E+00 -0.00000000000E+00 -0.74505805969E-08  0.93827000000E+00  0.93827000000E+00 0.  1.
     999902    2    1    2    0    0  0.51908026884E-02 -0.86105155873E-05 -0.22902229547E-01  0.10204468864E+01  0.10201766471E+01 0.  0.
     999903    2    3    3    0    0 -0.38591557177E-01 -0.64110268322E-01 -0.10809815349E+00  0.13293110454E+00  0.19647721962E-01 0.  0.
         14    1    1    2    0    0 -0.51908026884E-02  0.86105155873E-05  0.22902229547E-01  0.23483113612E-01  0.00000000000E+00 0.  1.
     999901    1    3    3    0    0  0.43782359865E-01  0.64101657807E-01  0.85195923938E-01  0.88751578185E+00  0.88000000000E+00 0.  1.
        -11    1    4    4    0    0 -0.31199165365E-01 -0.36254054252E-01 -0.58512105314E-01  0.75575604255E-01  0.51100000000E-03 0. -1.
         11    1    4    4    0    0 -0.73923918118E-02 -0.27856214070E-01 -0.49586048171E-01  0.57355500288E-01  0.51100000000E-03 0.  1.
</event>
<event>
 8    1  0.1099921E+005  0.1043930E+01  0.7957747E-01            NaN
         13   -1    0    0    0    0  0.00000000000E+00  0.00000000000E+00  0.74505805969E-08  0.10566000000E+00  0.10566000000E+00 0. -1.
     999900   -1    0    0    0    0 -0.00000000000E+00 -0.00000000000E+00 -0.74505805969E-08  0.93827000000E+00  0.93827000000E+00 0.  1.
     999902    2    1    2    0    0 -0.15499528532E-02  0.21950104366E-01 -0.85659398893E-02  0.10203167672E+01  0.10200434896E+01 0.  0.
     999903    2    3    3    0    0  0.12772304247E+00 -0.56980855338E-02 -0.12878355622E-01  0.13043220918E+00  0.22384490024E-01 0.  0.
         14    1    1    2    0    0  0.15499528532E-02 -0.21950104366E-01  0.85659398893E-02  0.23613232767E-01  0.00000000000E+00 0. -1.
     999901    1    3    3    0    0 -0.12927299532E+00  0.27648189900E-01  0.43124157324E-02  0.88988455805E+00  0.88000000000E+00 0.  1.
        -11    1    4    4    0    0  0.41555086413E-01 -0.88815276868E-02 -0.12155398778E-01  0.44200922855E-01  0.51100000000E-03 0.  1.
         11    1    4    4    0    0  0.86167956054E-01  0.31834421530E-02 -0.72295684412E-03  0.86231286329E-01  0.51100000000E-03 0. -1.
</event>
<event>
 8    1  0.1099921E+005  0.1043930E+01  0.7957747E-01            NaN
         13   -1    0    0    0    0  0.00000000000E+00  0.00000000000E+00  0.74505805969E-08  0.10566000000E+00  0.10566000000E+00 0. -1.
     999900   -1    0    0    0    0 -0.00000000000E+00 -0.00000000000E+00 -0.74505805969E-08  0.93827000000E+00  0.93827000000E+00 0. -1.
     999902    2    1    2    0    0 -0.11713599903E-02 -0.12383761642E-01  0.20546377468E-01  0.10199116057E+01  0.10196287561E+01 0.  0.
     999903    2    3    3    0    0  0.47149538040E-02 -0.11464764213E-01  0.13053525221E+00  0.13304462257E+00  0.22533262433E-01 0.  0.
         14    1    1    2    0    0  0.11713599903E-02  0.12383761642E-01 -0.20546377468E-01  0.24018394278E-01  0.00000000000E+00 0.  1.
     999901    1    3    3    0    0 -0.58863137943E-02 -0.91899742886E-03 -0.10998887474E+00  0.88686698316E+00  0.88000000000E+00 0. -1.
        -11    1    4    4    0    0 -0.54155384239E-02 -0.11826964003E-01  0.10052570690E+00  0.10136510249E+00  0.51100000000E-03 0.  1.
         11    1    4    4    0    0  0.10130492228E-01  0.36219979023E-03  0.30009545315E-01  0.31679520080E-01  0.51100000000E-03 0. -1.
</event>
<event>
 8    1  0.1099921E+005  0.1043930E+01  0.7957747E-01            NaN
         13   -1    0    0    0    0  0.00000000000E+00  0.00000000000E+00  0.74505805969E-08  0.10566000000E+00  0.10566000000E+00 0.  1.
     999900   -1    0    0    0    0 -0.00000000000E+00 -0.00000000000E+00 -0.74505805969E-08  0.93827000000E+00  0.93827000000E+00 0.  1.
     999902    2    1    2    0    0  0.12119276107E-01  0.56791530972E-02  0.19053970714E-01  0.10206451673E+01  0.10203795246E+01 0.  0.
     999903    2    3    3    0    0 -0.32972345258E-01  0.12475489695E+00  0.13694718812E-01  0.13146520315E+00  0.21085408446E-01 0.  0.
         14    1    1    2    0    0 -0.12119276107E-01 -0.56791530972E-02 -0.19053970714E-01  0.23284832687E-01  0.00000000000E+00 0. -1.
     999901    1    3    3    0    0  0.45091621365E-01 -0.11907574386E+00  0.53592519023E-02  0.88917996417E+00  0.88000000000E+00 0.  1.
        -11    1    4    4    0    0 -0.20415802366E-01  0.38993828194E-01  0.64170103893E-02  0.44483286376E-01  0.51100000000E-03 0. -1.
         11    1    4    4    0    0 -0.12556542891E-01  0.85761068761E-01  0.72777084227E-02  0.86981916771E-01  0.51100000000E-03 0.  1.
</event>
<event>
 8    1  0.1099921E+005  0.1043930E+01  0.7957747E-01            NaN
         13   -1    0    0    0    0  0.00000000000E+00  0.00000000000E+00  0.74505805969E-08  0.10566000000E+00  0.10566000000E+00 0.  1.
     999900   -1    0    0    0    0 -0.00000000000E+00 -0.00000000000E+00 -0.74505805969E-08  0.93827000000E+00  0.93827000000E+00 0.  1.
     999902    2    1    2    0    0  0.16732979060E-01  0.92516787271E-02  0.14205474471E-01  0.10201102256E+01  0.10198320895E+01 0.  0.
     999903    2    3    3    0    0  0.88909950718E-01 -0.13755954567E-01 -0.92372478093E-01  0.13044864590E+00  0.19747629854E-01 0.  0.
         14    1    1    2    0    0 -0.16732979060E-01 -0.92516787271E-02 -0.14205474471E-01  0.23819774399E-01  0.00000000000E+00 0. -1.
     999901    1    3    3    0    0 -0.72176971658E-01  0.23007633294E-01  0.10657795256E+00  0.88966157970E+00  0.88000000000E+00 0. -1.
        -11    1    4    4    0    0  0.47753035325E-01  0.13397176419E-02 -0.54888235836E-01  0.72767621786E-01  0.51100000000E-03 0. -1.
         11    1    4    4    0    0  0.41156915392E-01 -0.15095672209E-01 -0.37484242257E-01  0.57681024112E-01  0.51100000000E-03 0.  1.
</event>
<event>
 8    1  0.1099921E+005  0.1043930E+01  0.7957747E-01            NaN
         13   -1    0    0    0    0  0.00000000000E+00  0.00000000000E+00  0.74505805969E-08  0.10566000000E+00  0.10566000000E+00 0.  1.
     999900   -1    0    0    0    0 -0.00000000000E+00 -0.00000000000E+00 -0.74505805969E-08  0.93827000000E+00  0.93827000000E+00 0.  1.
     999902    2    1    2    0    0  0.21198975111E-01 -0.59243246555E-02 -0.72268841111E-02  0.10207627381E+01  0.10204998018E+01 0.  0.
     999903    2    3    3    0    0  0.78711548984E-01 -0.10128127156E+00 -0.30839063363E-01  0.13343068164E+00  0.19982368780E-01 0.  0.
         14    1    1    2    0    0 -0.21198975111E-01  0.59243246555E-02  0.72268841111E-02  0.23167261865E-01  0.00000000000E+00 0.  1.
     999901    1    3    3    0    0 -0.57512573872E-01  0.95356946901E-01  0.23612179252E-01  0.88733205650E+00  0.88000000000E+00 0. -1.
        -11    1    4    4    0    0  0.28074627131E-01 -0.40056863101E-01 -0.21486431740E-01  0.53429063626E-01  0.51100000000E-03 0.  1.
         11    1    4    4    0    0  0.50636921852E-01 -0.61224408455E-01 -0.93526316229E-02  0.80001618013E-01  0.51100000000E-03 0. -1.
</event>
<event>
 8    1  0.1099921E+005  0.1043930E+01  0.7957747E-01            NaN
         13   -1    0    0    0    0  0.00000000000E+00  0.00000000000E+00  0.74505805969E-08  0.10566000000E+00  0.10566000000E+00 0. -1.
     999900   -1    0    0    0    0 -0.00000000000E+00 -0.00000000000E+00 -0.74505805969E-08  0.93827000000E+00  0.93827000000E+00 0. -1.
     999902    2    1    2    0    0  0.68047483890E-02  0.20151352913E-02  0.23239729570E-01  0.10196308148E+01  0.10193412324E+01 0.  0.
     999903    2    3    3    0    0 -0.46945124250E-01  0.53418054448E-02 -0.11621124857E+00  0.12702413163E+00  0.19942320424E-01 0.  0.
         14    1    1    2    0    0 -0.68047483890E-02 -0.20151352913E-02 -0.23239729570E-01  0.24299185200E-01  0.00000000000E+00 0.  1.
     999901    1    3    3    0    0  0.53749872639E-01 -0.33266701535E-02  0.13945097814E+00  0.89260668317E+00  0.88000000000E+00 0.  1.
        -11    1    4    4    0    0 -0.37235586869E-01  0.70575436730E-02 -0.68353465769E-01  0.78158526443E-01  0.51100000000E-03 0. -1.
         11    1    4    4    0    0 -0.97095373811E-02 -0.17157382282E-02 -0.47857782805E-01  0.48865605182E-01  0.51100000000E-03 0.  1.
</event>
<event>
 8    1  0.1099921E+005  0.1043930E+01  0.7957747E-01            NaN
         13   -1    0    0    0    0  0.00000000000E+00  0.00000000000E+00  0.74505805969E-08  0.10566000000E+00  0.10566000000E+00 0. -1.
     999900   -1    0    0    0    0 -0.00000000000E+00 -0.00000000000E+00 -0.74505805969E-08  0.93827000000E+00  0.93827000000E+00 0.  1.
     999902    2    1    2    0    0  0.59529346846E-02  0.18174881924E-01 -0.13803540496E-01  0.10203439555E+01  0.10200713142E+01 0.  0.
     999903    2    3    3    0    0  0.55652316557E-01  0.49542842541E-02 -0.11847987351E+00  0.13264921775E+00  0.20895197342E-01 0.  0.
         14    1    1    2    0    0 -0.59529346846E-02 -0.18174881924E-01  0.13803540496E-01  0.23586044487E-01  0.00000000000E+00 0.  1.
     999901    1    3    3    0    0 -0.49699381873E-01  0.13220597670E-01  0.10467633301E+00  0.88769473776E+00  0.88000000000E+00 0. -1.
        -11    1    4    4    0    0  0.24768143020E-01 -0.32461825380E-02 -0.72251158607E-01  0.76449261938E-01  0.51100000000E-03 0. -1.
         11    1    4    4    0    0  0.30884173537E-01  0.82004667920E-02 -0.46228714902E-01  0.56199955811E-01  0.51100000000E-03 0.  1.
</event>
<event>
 8    1  0.1099921E+005  0.1043930E+01  0.7957747E-01            NaN
         13   -1    0    0    0    0  0.00000000000E+00  0.00000000000E+00  0.74505805969E-08  0.10566000000E+00  0.10566000000E+00 0.  1.
     999900   -1    0    0    0    0 -0.00000000000E+00 -0.00000000000E+00 -0.74505805969E-08  0.93827000000E+00  0.93827000000E+00 0. -1.
     999902    2    1    2    0    0  0.26804385905E-02  0.70468365297E-02 -0.23073021862E-01  0.10196564137E+01  0.10193674484E+01 0.  0.
     999903    2    3    3    0    0  0.10112348104E-01  0.98624703170E-01  0.79690573496E-01  0.12892519973E+00  0.21024461020E-01 0.  0.
         14    1    1    2    0    0 -0.26804385905E-02 -0.70468365297E-02  0.23073021862E-01  0.24273586343E-01  0.00000000000E+00 0.  1.
     999901    1    3    3    0    0 -0.74319095137E-02 -0.91577866640E-01 -0.10276359536E+00  0.89073121393E+00  0.88000000000E+00 0. -1.
        -11    1    4    4    0    0  0.10961503581E-01  0.69347198263E-01  0.66832917254E-01  0.96933422602E-01  0.51100000000E-03 0. -1.
         11    1    4    4    0    0 -0.84915547686E-03  0.29277504907E-01  0.12857656241E-01  0.31991777125E-01  0.51100000000E-03 0.  1.
</event>
<event>
 8    1  0.1099921E+005  0.1043930E+01  0.7957747E-01            NaN
         13   -1    0    0    0    0  0.00000000000E+00  0.00000000000E+00  0.74505805969E-08  0.10566000000E+00  0.10566000000E+00 0.  1.
     999900   -1    0    0    0    0 -0.00000000000E+00 -0.00000000000E+00 -0.74505805969E-08  0.93827000000E+00  0.93827000000E+00 0. -1.
     999902    2    1    2    0    0  0.77325882440E-02 -0.13716622153E-01 -0.17324790480E-01  0.10205187418E+01  0.10202501729E+01 0.  0.
     999903    2    3    3    0    0  0.11999537054E+00 -0.14922043822E-01  0.46787634129E-01  0.13107240375E+00  0.19218115779E-01 0.  0.
         14    1    1    2    0    0 -0.77325882440E-02  0.13716622153E-01  0.17324790480E-01  0.23411258176E-01  0.00000000000E+00 0.  1.
     999901    1    3    3    0    0 -0.11226278229E+00  0.12054216692E-02 -0.64112424609E-01  0.88944633808E+00  0.88000000000E+00 0. -1.
        -11    1    4    4    0    0  0.41073910417E-01 -0.14272997657E-01  0.17900583859E-01  0.47026339455E-01  0.51100000000E-03 0.  1.
         11    1    4    4    0    0  0.78921460120E-01 -0.64904616486E-03  0.28887050271E-01  0.84046064291E-01  0.51100000000E-03 0. -1.
</event>
<event>
 8    1  0.1099921E+005  0.1043930E+01  0.7957747E-01            NaN
         13   -1    0    0    0    0  0.00000000000E+00  0.00000000000E+00  0.74505805969E-08  0.10566000000E+00  0.10566000000E+00 0. -1.
     999900   -1    0    0    0    0 -0.00000000000E+00 -0.00000000000E+00 -0.74505805969E-08  0.93827000000E+00  0.93827000000E+00 0. -1.
     999902    2    1    2    0    0 -0.23045485236E-01 -0.41477203032E-02 -0.77683674636E-04  0.10205141078E+01  0.10202454313E+01 0.  0.
     999903    2    3    3    0    0  0.10584729466E+00 -0.69466363090E-01 -0.14990612718E-01  0.12860476864E+00  0.16889128412E-01 0.  0.
         14    1    1    2    0    0  0.23045485236E-01  0.41477203032E-02  0.77683674636E-04  0.23415892215E-01  0.00000000000E+00 0. -1.
     999901    1    3    3    0    0 -0.12889277990E+00  0.65318642787E-01  0.14912929043E-01  0.89190933915E+00  0.88000000000E+00 0.  1.
        -11    1    4    4    0    0  0.61257022198E-01 -0.42047666152E-01 -0.55816715655E-03  0.74303443184E-01  0.51100000000E-03 0.  1.
         11    1    4    4    0    0  0.44590272463E-01 -0.27418696939E-01 -0.14432445561E-01  0.54301325454E-01  0.51100000000E-03 0. -1.
</event>
<event>
 8    1  0.1099921E+005  0.1043930E+01  0.7957747E-01            NaN
         13   -1    0    0    0    0  0.00000000000E+00  0.00000000000E+00  0.74505805969E-08  0.10566000000E+00  0.10566000000E+00 0. -1.
     999900   -1    0    0    0    0 -0.00000000000E+00 -0.00000000000E+00 -0.74505805969E-08  0.93827000000E+00  0.93827000000E+00 0.  1.
     999902    2    1    2    0    0 -0.66819602070E-02  0.13323926257E-01  0.16839341945E-01  0.10214413575E+01  0.10211937661E+01 0.  0.
     999903    2    3    3    0    0  0.10767328430E+00  0.53481039269E-01 -0.48061955486E-01  0.13076639208E+00  0.18334121725E-01 0.  0.
         14    1    1    2    0    0  0.66819602070E-02 -0.13323926257E-01 -0.16839341945E-01  0.22488642472E-01  0.00000000000E+00 0.  1.
     999901    1    3    3    0    0 -0.11435524450E+00 -0.40157113012E-01  0.64901297431E-01  0.89067496545E+00  0.88000000000E+00 0. -1.
        -11    1    4    4    0    0  0.30333525392E-01  0.72092523603E-02 -0.83674497196E-02  0.32285777335E-01  0.51100000000E-03 0.  1.
         11    1    4    4    0    0  0.77339758904E-01  0.46271786909E-01 -0.39694505766E-01  0.98480614743E-01  0.51100000000E-03 0. -1.
</event>
<event>
 8    1  0.1099921E+005  0.1043930E+01  0.7957747E-01            NaN
         13   -1    0    0    0    0  0.00000000000E+00  0.00000000000E+00  0.74505805969E-08  0.10566000000E+00  0.10566000000E+00 0.  1.
     999900   -1    0    0    0    0 -0.00000000000E+00 -0.00000000000E+00 -0.74505805969E-08  0.93827000000E+00  0.93827000000E+00 0. -1.
     999902    2    1    2    0    0 -0.10547275521E-01  0.18579276530E-01 -0.98825497044E-02  0.10203906855E+01  0.10201191361E+01 0.  0.
     999903    2    3    3    0    0 -0.62136878356E-01 -0.57683507455E-01 -0.98215408997E-01  0.13118868745E+00  0.19386244287E-01 0.  0.
         14    1    1    2    0    0  0.10547275521E-01 -0.18579276530E-01  0.98825497044E-02  0.23539314475E-01  0.00000000000E+00 0. -1.
     999901    1    3    3    0    0  0.51589602835E-01  0.76262783985E-01  0.88332859293E-01  0.88920199807E+00  0.88000000000E+00 0.  1.
        -11    1    4    4    0    0 -0.19117676273E-01 -0.90284263873E-02 -0.32649125846E-01  0.38900187257E-01  0.51100000000E-03 0.  1.
         11    1    4    4    0    0 -0.43019202083E-01 -0.48655081068E-01 -0.65566283151E-01  0.92288500198E-01  0.51100000000E-03 0. -1.
</event>
<event>
 8    1  0.1099921E+005  0.1043930E+01  0.7957747E-01            NaN
         13   -1    0    0    0    0  0.00000000000E+00  0.00000000000E+00  0.74505805969E-08  0.10566000000E+00  0.10566000000E+00 0. -1.
     999900   -1    0    0    0    0 -0.00000000000E+00 -0.00000000000E+00 -0.74505805969E-08  0.93827000000E+00  0.93827000000E+00 0. -1.
     999902    2    1    2    0    0  0.14733335444E-01  0.71150482679E-02 -0.16284254881E-01  0.10208459786E+01  0.10205849499E+01 0.  0.
     999903    2    3    3    0    0 -0.44143933633E-01 -0.81932933636E-01 -0.90112099626E-01  0.13132553112E+00  0.21552543566E-01 0.  0.
         14    1    1    2    0    0 -0.14733335444E-01 -0.71150482679E-02  0.16284254881E-01  0.23084021361E-01  0.00000000000E+00 0. -1.
     999901    1    3    3    0    0  0.58877269077E-01  0.89047981904E-01  0.73827844744E-01  0.88952044752E+00  0.88000000000E+00 0.  1.
        -11    1    4    4    0    0 -0.14321179208E-01 -0.49076161110E-01 -0.49869308200E-01  0.71419708656E-01  0.51100000000E-03 0.  1.
         11    1    4    4    0    0 -0.29822754424E-01 -0.32856772525E-01 -0.40242791426E-01  0.59905822463E-01  0.51100000000E-03 0. -1.
</event>
<event>
 8    1  0.1099921E+005  0.1043930E+01  0.7957747E-01            NaN
         13   -1    0    0    0    0  0.00000000000E+00  0.00000000000E+00  0.74505805969E-08  0.10566000000E+00  0.10566000000E+00 0.  1.
     999900   -1    0    0    0    0 -0.00000000000E+00 -0.00000000000E+00 -0.74505805969E-08  0.93827000000E+00  0.93827000000E+00 0.  1.
     999902    2    1    2    0    0 -0.58502111605E-02 -0.23156911472E-03 -0.21848435440E-01  0.10213107001E+01  0.10210601909E+01 0.  0.
     999903    2    3    3    0    0 -0.97259508313E-01 -0.26386418968E-01  0.80176901956E-01  0.13032871085E+00  0.20039515978E-01 0.  0.
         14    1    1    2    0    0  0.58502111605E-02  0.23156911472E-03  0.21848435440E-01  0.22619299857E-01  0.00000000000E+00 0.  1.
     999901    1    3    3    0    0  0.91409297153E-01  0.26154849853E-01 -0.10202533740E+00  0.89098198929E+00  0.88000000000E+00 0.  1.
        -11    1    4    4    0    0 -0.45716607229E-01 -0.54094420085E-02  0.45670626731E-01  0.64848573665E-01  0.51100000000E-03 0. -1.
         11    1    4    4    0    0 -0.51542901085E-01 -0.20976976960E-01  0.34506275225E-01  0.65480137183E-01  0.51100000000E-03 0.  1.
</event>
<event>
 8    1  0.1099921E+005  0.1043930E+01  0.7957747E-01            NaN
         13   -1    0    0    0    0  0.00000000000E+00  0.00000000000E+00  0.74505805969E-08  0.10566000000E+00  0.10566000000E+00 0.  1.
     999900   -1    0    0    0    0 -0.00000000000E+00 -0.00000000000E+00 -0.74505805969E-08  0.93827000000E+00  0.93827000000E+00 0.  1.
     999902    2    1    2    0    0  0.12808834466E-01  0.64539626282E-02  0.74726486501E-02  0.10277571724E+01  0.10276299164E+01 0.  0.
     999903    2    3    3    0    0 -0.22669961039E-01  0.50212351466E-01  0.12506012961E+00  0.13815031701E+00  0.20255041316E-01 0.  0.
         14    1    1    2    0    0 -0.12808834466E-01 -0.64539626282E-02 -0.74726486501E-02  0.16172827577E-01  0.00000000000E+00 0. -1.
     999901    1    3    3    0    0  0.35478795505E-01 -0.43758388838E-01 -0.11758748096E+00  0.88960685542E+00  0.88000000000E+00 0.  1.
        -11    1    4    4    0    0  0.70604500259E-04  0.16798887168E-01  0.23938607980E-01  0.29249370388E-01  0.51100000000E-03 0. -1.
         11    1    4    4    0    0 -0.22740565540E-01  0.33413464298E-01  0.10112152163E+00  0.10890094662E+00  0.51100000000E-03 0.  1.
</event>
<event>
 8    1  0.1099921E+005  0.1043930E+01  0.7957747E-01            NaN
         13   -1    0    0    0    0  0.00000000000E+00  0.00000000000E+00  0.74505805969E-08  0.10566000000E+00  0.10566000000E+00 0. -1.
     999900   -1    0    0    0    0 -0.00000000000E+00 -0.00000000000E+00 -0.74505805969E-08  0.93827000000E+00  0.93827000000E+00 0. -1.
     999902    2    1    2    0    0 -0.59435334926E-02 -0.59322397177E-02  0.21314413623E-01  0.10210210217E+01  0.10207639813E+01 0.  0.
     999903    2    3    3    0    0 -0.72698086301E-01  0.74159827618E-01  0.80515406225E-01  0.13289058810E+00  0.19811258963E-01 0.  0.
         14    1    1    2    0    0  0.59435334926E-02  0.59322397177E-02 -0.21314413623E-01  0.22908978296E-01  0.00000000000E+00 0.  1.
     999901    1    3    3    0    0  0.66754552808E-01 -0.80092067335E-01 -0.59200992601E-01  0.88813043361E+00  0.88000000000E+00 0. -1.
        -11    1    4    4    0    0 -0.72318728507E-01  0.69224907391E-01  0.79437680284E-01  0.12779942279E+00  0.51100000000E-03 0.  1.
         11    1    4    4    0    0 -0.37935779422E-03  0.49349202262E-02  0.10777259405E-02  0.50911653065E-02  0.51100000000E-03 0. -1.
</event>
<event>
 8    1  0.1099921E+005  0.1043930E+01  0.7957747E-01            NaN
         13   -1    0    0    0    0  0.00000000000E+00  0.00000000000E+00  0.74505805969E-08  0.10566000000E+00  0.10566000000E+00 0. -1.
     999900   -1    0    0    0    0 -0.00000000000E+00 -0.00000000000E+00 -0.74505805969E-08  0.93827000000E+00  0.93827000000E+00 0. -1.
     999902    2    1    2    0    0 -0.19256643833E-01 -0.11027587659E-01  0.53448134619E-02  0.10211047278E+01  0.10208495834E+01 0.  0.
     999903    2    3    3    0    0 -0.61418802738E-01  0.11118381612E+00  0.23467382685E-01  0.13147463477E+00  0.24510227303E-01 0.  0.
         14    1    1    2    0    0  0.19256643833E-01  0.11027587659E-01 -0.53448134619E-02  0.22825272227E-01  0.00000000000E+00 0.  1.
     999901    1    3    3    0    0  0.42162158905E-01 -0.12221140378E+00 -0.18122569223E-01  0.88963009300E+00  0.88000000000E+00 0. -1.
        -11    1    4    4    0    0 -0.17487418334E-01  0.22798409100E-01 -0.40171060351E-02  0.29016814425E-01  0.51100000000E-03 0. -1.
         11    1    4    4    0    0 -0.43931384404E-01  0.88385407017E-01  0.27484488720E-01  0.10245782035E+00  0.51100000000E-03 0.  1.
</event>
<event>
 8    1  0.1099921E+005  0.1043930E+01  0.7957747E-01            NaN
         13   -1    0    0    0    0  0.00000000000E+00  0.00000000000E+00  0.74505805969E-08  0.10566000000E+00  0.10566000000E+00 0. -1.
     999900   -1    0    0    0    0 -0.00000000000E+00 -0.00000000000E+00 -0.74505805969E-08  0.93827000000E+00  0.93827000000E+00 0.  1.
     999902    2    1    2    0    0 -0.11501363680E-01  0.83633948450E-02  0.18655288543E-01  0.10204726444E+01  0.10202030046E+01 0.  0.
     999903    2    3    3    0    0 -0.33371808863E-01  0.11927896701E+00 -0.39082901162E-01  0.13136394518E+00  0.19694246168E-01 0.  0.
         14    1    1    2    0    0  0.11501363680E-01 -0.83633948450E-02 -0.18655288543E-01  0.23457355572E-01  0.00000000000E+00 0.  1.
     999901    1    3    3    0    0  0.21870445183E-01 -0.11091557217E+00  0.57738189705E-01  0.88910869924E+00  0.88000000000E+00 0. -1.
        -11    1    4    4    0    0 -0.93219976603E-02  0.50249376513E-01 -0.72047644449E-02  0.51614622269E-01  0.51100000000E-03 0.  1.
         11    1    4    4    0    0 -0.24049811203E-01  0.69029590501E-01 -0.31878136717E-01  0.79749322914E-01  0.51100000000E-03 0. -1.
</event>
<event>
 8    1  0.1099921E+005  0.1043930E+01  0.7957747E-01            NaN
         13   -1    0    0    0    0  0.00000000000E+00  0.00000000000E+00  0.74505805969E-08  0.10566000000E+00  0.10566000000E+00 0. -1.
     999900   -1    0    0    0    0 -0.00000000000E+00 -0.00000000000E+00 -0.74505805969E-08  0.93827000000E+00  0.93827000000E+00 0.  1.
     999902    2    1    2    0    0  0.13482188329E-01  0.29443544453E-02  0.18474956063E-01  0.10208700211E+01  0.10206095421E+01 0.  0.
     999903    2    3    3    0    0  0.95478227551E-02  0.49524447596E-01  0.12200887654E+00  0.13356823648E+00  0.20260207601E-01 0.  0.
         14    1    1    2    0    0 -0.13482188329E-01 -0.29443544453E-02 -0.18474956063E-01  0.23059978898E-01  0.00000000000E+00 0.  1.
     999901    1    3    3    0    0  0.39343655740E-02 -0.46580093151E-01 -0.10353392048E+00  0.88730178463E+00  0.88000000000E+00 0.  1.
        -11    1    4    4    0    0  0.12646178353E-02  0.46580173281E-03  0.20202010034E-01  0.20253359226E-01  0.51100000000E-03 0. -1.
         11    1    4    4    0    0  0.82832049198E-02  0.49058645863E-01  0.10180686650E+00  0.11331487725E+00  0.51100000000E-03 0.  1.
</event>
<event>
 8    1  0.1099921E+005  0.1043930E+01  0.7957747E-01            NaN
         13   -1    0    0    0    0  0.00000000000E+00  0.00000000000E+00  0.74505805969E-08  0.10566000000E+00  0.10566000000E+00 0. -1.
     999900   -1    0    0    0    0 -0.00000000000E+00 -0.00000000000E+00 -0.74505805969E-08  0.93827000000E+00  0.93827000000E+00 0. -1.
     999902    2    1    2    0    0 -0.58818213842E-02 -0.10775931838E-02  0.24628749894E-01  0.10185857235E+01  0.10182703687E+01 0.  0.
     999903    2    3    3    0    0 -0.61164533542E-01  0.22476367849E-02  0.11554938215E+00  0.13216945741E+00  0.19260158982E-01 0.  0.
         14    1    1    2    0    0  0.58818213842E-02  0.10775931838E-02 -0.24628749894E-01  0.25344276498E-01  0.00000000000E+00 0.  1.
     999901    1    3    3    0    0  0.55282712158E-01 -0.33252299687E-02 -0.90920632252E-01  0.88641626609E+00  0.88000000000E+00 0. -1.
        -11    1    4    4    0    0 -0.52694023162E-01  0.60216071667E-02  0.10752810518E+00  0.11989776626E+00  0.51100000000E-03 0. -1.
         11    1    4    4    0    0 -0.84705103807E-02 -0.37739703817E-02  0.80212769637E-02  0.12271691150E-01  0.51100000000E-03 0.  1.
</event>
<event>
 8    1  0.1099921E+005  0.1043930E+01  0.7957747E-01            NaN
         13   -1    0    0    0    0  0.00000000000E+00  0.00000000000E+00  0.74505805969E-08  0.10566000000E+00  0.10566000000E+00 0.  1.
     999900   -1    0    0    0    0 -0.00000000000E+00 -0.00000000000E+00 -0.74505805969E-08  0.93827000000E+00  0.93827000000E+00 0.  1.
     999902    2    1    2    0    0 -0.41156499201E-02  0.60148746876E-02 -0.22272153470E-01  0.10204957065E+01  0.10202266027E+01 0.  0.
     999903    2    3    3    0    0 -0.68281459125E-01  0.83937531809E-02 -0.11262584896E+00  0.13354209981E+00  0.20398475756E-01 0.  0.
         14    1    1    2    0    0  0.41156499201E-02 -0.60148746876E-02  0.22272153470E-01  0.23434293503E-01  0.00000000000E+00 0.  1.
     999901    1    3    3    0    0  0.64165809205E-01 -0.23788784933E-02  0.90353695493E-01  0.88695360669E+00  0.88000000000E+00 0. -1.
        -11    1    4    4    0    0 -0.34278519547E-01 -0.31921217484E-02 -0.42043960829E-01  0.54343006052E-01  0.51100000000E-03 0.  1.
         11    1    4    4    0    0 -0.34002939578E-01  0.11585874929E-01 -0.70581888134E-01  0.79199093754E-01  0.51100000000E-03 0. -1.
</event>
<event>
 8    1  0.1099921E+005  0.1043930E+01  0.7957747E-01            NaN
         13   -1    0    0    0    0  0.00000000000E+00  0.00000000000E+00  0.74505805969E-08  0.10566000000E+00  0.10566000000E+00 0. -1.
     999900   -1    0    0    0    0 -0.00000000000E+00 -0.00000000000E+00 -0.74505805969E-08  0.93827000000E+00  0.93827000000E+00 0.  1.
     999902    2    1    2    0    0 -0.79176457875E-02 -0.20061667220E-01 -0.10079400772E-01  0.10201234058E+01  0.10198455810E+01 0.  0.
     999903    2    3    3    0    0  0.50631087418E-01  0.84418064465E-01  0.78754548166E-01  0.12757904335E+00  0.19601449551E-01 0.  0.
         14    1    1    2    0    0  0.79176457875E-02  0.20061667220E-01  0.10079400772E-01  0.23806594179E-01  0.00000000000E+00 0. -1.
     999901    1    3    3    0    0 -0.58548733205E-01 -0.10447973168E+00 -0.88833948939E-01  0.89254436247E+00  0.88000000000E+00 0.  1.
        -11    1    4    4    0    0  0.22838098720E-01  0.37946050886E-01  0.23203383545E-01  0.50001396580E-01  0.51100000000E-03 0.  1.
         11    1    4    4    0    0  0.27792988697E-01  0.46472013579E-01  0.55551164622E-01  0.77577646772E-01  0.51100000000E-03 0. -1.
</event>
<event>
 8    1  0.1099921E+005  0.1043930E+01  0.7957747E-01            NaN
         13   -1    0    0    0    0  0.00000000000E+00  0.00000000000E+00  0.74505805969E-08  0.10566000000E+00  0.10566000000E+00 0.  1.
     999900   -1    0    0    0    0 -0.00000000000E+00 -0.00000000000E+00 -0.74505805969E-08  0.93827000000E+00  0.93827000000E+00 0. -1.
     999902    2    1    2    0    0 -0.27758630118E-01  0.12613349990E-01 -0.21825655980E-01  0.10064333681E+01  0.10057346206E+01 0.  0.
     999903    2    3    3    0    0  0.99356845904E-01 -0.39459544397E-01  0.33412281693E-01  0.11406508073E+00  0.21578313208E-01 0.  0.
         14    1    1    2    0    0  0.27758630118E-01 -0.12613349990E-01  0.21825655980E-01  0.37496631888E-01  0.00000000000E+00 0.  1.
     999901    1    3    3    0    0 -0.12711547602E+00  0.52072894386E-01 -0.55237937673E-01  0.89236828739E+00  0.88000000000E+00 0. -1.
        -11    1    4    4    0    0  0.79544836813E-01 -0.40388553623E-01  0.26771628399E-01  0.93142887734E-01  0.51100000000E-03 0.  1.
         11    1    4    4    0    0  0.19812009092E-01  0.92900922659E-03  0.66406532941E-02  0.20922192991E-01  0.51100000000E-03 0. -1.
</event>
<event>
 8    1  0.1099921E+005  0.1043930E+01  0.7957747E-01            NaN
         13   -1    0    0    0    0  0.00000000000E+00  0.00000000000E+00  0.74505805969E-08  0.10566000000E+00  0.10566000000E+00 0. -1.
     999900   -1    0    0    0    0 -0.00000000000E+00 -0.00000000000E+00 -0.74505805969E-08  0.93827000000E+00  0.93827000000E+00 0. -1.
     999902    2    1    2    0    0 -0.13515936189E-01  0.13084442103E-01 -0.10641435471E-01  0.10223169645E+01  0.10220884759E+01 0.  0.
     999903    2    3    3    0    0  0.49946008091E-01 -0.55241484411E-02 -0.12133509517E+00  0.13292009899E+00  0.20504327737E-01 0.  0.
         14    1    1    2    0    0  0.13515936189E-01 -0.13084442103E-01  0.10641435471E-01  0.21613035536E-01  0.00000000000E+00 0.  1.
     999901    1    3    3    0    0 -0.63461944280E-01  0.18608590544E-01  0.11069365970E+00  0.88939686547E+00  0.88000000000E+00 0.  1.
        -11    1    4    4    0    0  0.18849599764E-01  0.68976938014E-02 -0.35526022341E-01  0.40807413241E-01  0.51100000000E-03 0.  1.
         11    1    4    4    0    0  0.31096408327E-01 -0.12421842242E-01 -0.85809072829E-01  0.92112685751E-01  0.51100000000E-03 0. -1.
</event>
<event>
 8    1  0.1099921E+005  0.1043930E+01  0.7957747E-01            NaN
         13   -1    0    0    0    0  0.00000000000E+00  0.00000000000E+00  0.74505805969E-08  0.10566000000E+00  0.10566000000E+00 0. -1.
     999900   -1    0    0    0    0 -0.00000000000E+00 -0.00000000000E+00 -0.74505805969E-08  0.93827000000E+00  0.93827000000E+00 0. -1.
     999902    2    1    2    0    0  0.20536696958E-01 -0.66583644936E-02 -0.12315959386E-01  0.10190749684E+01  0.10187718187E+01 0.  0.
     999903    2    3    3    0    0  0.29313431019E-01 -0.12449415047E+00 -0.21985000307E-01  0.13112463541E+00  0.18768565033E-01 0.  0.
         14    1    1    2    0    0 -0.20536696958E-01  0.66583644936E-02  0.12315959386E-01  0.24855031589E-01  0.00000000000E+00 0. -1.
     999901    1    3    3    0    0 -0.87767340608E-02  0.11783578598E+00  0.96690409208E-02  0.88795033300E+00  0.88000000000E+00 0.  1.
        -11    1    4    4    0    0  0.19823055077E-01 -0.45291513229E-01 -0.65495929077E-02  0.49874171386E-01  0.51100000000E-03 0.  1.
         11    1    4    4    0    0  0.94903759418E-02 -0.79202637245E-01 -0.15435407399E-01  0.81250464028E-01  0.51100000000E-03 0. -1.
</event>
<event>
 8    1  0.1099921E+005  0.1043930E+01  0.7957747E-01            NaN
         13   -1    0    0    0    0  0.00000000000E+00  0.00000000000E+00  0.74505805969E-08  0.10566000000E+00  0.10566000000E+00 0.  1.
     999900   -1    0    0    0    0 -0.00000000000E+00 -0.00000000000E+00 -0.74505805969E-08  0.93827000000E+00  0.93827000000E+00 0. -1.
     999902    2    1    2    0    0  0.51420198266E-02 -0.16487954568E-01  0.11847806141E-01  0.10229857043E+01  0.10227712782E+01 0.  0.
     999903    2    3    3    0    0 -0.60193913745E-01 -0.11049172560E+00  0.44599526208E-01  0.13496646553E+00  0.19877132649E-01 0.  0.
         14    1    1    2    0    0 -0.51420198266E-02  0.16487954568E-01 -0.11847806141E-01  0.20944295741E-01  0.00000000000E+00 0.  1.
     999901    1    3    3    0    0  0.65335933572E-01  0.94003771030E-01 -0.32751720067E-01  0.88801923873E+00  0.88000000000E+00 0. -1.
        -11    1    4    4    0    0 -0.49946497345E-01 -0.74507295877E-01  0.27465164704E-01  0.93811439223E-01  0.51100000000E-03 0. -1.
         11    1    4    4    0    0 -0.10247416400E-01 -0.35984429721E-01  0.17134361505E-01  0.41155026308E-01  0.51100000000E-03 0.  1.
</event>
<event>
 8    1  0.1099921E+005  0.1043930E+01  0.7957747E-01            NaN
         13   -1    0    0    0    0  0.00000000000E+00  0.00000000000E+00  0.74505805969E-08  0.10566000000E+00  0.10566000000E+00 0. -1.
     999900   -1    0    0    0    0 -0.00000000000E+00 -0.00000000000E+00 -0.74505805969E-08  0.93827000000E+00  0.93827000000E+00 0.  1.
     999902    2    1    2    0    0 -0.16556584374E-01  0.20449655942E-02  0.15970321537E-01  0.10208355517E+01  0.10205742845E+01 0.  0.
     999903    2    3    3    0    0  0.91286397904E-01  0.77581746330E-01 -0.43527613796E-01  0.12905311281E+00  0.20197003690E-01 0.  0.
         14    1    1    2    0    0  0.16556584374E-01 -0.20449655942E-02 -0.15970321537E-01  0.23094448259E-01  0.00000000000E+00 0.  1.
     999901    1    3    3    0    0 -0.10784298228E+00 -0.75536780736E-01  0.59497935333E-01  0.89178243893E+00  0.88000000000E+00 0. -1.
        -11    1    4    4    0    0  0.49072314698E-01  0.47510136833E-01 -0.15164933785E-01  0.69968146390E-01  0.51100000000E-03 0.  1.
         11    1    4    4    0    0  0.42214083206E-01  0.30071609497E-01 -0.28362680011E-01  0.59084966423E-01  0.51100000000E-03 0. -1.
</event>
<event>
 8    1  0.1099921E+005  0.1043930E+01  0.7957747E-01            NaN
         13   -1    0    0    0    0  0.00000000000E+00  0.00000000000E+00  0.74505805969E-08  0.10566000000E+00  0.10566000000E+00 0. -1.
     999900   -1    0    0    0    0 -0.00000000000E+00 -0.00000000000E+00 -0.74505805969E-08  0.93827000000E+00  0.93827000000E+00 0.  1.
     999902    2    1    2    0    0 -0.23432213966E-01  0.90959393669E-02  0.10803379545E-01  0.10165709471E+01  0.10162027223E+01 0.  0.
     999903    2    3    3    0    0  0.10589199958E+00  0.62423373311E-01  0.16562960679E-01  0.12550319427E+00  0.19155338507E-01 0.  0.
         14    1    1    2    0    0  0.23432213966E-01 -0.90959393669E-02 -0.10803379545E-01  0.27359052869E-01  0.00000000000E+00 0.  1.
     999901    1    3    3    0    0 -0.12932421355E+00 -0.53327433944E-01 -0.57595811343E-02  0.89106775287E+00  0.88000000000E+00 0. -1.
        -11    1    4    4    0    0  0.19555566312E-01  0.12511153769E-01 -0.43042140381E-02  0.23616446005E-01  0.51100000000E-03 0.  1.
         11    1    4    4    0    0  0.86336433271E-01  0.49912219542E-01  0.20867174717E-01  0.10188674826E+00  0.51100000000E-03 0. -1.
</event>
<event>
 8    1  0.1099921E+005  0.1043930E+01  0.7957747E-01            NaN
         13   -1    0    0    0    0  0.00000000000E+00  0.00000000000E+00  0.74505805969E-08  0.10566000000E+00  0.10566000000E+00 0.  1.
     999900   -1    0    0    0    0 -0.00000000000E+00 -0.00000000000E+00 -0.74505805969E-08  0.93827000000E+00  0.93827000000E+00 0. -1.
     999902    2    1    2    0    0 -0.22247116316E-01  0.28152650075E-02 -0.75715933653E-02  0.10202616894E+01  0.10199871205E+01 0.  0.
     999903    2    3    3    0    0 -0.41646956535E-01  0.11782581776E+00  0.36187347143E-01  0.13148802533E+00  0.19031142643E-01 0.  0.
         14    1    1    2    0    0  0.22247116316E-01 -0.28152650075E-02  0.75715933653E-02  0.23668310618E-01  0.00000000000E+00 0.  1.
     999901    1    3    3    0    0  0.19399840219E-01 -0.11501055276E+00 -0.43758940508E-01  0.88877366406E+00  0.88000000000E+00 0. -1.
        -11    1    4    4    0    0 -0.29415624863E-01  0.87908923994E-01  0.35165948729E-01  0.99147178350E-01  0.51100000000E-03 0.  1.
         11    1    4    4    0    0 -0.12231331672E-01  0.29916893770E-01  0.10213984135E-02  0.32340846975E-01  0.51100000000E-03 0. -1.
</event>
<event>
 8    1  0.1099921E+005  0.1043930E+01  0.7957747E-01            NaN
         13   -1    0    0    0    0  0.00000000000E+00  0.00000000000E+00  0.74505805969E-08  0.10566000000E+00  0.10566000000E+00 0.  1.
     999900   -1    0    0    0    0 -0.00000000000E+00 -0.00000000000E+00 -0.74505805969E-08  0.93827000000E+00  0.93827000000E+00 0.  1.
     999902    2    1    2    0    0 -0.16210351047E-01 -0.11872279370E-01 -0.13505897059E-01  0.10197197593E+01  0.10194323184E+01 0.  0.
     999903    2    3    3    0    0 -0.59932308040E-01  0.65451282399E-01  0.91649959200E-01  0.12901874504E+00  0.19244989891E-01 0.  0.
         14    1    1    2    0    0  0.16210351047E-01  0.11872279370E-01  0.13505897059E-01  0.24210240682E-01  0.00000000000E+00 0.  1.
     999901    1    3    3    0    0  0.43721956994E-01 -0.77323561769E-01 -0.10515585626E+00  0.89070101428E+00  0.88000000000E+00 0. -1.
        -11    1    4    4    0    0 -0.21521474520E-01  0.11061822534E-01  0.25563530908E-01  0.35203593805E-01  0.51100000000E-03 0. -1.
         11    1    4    4    0    0 -0.38410833521E-01  0.54389459865E-01  0.66086428292E-01  0.93815151237E-01  0.51100000000E-03 0.  1.
</event>
<event>
 8    1  0.1099921E+005  0.1043930E+01  0.7957747E-01            NaN
         13   -1    0    0    0    0  0.00000000000E+00  0.00000000000E+00  0.74505805969E-08  0.10566000000E+00  0.10566000000E+00 0.  1.
     999900   -1    0    0    0    0 -0.00000000000E+00 -0.00000000000E+00 -0.74505805969E-08  0.93827000000E+00  0.93827000000E+00 0. -1.
     999902    2    1    2    0    0  0.14366810052E-01  0.18755124609E-01 -0.69431107253E-03  0.10202943913E+01  0.10200205895E+01 0.  0.
     999903    2    3    3    0    0  0.40948308704E-01  0.11368392817E+00  0.52423722888E-01  0.13319824131E+00  0.19817296908E-01 0.  0.
         14    1    1    2    0    0 -0.14366810052E-01 -0.18755124609E-01  0.69431107253E-03  0.23635608687E-01  0.00000000000E+00 0. -1.
     999901    1    3    3    0    0 -0.26581498652E-01 -0.94928803563E-01 -0.53118033961E-01  0.88709615000E+00  0.88000000000E+00 0.  1.
        -11    1    4    4    0    0  0.29006266463E-01  0.51609557698E-01  0.26798283957E-01  0.64987068590E-01  0.51100000000E-03 0. -1.
         11    1    4    4    0    0  0.11942042241E-01  0.62074370474E-01  0.25625438931E-01  0.68211172721E-01  0.51100000000E-03 0.  1.
</event>
<event>
 8    1  0.1099921E+005  0.1043930E+01  0.7957747E-01            NaN
         13   -1    0    0    0    0  0.00000000000E+00  0.00000000000E+00  0.74505805969E-08  0.10566000000E+00  0.10566000000E+00 0. -1.
     999900   -1    0    0    0    0 -0.00000000000E+00 -0.00000000000E+00 -0.74505805969E-08  0.93827000000E+00  0.93827000000E+00 0. -1.
     999902    2    1    2    0    0 -0.20014540421E-02  0.22235758471E-01  0.74697170135E-02  0.10203878793E+01  0.10201162644E+01 0.  0.
     999903    2    3    3    0    0  0.51919797746E-01 -0.85148332608E-01 -0.77708053142E-01  0.12814682618E+00  0.20908457443E-01 0.  0.
         14    1    1    2    0    0  0.20014540421E-02 -0.22235758471E-01 -0.74697170135E-02  0.23542120663E-01  0.00000000000E+00 0.  1.
     999901    1    3    3    0    0 -0.53921251788E-01  0.10738409108E+00  0.85177770156E-01  0.89224105316E+00  0.88000000000E+00 0.  1.
        -11    1    4    4    0    0  0.17870129298E-01 -0.13808747537E-01 -0.21168259649E-01  0.30957702874E-01  0.51100000000E-03 0.  1.
         11    1    4    4    0    0  0.34049668448E-01 -0.71339585071E-01 -0.56539793493E-01  0.97189123305E-01  0.51100000000E-03 0. -1.
</event>
<event>
 7    1  0.1099921E+005  0.1043930E+01  0.7957747E-01            NaN
         13   -1    0    0    0    0  0.00000000000E+00  0.00000000000E+00  0.74505805969E-08  0.10566000000E+00  0.10566000000E+00 0. -1.
     999900   -1    0    0    0    0 -0.00000000000E+00 -0.00000000000E+00 -0.74505805969E-08  0.93827000000E+00  0.93827000000E+00 0.  1.
     999902    2    1    2    0    0  0.70947393113E-02  0.17671254737E-01  0.13554640416E-01  0.10205561504E+01  0.10202884490E+01 0.  0.
         14    1    1    2    0    0 -0.70947393113E-02 -0.17671254737E-01 -0.13554640416E-01  0.23373849633E-01  0.00000000000E+00 0.  1.
     999901    1    3    3    0    0  0.21195222201E-01 -0.51547955259E-01 -0.99307608457E-01  0.88733783320E+00  0.88000000000E+00 0.  1.
        -11    1    3    3    0    0 -0.13228892009E-01  0.57989527721E-01  0.93715322630E-01  0.11099825100E+00  0.51100000000E-03 0. -1.
         11    1    3    3    0    0 -0.87159088117E-03  0.11229682275E-01  0.19146926242E-01  0.22220066161E-01  0.51100000000E-03 0.  1.
</event>
<event>
 8    1  0.1099921E+005  0.1043930E+01  0.7957747E-01            NaN
         13   -1    0    0    0    0  0.00000000000E+00  0.00000000000E+00  0.74505805969E-08  0.10566000000E+00  0.10566000000E+00 0. -1.
     999900   -1    0    0    0    0 -0.00000000000E+00 -0.00000000000E+00 -0.74505805969E-08  0.93827000000E+00  0.93827000000E+00 0.  1.
     999902    2    1    2    0    0 -0.18578018758E-01  0.13364957095E-01 -0.73096833327E-02  0.10199050894E+01  0.10196220844E+01 0.  0.
     999903    2    3    3    0    0 -0.11189694914E+00  0.42686534333E-01  0.52464866811E-01  0.13246992303E+00  0.21275592079E-01 0.  0.
         14    1    1    2    0    0  0.18578018758E-01 -0.13364957095E-01  0.73096833327E-02  0.24024910605E-01  0.00000000000E+00 0. -1.
     999901    1    3    3    0    0  0.93318930379E-01 -0.29321577237E-01 -0.59774550143E-01  0.88743516637E+00  0.88000000000E+00 0.  1.
        -11    1    4    4    0    0 -0.90057973264E-01  0.42833770255E-01  0.41350922466E-01  0.10795985519E+00  0.51100000000E-03 0.  1.
         11    1    4    4    0    0 -0.21838975873E-01 -0.14723592288E-03  0.11113944344E-01  0.24510067840E-01  0.51100000000E-03 0. -1.
</event>
<event>
 8    1  0.1099921E+005  0.1043930E+01  0.7957747E-01            NaN
         13   -1    0    0    0    0  0.00000000000E+00  0.00000000000E+00  0.74505805969E-08  0.10566000000E+00  0.10566000000E+00 0.  1.
     999900   -1    0    0    0    0 -0.00000000000E+00 -0.00000000000E+00 -0.74505805969E-08  0.93827000000E+00  0.93827000000E+00 0.  1.
     999902    2    1    2    0    0 -0.22344811954E-01 -0.15359927954E-02  0.68438876393E-02  0.10205101645E+01  0.10202413965E+01 0.  0.
     999903    2    3    3    0    0  0.64426489347E-01 -0.51000090183E-01 -0.97117790537E-01  0.12877927117E+00  0.20011339665E-01 0.  0.
         14    1    1    2    0    0  0.22344811954E-01  0.15359927954E-02 -0.68438876393E-02  0.23419835464E-01  0.00000000000E+00 0. -1.
     999901    1    3    3    0    0 -0.86771301301E-01  0.49464097387E-01  0.10396167818E+00  0.89173089337E+00  0.88000000000E+00 0. -1.
        -11    1    4    4    0    0  0.33517550009E-01 -0.31857457896E-01 -0.40394629388E-01  0.61402858130E-01  0.51100000000E-03 0.  1.
         11    1    4    4    0    0  0.30908939338E-01 -0.19142632287E-01 -0.56723161149E-01  0.67376413036E-01  0.51100000000E-03 0. -1.
</event>
<event>
 8    1  0.1099921E+005  0.1043930E+01  0.7957747E-01            NaN
         13   -1    0    0    0    0  0.00000000000E+00  0.00000000000E+00  0.74505805969E-08  0.10566000000E+00  0.10566000000E+00 0. -1.
     999900   -1    0    0    0    0 -0.00000000000E+00 -0.00000000000E+00 -0.74505805969E-08  0.93827000000E+00  0.93827000000E+00 0.  1.
     999902    2    1    2    0    0  0.10023582791E-01 -0.14101471760E-01 -0.16112429446E-01  0.10202882128E+01  0.10200142661E+01 0.  0.
     999903    2    3    3    0    0 -0.44235534164E-01 -0.10821716901E+00 -0.58591654104E-01  0.13259102304E+00  0.21901125759E-01 0.  0.
         14    1    1    2    0    0 -0.10023582791E-01  0.14101471760E-01  0.16112429446E-01  0.23641787166E-01  0.00000000000E+00 0.  1.
     999901    1    3    3    0    0  0.54259116954E-01  0.94115697246E-01  0.42479224658E-01  0.88769718979E+00  0.88000000000E+00 0. -1.
        -11    1    4    4    0    0 -0.36579970126E-01 -0.84842912215E-01 -0.35903142005E-01  0.99124722923E-01  0.51100000000E-03 0.  1.
         11    1    4    4    0    0 -0.76555640375E-02 -0.23374256791E-01 -0.22688512099E-01  0.33466300117E-01  0.51100000000E-03 0. -1.
</event>
<event>
 8    1  0.1099921E+005  0.1043930E+01  0.7957747E-01            NaN
         13   -1    0    0    0    0  0.00000000000E+00  0.00000000000E+00  0.74505805969E-08  0.10566000000E+00  0.10566000000E+00 0. -1.
     999900   -1    0    0    0    0 -0.00000000000E+00 -0.00000000000E+00 -0.74505805969E-08  0.93827000000E+00  0.93827000000E+00 0. -1.
     999902    2    1    2    0    0  0.33941783875E-02 -0.23769646635E-01 -0.31550144497E-02  0.10197128436E+01  0.10194252365E+01 0.  0.
     999903    2    3    3    0    0 -0.96902533834E-02  0.11999127057E+00 -0.36366815863E-01  0.12733320049E+00  0.19984809919E-01 0.  0.
         14    1    1    2    0    0 -0.33941783875E-02  0.23769646635E-01  0.31550144497E-02  0.24217156403E-01  0.00000000000E+00 0.  1.
     999901    1    3    3    0    0  0.13084431771E-01 -0.14376091721E+00  0.33211801413E-01  0.89237964310E+00  0.88000000000E+00 0.  1.
        -11    1    4    4    0    0 -0.13813408283E-01  0.11141033149E+00 -0.35575846055E-01  0.11776660882E+00  0.51100000000E-03 0. -1.
         11    1    4    4    0    0  0.41231548997E-02  0.85809390874E-02 -0.79096980742E-03  0.95665916702E-02  0.51100000000E-03 0.  1.
</event>
<event>
 8    1  0.1099921E+005  0.1043930E+01  0.7957747E-01            NaN
         13   -1    0    0    0    0  0.00000000000E+00  0.00000000000E+00  0.74505805969E-08  0.10566000000E+00  0.10566000000E+00 0.  1.
     999900   -1    0    0    0    0 -0.00000000000E+00 -0.00000000000E+00 -0.74505805969E-08  0.93827000000E+00  0.93827000000E+00 0.  1.
     999902    2    1    2    0    0 -0.97829321441E-02  0.21602265957E-01  0.53479095816E-02  0.10196202531E+01  0.10193304159E+01 0.  0.
     999903    2    3    3    0    0  0.11576630089E+00 -0.41794947889E-01  0.27335455898E-01  0.12818025581E+00  0.23114859689E-01 0.  0.
         14    1    1    2    0    0  0.97829321441E-02 -0.21602265957E-01 -0.53479095816E-02  0.24309746866E-01  0.00000000000E+00 0.  1.
     999901    1    3    3    0    0 -0.12554923304E+00  0.63397213846E-01 -0.21987546317E-01  0.89143999733E+00  0.88000000000E+00 0. -1.
        -11    1    4    4    0    0  0.87558762469E-01 -0.35631317836E-01  0.11454549480E-01  0.95223923047E-01  0.51100000000E-03 0. -1.
         11    1    4    4    0    0  0.28207538424E-01 -0.61636300538E-02  0.15880906418E-01  0.32956332760E-01  0.51100000000E-03 0.  1.
</event>
<event>
 8    1  0.1099921E+005  0.1043930E+01  0.7957747E-01            NaN
         13   -1    0    0    0    0  0.00000000000E+00  0.00000000000E+00  0.74505805969E-08  0.10566000000E+00  0.10566000000E+00 0.  1.
     999900   -1    0    0    0    0 -0.00000000000E+00 -0.00000000000E+00 -0.74505805969E-08  0.93827000000E+00  0.93827000000E+00 0. -1.
     999902    2    1    2    0    0  0.14625232586E-01 -0.15769284459E-01  0.10739495773E-01  0.10198903550E+01  0.10196069987E+01 0.  0.
     999903    2    3    3    0    0  0.51531550520E-01  0.10706896171E+00  0.48479002822E-01  0.12979171926E+00  0.19401376538E-01 0.  0.
         14    1    1    2    0    0 -0.14625232586E-01  0.15769284459E-01 -0.10739495773E-01  0.24039644964E-01  0.00000000000E+00 0. -1.
     999901    1    3    3    0    0 -0.36906317934E-01 -0.12283824617E+00 -0.37739507049E-01  0.89009863578E+00  0.88000000000E+00 0. -1.
        -11    1    4    4    0    0  0.19980619879E-01  0.62319915716E-01  0.30071166258E-01  0.72024532117E-01  0.51100000000E-03 0. -1.
         11    1    4    4    0    0  0.31550930641E-01  0.44749045997E-01  0.18407836563E-01  0.57767187138E-01  0.51100000000E-03 0.  1.
</event>
<event>
 8    1  0.1099921E+005  0.1043930E+01  0.7957747E-01            NaN
         13   -1    0    0    0    0  0.00000000000E+00  0.00000000000E+00  0.74505805969E-08  0.10566000000E+00  0.10566000000E+00 0. -1.
     999900   -1    0    0    0    0 -0.00000000000E+00 -0.00000000000E+00 -0.74505805969E-08  0.93827000000E+00  0.93827000000E+00 0. -1.
     999902    2    1    2    0    0 -0.11336069550E-01  0.17412800592E-01 -0.12236037095E-01  0.10198170844E+01  0.10195319773E+01 0.  0.
     999903    2    3    3    0    0 -0.98248522503E-01  0.48351237330E-01 -0.72586882104E-01  0.13293874668E+00  0.20328319866E-01 0.  0.
         14    1    1    2    0    0  0.11336069550E-01 -0.17412800592E-01  0.12236037095E-01  0.24112915649E-01  0.00000000000E+00 0.  1.
     999901    1    3    3    0    0  0.86912452953E-01 -0.30938436738E-01  0.60350845009E-01  0.88687833768E+00  0.88000000000E+00 0.  1.
        -11    1    4    4    0    0 -0.27961342810E-01  0.21862362920E-01 -0.30719242243E-01  0.46943930056E-01  0.51100000000E-03 0. -1.
         11    1    4    4    0    0 -0.70287179693E-01  0.26488874410E-01 -0.41867639861E-01  0.85994816619E-01  0.51100000000E-03 0.  1.
</event>
<event>
 8    1  0.1099921E+005  0.1043930E+01  0.7957747E-01            NaN
         13   -1    0    0    0    0  0.00000000000E+00  0.00000000000E+00  0.74505805969E-08  0.10566000000E+00  0.10566000000E+00 0.  1.
     999900   -1    0    0    0    0 -0.00000000000E+00 -0.00000000000E+00 -0.74505805969E-08  0.93827000000E+00  0.93827000000E+00 0. -1.
     999902    2    1    2    0    0 -0.17987463973E-01  0.59399136987E-02 -0.13758015625E-01  0.10205181562E+01  0.10202495738E+01 0.  0.
     999903    2    3    3    0    0  0.29817485887E-01  0.74807477102E-01 -0.10276755760E+00  0.13206401949E+00  0.19861854268E-01 0.  0.
         14    1    1    2    0    0  0.17987463973E-01 -0.59399136987E-02  0.13758015625E-01  0.23411843773E-01  0.00000000000E+00 0.  1.
     999901    1    3    3    0    0 -0.47804949859E-01 -0.68867563403E-01  0.89009541972E-01  0.88845413674E+00  0.88000000000E+00 0.  1.
        -11    1    4    4    0    0  0.93232151766E-02  0.13472864763E-01 -0.33527539098E-01  0.37320201300E-01  0.51100000000E-03 0. -1.
         11    1    4    4    0    0  0.20494270710E-01  0.61334612340E-01 -0.69240018499E-01  0.94743818192E-01  0.51100000000E-03 0.  1.
</event>
<event>
 8    1  0.1099921E+005  0.1043930E+01  0.7957747E-01            NaN
         13   -1    0    0    0    0  0.00000000000E+00  0.00000000000E+00  0.74505805969E-08  0.10566000000E+00  0.10566000000E+00 0. -1.
     999900   -1    0    0    0    0 -0.00000000000E+00 -0.00000000000E+00 -0.74505805969E-08  0.93827000000E+00  0.93827000000E+00 0. -1.
     999902    2    1    2    0    0 -0.16620105170E-01 -0.33103580134E-03 -0.18549962681E-01  0.10190213951E+01  0.10187169210E+01 0.  0.
     999903    2    3    3    0    0 -0.87278560888E-01  0.21458142269E-01  0.90613001741E-01  0.12919897553E+00  0.20091294943E-01 0.  0.
         14    1    1    2    0    0  0.16620105170E-01  0.33103580134E-03  0.18549962681E-01  0.24908604860E-01  0.00000000000E+00 0. -1.
     999901    1    3    3    0    0  0.70658455717E-01 -0.21789178071E-01 -0.10916296442E+00  0.88982241961E+00  0.88000000000E+00 0. -1.
        -11    1    4    4    0    0 -0.52845051387E-01  0.11036049777E-01  0.40418802812E-01  0.67441341865E-01  0.51100000000E-03 0. -1.
         11    1    4    4    0    0 -0.34433509501E-01  0.10422092492E-01  0.50194198929E-01  0.61757633662E-01  0.51100000000E-03 0.  1.
</event>
<event>
 8    1  0.1099921E+005  0.1043930E+01  0.7957747E-01            NaN
         13   -1    0    0    0    0  0.00000000000E+00  0.00000000000E+00  0.74505805969E-08  0.10566000000E+00  0.10566000000E+00 0.  1.
     999900   -1    0    0    0    0 -0.00000000000E+00 -0.00000000000E+00 -0.74505805969E-08  0.93827000000E+00  0.93827000000E+00 0.  1.
     999902    2    1    2    0    0  0.16253008720E-01  0.41182430799E-02 -0.16562497300E-01  0.10203622989E+01  0.10200900864E+01 0.  0.
     999903    2    3    3    0    0  0.50864472399E-01  0.21429126609E-01  0.11558790204E+00  0.12965395822E+00  0.20079436366E-01 0.  0.
         14    1    1    2    0    0 -0.16253008720E-01 -0.41182430799E-02  0.16562497300E-01  0.23567701104E-01  0.00000000000E+00 0.  1.
     999901    1    3    3    0    0 -0.34611463679E-01 -0.17310883529E-01 -0.13215039934E+00  0.89070834068E+00  0.88000000000E+00 0.  1.
        -11    1    4    4    0    0  0.11526712032E-01 -0.28541757494E-02  0.31943331888E-01  0.34082972033E-01  0.51100000000E-03 0. -1.
         11    1    4    4    0    0  0.39337760366E-01  0.24283302359E-01  0.83644570150E-01  0.95570986186E-01  0.51100000000E-03 0.  1.
</event>
<event>
 8    1  0.1099921E+005  0.1043930E+01  0.7957747E-01            NaN
         13   -1    0    0    0    0  0.00000000000E+00  0.00000000000E+00  0.74505805969E-08  0.10566000000E+00  0.10566000000E+00 0. -1.
     999900   -1    0    0    0    0 -0.00000000000E+00 -0.00000000000E+00 -0.74505805969E-08  0.93827000000E+00  0.93827000000E+00 0. -1.
     999902    2    1    2    0    0  0.13946678642E-01  0.84734455981E-02  0.17297087476E-01  0.10201497906E+01  0.10198725885E+01 0.  0.
     999903    2    3    3    0    0  0.66999381428E-01  0.39936425329E-01 -0.10199124384E+00  0.12996204950E+00  0.20101873303E-01 0.  0.
         14    1    1    2    0    0 -0.13946678642E-01 -0.84734455981E-02 -0.17297087476E-01  0.23780209431E-01  0.00000000000E+00 0.  1.
     999901    1    3    3    0    0 -0.53052702786E-01 -0.31462979731E-01  0.11928833131E+00  0.89018774107E+00  0.88000000000E+00 0.  1.
        -11    1    4    4    0    0  0.60654620296E-01  0.41420212607E-01 -0.88799090740E-01  0.11523956184E+00  0.51100000000E-03 0.  1.
         11    1    4    4    0    0  0.63447611322E-02 -0.14837872775E-02 -0.13192153097E-01  0.14722487658E-01  0.51100000000E-03 0. -1.
</event>
<event>
 8    1  0.1099921E+005  0.1043930E+01  0.7957747E-01            NaN
         13   -1    0    0    0    0  0.00000000000E+00  0.00000000000E+00  0.74505805969E-08  0.10566000000E+00  0.10566000000E+00 0. -1.
     999900   -1    0    0    0    0 -0.00000000000E+00 -0.00000000000E+00 -0.74505805969E-08  0.93827000000E+00  0.93827000000E+00 0. -1.
     999902    2    1    2    0    0 -0.93264949109E-02 -0.96037037365E-02  0.15750296089E-01  0.10232590915E+01  0.10230502831E+01 0.  0.
     999903    2    3    3    0    0 -0.49222134534E-01 -0.34813165784E-01  0.12007503253E+00  0.13584102219E+00  0.19999870795E-01 0.  0.
         14    1    1    2    0    0  0.93264949109E-02  0.96037037365E-02 -0.15750296089E-01  0.20670908535E-01  0.00000000000E+00 0.  1.
     999901    1    3    3    0    0  0.39895639623E-01  0.25209462048E-01 -0.10432473645E+00  0.88741806927E+00  0.88000000000E+00 0. -1.
        -11    1    4    4    0    0 -0.50805042009E-01 -0.31442239305E-01  0.11234823695E+00  0.12724839556E+00  0.51100000000E-03 0. -1.
         11    1    4    4    0    0  0.15829074751E-02 -0.33709264794E-02  0.77267955852E-02  0.85926266310E-02  0.51100000000E-03 0.  1.
</event>
<event>
 8    1  0.1099921E+005  0.1043930E+01  0.7957747E-01            NaN
         13   -1    0    0    0    0  0.00000000000E+00  0.00000000000E+00  0.74505805969E-08  0.10566000000E+00  0.10566000000E+00 0.  1.
     999900   -1    0    0    0    0 -0.00000000000E+00 -0.00000000000E+00 -0.74505805969E-08  0.93827000000E+00  0.93827000000E+00 0.  1.
     999902    2    1    2    0    0  0.22696685480E-01  0.74561944108E-02  0.32750213879E-02  0.10198165156E+01  0.10195313949E+01 0.  0.
     999903    2    3    3    0    0  0.77783900296E-01  0.10489248483E+00 -0.11753636673E-01  0.13259935359E+00  0.19790706859E-01 0.  0.
         14    1    1    2    0    0 -0.22696685480E-01 -0.74561944108E-02 -0.32750213879E-02  0.24113484443E-01  0.00000000000E+00 0. -1.
     999901    1    3    3    0    0 -0.55087214816E-01 -0.97436290420E-01  0.15028658060E-01  0.88721716197E+00  0.88000000000E+00 0.  1.
        -11    1    4    4    0    0  0.53765134737E-01  0.86113941575E-01 -0.10770325332E-01  0.10209094806E+00  0.51100000000E-03 0.  1.
         11    1    4    4    0    0  0.24018765559E-01  0.18778543256E-01 -0.98331134056E-03  0.30508405530E-01  0.51100000000E-03 0. -1.
</event>
<event>
 8    1  0.1099921E+005  0.1043930E+01  0.7957747E-01            NaN
         13   -1    0    0    0    0  0.00000000000E+00  0.00000000000E+00  0.74505805969E-08  0.10566000000E+00  0.10566000000E+00 0. -1.
     999900   -1    0    0    0    0 -0.00000000000E+00 -0.00000000000E+00 -0.74505805969E-08  0.93827000000E+00  0.93827000000E+00 0.  1.
     999902    2    1    2    0    0 -0.22333304627E-01  0.72852337908E-02 -0.51091023178E-02  0.10198893250E+01  0.10196059441E+01 0.  0.
     999903    2    3    3    0    0  0.66059057805E-01 -0.76434433526E-01 -0.76891653663E-01  0.12861219241E+00  0.20560833829E-01 0.  0.
         14    1    1    2    0    0  0.22333304627E-01 -0.72852337908E-02  0.51091023178E-02  0.24040674979E-01  0.00000000000E+00 0. -1.
     999901    1    3    3    0    0 -0.88392362432E-01  0.83719667317E-01  0.71782551345E-01  0.89127713261E+00  0.88000000000E+00 0.  1.
        -11    1    4    4    0    0  0.30891675698E-01 -0.30533307539E-01 -0.45124695267E-01  0.62634477252E-01  0.51100000000E-03 0. -1.
         11    1    4    4    0    0  0.35167382107E-01 -0.45901125987E-01 -0.31766958396E-01  0.65977715161E-01  0.51100000000E-03 0.  1.
</event>
<event>
 8    1  0.1099921E+005  0.1043930E+01  0.7957747E-01            NaN
         13   -1    0    0    0    0  0.00000000000E+00  0.00000000000E+00  0.74505805969E-08  0.10566000000E+00  0.10566000000E+00 0.  1.
     999900   -1    0    0    0    0 -0.00000000000E+00 -0.00000000000E+00 -0.74505805969E-08  0.93827000000E+00  0.93827000000E+00 0.  1.
     999902    2    1    2    0    0  0.17524763072E-01  0.10826162076E-01 -0.11978653283E-01  0.10201012098E+01  0.10198228606E+01 0.  0.
     999903    2    3    3    0    0  0.16824607259E-01 -0.91628762851E-01 -0.89557678857E-01  0.13076662316E+00  0.20010854520E-01 0.  0.
         14    1    1    2    0    0 -0.17524763072E-01 -0.10826162076E-01  0.11978653283E-01  0.23828790160E-01  0.00000000000E+00 0.  1.
     999901    1    3    3    0    0  0.70015581269E-03  0.10245492493E+00  0.77579025574E-01  0.88933458668E+00  0.88000000000E+00 0. -1.
        -11    1    4    4    0    0  0.68793449078E-02 -0.68514003329E-01 -0.55635926183E-01  0.88527461512E-01  0.51100000000E-03 0. -1.
         11    1    4    4    0    0  0.99452623515E-02 -0.23114759522E-01 -0.33921752675E-01  0.42239161646E-01  0.51100000000E-03 0.  1.
</event>
<event>
 8    1  0.1099921E+005  0.1043930E+01  0.7957747E-01            NaN
         13   -1    0    0    0    0  0.00000000000E+00  0.00000000000E+00  0.74505805969E-08  0.10566000000E+00  0.10566000000E+00 0. -1.
     999900   -1    0    0    0    0 -0.00000000000E+00 -0.00000000000E+00 -0.74505805969E-08  0.93827000000E+00  0.93827000000E+00 0. -1.
     999902    2    1    2    0    0  0.10281006060E-01 -0.12591452111E-01  0.18093976362E-01  0.10196064367E+01  0.10193162659E+01 0.  0.
     999903    2    3    3    0    0 -0.16304590854E-01  0.10808820157E-03 -0.12500127187E+00  0.12756141408E+00  0.19512688848E-01 0.  0.
         14    1    1    2    0    0 -0.10281006060E-01  0.12591452111E-01 -0.18093976362E-01  0.24323563317E-01  0.00000000000E+00 0.  1.
     999901    1    3    3    0    0  0.26585596914E-01 -0.12699540312E-01  0.14309524823E+00  0.89204502260E+00  0.88000000000E+00 0.  1.
        -11    1    4    4    0    0  0.28767477920E-02  0.47082153237E-02 -0.33673903376E-01  0.34126761624E-01  0.51100000000E-03 0. -1.
         11    1    4    4    0    0 -0.19181338646E-01 -0.46001271221E-02 -0.91327368496E-01  0.93434652454E-01  0.51100000000E-03 0.  1.
</event>
<event>
 8    1  0.1099921E+005  0.1043930E+01  0.7957747E-01            NaN
         13   -1    0    0    0    0  0.00000000000E+00  0.00000000000E+00  0.74505805969E-08  0.10566000000E+00  0.10566000000E+00 0.  1.
     999900   -1    0    0    0    0 -0.00000000000E+00 -0.00000000000E+00 -0.74505805969E-08  0.93827000000E+00  0.93827000000E+00 0.  1.
     999902    2    1    2    0    0 -0.15044185831E-01  0.92284386091E-02  0.17185190309E-01  0.10192962351E+01  0.10189985243E+01 0.  0.
     999903    2    3    3    0    0 -0.10441994161E+00  0.38287360197E-01  0.69445505590E-01  0.13275036084E+00  0.20749310806E-01 0.  0.
         14    1    1    2    0    0  0.15044185831E-01 -0.92284386091E-02 -0.17185190309E-01  0.24633764886E-01  0.00000000000E+00 0. -1.
     999901    1    3    3    0    0  0.89375755779E-01 -0.29058921588E-01 -0.52260315280E-01  0.88654587428E+00  0.88000000000E+00 0.  1.
        -11    1    4    4    0    0 -0.54512168085E-01  0.14725901117E-01  0.45796043138E-01  0.72704658181E-01  0.51100000000E-03 0. -1.
         11    1    4    4    0    0 -0.49907773525E-01  0.23561459080E-01  0.23649462452E-01  0.60045702656E-01  0.51100000000E-03 0.  1.
</event>
<event>
 8    1  0.1099921E+005  0.1043930E+01  0.7957747E-01            NaN
         13   -1    0    0    0    0  0.00000000000E+00  0.00000000000E+00  0.74505805969E-08  0.10566000000E+00  0.10566000000E+00 0. -1.
     999900   -1    0    0    0    0 -0.00000000000E+00 -0.00000000000E+00 -0.74505805969E-08  0.93827000000E+00  0.93827000000E+00 0. -1.
     999902    2    1    2    0    0  0.14811892332E-01  0.25521792178E-01 -0.18036663827E-03  0.10144209071E+01  0.10139916125E+01 0.  0.
     999903    2    3    3    0    0  0.48099838086E-01  0.10422370650E+00  0.54510920786E-01  0.12859179518E+00  0.19703651474E-01 0.  0.
         14    1    1    2    0    0 -0.14811892332E-01 -0.25521792178E-01  0.18036663827E-03  0.29509092879E-01  0.00000000000E+00 0. -1.
     999901    1    3    3    0    0 -0.33287945754E-01 -0.78701914321E-01 -0.54691287424E-01  0.88582911195E+00  0.88000000000E+00 0.  1.
        -11    1    4    4    0    0  0.61975317882E-02  0.34062409373E-01  0.13600613563E-01  0.37200738471E-01  0.51100000000E-03 0.  1.
         11    1    4    4    0    0  0.41902306298E-01  0.70161297126E-01  0.40910307223E-01  0.91391056704E-01  0.51100000000E-03 0. -1.
</event>
<event>
 8    1  0.1099921E+005  0.1043930E+01  0.7957747E-01            NaN
         13   -1    0    0    0    0  0.00000000000E+00  0.00000000000E+00  0.74505805969E-08  0.10566000000E+00  0.10566000000E+00 0.  1.
     999900   -1    0    0    0    0 -0.00000000000E+00 -0.00000000000E+00 -0.74505805969E-08  0.93827000000E+00  0.93827000000E+00 0.  1.
     999902    2    1    2    0    0  0.16106236338E-01  0.56123720563E-02  0.16357751111E-01  0.10202977003E+01  0.10200239760E+01 0.  0.
     999903    2    3    3    0    0 -0.50909143091E-01 -0.31734319144E-01 -0.11109689663E+00  0.12781211291E+00  0.19864740167E-01 0.  0.
         14    1    1    2    0    0 -0.16106236338E-01 -0.56123720563E-02 -0.16357751111E-01  0.23632299729E-01  0.00000000000E+00 0. -1.
     999901    1    3    3    0    0  0.67015379428E-01  0.37346691200E-01  0.12745464775E+00  0.89248558737E+00  0.88000000000E+00 0. -1.
        -11    1    4    4    0    0 -0.31007958949E-01 -0.27842565425E-01 -0.62170103625E-01  0.74847076585E-01  0.51100000000E-03 0.  1.
         11    1    4    4    0    0 -0.19901184142E-01 -0.38917537189E-02 -0.48926793009E-01  0.52965036320E-01  0.51100000000E-03 0. -1.
</event>
<event>
 8    1  0.1099921E+005  0.1043930E+01  0.7957747E-01            NaN
         13   -1    0    0    0    0  0.00000000000E+00  0.00000000000E+00  0.74505805969E-08  0.10566000000E+00  0.10566000000E+00 0. -1.
     999900   -1    0    0    0    0 -0.00000000000E+00 -0.00000000000E+00 -0.74505805969E-08  0.93827000000E+00  0.93827000000E+00 0. -1.
     999902    2    1    2    0    0 -0.20100459957E-01  0.46898869124E-02 -0.10810127057E-01  0.10206301636E+01  0.10203641744E+01 0.  0.
     999903    2    3    3    0    0 -0.26837139897E-01  0.18692585875E-01  0.12445046160E+00  0.13016012744E+00  0.19598381007E-01 0.  0.
         14    1    1    2    0    0  0.20100459957E-01 -0.46898869124E-02  0.10810127057E-01  0.23299836409E-01  0.00000000000E+00 0.  1.
     999901    1    3    3    0    0  0.67366799404E-02 -0.14002698963E-01 -0.13526058866E+00  0.89047003615E+00  0.88000000000E+00 0. -1.
        -11    1    4    4    0    0  0.24736880231E-02  0.53506276997E-02  0.19857822415E-01  0.20720583517E-01  0.51100000000E-03 0.  1.
         11    1    4    4    0    0 -0.29310827920E-01  0.13341958176E-01  0.10459263919E+00  0.10943954392E+00  0.51100000000E-03 0. -1.
</event>
<event>
 8    1  0.1099921E+005  0.1043930E+01  0.7957747E-01            NaN
         13   -1    0    0    0    0  0.00000000000E+00  0.00000000000E+00  0.74505805969E-08  0.10566000000E+00  0.10566000000E+00 0. -1.
     999900   -1    0    0    0    0 -0.00000000000E+00 -0.00000000000E+00 -0.74505805969E-08  0.93827000000E+00  0.93827000000E+00 0.  1.
     999902    2    1    2    0    0  0.97742814460E-02 -0.34941271296E-02 -0.21290739466E-01  0.10202436941E+01  0.10199687025E+01 0.  0.
     999903    2    3    3    0    0  0.63368845329E-01 -0.10520411808E-01  0.10988882184E+00  0.12887967007E+00  0.20202142663E-01 0.  0.
         14    1    1    2    0    0 -0.97742814460E-02  0.34941271296E-02  0.21290739466E-01  0.23686305942E-01  0.00000000000E+00 0. -1.
     999901    1    3    3    0    0 -0.53594563883E-01  0.70262846783E-02 -0.13117956131E+00  0.89136402399E+00  0.88000000000E+00 0.  1.
        -11    1    4    4    0    0  0.16594924118E-01 -0.51729306211E-02  0.48445143938E-01  0.51471776829E-01  0.51100000000E-03 0. -1.
         11    1    4    4    0    0  0.46773921211E-01 -0.53474811867E-02  0.61443677906E-01  0.77407893242E-01  0.51100000000E-03 0.  1.
</event>
<event>
 8    1  0.1099921E+005  0.1043930E+01  0.7957747E-01            NaN
         13   -1    0    0    0    0  0.00000000000E+00  0.00000000000E+00  0.74505805969E-08  0.10566000000E+00  0.10566000000E+00 0.  1.
     999900   -1    0    0    0    0 -0.00000000000E+00 -0.00000000000E+00 -0.74505805969E-08  0.93827000000E+00  0.93827000000E+00 0. -1.
     999902    2    1    2    0    0  0.11176588277E-02 -0.30854491656E-02 -0.20228849925E-01  0.10234366956E+01  0.10232314959E+01 0.  0.
     999903    2    3    3    0    0 -0.97256924059E-01  0.31727457080E-01  0.80593521400E-01  0.13155405330E+00  0.18590654566E-01 0.  0.
         14    1    1    2    0    0 -0.11176588277E-02  0.30854491656E-02  0.20228849925E-01  0.20493304445E-01  0.00000000000E+00 0.  1.
     999901    1    3    3    0    0  0.98374582887E-01 -0.34812906246E-01 -0.10082237132E+00  0.89188264226E+00  0.88000000000E+00 0. -1.
        -11    1    4    4    0    0 -0.65857860748E-01  0.19824482474E-01  0.42860409290E-01  0.81040383348E-01  0.51100000000E-03 0. -1.
         11    1    4    4    0    0 -0.31399063311E-01  0.11902974606E-01  0.37733112110E-01  0.50513669950E-01  0.51100000000E-03 0.  1.
</event>
<event>
 8    1  0.1332667E+005  0.1043930E+01  0.7957747E-01            NaN
         13   -1    0    0    0    0  0.00000000000E+00  0.00000000000E+00  0.74505805969E-08  0.10566000000E+00  0.10566000000E+00 0. -1.
     999900   -1    0    0    0    0 -0.00000000000E+00 -0.00000000000E+00 -0.74505805969E-08  0.93827000000E+00  0.93827000000E+00 0. -1.
     999902    2    1    2    0    0  0.31192548293E-02  0.23497498040E-01 -0.53871239624E-02  0.10196219094E+01  0.10193321121E+01 0.  0.
     999903    2    3    3    0    0  0.60404754768E-01 -0.10552157514E+00  0.32760281719E-01  0.12755533434E+00  0.20336913279E-01 0.  0.
         14    1    1    2    0    0 -0.31192548293E-02 -0.23497498040E-01  0.53871239624E-02  0.24308090617E-01  0.00000000000E+00 0. -1.
     999901    1    3    3    0    0 -0.57285499939E-01  0.12901907318E+00 -0.38147405682E-01  0.89206657504E+00  0.88000000000E+00 0. -1.
        -11    1    4    4    0    0  0.48219893824E-01 -0.64859230815E-01  0.21045379788E-01  0.83516747504E-01  0.51100000000E-03 0. -1.
         11    1    4    4    0    0  0.12184860944E-01 -0.40662344326E-01  0.11714901932E-01  0.44038586837E-01  0.51100000000E-03 0.  1.
</event>
<event>
 8    1  0.1099921E+005  0.1043930E+01  0.7957747E-01            NaN
         13   -1    0    0    0    0  0.00000000000E+00  0.00000000000E+00  0.74505805969E-08  0.10566000000E+00  0.10566000000E+00 0.  1.
     999900   -1    0    0    0    0 -0.00000000000E+00 -0.00000000000E+00 -0.74505805969E-08  0.93827000000E+00  0.93827000000E+00 0. -1.
     999902    2    1    2    0    0  0.36532886970E-02  0.56626507149E-02  0.23172829664E-01  0.10197971973E+01  0.10195116142E+01 0.  0.
     999903    2    3    3    0    0 -0.60481988675E-01 -0.97182991382E-01  0.60167647453E-01  0.13071948616E+00  0.19100615031E-01 0.  0.
         14    1    1    2    0    0 -0.36532886970E-02 -0.56626507149E-02 -0.23172829664E-01  0.24132802698E-01  0.00000000000E+00 0. -1.
     999901    1    3    3    0    0  0.64135277372E-01  0.10284564210E+00 -0.36994817790E-01  0.88907771114E+00  0.88000000000E+00 0. -1.
        -11    1    4    4    0    0 -0.43480567131E-01 -0.77469411420E-01  0.53995374340E-01  0.10396071852E+00  0.51100000000E-03 0. -1.
         11    1    4    4    0    0 -0.17001421545E-01 -0.19713579962E-01  0.61722731128E-02  0.26758767644E-01  0.51100000000E-03 0.  1.
</event>
<event>
 8    1  0.1099921E+005  0.1043930E+01  0.7957747E-01            NaN
         13   -1    0    0    0    0  0.00000000000E+00  0.00000000000E+00  0.74505805969E-08  0.10566000000E+00  0.10566000000E+00 0.  1.
     999900   -1    0    0    0    0 -0.00000000000E+00 -0.00000000000E+00 -0.74505805969E-08  0.93827000000E+00  0.93827000000E+00 0.  1.
     999902    2    1    2    0    0  0.31588199303E-02  0.22954123427E-01 -0.49299003817E-02  0.10202408919E+01  0.10199658345E+01 0.  0.
     999903    2    3    3    0    0 -0.91965387770E-01  0.89928590620E-01 -0.27897343515E-01  0.13228723454E+00  0.13299123573E-01 0.  0.
         14    1    1    2    0    0 -0.31588199303E-02 -0.22954123427E-01  0.49299003817E-02  0.23689108118E-01  0.00000000000E+00 0.  1.
     999901    1    3    3    0    0  0.95124207701E-01 -0.66974467193E-01  0.22967443134E-01  0.88795365734E+00  0.88000000000E+00 0. -1.
        -11    1    4    4    0    0 -0.54584405677E-01  0.48020738033E-01 -0.10258790621E-01  0.73423106243E-01  0.51100000000E-03 0. -1.
         11    1    4    4    0    0 -0.37380982094E-01  0.41907852587E-01 -0.17638552894E-01  0.58864128295E-01  0.51100000000E-03 0.  1.
</event>
<event>
 8    1  0.1099921E+005  0.1043930E+01  0.7957747E-01            NaN
         13   -1    0    0    0    0  0.00000000000E+00  0.00000000000E+00  0.74505805969E-08  0.10566000000E+00  0.10566000000E+00 0.  1.
     999900   -1    0    0    0    0 -0.00000000000E+00 -0.00000000000E+00 -0.74505805969E-08  0.93827000000E+00  0.93827000000E+00 0. -1.
     999902    2    1    2    0    0 -0.21558400413E-01 -0.19286539899E-02 -0.81047183368E-02  0.10208178648E+01  0.10205561926E+01 0.  0.
     999903    2    3    3    0    0  0.24824054317E-02  0.93337582683E-01  0.88533993464E-01  0.13009194914E+00  0.19172390423E-01 0.  0.
         14    1    1    2    0    0  0.21558400413E-01  0.19286539899E-02  0.81047183368E-02  0.23112135209E-01  0.00000000000E+00 0. -1.
     999901    1    3    3    0    0 -0.24040805845E-01 -0.95266236673E-01 -0.96638711801E-01  0.89072591565E+00  0.88000000000E+00 0. -1.
        -11    1    4    4    0    0  0.20120349690E-02  0.19762582787E-01  0.30403606089E-01  0.36321458497E-01  0.51100000000E-03 0. -1.
         11    1    4    4    0    0  0.47037046267E-03  0.73574999896E-01  0.58130387375E-01  0.93770490643E-01  0.51100000000E-03 0.  1.
</event>
<event>
 8    1  0.1099921E+005  0.1043930E+01  0.7957747E-01            NaN
         13   -1    0    0    0    0  0.00000000000E+00  0.00000000000E+00  0.74505805969E-08  0.10566000000E+00  0.10566000000E+00 0.  1.
     999900   -1    0    0    0    0 -0.00000000000E+00 -0.00000000000E+00 -0.74505805969E-08  0.93827000000E+00  0.93827000000E+00 0.  1.
     999902    2    1    2    0    0 -0.80526233240E-02  0.19877853227E-02  0.21766086252E-01  0.10206371139E+01  0.10203712852E+01 0.  0.
     999903    2    3    3    0    0 -0.81682469052E-01  0.94107022888E-01  0.40668579333E-01  0.13256920412E+00  0.19811689181E-01 0.  0.
         14    1    1    2    0    0  0.80526233240E-02 -0.19877853227E-02 -0.21766086252E-01  0.23292886116E-01  0.00000000000E+00 0. -1.
     999901    1    3    3    0    0  0.73629845728E-01 -0.92119237565E-01 -0.18902493081E-01  0.88806790977E+00  0.88000000000E+00 0.  1.
        -11    1    4    4    0    0 -0.18358611131E-01  0.21235541885E-01  0.18162092650E-01  0.33438145466E-01  0.51100000000E-03 0.  1.
         11    1    4    4    0    0 -0.63323857921E-01  0.72871481003E-01  0.22506486684E-01  0.99131058652E-01  0.51100000000E-03 0. -1.
</event>
<event>
 8    1  0.1099921E+005  0.1043930E+01  0.7957747E-01            NaN
         13   -1    0    0    0    0  0.00000000000E+00  0.00000000000E+00  0.74505805969E-08  0.10566000000E+00  0.10566000000E+00 0.  1.
     999900   -1    0    0    0    0 -0.00000000000E+00 -0.00000000000E+00 -0.74505805969E-08  0.93827000000E+00  0.93827000000E+00 0. -1.
     999902    2    1    2    0    0 -0.53491383302E-02  0.22337063979E-01  0.58671314168E-02  0.10202238628E+01  0.10199484052E+01 0.  0.
     999903    2    3    3    0    0 -0.15276239741E-01  0.80463363203E-01 -0.10128592443E+00  0.13176508980E+00  0.19886781674E-01 0.  0.
         14    1    1    2    0    0  0.53491383302E-02 -0.22337063979E-01 -0.58671314168E-02  0.23706137162E-01  0.00000000000E+00 0.  1.
     999901    1    3    3    0    0  0.99271014107E-02 -0.58126299224E-01  0.10715305584E+00  0.88845877303E+00  0.88000000000E+00 0.  1.
        -11    1    4    4    0    0 -0.20181713530E-02  0.13118170015E-01 -0.66403289163E-02  0.14849730276E-01  0.51100000000E-03 0.  1.
         11    1    4    4    0    0 -0.13258068388E-01  0.67345193189E-01 -0.94645595511E-01  0.11691535953E+00  0.51100000000E-03 0. -1.
</event>
<event>
 8    1  0.1099921E+005  0.1043930E+01  0.7957747E-01            NaN
         13   -1    0    0    0    0  0.00000000000E+00  0.00000000000E+00  0.74505805969E-08  0.10566000000E+00  0.10566000000E+00 0.  1.
     999900   -1    0    0    0    0 -0.00000000000E+00 -0.00000000000E+00 -0.74505805969E-08  0.93827000000E+00  0.93827000000E+00 0.  1.
     999902    2    1    2    0    0 -0.19317982544E-01 -0.10878918580E-01 -0.10580377194E-01  0.10193641762E+01  0.10190681253E+01 0.  0.
     999903    2    3    3    0    0 -0.47856993965E-01 -0.59477342550E-01  0.10358580816E+00  0.13020153645E+00  0.19863894263E-01 0.  0.
         14    1    1    2    0    0  0.19317982544E-01  0.10878918580E-01  0.10580377194E-01  0.24565823833E-01  0.00000000000E+00 0. -1.
     999901    1    3    3    0    0  0.28539011421E-01  0.48598423971E-01 -0.11416618535E+00  0.88916263971E+00  0.88000000000E+00 0.  1.
        -11    1    4    4    0    0 -0.27788316141E-01 -0.39996783123E-01  0.50281184920E-01  0.70002798887E-01  0.51100000000E-03 0.  1.
         11    1    4    4    0    0 -0.20068677825E-01 -0.19480559428E-01  0.53304623236E-01  0.60198737566E-01  0.51100000000E-03 0. -1.
</event>
<event>
 8    1  0.1099921E+005  0.1043930E+01  0.7957747E-01            NaN
         13   -1    0    0    0    0  0.00000000000E+00  0.00000000000E+00  0.74505805969E-08  0.10566000000E+00  0.10566000000E+00 0. -1.
     999900   -1    0    0    0    0 -0.00000000000E+00 -0.00000000000E+00 -0.74505805969E-08  0.93827000000E+00  0.93827000000E+00 0. -1.
     999902    2    1    2    0    0 -0.49740612586E-02 -0.21848419031E-01  0.83123589366E-02  0.10200304182E+01  0.10197503930E+01 0.  0.
     999903    2    3    3    0    0 -0.34148735050E-01 -0.12666767288E+00 -0.11231139996E-01  0.13311430834E+00  0.19556204148E-01 0.  0.
         14    1    1    2    0    0  0.49740612586E-02  0.21848419031E-01 -0.83123589366E-02  0.23899581809E-01  0.00000000000E+00 0.  1.
     999901    1    3    3    0    0  0.29174673792E-01  0.10481925385E+00  0.19543498933E-01  0.88691610985E+00  0.88000000000E+00 0. -1.
        -11    1    4    4    0    0 -0.27646951015E-01 -0.87434305642E-01  0.30546821782E-03  0.91703141361E-01  0.51100000000E-03 0. -1.
         11    1    4    4    0    0 -0.65017840354E-02 -0.39233367235E-01 -0.11536608214E-01  0.41411166976E-01  0.51100000000E-03 0.  1.
</event>
<event>
 8    1  0.1099921E+005  0.1043930E+01  0.7957747E-01            NaN
         13   -1    0    0    0    0  0.00000000000E+00  0.00000000000E+00  0.74505805969E-08  0.10566000000E+00  0.10566000000E+00 0. -1.
     999900   -1    0    0    0    0 -0.00000000000E+00 -0.00000000000E+00 -0.74505805969E-08  0.93827000000E+00  0.93827000000E+00 0. -1.
     999902    2    1    2    0    0  0.52886615098E-02  0.17744451220E-01  0.14643080804E-01  0.10203237444E+01  0.10200506301E+01 0.  0.
     999903    2    3    3    0    0  0.19726626456E-01 -0.11492287512E+00 -0.48739432476E-01  0.12800854372E+00  0.20353082584E-01 0.  0.
         14    1    1    2    0    0 -0.52886615098E-02 -0.17744451220E-01 -0.14643080804E-01  0.23606255635E-01  0.00000000000E+00 0.  1.
     999901    1    3    3    0    0 -0.14437964947E-01  0.13266732634E+00  0.63382513280E-01  0.89231520064E+00  0.88000000000E+00 0. -1.
        -11    1    4    4    0    0  0.18282972327E-01 -0.49890250012E-01 -0.25418735050E-01  0.58903967065E-01  0.51100000000E-03 0. -1.
         11    1    4    4    0    0  0.14436541293E-02 -0.65032625106E-01 -0.23320697426E-01  0.69104576656E-01  0.51100000000E-03 0.  1.
</event>
<event>
 8    1  0.1099921E+005  0.1043930E+01  0.7957747E-01            NaN
         13   -1    0    0    0    0  0.00000000000E+00  0.00000000000E+00  0.74505805969E-08  0.10566000000E+00  0.10566000000E+00 0.  1.
     999900   -1    0    0    0    0 -0.00000000000E+00 -0.00000000000E+00 -0.74505805969E-08  0.93827000000E+00  0.93827000000E+00 0. -1.
     999902    2    1    2    0    0 -0.12854754391E-02  0.96087852817E-02 -0.22564862878E-01  0.10193708013E+01  0.10190749121E+01 0.  0.
     999903    2    3    3    0    0  0.14176579709E-01  0.54107793677E-01  0.11261435081E+00  0.12780327350E+00  0.22870416721E-01 0.  0.
         14    1    1    2    0    0  0.12854754391E-02 -0.96087852817E-02  0.22564862878E-01  0.24559198651E-01  0.00000000000E+00 0.  1.
     999901    1    3    3    0    0 -0.15462055148E-01 -0.44499008395E-01 -0.13517921369E+00  0.89156752785E+00  0.88000000000E+00 0. -1.
        -11    1    4    4    0    0  0.18617613458E-02  0.42217200023E-01  0.68580216463E-01  0.80555976465E-01  0.51100000000E-03 0.  1.
         11    1    4    4    0    0  0.12314818364E-01  0.11890593654E-01  0.44034134346E-01  0.47247297038E-01  0.51100000000E-03 0. -1.
</event>
<event>
 8    1  0.1099921E+005  0.1043930E+01  0.7957747E-01            NaN
         13   -1    0    0    0    0  0.00000000000E+00  0.00000000000E+00  0.74505805969E-08  0.10566000000E+00  0.10566000000E+00 0.  1.
     999900   -1    0    0    0    0 -0.00000000000E+00 -0.00000000000E+00 -0.74505805969E-08  0.93827000000E+00  0.93827000000E+00 0.  1.
     999902    2    1    2    0    0  0.20368479904E-01  0.38210385971E-02 -0.10715888512E-01  0.10205996426E+01  0.10203329481E+01 0.  0.
     999903    2    3    3    0    0  0.45921222071E-01 -0.12157024124E+00 -0.30210959869E-03  0.13128284726E+00  0.18628272168E-01 0.  0.
         14    1    1    2    0    0 -0.20368479904E-01 -0.38210385971E-02  0.10715888512E-01  0.23330357394E-01  0.00000000000E+00 0.  1.
     999901    1    3    3    0    0 -0.25552742167E-01  0.12539127983E+00 -0.10413778913E-01  0.88931679534E+00  0.88000000000E+00 0.  1.
        -11    1    4    4    0    0  0.33119828801E-01 -0.67917306972E-01  0.57923195455E-02  0.75785854437E-01  0.51100000000E-03 0.  1.
         11    1    4    4    0    0  0.12801393270E-01 -0.53652934265E-01 -0.60944291442E-02  0.55496992824E-01  0.51100000000E-03 0. -1.
</event>
<event>
 8    1  0.1099921E+005  0.1043930E+01  0.7957747E-01            NaN
         13   -1    0    0    0    0  0.00000000000E+00  0.00000000000E+00  0.74505805969E-08  0.10566000000E+00  0.10566000000E+00 0.  1.
     999900   -1    0    0    0    0 -0.00000000000E+00 -0.00000000000E+00 -0.74505805969E-08  0.93827000000E+00  0.93827000000E+00 0.  1.
     999902    2    1    2    0    0 -0.16437552306E-01  0.15184049299E-01  0.65700809691E-02  0.10206080266E+01  0.10203415259E+01 0.  0.
     999903    2    3    3    0    0 -0.50171290026E-01 -0.84555748364E-01 -0.82438029970E-01  0.12987325345E+00  0.20104732089E-01 0.  0.
         14    1    1    2    0    0  0.16437552306E-01 -0.15184049299E-01 -0.65700809691E-02  0.23321973392E-01  0.00000000000E+00 0. -1.
     999901    1    3    3    0    0  0.33733737719E-01  0.99739797663E-01  0.89008110940E-01  0.89073477316E+00  0.88000000000E+00 0. -1.
        -11    1    4    4    0    0 -0.90481681210E-02 -0.22500247522E-01 -0.31103023364E-01  0.39443499696E-01  0.51100000000E-03 0. -1.
         11    1    4    4    0    0 -0.41123121905E-01 -0.62055500841E-01 -0.51335006607E-01  0.90429753755E-01  0.51100000000E-03 0.  1.
</event>
<event>
 8    1  0.1099921E+005  0.1043930E+01  0.7957747E-01            NaN
         13   -1    0    0    0    0  0.00000000000E+00  0.00000000000E+00  0.74505805969E-08  0.10566000000E+00  0.10566000000E+00 0.  1.
     999900   -1    0    0    0    0 -0.00000000000E+00 -0.00000000000E+00 -0.74505805969E-08  0.93827000000E+00  0.93827000000E+00 0.  1.
     999902    2    1    2    0    0  0.30545112888E-02 -0.18107357142E-01  0.15313887344E-01  0.10200193001E+01  0.10197390113E+01 0.  0.
     999903    2    3    3    0    0  0.10983459339E+00 -0.58855394444E-01  0.38312662818E-01  0.13233054154E+00  0.22713800511E-01 0.  0.
         14    1    1    2    0    0 -0.30545112888E-02  0.18107357142E-01 -0.15313887344E-01  0.23910699853E-01  0.00000000000E+00 0.  1.
     999901    1    3    3    0    0 -0.10678008210E+00  0.40748037302E-01 -0.22998775475E-01  0.88768875860E+00  0.88000000000E+00 0. -1.
        -11    1    4    4    0    0  0.59260719811E-01 -0.23428915455E-01  0.10415203720E-01  0.64571546222E-01  0.51100000000E-03 0. -1.
         11    1    4    4    0    0  0.50573873575E-01 -0.35426478989E-01  0.27897459098E-01  0.67758995323E-01  0.51100000000E-03 0.  1.
</event>
<event>
 8    1  0.1099921E+005  0.1043930E+01  0.7957747E-01            NaN
         13   -1    0    0    0    0  0.00000000000E+00  0.00000000000E+00  0.74505805969E-08  0.10566000000E+00  0.10566000000E+00 0. -1.
     999900   -1    0    0    0    0 -0.00000000000E+00 -0.00000000000E+00 -0.74505805969E-08  0.93827000000E+00  0.93827000000E+00 0. -1.
     999902    2    1    2    0    0 -0.13900880631E-01  0.18567880069E-01 -0.27344667753E-02  0.10205745304E+01  0.10203072548E+01 0.  0.
     999903    2    3    3    0    0  0.32827389018E-01  0.61786754975E-01 -0.11002732318E+00  0.13177581337E+00  0.19068628207E-01 0.  0.
         14    1    1    2    0    0  0.13900880631E-01 -0.18567880069E-01  0.27344667753E-02  0.23355469619E-01  0.00000000000E+00 0. -1.
     999901    1    3    3    0    0 -0.46728269648E-01 -0.43218874906E-01  0.10729285641E+00  0.88879871702E+00  0.88000000000E+00 0.  1.
        -11    1    4    4    0    0  0.31798997389E-01  0.45762746495E-01 -0.92579308170E-01  0.10805829271E+00  0.51100000000E-03 0. -1.
         11    1    4    4    0    0  0.10283916289E-02  0.16024008480E-01 -0.17448015012E-01  0.23717520654E-01  0.51100000000E-03 0.  1.
</event>
<event>
 8    1  0.1099921E+005  0.1043930E+01  0.7957747E-01            NaN
         13   -1    0    0    0    0  0.00000000000E+00  0.00000000000E+00  0.74505805969E-08  0.10566000000E+00  0.10566000000E+00 0.  1.
     999900   -1    0    0    0    0 -0.00000000000E+00 -0.00000000000E+00 -0.74505805969E-08  0.93827000000E+00  0.93827000000E+00 0.  1.
     999902    2    1    2    0    0 -0.46136631886E-02  0.66524589994E-02  0.22874665905E-01  0.10196649750E+01  0.10193762160E+01 0.  0.
     999903    2    3    3    0    0 -0.12337356857E+00  0.17567798197E-01  0.37899697257E-01  0.13149336357E+00  0.18012569340E-01 0.  0.
         14    1    1    2    0    0  0.46136631886E-02 -0.66524589994E-02 -0.22874665905E-01  0.24265025016E-01  0.00000000000E+00 0. -1.
     999901    1    3    3    0    0  0.11875990539E+00 -0.10915339198E-01 -0.15025031352E-01  0.88817161142E+00  0.88000000000E+00 0.  1.
        -11    1    4    4    0    0 -0.55810650395E-01 -0.10364593168E-02  0.17671218831E-01  0.58552848277E-01  0.51100000000E-03 0.  1.
         11    1    4    4    0    0 -0.67562918179E-01  0.18604257514E-01  0.20228478426E-01  0.72940515291E-01  0.51100000000E-03 0. -1.
</event>
<event>
 8    1  0.1099921E+005  0.1043930E+01  0.7957747E-01            NaN
         13   -1    0    0    0    0  0.00000000000E+00  0.00000000000E+00  0.74505805969E-08  0.10566000000E+00  0.10566000000E+00 0.  1.
     999900   -1    0    0    0    0 -0.00000000000E+00 -0.00000000000E+00 -0.74505805969E-08  0.93827000000E+00  0.93827000000E+00 0. -1.
     999902    2    1    2    0    0 -0.29439462494E-02 -0.23149495142E-01 -0.13249232025E-01  0.10170951701E+01  0.10167411062E+01 0.  0.
     999903    2    3    3    0    0 -0.87366710429E-01  0.72121830849E-01 -0.53712491650E-01  0.12701590172E+00  0.20334870433E-01 0.  0.
         14    1    1    2    0    0  0.29439462494E-02  0.23149495142E-01  0.13249232025E-01  0.26834829869E-01  0.00000000000E+00 0.  1.
     999901    1    3    3    0    0  0.84422764179E-01 -0.95271325991E-01  0.40463259626E-01  0.89007926841E+00  0.88000000000E+00 0.  1.
        -11    1    4    4    0    0 -0.65861162600E-01  0.49922848860E-01 -0.29507794766E-01  0.87755083331E-01  0.51100000000E-03 0.  1.
         11    1    4    4    0    0 -0.21505547828E-01  0.22198981989E-01 -0.24204696884E-01  0.39260818394E-01  0.51100000000E-03 0. -1.
</event>
<event>
 8    1  0.1099921E+005  0.1043930E+01  0.7957747E-01            NaN
         13   -1    0    0    0    0  0.00000000000E+00  0.00000000000E+00  0.74505805969E-08  0.10566000000E+00  0.10566000000E+00 0.  1.
     999900   -1    0    0    0    0 -0.00000000000E+00 -0.00000000000E+00 -0.74505805969E-08  0.93827000000E+00  0.93827000000E+00 0. -1.
     999902    2    1    2    0    0 -0.21735998998E-01  0.20379209768E-02 -0.87337767410E-02  0.10204164798E+01  0.10201455321E+01 0.  0.
     999903    2    3    3    0    0  0.25678440320E-01  0.11807973452E+00 -0.46958294011E-01  0.13071150330E+00  0.16679619807E-01 0.  0.
         14    1    1    2    0    0  0.21735998998E-01 -0.20379209768E-02  0.87337767410E-02  0.23513520164E-01  0.00000000000E+00 0.  1.
     999901    1    3    3    0    0 -0.47414439318E-01 -0.11604181355E+00  0.38224517270E-01  0.88970497653E+00  0.88000000000E+00 0.  1.
        -11    1    4    4    0    0  0.12326291739E-01  0.82980700021E-01 -0.38020602459E-01  0.92106250474E-01  0.51100000000E-03 0. -1.
         11    1    4    4    0    0  0.13352148581E-01  0.35099034502E-01 -0.89376915525E-02  0.38605252829E-01  0.51100000000E-03 0.  1.
</event>
<event>
 8    1  0.1099921E+005  0.1043930E+01  0.7957747E-01            NaN
         13   -1    0    0    0    0  0.00000000000E+00  0.00000000000E+00  0.74505805969E-08  0.10566000000E+00  0.10566000000E+00 0.  1.
     999900   -1    0    0    0    0 -0.00000000000E+00 -0.00000000000E+00 -0.74505805969E-08  0.93827000000E+00  0.93827000000E+00 0.  1.
     999902    2    1    2    0    0 -0.21614484064E-01 -0.90981373075E-02 -0.58883022574E-02  0.10197507914E+01  0.10194640957E+01 0.  0.
     999903    2    3    3    0    0  0.80196086721E-01  0.94522345389E-01 -0.23643270368E-01  0.12766456485E+00  0.19322287145E-01 0.  0.
         14    1    1    2    0    0  0.21614484064E-01  0.90981373075E-02  0.58883022574E-02  0.24179208575E-01  0.00000000000E+00 0.  1.
     999901    1    3    3    0    0 -0.10181057079E+00 -0.10362048270E+00  0.17754968111E-01  0.89208622658E+00  0.88000000000E+00 0. -1.
        -11    1    4    4    0    0  0.49313655779E-01  0.63364233914E-01 -0.64831409239E-02  0.80555291713E-01  0.51100000000E-03 0. -1.
         11    1    4    4    0    0  0.30882430943E-01  0.31158111475E-01 -0.17160129444E-01  0.47109273134E-01  0.51100000000E-03 0.  1.
</event>
<event>
 8    1  0.1099921E+005  0.1043930E+01  0.7957747E-01            NaN
         13   -1    0    0    0    0  0.00000000000E+00  0.00000000000E+00  0.74505805969E-08  0.10566000000E+00  0.10566000000E+00 0.  1.
     999900   -1    0    0    0    0 -0.00000000000E+00 -0.00000000000E+00 -0.74505805969E-08  0.93827000000E+00  0.93827000000E+00 0. -1.
     999902    2    1    2    0    0 -0.72107151798E-03  0.17998080601E-01  0.14874145216E-01  0.10205699691E+01  0.10203025878E+01 0.  0.
     999903    2    3    3    0    0  0.10135800606E+00  0.22562209929E-01 -0.75539754276E-01  0.13005571169E+00  0.20633345808E-01 0.  0.
         14    1    1    2    0    0  0.72107151798E-03 -0.17998080601E-01 -0.14874145216E-01  0.23360030937E-01  0.00000000000E+00 0. -1.
     999901    1    3    3    0    0 -0.10207907758E+00 -0.45641293281E-02  0.90413899492E-01  0.89051425737E+00  0.88000000000E+00 0.  1.
        -11    1    4    4    0    0  0.82774177792E-01  0.19474715745E-01 -0.51152509470E-01  0.99235424162E-01  0.51100000000E-03 0.  1.
         11    1    4    4    0    0  0.18583828266E-01  0.30874941846E-02 -0.24387244805E-01  0.30820287532E-01  0.51100000000E-03 0. -1.
</event>
<event>
 8    1  0.1099921E+005  0.1043930E+01  0.7957747E-01            NaN
         13   -1    0    0    0    0  0.00000000000E+00  0.00000000000E+00  0.74505805969E-08  0.10566000000E+00  0.10566000000E+00 0.  1.
     999900   -1    0    0    0    0 -0.00000000000E+00 -0.00000000000E+00 -0.74505805969E-08  0.93827000000E+00  0.93827000000E+00 0. -1.
     999902    2    1    2    0    0 -0.17136468411E-01  0.58432927071E-02  0.14762399817E-01  0.10205691124E+01  0.10203017114E+01 0.  0.
     999903    2    3    3    0    0  0.53244405415E-01 -0.10437648375E+00  0.52835993808E-01  0.13009088975E+00  0.20064403466E-01 0.  0.
         14    1    1    2    0    0  0.17136468411E-01 -0.58432927071E-02 -0.14762399817E-01  0.23360887560E-01  0.00000000000E+00 0. -1.
     999901    1    3    3    0    0 -0.70380873825E-01  0.11021977646E+00 -0.38073593991E-01  0.89047822269E+00  0.88000000000E+00 0. -1.
        -11    1    4    4    0    0  0.31031435428E-03 -0.14859160897E-01  0.71328693167E-02  0.16493329053E-01  0.51100000000E-03 0. -1.
         11    1    4    4    0    0  0.52934091060E-01 -0.89517322853E-01  0.45703124491E-01  0.11359756070E+00  0.51100000000E-03 0.  1.
</event>
<event>
 8    1  0.1099921E+005  0.1043930E+01  0.7957747E-01            NaN
         13   -1    0    0    0    0  0.00000000000E+00  0.00000000000E+00  0.74505805969E-08  0.10566000000E+00  0.10566000000E+00 0.  1.
     999900   -1    0    0    0    0 -0.00000000000E+00 -0.00000000000E+00 -0.74505805969E-08  0.93827000000E+00  0.93827000000E+00 0. -1.
     999902    2    1    2    0    0 -0.10767319397E-01  0.22070481942E-01  0.35600327328E-02  0.10191163914E+01  0.10188142637E+01 0.  0.
     999903    2    3    3    0    0 -0.21671406014E-01 -0.37357260995E-02  0.12656413404E+00  0.13011983996E+00  0.20714421011E-01 0.  0.
         14    1    1    2    0    0  0.10767319397E-01 -0.22070481942E-01 -0.35600327328E-02  0.24813608629E-01  0.00000000000E+00 0.  1.
     999901    1    3    3    0    0  0.10904086618E-01  0.25806208041E-01 -0.12300410131E+00  0.88899655141E+00  0.88000000000E+00 0. -1.
        -11    1    4    4    0    0 -0.25212338730E-01 -0.41499946878E-03  0.10165827396E+00  0.10474015483E+00  0.51100000000E-03 0.  1.
         11    1    4    4    0    0  0.35409327156E-02 -0.33207266308E-02  0.24905860084E-01  0.25379685131E-01  0.51100000000E-03 0. -1.
</event>
<event>
 8    1  0.1099921E+005  0.1043930E+01  0.7957747E-01            NaN
         13   -1    0    0    0    0  0.00000000000E+00  0.00000000000E+00  0.74505805969E-08  0.10566000000E+00  0.10566000000E+00 0.  1.
     999900   -1    0    0    0    0 -0.00000000000E+00 -0.00000000000E+00 -0.74505805969E-08  0.93827000000E+00  0.93827000000E+00 0. -1.
     999902    2    1    2    0    0 -0.86844591747E-02  0.17605329819E-01  0.13473446568E-01  0.10201203122E+01  0.10198424144E+01 0.  0.
     999903    2    3    3    0    0  0.10192310228E+00  0.78356816710E-01  0.16459407590E-01  0.13111317403E+00  0.19789967224E-01 0.  0.
         14    1    1    2    0    0  0.86844591747E-02 -0.17605329819E-01 -0.13473446568E-01  0.23809687768E-01  0.00000000000E+00 0. -1.
     999901    1    3    3    0    0 -0.11060756145E+00 -0.60751486892E-01 -0.29859610212E-02  0.88900713820E+00  0.88000000000E+00 0.  1.
        -11    1    4    4    0    0  0.42358393224E-01  0.24705936883E-01 -0.10764807132E-02  0.49051368233E-01  0.51100000000E-03 0. -1.
         11    1    4    4    0    0  0.59564709056E-01  0.53650879827E-01  0.17535888303E-01  0.82061805797E-01  0.51100000000E-03 0.  1.
</event>
<event>
 8    1  0.1099921E+005  0.1043930E+01  0.7957747E-01            NaN
         13   -1    0    0    0    0  0.00000000000E+00  0.00000000000E+00  0.74505805969E-08  0.10566000000E+00  0.10566000000E+00 0.  1.
     999900   -1    0    0    0    0 -0.00000000000E+00 -0.00000000000E+00 -0.74505805969E-08  0.93827000000E+00  0.93827000000E+00 0. -1.
     999902    2    1    2    0    0 -0.18305262875E-01 -0.93835476155E-03 -0.11292915576E-01  0.10224011101E+01  0.10221744160E+01 0.  0.
     999903    2    3    3    0    0  0.70926860130E-01  0.46682080936E-01 -0.99762112461E-01  0.13220064027E+00  0.17739617699E-01 0.  0.
         14    1    1    2    0    0  0.18305262875E-01  0.93835476155E-03  0.11292915576E-01  0.21528889911E-01  0.00000000000E+00 0.  1.
     999901    1    3    3    0    0 -0.89232123006E-01 -0.47620435697E-01  0.88469196885E-01  0.89020046982E+00  0.88000000000E+00 0.  1.
        -11    1    4    4    0    0  0.21921301004E-01  0.24055438727E-01 -0.42097744634E-01  0.53213614746E-01  0.51100000000E-03 0. -1.
         11    1    4    4    0    0  0.49005559126E-01  0.22626642209E-01 -0.57664367827E-01  0.78987025522E-01  0.51100000000E-03 0.  1.
</event>
<event>
 8    1  0.1099921E+005  0.1043930E+01  0.7957747E-01            NaN
         13   -1    0    0    0    0  0.00000000000E+00  0.00000000000E+00  0.74505805969E-08  0.10566000000E+00  0.10566000000E+00 0. -1.
     999900   -1    0    0    0    0 -0.00000000000E+00 -0.00000000000E+00 -0.74505805969E-08  0.93827000000E+00  0.93827000000E+00 0.  1.
     999902    2    1    2    0    0 -0.55355351544E-03 -0.15969776870E-01 -0.17819196405E-01  0.10199954234E+01  0.10197145678E+01 0.  0.
     999903    2    3    3    0    0 -0.24235782321E-01  0.11029894155E+00  0.55943042478E-01  0.12761349562E+00  0.20058679196E-01 0.  0.
         14    1    1    2    0    0  0.55355351544E-03  0.15969776870E-01  0.17819196405E-01  0.23934576564E-01  0.00000000000E+00 0. -1.
     999901    1    3    3    0    0  0.23682228806E-01 -0.12626871842E+00 -0.73762238882E-01  0.89238192782E+00  0.88000000000E+00 0. -1.
        -11    1    4    4    0    0 -0.22955446314E-01  0.60754578426E-01  0.35312587499E-01  0.73927743589E-01  0.51100000000E-03 0.  1.
         11    1    4    4    0    0 -0.12803360069E-02  0.49544363120E-01  0.20630454979E-01  0.53685752029E-01  0.51100000000E-03 0. -1.
</event>
<event>
 8    1  0.1099921E+005  0.1043930E+01  0.7957747E-01            NaN
         13   -1    0    0    0    0  0.00000000000E+00  0.00000000000E+00  0.74505805969E-08  0.10566000000E+00  0.10566000000E+00 0.  1.
     999900   -1    0    0    0    0 -0.00000000000E+00 -0.00000000000E+00 -0.74505805969E-08  0.93827000000E+00  0.93827000000E+00 0. -1.
     999902    2    1    2    0    0  0.13744394955E-01  0.23438860949E-02 -0.18448087281E-01  0.10208056812E+01  0.10205437299E+01 0.  0.
     999903    2    3    3    0    0  0.10548103251E+00  0.60262596818E-01 -0.51822296071E-01  0.13351540993E+00  0.19570015910E-01 0.  0.
         14    1    1    2    0    0 -0.13744394955E-01 -0.23438860949E-02  0.18448087281E-01  0.23124318780E-01  0.00000000000E+00 0.  1.
     999901    1    3    3    0    0 -0.91736637556E-01 -0.57918710723E-01  0.33374208790E-01  0.88729027129E+00  0.88000000000E+00 0.  1.
        -11    1    4    4    0    0  0.14222517576E-01  0.16646323132E-01 -0.91587289509E-02  0.23738650278E-01  0.51100000000E-03 0. -1.
         11    1    4    4    0    0  0.91258514935E-01  0.43616273686E-01 -0.42663567121E-01  0.10977675965E+00  0.51100000000E-03 0.  1.
</event>
<event>
 8    1  0.1099921E+005  0.1043930E+01  0.7957747E-01            NaN
         13   -1    0    0    0    0  0.00000000000E+00  0.00000000000E+00  0.74505805969E-08  0.10566000000E+00  0.10566000000E+00 0.  1.
     999900   -1    0    0    0    0 -0.00000000000E+00 -0.00000000000E+00 -0.74505805969E-08  0.93827000000E+00  0.93827000000E+00 0.  1.
     999902    2    1    2    0    0  0.15736681813E-01 -0.22072560079E-02  0.17218125519E-01  0.10204996995E+01  0.10202306885E+01 0.  0.
     999903    2    3    3    0    0 -0.75692098936E-01 -0.70608627451E-01 -0.73579693508E-01  0.12848949023E+00  0.19511680877E-01 0.  0.
         14    1    1    2    0    0 -0.15736681813E-01  0.22072560079E-02 -0.17218125519E-01  0.23430300467E-01  0.00000000000E+00 0. -1.
     999901    1    3    3    0    0  0.91428780749E-01  0.68401371443E-01  0.90797819027E-01  0.89201020931E+00  0.88000000000E+00 0. -1.
        -11    1    4    4    0    0 -0.24608130369E-01 -0.35949888897E-01 -0.32037019240E-01  0.54079444476E-01  0.51100000000E-03 0. -1.
         11    1    4    4    0    0 -0.51083968566E-01 -0.34658738554E-01 -0.41542674268E-01  0.74410045753E-01  0.51100000000E-03 0.  1.
</event>
<event>
 8    1  0.1099921E+005  0.1043930E+01  0.7957747E-01            NaN
         13   -1    0    0    0    0  0.00000000000E+00  0.00000000000E+00  0.74505805969E-08  0.10566000000E+00  0.10566000000E+00 0.  1.
     999900   -1    0    0    0    0 -0.00000000000E+00 -0.00000000000E+00 -0.74505805969E-08  0.93827000000E+00  0.93827000000E+00 0.  1.
     999902    2    1    2    0    0  0.10445605231E-01 -0.13723040967E-01  0.12298895865E-01  0.10227475695E+01  0.10225281882E+01 0.  0.
     999903    2    3    3    0    0 -0.12436354892E+00 -0.38923126599E-01 -0.39162930958E-02  0.13197740571E+00  0.20527936657E-01 0.  0.
         14    1    1    2    0    0 -0.10445605231E-01  0.13723040967E-01 -0.12298895865E-01  0.21182430491E-01  0.00000000000E+00 0. -1.
     999901    1    3    3    0    0  0.13480915415E+00  0.25200085632E-01  0.16215188960E-01  0.89077016380E+00  0.88000000000E+00 0.  1.
        -11    1    4    4    0    0 -0.74561361223E-01 -0.32224313725E-01  0.28034561292E-02  0.81276832306E-01  0.51100000000E-03 0. -1.
         11    1    4    4    0    0 -0.49802187694E-01 -0.66988128741E-02 -0.67197492249E-02  0.50700573406E-01  0.51100000000E-03 0.  1.
</event>
<event>
 8    1  0.1099921E+005  0.1043930E+01  0.7957747E-01            NaN
         13   -1    0    0    0    0  0.00000000000E+00  0.00000000000E+00  0.74505805969E-08  0.10566000000E+00  0.10566000000E+00 0. -1.
     999900   -1    0    0    0    0 -0.00000000000E+00 -0.00000000000E+00 -0.74505805969E-08  0.93827000000E+00  0.93827000000E+00 0.  1.
     999902    2    1    2    0    0 -0.22584623685E-01 -0.35320068032E-03 -0.51156327241E-02  0.10207705597E+01  0.10205078029E+01 0.  0.
     999903    2    3    3    0    0  0.10423458794E+00  0.52844833688E-01  0.49440486044E-01  0.12842000447E+00  0.19746141812E-01 0.  0.
         14    1    1    2    0    0  0.22584623685E-01  0.35320068032E-03  0.51156327241E-02  0.23159440319E-01  0.00000000000E+00 0. -1.
     999901    1    3    3    0    0 -0.12681921162E+00 -0.53198034369E-01 -0.54556118768E-01  0.89235055522E+00  0.88000000000E+00 0.  1.
        -11    1    4    4    0    0  0.11811229675E-01  0.87405409552E-02  0.13287584765E-01  0.19817245836E-01  0.51100000000E-03 0.  1.
         11    1    4    4    0    0  0.92423358263E-01  0.44104292733E-01  0.36152901280E-01  0.10860275863E+00  0.51100000000E-03 0. -1.
</event>
<event>
 8    1  0.1174659E+005  0.1043930E+01  0.7957747E-01            NaN
         13   -1    0    0    0    0  0.00000000000E+00  0.00000000000E+00  0.74505805969E-08  0.10566000000E+00  0.10566000000E+00 0. -1.
     999900   -1    0    0    0    0 -0.00000000000E+00 -0.00000000000E+00 -0.74505805969E-08  0.93827000000E+00  0.93827000000E+00 0.  1.
     999902    2    1    2    0    0  0.90193942245E-02  0.27789517558E-03 -0.21954420357E-01  0.10201934613E+01  0.10199172884E+01 0.  0.
     999903    2    3    3    0    0 -0.15648028064E-01 -0.11978204530E+00  0.42013903926E-01  0.12939897456E+00  0.19655211391E-01 0.  0.
         14    1    1    2    0    0 -0.90193942245E-02 -0.27789517558E-03  0.21954420357E-01  0.23736538735E-01  0.00000000000E+00 0. -1.
     999901    1    3    3    0    0  0.24667422289E-01  0.12005994048E+00 -0.63968324283E-01  0.89079448670E+00  0.88000000000E+00 0.  1.
        -11    1    4    4    0    0 -0.17272586144E-01 -0.57217426422E-01  0.19073244859E-01  0.62739348968E-01  0.51100000000E-03 0.  1.
         11    1    4    4    0    0  0.16245580794E-02 -0.62564618882E-01  0.22940659066E-01  0.66659625593E-01  0.51100000000E-03 0. -1.
</event>
<event>
 8    1  0.1099921E+005  0.1043930E+01  0.7957747E-01            NaN
         13   -1    0    0    0    0  0.00000000000E+00  0.00000000000E+00  0.74505805969E-08  0.10566000000E+00  0.10566000000E+00 0.  1.
     999900   -1    0    0    0    0 -0.00000000000E+00 -0.00000000000E+00 -0.74505805969E-08  0.93827000000E+00  0.93827000000E+00 0. -1.
     999902    2    1    2    0    0 -0.30526159341E-03 -0.23206734233E-01 -0.57387259401E-02  0.10200222884E+01  0.10197420704E+01 0.  0.
     999903    2    3    3    0    0  0.99359062717E-01  0.58050494814E-01 -0.55736759742E-01  0.12927231327E+00  0.19043668235E-01 0.  0.
         14    1    1    2    0    0  0.30526159341E-03  0.23206734233E-01  0.57387259401E-02  0.23907711597E-01  0.00000000000E+00 0. -1.
     999901    1    3    3    0    0 -0.99664324310E-01 -0.81257229047E-01  0.49998033802E-01  0.89074997513E+00  0.88000000000E+00 0.  1.
        -11    1    4    4    0    0  0.38251734882E-01  0.18498605911E-01 -0.30196298488E-01  0.52129369893E-01  0.51100000000E-03 0.  1.
         11    1    4    4    0    0  0.61107327835E-01  0.39551888903E-01 -0.25540461255E-01  0.77142943378E-01  0.51100000000E-03 0. -1.
</event>
<event>
 8    1  0.1099921E+005  0.1043930E+01  0.7957747E-01            NaN
         13   -1    0    0    0    0  0.00000000000E+00  0.00000000000E+00  0.74505805969E-08  0.10566000000E+00  0.10566000000E+00 0. -1.
     999900   -1    0    0    0    0 -0.00000000000E+00 -0.00000000000E+00 -0.74505805969E-08  0.93827000000E+00  0.93827000000E+00 0.  1.
     999902    2    1    2    0    0  0.19812963419E-01 -0.59213981529E-02  0.17781271697E-03  0.10232503459E+01  0.10230413591E+01 0.  0.
     999903    2    3    3    0    0  0.79888278178E-01  0.98218272137E-01  0.40084958689E-01  0.13417965431E+00  0.19194002893E-01 0.  0.
         14    1    1    2    0    0 -0.19812963419E-01  0.59213981529E-02 -0.17781271697E-03  0.20679654080E-01  0.00000000000E+00 0. -1.
     999901    1    3    3    0    0 -0.60075314759E-01 -0.10413967029E+00 -0.39907145972E-01  0.88907069161E+00  0.88000000000E+00 0.  1.
        -11    1    4    4    0    0  0.13499524115E-01  0.22188791094E-01  0.15649529145E-01  0.30327355391E-01  0.51100000000E-03 0. -1.
         11    1    4    4    0    0  0.66388754063E-01  0.76029481043E-01  0.24435429544E-01  0.10385229892E+00  0.51100000000E-03 0.  1.
</event>
<event>
 8    1  0.1099921E+005  0.1043930E+01  0.7957747E-01            NaN
         13   -1    0    0    0    0  0.00000000000E+00  0.00000000000E+00  0.74505805969E-08  0.10566000000E+00  0.10566000000E+00 0. -1.
     999900   -1    0    0    0    0 -0.00000000000E+00 -0.00000000000E+00 -0.74505805969E-08  0.93827000000E+00  0.93827000000E+00 0.  1.
     999902    2    1    2    0    0 -0.56661434717E-02 -0.13769482564E-01 -0.18682930933E-01  0.10200395052E+01  0.10197596955E+01 0.  0.
     999903    2    3    3    0    0 -0.23166537374E-01  0.11717372806E-01  0.12384443224E+00  0.12803620208E+00  0.19540736110E-01 0.  0.
         14    1    1    2    0    0  0.56661434717E-02  0.13769482564E-01  0.18682930933E-01  0.23890494766E-01  0.00000000000E+00 0. -1.
     999901    1    3    3    0    0  0.17500393903E-01 -0.25486855371E-01 -0.14252736317E+00  0.89200330315E+00  0.88000000000E+00 0.  1.
        -11    1    4    4    0    0 -0.85706961874E-02  0.15219513551E-01  0.66305895513E-01  0.68569842691E-01  0.51100000000E-03 0. -1.
         11    1    4    4    0    0 -0.14595841187E-01 -0.35021407444E-02  0.57538536724E-01  0.59466359390E-01  0.51100000000E-03 0.  1.
</event>
<event>
 8    1  0.1099921E+005  0.1043930E+01  0.7957747E-01            NaN
         13   -1    0    0    0    0  0.00000000000E+00  0.00000000000E+00  0.74505805969E-08  0.10566000000E+00  0.10566000000E+00 0.  1.
     999900   -1    0    0    0    0 -0.00000000000E+00 -0.00000000000E+00 -0.74505805969E-08  0.93827000000E+00  0.93827000000E+00 0. -1.
     999902    2    1    2    0    0 -0.20903155195E-02  0.13935752847E-01 -0.18628407846E-01  0.10205720847E+01  0.10203047525E+01 0.  0.
     999903    2    3    3    0    0  0.15088064235E-01  0.28473414183E-01 -0.12807102184E+00  0.13350719079E+00  0.19585667192E-01 0.  0.
         14    1    1    2    0    0  0.20903155195E-02 -0.13935752847E-01  0.18628407846E-01  0.23357915259E-01  0.00000000000E+00 0.  1.
     999901    1    3    3    0    0 -0.17178379754E-01 -0.14537661336E-01  0.10944261399E+00  0.88706489395E+00  0.88000000000E+00 0.  1.
        -11    1    4    4    0    0  0.68646920933E-02  0.28524371602E-01 -0.10428140181E+00  0.10833113891E+00  0.51100000000E-03 0. -1.
         11    1    4    4    0    0  0.82233721416E-02 -0.50957419947E-04 -0.23789620027E-01  0.25176051876E-01  0.51100000000E-03 0.  1.
</event>
<event>
 8    1  0.1099921E+005  0.1043930E+01  0.7957747E-01            NaN
         13   -1    0    0    0    0  0.00000000000E+00  0.00000000000E+00  0.74505805969E-08  0.10566000000E+00  0.10566000000E+00 0.  1.
     999900   -1    0    0    0    0 -0.00000000000E+00 -0.00000000000E+00 -0.74505805969E-08  0.93827000000E+00  0.93827000000E+00 0. -1.
     999902    2    1    2    0    0  0.14307825150E-01 -0.83267126926E-02  0.17759000174E-01  0.10196518186E+01  0.10193627426E+01 0.  0.
     999903    2    3    3    0    0 -0.13291142199E-01  0.78135905447E-01 -0.97848055915E-01  0.12746210853E+00  0.19760386754E-01 0.  0.
         14    1    1    2    0    0 -0.14307825150E-01  0.83267126926E-02 -0.17759000174E-01  0.24278181397E-01  0.00000000000E+00 0.  1.
     999901    1    3    3    0    0  0.27598967349E-01 -0.86462618139E-01  0.11560705609E+00  0.89218971007E+00  0.88000000000E+00 0.  1.
        -11    1    4    4    0    0 -0.59882193393E-02  0.30599763217E-01 -0.54106367005E-01  0.62449694565E-01  0.51100000000E-03 0. -1.
         11    1    4    4    0    0 -0.73029228593E-02  0.47536142230E-01 -0.43741688911E-01  0.65012413969E-01  0.51100000000E-03 0.  1.
</event>
<event>
 8    1  0.1099921E+005  0.1043930E+01  0.7957747E-01            NaN
         13   -1    0    0    0    0  0.00000000000E+00  0.00000000000E+00  0.74505805969E-08  0.10566000000E+00  0.10566000000E+00 0. -1.
     999900   -1    0    0    0    0 -0.00000000000E+00 -0.00000000000E+00 -0.74505805969E-08  0.93827000000E+00  0.93827000000E+00 0. -1.
     999902    2    1    2    0    0 -0.15559062664E-02 -0.11795164725E-01 -0.20035862275E-01  0.10206280144E+01  0.10203619756E+01 0.  0.
     999903    2    3    3    0    0 -0.84265883619E-01 -0.88379003876E-01 -0.48739573091E-01  0.13297384313E+00  0.19872330130E-01 0.  0.
         14    1    1    2    0    0  0.15559062664E-02  0.11795164725E-01  0.20035862275E-01  0.23301985587E-01  0.00000000000E+00 0. -1.
     999901    1    3    3    0    0  0.82709977352E-01  0.76583839151E-01  0.28703710816E-01  0.88765417128E+00  0.88000000000E+00 0. -1.
        -11    1    4    4    0    0 -0.55171632122E-01 -0.69927246859E-01 -0.31800797732E-01  0.94579494087E-01  0.51100000000E-03 0. -1.
         11    1    4    4    0    0 -0.29094251497E-01 -0.18451757017E-01 -0.16938775359E-01  0.38394349048E-01  0.51100000000E-03 0.  1.
</event>
<event>
 8    1  0.1099921E+005  0.1043930E+01  0.7957747E-01            NaN
         13   -1    0    0    0    0  0.00000000000E+00  0.00000000000E+00  0.74505805969E-08  0.10566000000E+00  0.10566000000E+00 0.  1.
     999900   -1    0    0    0    0 -0.00000000000E+00 -0.00000000000E+00 -0.74505805969E-08  0.93827000000E+00  0.93827000000E+00 0.  1.
     999902    2    1    2    0    0 -0.49142676584E-02 -0.18121490901E-01  0.13596014623E-01  0.10207483246E+01  0.10204850573E+01 0.  0.
     999903    2    3    3    0    0  0.23676134072E-01 -0.10570355517E+00  0.76291134165E-01  0.13372030531E+00  0.18082643623E-01 0.  0.
         14    1    1    2    0    0  0.49142676584E-02  0.18121490901E-01 -0.13596014623E-01  0.23181675365E-01  0.00000000000E+00 0. -1.
     999901    1    3    3    0    0 -0.28590401730E-01  0.87582064268E-01 -0.62695119542E-01  0.88702801932E+00  0.88000000000E+00 0.  1.
        -11    1    4    4    0    0  0.20732011664E-01 -0.51905599026E-01  0.36919562618E-01  0.66987481985E-01  0.51100000000E-03 0.  1.
         11    1    4    4    0    0  0.29441224079E-02 -0.53797956143E-01  0.39371571547E-01  0.66732823326E-01  0.51100000000E-03 0. -1.
</event>
<event>
 8    1  0.1099921E+005  0.1043930E+01  0.7957747E-01            NaN
         13   -1    0    0    0    0  0.00000000000E+00  0.00000000000E+00  0.74505805969E-08  0.10566000000E+00  0.10566000000E+00 0.  1.
     999900   -1    0    0    0    0 -0.00000000000E+00 -0.00000000000E+00 -0.74505805969E-08  0.93827000000E+00  0.93827000000E+00 0. -1.
     999902    2    1    2    0    0 -0.97725993566E-02  0.20968879145E-01 -0.66861813830E-03  0.10207860021E+01  0.10205235996E+01 0.  0.
     999903    2    3    3    0    0  0.39070397166E-02 -0.12579453186E+00  0.16119204215E-01  0.12836880011E+00  0.19472824454E-01 0.  0.
         14    1    1    2    0    0  0.97725993566E-02 -0.20968879145E-01  0.66861813830E-03  0.23143997947E-01  0.00000000000E+00 0. -1.
     999901    1    3    3    0    0 -0.13679639073E-01  0.14676341101E+00 -0.16787822353E-01  0.89241720194E+00  0.88000000000E+00 0. -1.
        -11    1    4    4    0    0  0.50868561940E-03 -0.30392383477E-01  0.12399401388E-01  0.32832331782E-01  0.51100000000E-03 0.  1.
         11    1    4    4    0    0  0.33983540972E-02 -0.95402148386E-01  0.37198028267E-02  0.95536468332E-01  0.51100000000E-03 0. -1.
</event>
<event>
 8    1  0.1099921E+005  0.1043930E+01  0.7957747E-01            NaN
         13   -1    0    0    0    0  0.00000000000E+00  0.00000000000E+00  0.74505805969E-08  0.10566000000E+00  0.10566000000E+00 0.  1.
     999900   -1    0    0    0    0 -0.00000000000E+00 -0.00000000000E+00 -0.74505805969E-08  0.93827000000E+00  0.93827000000E+00 0.  1.
     999902    2    1    2    0    0  0.17050173295E-01 -0.16269448329E-01  0.22096705445E-02  0.10202596387E+01  0.10199850217E+01 0.  0.
     999903    2    3    3    0    0 -0.50211524582E-01  0.34278837881E-01  0.11349296727E+00  0.12926960660E+00  0.11564672200E-01 0.  0.
         14    1    1    2    0    0 -0.17050173295E-01  0.16269448329E-01 -0.22096705445E-02  0.23670361261E-01  0.00000000000E+00 0.  1.
     999901    1    3    3    0    0  0.67261697876E-01 -0.50548286209E-01 -0.11128329673E+00  0.89099003214E+00  0.88000000000E+00 0.  1.
        -11    1    4    4    0    0 -0.44279753431E-01  0.33875403652E-01  0.99469903982E-01  0.11402965604E+00  0.51100000000E-03 0.  1.
         11    1    4    4    0    0 -0.59317711501E-02  0.40343422849E-03  0.14023063290E-01  0.15239950564E-01  0.51100000000E-03 0. -1.
</event>
<event>
 8    1  0.1099921E+005  0.1043930E+01  0.7957747E-01            NaN
         13   -1    0    0    0    0  0.00000000000E+00  0.00000000000E+00  0.74505805969E-08  0.10566000000E+00  0.10566000000E+00 0.  1.
     999900   -1    0    0    0    0 -0.00000000000E+00 -0.00000000000E+00 -0.74505805969E-08  0.93827000000E+00  0.93827000000E+00 0.  1.
     999902    2    1    2    0    0  0.16686073080E-01  0.10436644826E-01 -0.52077614565E-03  0.10242419377E+01  0.10240526974E+01 0.  0.
     999903    2    3    3    0    0  0.10483964299E+00  0.18910945484E-01  0.83573631044E-01  0.13580807127E+00  0.10502657579E-01 0.  0.
         14    1    1    2    0    0 -0.16686073080E-01 -0.10436644826E-01  0.52077614565E-03  0.19688062318E-01  0.00000000000E+00 0.  1.
     999901    1    3    3    0    0 -0.88153569909E-01 -0.84743006586E-02 -0.84094407190E-01  0.88843386641E+00  0.88000000000E+00 0. -1.
        -11    1    4    4    0    0  0.11369806243E-01  0.25269920007E-02  0.13538483518E-01  0.17866444513E-01  0.51100000000E-03 0. -1.
         11    1    4    4    0    0  0.93469836746E-01  0.16383953483E-01  0.70035147526E-01  0.11794162676E+00  0.51100000000E-03 0.  1.
</event>
<event>
 8    1  0.1099921E+005  0.1043930E+01  0.7957747E-01            NaN
         13   -1    0    0    0    0  0.00000000000E+00  0.00000000000E+00  0.74505805969E-08  0.10566000000E+00  0.10566000000E+00 0. -1.
     999900   -1    0    0    0    0 -0.00000000000E+00 -0.00000000000E+00 -0.74505805969E-08  0.93827000000E+00  0.93827000000E+00 0.  1.
     999902    2    1    2    0    0 -0.62107102351E-02  0.22059008261E-01  0.57446947706E-02  0.10203042876E+01  0.10200307177E+01 0.  0.
     999903    2    3    3    0    0  0.70918107048E-02  0.31816667530E-01  0.12632508181E+00  0.13192835441E+00  0.19607914044E-01 0.  0.
         14    1    1    2    0    0  0.62107102351E-02 -0.22059008261E-01 -0.57446947706E-02  0.23625712372E-01  0.00000000000E+00 0.  1.
     999901    1    3    3    0    0 -0.13302520940E-01 -0.97576592689E-02 -0.12058038704E+00  0.88837593321E+00  0.88000000000E+00 0.  1.
        -11    1    4    4    0    0 -0.37138084557E-02  0.17546462500E-01  0.41155238583E-01  0.44896386306E-01  0.51100000000E-03 0. -1.
         11    1    4    4    0    0  0.10805619160E-01  0.14270205030E-01  0.85169843223E-01  0.87031968107E-01  0.51100000000E-03 0.  1.
</event>
<event>
 7    1  0.1099921E+005  0.1043930E+01  0.7957747E-01            NaN
         13   -1    0    0    0    0  0.00000000000E+00  0.00000000000E+00  0.74505805969E-08  0.10566000000E+00  0.10566000000E+00 0. -1.
     999900   -1    0    0    0    0 -0.00000000000E+00 -0.00000000000E+00 -0.74505805969E-08  0.93827000000E+00  0.93827000000E+00 0. -1.
     999903    2    1    2    0    0 -0.42258470924E-01 -0.70319229956E-01  0.40680969996E-01  0.93929529254E-01  0.20910348624E-01 0.  0.
         14    1    1    2    0    0 -0.10632835956E-01 -0.18253716448E-01  0.54909213026E-01  0.58832618842E-01  0.00000000000E+00 0. -1.
     999901    1    1    2    0    0  0.52891306879E-01  0.88572946404E-01 -0.95590183022E-01  0.89116785190E+00  0.88000000000E+00 0.  1.
        -11    1    3    3    0    0 -0.12682497927E-01 -0.24183738189E-01  0.31214109355E-02  0.27490057724E-01  0.51100000000E-03 0.  1.
         11    1    3    3    0    0 -0.29575972996E-01 -0.46135491767E-01  0.37559559060E-01  0.66439471529E-01  0.51100000000E-03 0. -1.
</event>
<event>
 8    1  0.1099921E+005  0.1043930E+01  0.7957747E-01            NaN
         13   -1    0    0    0    0  0.00000000000E+00  0.00000000000E+00  0.74505805969E-08  0.10566000000E+00  0.10566000000E+00 0. -1.
     999900   -1    0    0    0    0 -0.00000000000E+00 -0.00000000000E+00 -0.74505805969E-08  0.93827000000E+00  0.93827000000E+00 0. -1.
     999902    2    1    2    0    0 -0.21954244758E-01 -0.10223312607E-02  0.93108714918E-02  0.10200610588E+01  0.10197817597E+01 0.  0.
     999903    2    3    3    0    0 -0.28305439555E-01  0.87282566579E-01  0.92255126019E-01  0.13173800836E+00  0.20602190000E-01 0.  0.
         14    1    1    2    0    0  0.21954244758E-01  0.10223312607E-02 -0.93108714918E-02  0.23868941159E-01  0.00000000000E+00 0. -1.
     999901    1    3    3    0    0  0.63511947970E-02 -0.88304897840E-01 -0.82944254527E-01  0.88832305048E+00  0.88000000000E+00 0. -1.
        -11    1    4    4    0    0 -0.21461504066E-01  0.80396581562E-01  0.75464680578E-01  0.11233603883E+00  0.51100000000E-03 0. -1.
         11    1    4    4    0    0 -0.68439354894E-02  0.68859850165E-02  0.16790445440E-01  0.19401969532E-01  0.51100000000E-03 0.  1.
</event>
<event>
 8    1  0.1099921E+005  0.1043930E+01  0.7957747E-01            NaN
         13   -1    0    0    0    0  0.00000000000E+00  0.00000000000E+00  0.74505805969E-08  0.10566000000E+00  0.10566000000E+00 0. -1.
     999900   -1    0    0    0    0 -0.00000000000E+00 -0.00000000000E+00 -0.74505805969E-08  0.93827000000E+00  0.93827000000E+00 0. -1.
     999902    2    1    2    0    0 -0.21746626771E-01  0.93694008772E-02 -0.61802965640E-02  0.10194576173E+01  0.10191638416E+01 0.  0.
     999903    2    3    3    0    0 -0.10449099898E+00  0.71268633623E-01  0.33944200524E-01  0.13250320957E+00  0.20181793535E-01 0.  0.
         14    1    1    2    0    0  0.21746626771E-01 -0.93694008772E-02  0.61802965640E-02  0.24472382686E-01  0.00000000000E+00 0. -1.
     999901    1    3    3    0    0  0.82744372213E-01 -0.61899232746E-01 -0.40124497088E-01  0.88695440774E+00  0.88000000000E+00 0. -1.
        -11    1    4    4    0    0 -0.81642639189E-01  0.64871028013E-01  0.25932699745E-01  0.10745481304E+00  0.51100000000E-03 0.  1.
         11    1    4    4    0    0 -0.22848359795E-01  0.63976056104E-02  0.80115007795E-02  0.25048396528E-01  0.51100000000E-03 0. -1.
</event>
<event>
 8    1  0.1099921E+005  0.1043930E+01  0.7957747E-01            NaN
         13   -1    0    0    0    0  0.00000000000E+00  0.00000000000E+00  0.74505805969E-08  0.10566000000E+00  0.10566000000E+00 0. -1.
     999900   -1    0    0    0    0 -0.00000000000E+00 -0.00000000000E+00 -0.74505805969E-08  0.93827000000E+00  0.93827000000E+00 0.  1.
     999902    2    1    2    0    0  0.80254419673E-02 -0.22875279471E-01  0.14899048321E-02  0.10196420205E+01  0.10193527084E+01 0.  0.
     999903    2    3    3    0    0  0.12451141566E+00 -0.36230179573E-03 -0.35007960259E-01  0.13093064423E+00  0.20348278208E-01 0.  0.
         14    1    1    2    0    0 -0.80254419673E-02  0.22875279471E-01 -0.14899048321E-02  0.24287979456E-01  0.00000000000E+00 0.  1.
     999901    1    3    3    0    0 -0.11648597369E+00 -0.22512977676E-01  0.36497865091E-01  0.88871137631E+00  0.88000000000E+00 0. -1.
        -11    1    4    4    0    0  0.84401832086E-01 -0.49739856160E-02 -0.32137803467E-01  0.90451696088E-01  0.51100000000E-03 0.  1.
         11    1    4    4    0    0  0.40109583570E-01  0.46116838203E-02 -0.28701567916E-02  0.40478948144E-01  0.51100000000E-03 0. -1.
</event>
<event>
 8    1  0.1099921E+005  0.1043930E+01  0.7957747E-01            NaN
         13   -1    0    0    0    0  0.00000000000E+00  0.00000000000E+00  0.74505805969E-08  0.10566000000E+00  0.10566000000E+00 0.  1.
     999900   -1    0    0    0    0 -0.00000000000E+00 -0.00000000000E+00 -0.74505805969E-08  0.93827000000E+00  0.93827000000E+00 0.  1.
     999902    2    1    2    0    0  0.20383016962E-01 -0.72747332017E-03  0.34910808635E-02  0.10232373867E+01  0.10230281352E+01 0.  0.
     999903    2    3    3    0    0 -0.12709101058E+00  0.57317058532E-02  0.22722350453E-01  0.13073520101E+00  0.19758799328E-01 0.  0.
         14    1    1    2    0    0 -0.20383016962E-01  0.72747332017E-03 -0.34910808635E-02  0.20692613259E-01  0.00000000000E+00 0.  1.
     999901    1    3    3    0    0  0.14747402755E+00 -0.64591791734E-02 -0.19231269590E-01  0.89250218573E+00  0.88000000000E+00 0. -1.
        -11    1    4    4    0    0 -0.10095953151E+00  0.87407647178E-02  0.11003459692E-01  0.10193412195E+00  0.51100000000E-03 0. -1.
         11    1    4    4    0    0 -0.26131479070E-01 -0.30090588646E-02  0.11718890761E-01  0.28801079065E-01  0.51100000000E-03 0.  1.
</event>
<event>
 8    1  0.1099921E+005  0.1043930E+01  0.7957747E-01            NaN
         13   -1    0    0    0    0  0.00000000000E+00  0.00000000000E+00  0.74505805969E-08  0.10566000000E+00  0.10566000000E+00 0.  1.
     999900   -1    0    0    0    0 -0.00000000000E+00 -0.00000000000E+00 -0.74505805969E-08  0.93827000000E+00  0.93827000000E+00 0.  1.
     999902    2    1    2    0    0  0.14259389626E-01 -0.15742538970E-01 -0.10224798572E-01  0.10203566203E+01  0.10200842751E+01 0.  0.
     999903    2    3    3    0    0  0.70668268332E-03 -0.27471708804E-01 -0.12909254378E+00  0.13218389488E+00  0.72458967434E-02 0.  0.
         14    1    1    2    0    0 -0.14259389626E-01  0.15742538970E-01  0.10224798572E-01  0.23573379723E-01  0.00000000000E+00 0.  1.
     999901    1    3    3    0    0  0.13552706943E-01  0.11729169834E-01  0.11886774521E+00  0.88817272540E+00  0.88000000000E+00 0. -1.
        -11    1    4    4    0    0 -0.22882438804E-02 -0.40209630595E-02 -0.17103773003E-01  0.17725811009E-01  0.51100000000E-03 0. -1.
         11    1    4    4    0    0  0.29949265637E-02 -0.23450745744E-01 -0.11198877078E+00  0.11445808387E+00  0.51100000000E-03 0.  1.
</event>
<event>
 8    1  0.1099921E+005  0.1043930E+01  0.7957747E-01            NaN
         13   -1    0    0    0    0  0.00000000000E+00  0.00000000000E+00  0.74505805969E-08  0.10566000000E+00  0.10566000000E+00 0. -1.
     999900   -1    0    0    0    0 -0.00000000000E+00 -0.00000000000E+00 -0.74505805969E-08  0.93827000000E+00  0.93827000000E+00 0. -1.
     999902    2    1    2    0    0 -0.86204326151E-02 -0.11264707412E-01  0.17892306168E-01  0.10210971265E+01  0.10208418103E+01 0.  0.
     999903    2    3    3    0    0 -0.11799791061E+00 -0.48499744501E-01  0.32858599460E-01  0.13341820336E+00  0.21094959218E-01 0.  0.
         14    1    1    2    0    0  0.86204326151E-02  0.11264707412E-01 -0.17892306168E-01  0.22832873485E-01  0.00000000000E+00 0.  1.
     999901    1    3    3    0    0  0.10937747799E+00  0.37235037089E-01 -0.14966293292E-01  0.88767892316E+00  0.88000000000E+00 0.  1.
        -11    1    4    4    0    0 -0.12625422676E-01 -0.12946990766E-01  0.51065507482E-02  0.18797974603E-01  0.51100000000E-03 0. -1.
         11    1    4    4    0    0 -0.10537248793E+00 -0.35552753735E-01  0.27752048712E-01  0.11462022876E+00  0.51100000000E-03 0.  1.
</event>
<event>
 8    1  0.1099921E+005  0.1043930E+01  0.7957747E-01            NaN
         13   -1    0    0    0    0  0.00000000000E+00  0.00000000000E+00  0.74505805969E-08  0.10566000000E+00  0.10566000000E+00 0. -1.
     999900   -1    0    0    0    0 -0.00000000000E+00 -0.00000000000E+00 -0.74505805969E-08  0.93827000000E+00  0.93827000000E+00 0.  1.
     999902    2    1    2    0    0  0.15185840944E-01  0.16566962870E-01 -0.74922934385E-02  0.10202401607E+01  0.10199650862E+01 0.  0.
     999903    2    3    3    0    0 -0.12153319082E-01  0.11714537323E+00 -0.57473790128E-01  0.13268081267E+00  0.20741742144E-01 0.  0.
         14    1    1    2    0    0 -0.15185840944E-01 -0.16566962870E-01  0.74922934385E-02  0.23689839275E-01  0.00000000000E+00 0.  1.
     999901    1    3    3    0    0  0.27339160026E-01 -0.10057841036E+00  0.49981496689E-01  0.88755934805E+00  0.88000000000E+00 0. -1.
        -11    1    4    4    0    0  0.14684150613E-02  0.79381678752E-01 -0.39808560303E-01  0.88817733357E-01  0.51100000000E-03 0. -1.
         11    1    4    4    0    0 -0.13621734143E-01  0.37763694474E-01 -0.17665229824E-01  0.43863079317E-01  0.51100000000E-03 0.  1.
</event>
<event>
 8    1  0.1099921E+005  0.1043930E+01  0.7957747E-01            NaN
         13   -1    0    0    0    0  0.00000000000E+00  0.00000000000E+00  0.74505805969E-08  0.10566000000E+00  0.10566000000E+00 0.  1.
     999900   -1    0    0    0    0 -0.00000000000E+00 -0.00000000000E+00 -0.74505805969E-08  0.93827000000E+00  0.93827000000E+00 0.  1.
     999902    2    1    2    0    0 -0.18585434353E-01 -0.58251606528E-02  0.14264519148E-01  0.10197881821E+01  0.10195023830E+01 0.  0.
     999903    2    3    3    0    0  0.20620112929E-01  0.12077774671E+00 -0.33941493062E-01  0.12855914826E+00  0.19051941953E-01 0.  0.
         14    1    1    2    0    0  0.18585434353E-01  0.58251606528E-02 -0.14264519148E-01  0.24141817936E-01  0.00000000000E+00 0.  1.
     999901    1    3    3    0    0 -0.39205547282E-01 -0.12660290736E+00  0.48206012211E-01  0.89122903381E+00  0.88000000000E+00 0.  1.
        -11    1    4    4    0    0  0.12145601582E-01  0.24777952158E-01 -0.86095326196E-02  0.28911031180E-01  0.51100000000E-03 0.  1.
         11    1    4    4    0    0  0.84745113472E-02  0.95999794549E-01 -0.25331960443E-01  0.99648117076E-01  0.51100000000E-03 0. -1.
</event>
<event>
 8    1  0.1099921E+005  0.1043930E+01  0.7957747E-01            NaN
         13   -1    0    0    0    0  0.00000000000E+00  0.00000000000E+00  0.74505805969E-08  0.10566000000E+00  0.10566000000E+00 0. -1.
     999900   -1    0    0    0    0 -0.00000000000E+00 -0.00000000000E+00 -0.74505805969E-08  0.93827000000E+00  0.93827000000E+00 0. -1.
     999902    2    1    2    0    0  0.20197746921E-01  0.15302478535E-02 -0.10619168019E-01  0.10210595525E+01  0.10208033858E+01 0.  0.
     999903    2    3    3    0    0  0.10291059355E-01 -0.26677533137E-02  0.12814862261E+00  0.13012057289E+00  0.19906561781E-01 0.  0.
         14    1    1    2    0    0 -0.20197746921E-01 -0.15302478535E-02  0.10619168019E-01  0.22870447495E-01  0.00000000000E+00 0. -1.
     999901    1    3    3    0    0  0.99066875669E-02  0.41980011671E-02 -0.13876779063E+00  0.89093897961E+00  0.88000000000E+00 0. -1.
        -11    1    4    4    0    0 -0.47565759246E-02  0.31747852734E-02  0.21385403017E-01  0.22142738296E-01  0.51100000000E-03 0.  1.
         11    1    4    4    0    0  0.15047635279E-01 -0.58425385871E-02  0.10676321960E+00  0.10797783460E+00  0.51100000000E-03 0. -1.
</event>
<event>
 8    1  0.1099921E+005  0.1043930E+01  0.7957747E-01            NaN
         13   -1    0    0    0    0  0.00000000000E+00  0.00000000000E+00  0.74505805969E-08  0.10566000000E+00  0.10566000000E+00 0.  1.
     999900   -1    0    0    0    0 -0.00000000000E+00 -0.00000000000E+00 -0.74505805969E-08  0.93827000000E+00  0.93827000000E+00 0. -1.
     999902    2    1    2    0    0 -0.87428081879E-03 -0.13950727577E-01  0.19636006035E-01  0.10198268902E+01  0.10195420179E+01 0.  0.
     999903    2    3    3    0    0 -0.96758777193E-01  0.83462878611E-01 -0.39545894139E-02  0.12896227454E+00  0.16950410259E-01 0.  0.
         14    1    1    2    0    0  0.87428081879E-03  0.13950727577E-01 -0.19636006035E-01  0.24103109755E-01  0.00000000000E+00 0. -1.
     999901    1    3    3    0    0  0.95884496374E-01 -0.97413606188E-01  0.23590595448E-01  0.89086461570E+00  0.88000000000E+00 0.  1.
        -11    1    4    4    0    0 -0.97464583984E-02  0.92277403318E-02  0.47673775869E-02  0.14252496378E-01  0.51100000000E-03 0. -1.
         11    1    4    4    0    0 -0.87012318795E-01  0.74235138279E-01 -0.87219670009E-02  0.11470977817E+00  0.51100000000E-03 0.  1.
</event>
<event>
 8    1  0.1099921E+005  0.1043930E+01  0.7957747E-01            NaN
         13   -1    0    0    0    0  0.00000000000E+00  0.00000000000E+00  0.74505805969E-08  0.10566000000E+00  0.10566000000E+00 0. -1.
     999900   -1    0    0    0    0 -0.00000000000E+00 -0.00000000000E+00 -0.74505805969E-08  0.93827000000E+00  0.93827000000E+00 0. -1.
     999902    2    1    2    0    0  0.13568540620E-03 -0.21735004057E-01  0.78808814930E-02  0.10208099415E+01  0.10205480878E+01 0.  0.
     999903    2    3    3    0    0 -0.41819959011E-01 -0.71373975537E-01 -0.99084584102E-01  0.13195342079E+00  0.27400676902E-01 0.  0.
         14    1    1    2    0    0 -0.13568540620E-03  0.21735004057E-01 -0.78808814930E-02  0.23120058499E-01  0.00000000000E+00 0.  1.
     999901    1    3    3    0    0  0.41955644417E-01  0.49638971481E-01  0.10696546560E+00  0.88885652072E+00  0.88000000000E+00 0.  1.
        -11    1    4    4    0    0 -0.36901830245E-01 -0.40043166088E-01 -0.52855226442E-01  0.75888973566E-01  0.51100000000E-03 0. -1.
         11    1    4    4    0    0 -0.49181287663E-02 -0.31330809449E-01 -0.46229357661E-01  0.56064447219E-01  0.51100000000E-03 0.  1.
</event>
<event>
 8    1  0.1099921E+005  0.1043930E+01  0.7957747E-01            NaN
         13   -1    0    0    0    0  0.00000000000E+00  0.00000000000E+00  0.74505805969E-08  0.10566000000E+00  0.10566000000E+00 0.  1.
     999900   -1    0    0    0    0 -0.00000000000E+00 -0.00000000000E+00 -0.74505805969E-08  0.93827000000E+00  0.93827000000E+00 0. -1.
     999902    2    1    2    0    0 -0.15583617061E-01 -0.17843653883E-02  0.13934341303E-01  0.10229490813E+01  0.10227338970E+01 0.  0.
     999903    2    3    3    0    0  0.38678334944E-01 -0.18710179739E-01  0.12546889739E+00  0.13408981248E+00  0.19787601640E-01 0.  0.
         14    1    1    2    0    0  0.15583617061E-01  0.17843653883E-02 -0.13934341303E-01  0.20980918666E-01  0.00000000000E+00 0. -1.
     999901    1    3    3    0    0 -0.54261952005E-01  0.16925814351E-01 -0.11153455609E+00  0.88885926885E+00  0.88000000000E+00 0. -1.
        -11    1    4    4    0    0  0.24576263691E-01 -0.27383049659E-02  0.51835850616E-01  0.57434376302E-01  0.51100000000E-03 0. -1.
         11    1    4    4    0    0  0.14102071253E-01 -0.15971874774E-01  0.73633046773E-01  0.76655436177E-01  0.51100000000E-03 0.  1.
</event>
<event>
 8    1  0.1099921E+005  0.1043930E+01  0.7957747E-01            NaN
         13   -1    0    0    0    0  0.00000000000E+00  0.00000000000E+00  0.74505805969E-08  0.10566000000E+00  0.10566000000E+00 0. -1.
     999900   -1    0    0    0    0 -0.00000000000E+00 -0.00000000000E+00 -0.74505805969E-08  0.93827000000E+00  0.93827000000E+00 0.  1.
     999902    2    1    2    0    0 -0.21261885183E-01 -0.77905960942E-02 -0.31274367792E-02  0.10210708222E+01  0.10208149107E+01 0.  0.
     999903    2    3    3    0    0 -0.10392374359E-01 -0.12746780166E+00 -0.28924338421E-01  0.13252917436E+00  0.19269737913E-01 0.  0.
         14    1    1    2    0    0  0.21261885183E-01  0.77905960942E-02  0.31274367792E-02  0.22859177804E-01  0.00000000000E+00 0.  1.
     999901    1    3    3    0    0 -0.10869510824E-01  0.11967720557E+00  0.25796901642E-01  0.88854164783E+00  0.88000000000E+00 0. -1.
        -11    1    4    4    0    0 -0.52951359258E-02 -0.11844575233E-01  0.88752043034E-03  0.13014654833E-01  0.51100000000E-03 0. -1.
         11    1    4    4    0    0 -0.50972384329E-02 -0.11562322643E+00 -0.29811858852E-01  0.11951451953E+00  0.51100000000E-03 0.  1.
</event>
<event>
 8    1  0.1099921E+005  0.1043930E+01  0.7957747E-01            NaN
         13   -1    0    0    0    0  0.00000000000E+00  0.00000000000E+00  0.74505805969E-08  0.10566000000E+00  0.10566000000E+00 0.  1.
     999900   -1    0    0    0    0 -0.00000000000E+00 -0.00000000000E+00 -0.74505805969E-08  0.93827000000E+00  0.93827000000E+00 0. -1.
     999902    2    1    2    0    0 -0.26248808847E-03  0.86851581543E-02 -0.23406004633E-01  0.10189631835E+01  0.10186572669E+01 0.  0.
     999903    2    3    3    0    0 -0.33277748141E-01 -0.57124451723E-01 -0.11173263160E+00  0.13148219489E+00  0.20803247426E-01 0.  0.
         14    1    1    2    0    0  0.26248808847E-03 -0.86851581543E-02  0.23406004633E-01  0.24966816478E-01  0.00000000000E+00 0.  1.
     999901    1    3    3    0    0  0.33015260053E-01  0.65809609877E-01  0.88326626967E-01  0.88748098863E+00  0.88000000000E+00 0.  1.
        -11    1    4    4    0    0 -0.29730718554E-01 -0.38193741612E-01 -0.65916225953E-01  0.81779505311E-01  0.51100000000E-03 0. -1.
         11    1    4    4    0    0 -0.35470295870E-02 -0.18930710111E-01 -0.45816405647E-01  0.49702689581E-01  0.51100000000E-03 0.  1.
</event>
<event>
 8    1  0.1099921E+005  0.1043930E+01  0.7957747E-01            NaN
         13   -1    0    0    0    0  0.00000000000E+00  0.00000000000E+00  0.74505805969E-08  0.10566000000E+00  0.10566000000E+00 0. -1.
     999900   -1    0    0    0    0 -0.00000000000E+00 -0.00000000000E+00 -0.74505805969E-08  0.93827000000E+00  0.93827000000E+00 0.  1.
     999902    2    1    2    0    0  0.36673052560E-02 -0.15763173917E-01 -0.16797321836E-01  0.10206045461E+01  0.10203379649E+01 0.  0.
     999903    2    3    3    0    0  0.36810047856E-01  0.12194292391E+00  0.73990439603E-02  0.12895053533E+00  0.18666504649E-01 0.  0.
         14    1    1    2    0    0 -0.36673052560E-02  0.15763173917E-01  0.16797321836E-01  0.23325453922E-01  0.00000000000E+00 0. -1.
     999901    1    3    3    0    0 -0.33142742600E-01 -0.13770609783E+00 -0.24196365797E-01  0.89165401075E+00  0.88000000000E+00 0.  1.
        -11    1    4    4    0    0  0.17605049589E-01  0.77228088554E-01 -0.26553674482E-02  0.79255457415E-01  0.51100000000E-03 0.  1.
         11    1    4    4    0    0  0.19204998267E-01  0.44714835355E-01  0.10054411409E-01  0.49695077915E-01  0.51100000000E-03 0. -1.
</event>
<event>
 8    1  0.1099921E+005  0.1043930E+01  0.7957747E-01            NaN
         13   -1    0    0    0    0  0.00000000000E+00  0.00000000000E+00  0.74505805969E-08  0.10566000000E+00  0.10566000000E+00 0.  1.
     999900   -1    0    0    0    0 -0.00000000000E+00 -0.00000000000E+00 -0.74505805969E-08  0.93827000000E+00  0.93827000000E+00 0.  1.
     999902    2    1    2    0    0 -0.12400331845E-01  0.15600630603E-01  0.12232048557E-01  0.10205468668E+01  0.10202789503E+01 0.  0.
     999903    2    3    3    0    0 -0.90137589392E-01  0.56121894804E-01  0.78880825394E-01  0.13368322820E+00  0.19353779725E-01 0.  0.
         14    1    1    2    0    0  0.12400331845E-01 -0.15600630603E-01 -0.12232048557E-01  0.23383133173E-01  0.00000000000E+00 0.  1.
     999901    1    3    3    0    0  0.77737257547E-01 -0.40521264201E-01 -0.66648776837E-01  0.88686363863E+00  0.88000000000E+00 0.  1.
        -11    1    4    4    0    0 -0.27400461246E-01  0.17306047203E-01  0.35618593850E-01  0.48158383435E-01  0.51100000000E-03 0. -1.
         11    1    4    4    0    0 -0.62737128146E-01  0.38815847601E-01  0.43262231544E-01  0.85524844766E-01  0.51100000000E-03 0.  1.
</event>
<event>
 8    1  0.1099921E+005  0.1043930E+01  0.7957747E-01            NaN
         13   -1    0    0    0    0  0.00000000000E+00  0.00000000000E+00  0.74505805969E-08  0.10566000000E+00  0.10566000000E+00 0. -1.
     999900   -1    0    0    0    0 -0.00000000000E+00 -0.00000000000E+00 -0.74505805969E-08  0.93827000000E+00  0.93827000000E+00 0.  1.
     999902    2    1    2    0    0  0.82790197454E-02  0.18027587725E-02  0.23960801736E-01  0.10185151987E+01  0.10181980641E+01 0.  0.
     999903    2    3    3    0    0  0.10479642765E+00 -0.14211010330E-02  0.77135406122E-01  0.13163666028E+00  0.19850155514E-01 0.  0.
         14    1    1    2    0    0 -0.82790197454E-02 -0.18027587725E-02 -0.23960801736E-01  0.25414801336E-01  0.00000000000E+00 0.  1.
     999901    1    3    3    0    0 -0.96517407908E-01  0.32238598056E-02 -0.53174604386E-01  0.88687853839E+00  0.88000000000E+00 0.  1.
        -11    1    4    4    0    0  0.69708139003E-01 -0.10311776670E-01  0.50962118839E-01  0.86965257769E-01  0.51100000000E-03 0.  1.
         11    1    4    4    0    0  0.35088288651E-01  0.88906756368E-02  0.26173287283E-01  0.44671402507E-01  0.51100000000E-03 0. -1.
</event>
<event>
 8    1  0.1099921E+005  0.1043930E+01  0.7957747E-01            NaN
         13   -1    0    0    0    0  0.00000000000E+00  0.00000000000E+00  0.74505805969E-08  0.10566000000E+00  0.10566000000E+00 0. -1.
     999900   -1    0    0    0    0 -0.00000000000E+00 -0.00000000000E+00 -0.74505805969E-08  0.93827000000E+00  0.93827000000E+00 0.  1.
     999902    2    1    2    0    0 -0.14997195405E-01 -0.17687324136E-01  0.36301187307E-02  0.10204579940E+01  0.10201880133E+01 0.  0.
     999903    2    3    3    0    0 -0.95193313948E-01 -0.14521712502E-01 -0.88134060234E-01  0.13205374867E+00  0.19948253297E-01 0.  0.
         14    1    1    2    0    0  0.14997195405E-01  0.17687324136E-01 -0.36301187307E-02  0.23472006031E-01  0.00000000000E+00 0.  1.
     999901    1    3    3    0    0  0.80196118543E-01 -0.31656116348E-02  0.91764178965E-01  0.88840424530E+00  0.88000000000E+00 0. -1.
        -11    1    4    4    0    0 -0.91992056874E-01 -0.99562990201E-02 -0.80927318892E-01  0.12292745211E+00  0.51100000000E-03 0. -1.
         11    1    4    4    0    0 -0.32012570747E-02 -0.45654134815E-02 -0.72067413425E-02  0.91262965596E-02  0.51100000000E-03 0.  1.
</event>
<event>
 8    1  0.1099921E+005  0.1043930E+01  0.7957747E-01            NaN
         13   -1    0    0    0    0  0.00000000000E+00  0.00000000000E+00  0.74505805969E-08  0.10566000000E+00  0.10566000000E+00 0.  1.
     999900   -1    0    0    0    0 -0.00000000000E+00 -0.00000000000E+00 -0.74505805969E-08  0.93827000000E+00  0.93827000000E+00 0. -1.
     999902    2    1    2    0    0  0.12202025638E-01 -0.13072784631E-01  0.22065810480E-01  0.10155277621E+01  0.10151305081E+01 0.  0.
     999903    2    3    3    0    0  0.91041265032E-01  0.83773061310E-01 -0.13261414936E-01  0.12600948996E+00  0.19901977155E-01 0.  0.
         14    1    1    2    0    0 -0.12202025638E-01  0.13072784631E-01 -0.22065810480E-01  0.28402237937E-01  0.00000000000E+00 0. -1.
     999901    1    3    3    0    0 -0.78839239394E-01 -0.96845845941E-01  0.35327225416E-01  0.88951827210E+00  0.88000000000E+00 0.  1.
        -11    1    4    4    0    0  0.56439869326E-01  0.58702605410E-01 -0.58783764503E-03  0.81437469297E-01  0.51100000000E-03 0.  1.
         11    1    4    4    0    0  0.34601395706E-01  0.25070455900E-01 -0.12673577291E-01  0.44572020666E-01  0.51100000000E-03 0. -1.
</event>
<event>
 8    1  0.1099921E+005  0.1043930E+01  0.7957747E-01            NaN
         13   -1    0    0    0    0  0.00000000000E+00  0.00000000000E+00  0.74505805969E-08  0.10566000000E+00  0.10566000000E+00 0.  1.
     999900   -1    0    0    0    0 -0.00000000000E+00 -0.00000000000E+00 -0.74505805969E-08  0.93827000000E+00  0.93827000000E+00 0. -1.
     999902    2    1    2    0    0  0.21915487142E-01  0.47266706817E-02  0.77805104317E-02  0.10201988741E+01  0.10199228287E+01 0.  0.
     999903    2    3    3    0    0  0.89263549690E-01 -0.88417388782E-01  0.36310317197E-01  0.13226558429E+00  0.19751701429E-01 0.  0.
         14    1    1    2    0    0 -0.21915487142E-01 -0.47266706817E-02 -0.77805104317E-02  0.23731125868E-01  0.00000000000E+00 0.  1.
     999901    1    3    3    0    0 -0.67348062548E-01  0.93144059464E-01 -0.28529806765E-01  0.88793328985E+00  0.88000000000E+00 0. -1.
        -11    1    4    4    0    0  0.70158984616E-01 -0.65078541097E-01  0.35564265126E-01  0.10209102658E+00  0.51100000000E-03 0. -1.
         11    1    4    4    0    0  0.19104565073E-01 -0.23338847685E-01  0.74605207072E-03  0.30174557703E-01  0.51100000000E-03 0.  1.
</event>
<event>
 8    1  0.1099921E+005  0.1043930E+01  0.7957747E-01            NaN
         13   -1    0    0    0    0  0.00000000000E+00  0.00000000000E+00  0.74505805969E-08  0.10566000000E+00  0.10566000000E+00 0. -1.
     999900   -1    0    0    0    0 -0.00000000000E+00 -0.00000000000E+00 -0.74505805969E-08  0.93827000000E+00  0.93827000000E+00 0. -1.
     999902    2    1    2    0    0 -0.56737204561E-02  0.10983103769E-01 -0.19955679380E-01  0.10204555711E+01  0.10201855340E+01 0.  0.
     999903    2    3    3    0    0  0.13656108437E-01  0.97329204481E-01  0.82976553793E-01  0.13004873375E+00  0.19185966946E-01 0.  0.
         14    1    1    2    0    0  0.56737204561E-02 -0.10983103769E-01  0.19955679380E-01  0.23474428890E-01  0.00000000000E+00 0. -1.
     999901    1    3    3    0    0 -0.19329828893E-01 -0.86346100712E-01 -0.10293223317E+00  0.89040683736E+00  0.88000000000E+00 0. -1.
        -11    1    4    4    0    0  0.17582579470E-01  0.89870586598E-01  0.77645316149E-01  0.12006217421E+00  0.51100000000E-03 0. -1.
         11    1    4    4    0    0 -0.39264710334E-02  0.74586178836E-02  0.53312376439E-02  0.99865595340E-02  0.51100000000E-03 0.  1.
</event>
<event>
 8    1  0.1099921E+005  0.1043930E+01  0.7957747E-01            NaN
         13   -1    0    0    0    0  0.00000000000E+00  0.00000000000E+00  0.74505805969E-08  0.10566000000E+00  0.10566000000E+00 0.  1.
     999900   -1    0    0    0    0 -0.00000000000E+00 -0.00000000000E+00 -0.74505805969E-08  0.93827000000E+00  0.93827000000E+00 0. -1.
     999902    2    1    2    0    0 -0.17999211975E-01 -0.11972585985E-01 -0.11773070663E-01  0.10193145650E+01  0.10190173025E+01 0.  0.
     999903    2    3    3    0    0 -0.99969805383E-01  0.75971615993E-01 -0.30886599128E-01  0.13093475445E+00  0.20598045820E-01 0.  0.
         14    1    1    2    0    0  0.17999211975E-01  0.11972585985E-01  0.11773070663E-01  0.24615434990E-01  0.00000000000E+00 0.  1.
     999901    1    3    3    0    0  0.81970593408E-01 -0.87944201978E-01  0.19113528465E-01  0.88837981056E+00  0.88000000000E+00 0.  1.
        -11    1    4    4    0    0 -0.86225979884E-01  0.56873958267E-01 -0.29185522871E-01  0.10733882150E+00  0.51100000000E-03 0. -1.
         11    1    4    4    0    0 -0.13743825499E-01  0.19097657726E-01 -0.17010762569E-02  0.23595932943E-01  0.51100000000E-03 0.  1.
</event>
<event>
 8    1  0.1099921E+005  0.1043930E+01  0.7957747E-01            NaN
         13   -1    0    0    0    0  0.00000000000E+00  0.00000000000E+00  0.74505805969E-08  0.10566000000E+00  0.10566000000E+00 0.  1.
     999900   -1    0    0    0    0 -0.00000000000E+00 -0.00000000000E+00 -0.74505805969E-08  0.93827000000E+00  0.93827000000E+00 0.  1.
     999902    2    1    2    0    0 -0.17594821872E-01 -0.10147950360E-01 -0.13121282521E-01  0.10197488770E+01  0.10194621354E+01 0.  0.
     999903    2    3    3    0    0 -0.24276420224E-01  0.10068235693E+00 -0.76918127808E-01  0.13048061703E+00  0.19557900159E-01 0.  0.
         14    1    1    2    0    0  0.17594821872E-01  0.10147950360E-01  0.13121282521E-01  0.24181122972E-01  0.00000000000E+00 0. -1.
     999901    1    3    3    0    0  0.66815983523E-02 -0.11083030729E+00  0.63796845287E-01  0.88926826000E+00  0.88000000000E+00 0. -1.
        -11    1    4    4    0    0 -0.24276129868E-01  0.63094046093E-01 -0.53253816075E-01  0.86060555316E-01  0.51100000000E-03 0. -1.
         11    1    4    4    0    0 -0.29035588327E-06  0.37588310840E-01 -0.23664311732E-01  0.44420061714E-01  0.51100000000E-03 0.  1.
</event>
<event>
 7    1  0.1971548E+005  0.1043930E+01  0.7957747E-01            NaN
         13   -1    0    0    0    0  0.00000000000E+00  0.00000000000E+00  0.74505805969E-08  0.10566000000E+00  0.10566000000E+00 0.  1.
     999900   -1    0    0    0    0 -0.00000000000E+00 -0.00000000000E+00 -0.74505805969E-08  0.93827000000E+00  0.93827000000E+00 0.  1.
     999903    2    1    2    0    0 -0.17701947299E-02 -0.23725929670E-01  0.10748246533E+00  0.11150764162E+00  0.17760080435E-01 0.  0.
         14    1    1    2    0    0  0.20162159716E-01  0.28701445621E-01 -0.34494643406E-01  0.49195183594E-01  0.00000000000E+00 0. -1.
     999901    1    1    2    0    0 -0.18391964986E-01 -0.49755159512E-02 -0.72987821927E-01  0.88322717479E+00  0.88000000000E+00 0.  1.
        -11    1    3    3    0    0 -0.91622567175E-02 -0.83329856244E-02  0.51862566491E-01  0.53323283110E-01  0.51100000000E-03 0. -1.
         11    1    3    3    0    0  0.73920619876E-02 -0.15392944045E-01  0.55619898842E-01  0.58184358508E-01  0.51100000000E-03 0.  1.
</event>
<event>
 8    1  0.1099921E+005  0.1043930E+01  0.7957747E-01            NaN
         13   -1    0    0    0    0  0.00000000000E+00  0.00000000000E+00  0.74505805969E-08  0.10566000000E+00  0.10566000000E+00 0. -1.
     999900   -1    0    0    0    0 -0.00000000000E+00 -0.00000000000E+00 -0.74505805969E-08  0.93827000000E+00  0.93827000000E+00 0. -1.
     999902    2    1    2    0    0  0.87600146701E-02  0.18680017908E-01  0.10575699421E-01  0.10207453856E+01  0.10204820508E+01 0.  0.
     999903    2    3    3    0    0 -0.55165631236E-01  0.91568065522E-01  0.76488520789E-01  0.13297083331E+00  0.20069658849E-01 0.  0.
         14    1    1    2    0    0 -0.87600146701E-02 -0.18680017908E-01 -0.10575699421E-01  0.23184614388E-01  0.00000000000E+00 0. -1.
     999901    1    3    3    0    0  0.63925645906E-01 -0.72888047614E-01 -0.65912821367E-01  0.88777455230E+00  0.88000000000E+00 0. -1.
        -11    1    4    4    0    0 -0.37266445476E-01  0.42682822834E-01  0.37992341192E-01  0.68222360218E-01  0.51100000000E-03 0. -1.
         11    1    4    4    0    0 -0.17899185761E-01  0.48885242688E-01  0.38496179597E-01  0.64748473094E-01  0.51100000000E-03 0.  1.
</event>
<event>
 8    1  0.1099921E+005  0.1043930E+01  0.7957747E-01            NaN
         13   -1    0    0    0    0  0.00000000000E+00  0.00000000000E+00  0.74505805969E-08  0.10566000000E+00  0.10566000000E+00 0.  1.
     999900   -1    0    0    0    0 -0.00000000000E+00 -0.00000000000E+00 -0.74505805969E-08  0.93827000000E+00  0.93827000000E+00 0. -1.
     999902    2    1    2    0    0 -0.11770542780E-01 -0.16025354841E-01  0.10676661659E-01  0.10213612433E+01  0.10211118648E+01 0.  0.
     999903    2    3    3    0    0 -0.17022070770E-01 -0.77211480692E-01  0.10662939634E+00  0.13401787805E+00  0.18428234619E-01 0.  0.
         14    1    1    2    0    0  0.11770542780E-01  0.16025354841E-01 -0.10676661659E-01  0.22568756707E-01  0.00000000000E+00 0. -1.
     999901    1    3    3    0    0  0.52515279897E-02  0.61186125851E-01 -0.95952734676E-01  0.88734336524E+00  0.88000000000E+00 0. -1.
        -11    1    4    4    0    0 -0.17869511096E-01 -0.38407124852E-01  0.56310110296E-01  0.70466419725E-01  0.51100000000E-03 0. -1.
         11    1    4    4    0    0  0.84744032614E-03 -0.38804355840E-01  0.50319286039E-01  0.63551458329E-01  0.51100000000E-03 0.  1.
</event>
<event>
 8    1  0.1099921E+005  0.1043930E+01  0.7957747E-01            NaN
         13   -1    0    0    0    0  0.00000000000E+00  0.00000000000E+00  0.74505805969E-08  0.10566000000E+00  0.10566000000E+00 0.  1.
     999900   -1    0    0    0    0 -0.00000000000E+00 -0.00000000000E+00 -0.74505805969E-08  0.93827000000E+00  0.93827000000E+00 0. -1.
     999902    2    1    2    0    0 -0.18611079181E-01 -0.25970396159E-02 -0.15938322921E-01  0.10192896465E+01  0.10189917745E+01 0.  0.
     999903    2    3    3    0    0  0.41022147757E-01  0.19904487697E-01  0.11703249848E+00  0.12702080818E+00  0.18938710984E-01 0.  0.
         14    1    1    2    0    0  0.18611079181E-01  0.25970396159E-02  0.15938322921E-01  0.24640353500E-01  0.00000000000E+00 0. -1.
     999901    1    3    3    0    0 -0.59633226938E-01 -0.22501527313E-01 -0.13297082140E+00  0.89226883832E+00  0.88000000000E+00 0. -1.
        -11    1    4    4    0    0  0.41847115528E-02  0.76542061000E-03  0.33161080949E-01  0.33436747602E-01  0.51100000000E-03 0. -1.
         11    1    4    4    0    0  0.36837436205E-01  0.19139067087E-01  0.83871417533E-01  0.93584060582E-01  0.51100000000E-03 0.  1.
</event>
<event>
 8    1  0.1099921E+005  0.1043930E+01  0.7957747E-01            NaN
         13   -1    0    0    0    0  0.00000000000E+00  0.00000000000E+00  0.74505805969E-08  0.10566000000E+00  0.10566000000E+00 0. -1.
     999900   -1    0    0    0    0 -0.00000000000E+00 -0.00000000000E+00 -0.74505805969E-08  0.93827000000E+00  0.93827000000E+00 0.  1.
     999902    2    1    2    0    0  0.16017216484E-01  0.10304333277E-01  0.14567259244E-01  0.10199521863E+01  0.10196703030E+01 0.  0.
     999903    2    3    3    0    0  0.18804795680E-01 -0.12576291223E+00  0.14349642893E-01  0.12949044469E+00  0.19797287281E-01 0.  0.
         14    1    1    2    0    0 -0.16017216484E-01 -0.10304333277E-01 -0.14567259244E-01  0.23977813705E-01  0.00000000000E+00 0.  1.
     999901    1    3    3    0    0 -0.27875791959E-02  0.13606724550E+00  0.21761635131E-03  0.89046174160E+00  0.88000000000E+00 0.  1.
        -11    1    4    4    0    0  0.21588824987E-01 -0.10453296237E+00  0.16326333305E-01  0.10798160893E+00  0.51100000000E-03 0.  1.
         11    1    4    4    0    0 -0.27840293070E-02 -0.21229949853E-01 -0.19766904126E-02  0.21508835764E-01  0.51100000000E-03 0. -1.
</event>
<event>
 8    1  0.1099921E+005  0.1043930E+01  0.7957747E-01            NaN
         13   -1    0    0    0    0  0.00000000000E+00  0.00000000000E+00  0.74505805969E-08  0.10566000000E+00  0.10566000000E+00 0. -1.
     999900   -1    0    0    0    0 -0.00000000000E+00 -0.00000000000E+00 -0.74505805969E-08  0.93827000000E+00  0.93827000000E+00 0.  1.
     999902    2    1    2    0    0 -0.13620147571E-01 -0.17275481245E-01 -0.68723681124E-02  0.10208826549E+01  0.10206224645E+01 0.  0.
     999903    2    3    3    0    0  0.30927587518E-01 -0.12766391555E+00 -0.90294007976E-03  0.13284789140E+00  0.19828160407E-01 0.  0.
         14    1    1    2    0    0  0.13620147571E-01  0.17275481245E-01  0.68723681124E-02  0.23047345087E-01  0.00000000000E+00 0.  1.
     999901    1    3    3    0    0 -0.44547735088E-01  0.11038843431E+00 -0.59694280326E-02  0.88803476351E+00  0.88000000000E+00 0.  1.
        -11    1    4    4    0    0  0.19446569182E-01 -0.62658191191E-01  0.85405383321E-02  0.66162072914E-01  0.51100000000E-03 0.  1.
         11    1    4    4    0    0  0.11481018336E-01 -0.65005724364E-01 -0.94434784119E-02  0.66685818489E-01  0.51100000000E-03 0. -1.
</event>
<event>
 8    1  0.1099921E+005  0.1043930E+01  0.7957747E-01            NaN
         13   -1    0    0    0    0  0.00000000000E+00  0.00000000000E+00  0.74505805969E-08  0.10566000000E+00  0.10566000000E+00 0. -1.
     999900   -1    0    0    0    0 -0.00000000000E+00 -0.00000000000E+00 -0.74505805969E-08  0.93827000000E+00  0.93827000000E+00 0.  1.
     999902    2    1    2    0    0 -0.41464503450E-02  0.25105926975E-01 -0.48553471197E-02  0.10180248844E+01  0.10176952344E+01 0.  0.
     999903    2    3    3    0    0 -0.10640302725E-01 -0.12235447274E+00 -0.10256376169E-01  0.12571557101E+00  0.24806823702E-01 0.  0.
         14    1    1    2    0    0  0.41464503450E-02 -0.25105926975E-01  0.48553471197E-02  0.25905115622E-01  0.00000000000E+00 0.  1.
     999901    1    3    3    0    0  0.64938523800E-02  0.14746039971E+00  0.54010290490E-02  0.89230931336E+00  0.88000000000E+00 0.  1.
        -11    1    4    4    0    0  0.62093953969E-02 -0.18275193219E-01  0.26651519514E-02  0.19491111674E-01  0.51100000000E-03 0. -1.
         11    1    4    4    0    0 -0.16849698122E-01 -0.10407927952E+00 -0.12921528120E-01  0.10622445934E+00  0.51100000000E-03 0.  1.
</event>
<event>
 8    1  0.1099921E+005  0.1043930E+01  0.7957747E-01            NaN
         13   -1    0    0    0    0  0.00000000000E+00  0.00000000000E+00  0.74505805969E-08  0.10566000000E+00  0.10566000000E+00 0.  1.
     999900   -1    0    0    0    0 -0.00000000000E+00 -0.00000000000E+00 -0.74505805969E-08  0.93827000000E+00  0.93827000000E+00 0.  1.
     999902    2    1    2    0    0  0.19511437308E-01  0.18688793158E-02 -0.13434965873E-01  0.10201668520E+01  0.10198900522E+01 0.  0.
     999903    2    3    3    0    0  0.40234276644E-01 -0.99709378981E-01 -0.73971259039E-01  0.13201583925E+00  0.19891640822E-01 0.  0.
         14    1    1    2    0    0 -0.19511437308E-01 -0.18688793158E-02  0.13434965873E-01  0.23763148019E-01  0.00000000000E+00 0.  1.
     999901    1    3    3    0    0 -0.20722839336E-01  0.10157825830E+00  0.60536293166E-01  0.88815101273E+00  0.88000000000E+00 0. -1.
        -11    1    4    4    0    0  0.30570921703E-01 -0.49399765459E-01 -0.38132737094E-01  0.69493056059E-01  0.51100000000E-03 0.  1.
         11    1    4    4    0    0  0.96633549419E-02 -0.50309613522E-01 -0.35838521945E-01  0.62522783189E-01  0.51100000000E-03 0. -1.
</event>
<event>
 8    1  0.1099921E+005  0.1043930E+01  0.7957747E-01            NaN
         13   -1    0    0    0    0  0.00000000000E+00  0.00000000000E+00  0.74505805969E-08  0.10566000000E+00  0.10566000000E+00 0.  1.
     999900   -1    0    0    0    0 -0.00000000000E+00 -0.00000000000E+00 -0.74505805969E-08  0.93827000000E+00  0.93827000000E+00 0. -1.
     999902    2    1    2    0    0  0.10647777483E-01 -0.11795455094E-01 -0.17237626219E-01  0.10204855191E+01  0.10202161786E+01 0.  0.
     999903    2    3    3    0    0  0.12807399671E-01  0.12568548156E+00 -0.21928247496E-01  0.12979608175E+00  0.20132189127E-01 0.  0.
         14    1    1    2    0    0 -0.10647777483E-01  0.11795455094E-01  0.17237626219E-01  0.23444480883E-01  0.00000000000E+00 0.  1.
     999901    1    3    3    0    0 -0.21596221882E-02 -0.13748093665E+00  0.46906212764E-02  0.89068943737E+00  0.88000000000E+00 0.  1.
        -11    1    4    4    0    0 -0.49685289607E-02  0.42280713656E-01 -0.51965992311E-02  0.42890684208E-01  0.51100000000E-03 0.  1.
         11    1    4    4    0    0  0.17775928632E-01  0.83404767900E-01 -0.16731648264E-01  0.86905397542E-01  0.51100000000E-03 0. -1.
</event>
<event>
 8    1  0.1099921E+005  0.1043930E+01  0.7957747E-01            NaN
         13   -1    0    0    0    0  0.00000000000E+00  0.00000000000E+00  0.74505805969E-08  0.10566000000E+00  0.10566000000E+00 0.  1.
     999900   -1    0    0    0    0 -0.00000000000E+00 -0.00000000000E+00 -0.74505805969E-08  0.93827000000E+00  0.93827000000E+00 0.  1.
     999902    2    1    2    0    0  0.63424755960E-02  0.12163362569E-01 -0.19393093112E-01  0.10201757068E+01  0.10198991157E+01 0.  0.
     999903    2    3    3    0    0  0.12203601475E+00  0.45187839113E-01 -0.88748678010E-02  0.13192673036E+00  0.19777998043E-01 0.  0.
         14    1    1    2    0    0 -0.63424755960E-02 -0.12163362569E-01  0.19393093112E-01  0.23754293214E-01  0.00000000000E+00 0.  1.
     999901    1    3    3    0    0 -0.11569353915E+00 -0.33024476544E-01 -0.10518225311E-01  0.88824897642E+00  0.88000000000E+00 0. -1.
        -11    1    4    4    0    0  0.10184135884E+00  0.39817688584E-01 -0.34427683780E-03  0.10935031021E+00  0.51100000000E-03 0.  1.
         11    1    4    4    0    0  0.20194655905E-01  0.53701505293E-02 -0.85305909632E-02  0.22576420155E-01  0.51100000000E-03 0. -1.
</event>
<event>
 8    1  0.1099921E+005  0.1043930E+01  0.7957747E-01            NaN
         13   -1    0    0    0    0  0.00000000000E+00  0.00000000000E+00  0.74505805969E-08  0.10566000000E+00  0.10566000000E+00 0. -1.
     999900   -1    0    0    0    0 -0.00000000000E+00 -0.00000000000E+00 -0.74505805969E-08  0.93827000000E+00  0.93827000000E+00 0.  1.
     999902    2    1    2    0    0  0.20059965452E-01  0.69137066946E-02  0.90268081557E-02  0.10208717082E+01  0.10206112677E+01 0.  0.
     999903    2    3    3    0    0  0.99509213636E-01 -0.17680183030E-01  0.85319246809E-01  0.13366396556E+00  0.19287543707E-01 0.  0.
         14    1    1    2    0    0 -0.20059965452E-01 -0.69137066946E-02 -0.90268081557E-02  0.23058291777E-01  0.00000000000E+00 0.  1.
     999901    1    3    3    0    0 -0.79449248184E-01  0.24593889724E-01 -0.76292438653E-01  0.88720774266E+00  0.88000000000E+00 0.  1.
        -11    1    4    4    0    0  0.60735309400E-01 -0.30138322655E-02  0.57837731653E-01  0.83924521545E-01  0.51100000000E-03 0.  1.
         11    1    4    4    0    0  0.38773904236E-01 -0.14666350764E-01  0.27481515156E-01  0.49739444013E-01  0.51100000000E-03 0. -1.
</event>
<event>
 8    1  0.1099921E+005  0.1043930E+01  0.7957747E-01            NaN
         13   -1    0    0    0    0  0.00000000000E+00  0.00000000000E+00  0.74505805969E-08  0.10566000000E+00  0.10566000000E+00 0.  1.
     999900   -1    0    0    0    0 -0.00000000000E+00 -0.00000000000E+00 -0.74505805969E-08  0.93827000000E+00  0.93827000000E+00 0. -1.
     999902    2    1    2    0    0 -0.93676500217E-02 -0.19348031065E-01  0.13756954474E-01  0.10184083823E+01  0.10180885424E+01 0.  0.
     999903    2    3    3    0    0  0.87471658530E-01  0.33620006953E-01 -0.82376341141E-01  0.12631809806E+00  0.19718123742E-01 0.  0.
         14    1    1    2    0    0  0.93676500217E-02  0.19348031065E-01 -0.13756954474E-01  0.25521617689E-01  0.00000000000E+00 0. -1.
     999901    1    3    3    0    0 -0.96839308551E-01 -0.52968038018E-01  0.96133295616E-01  0.89209028425E+00  0.88000000000E+00 0.  1.
        -11    1    4    4    0    0  0.54872498079E-01  0.19878528648E-01 -0.38347595145E-01  0.69835135290E-01  0.51100000000E-03 0.  1.
         11    1    4    4    0    0  0.32599160451E-01  0.13741478305E-01 -0.44028745996E-01  0.56482962768E-01  0.51100000000E-03 0. -1.
</event>
<event>
 8    1  0.1099921E+005  0.1043930E+01  0.7957747E-01            NaN
         13   -1    0    0    0    0  0.00000000000E+00  0.00000000000E+00  0.74505805969E-08  0.10566000000E+00  0.10566000000E+00 0. -1.
     999900   -1    0    0    0    0 -0.00000000000E+00 -0.00000000000E+00 -0.74505805969E-08  0.93827000000E+00  0.93827000000E+00 0.  1.
     999902    2    1    2    0    0  0.22517228167E-01 -0.87380603781E-03  0.13225366499E-01  0.10178014826E+01  0.10174660479E+01 0.  0.
     999903    2    3    3    0    0  0.85697791864E-01 -0.85397352410E-01 -0.42580602256E-01  0.12974161996E+00  0.19569387642E-01 0.  0.
         14    1    1    2    0    0 -0.22517228167E-01  0.87380603781E-03 -0.13225366499E-01  0.26128517378E-01  0.00000000000E+00 0.  1.
     999901    1    3    3    0    0 -0.63180563697E-01  0.84523546372E-01  0.55805968755E-01  0.88805986266E+00  0.88000000000E+00 0. -1.
        -11    1    4    4    0    0  0.82299032056E-01 -0.74604118675E-01 -0.40438966052E-01  0.11821368913E+00  0.51100000000E-03 0. -1.
         11    1    4    4    0    0  0.33987598080E-02 -0.10793233736E-01 -0.21416362046E-02  0.11527930835E-01  0.51100000000E-03 0.  1.
</event>
<event>
 8    1  0.1099921E+005  0.1043930E+01  0.7957747E-01            NaN
         13   -1    0    0    0    0  0.00000000000E+00  0.00000000000E+00  0.74505805969E-08  0.10566000000E+00  0.10566000000E+00 0.  1.
     999900   -1    0    0    0    0 -0.00000000000E+00 -0.00000000000E+00 -0.74505805969E-08  0.93827000000E+00  0.93827000000E+00 0. -1.
     999902    2    1    2    0    0 -0.23084892171E-01  0.31748184074E-02 -0.56721891762E-02  0.10199473928E+01  0.10196653954E+01 0.  0.
     999903    2    3    3    0    0  0.11257070919E-02 -0.17418875669E-01  0.12649351720E+00  0.12951040608E+00  0.21625238585E-01 0.  0.
         14    1    1    2    0    0  0.23084892171E-01 -0.31748184074E-02  0.56721891762E-02  0.23982607209E-01  0.00000000000E+00 0. -1.
     999901    1    3    3    0    0 -0.24210599263E-01  0.20593694076E-01 -0.13216570638E+00  0.89043698671E+00  0.88000000000E+00 0. -1.
        -11    1    4    4    0    0  0.10387224877E-01 -0.70088800018E-02  0.40607502443E-01  0.42499990766E-01  0.51100000000E-03 0. -1.
         11    1    4    4    0    0 -0.92615177849E-02 -0.10409995667E-01  0.85886014761E-01  0.87010415319E-01  0.51100000000E-03 0.  1.
</event>
<event>
 8    1  0.1099921E+005  0.1043930E+01  0.7957747E-01            NaN
         13   -1    0    0    0    0  0.00000000000E+00  0.00000000000E+00  0.74505805969E-08  0.10566000000E+00  0.10566000000E+00 0.  1.
     999900   -1    0    0    0    0 -0.00000000000E+00 -0.00000000000E+00 -0.74505805969E-08  0.93827000000E+00  0.93827000000E+00 0. -1.
     999902    2    1    2    0    0 -0.23278276602E-01  0.11270650237E-01  0.53484853785E-02  0.10175195473E+01  0.10171767383E+01 0.  0.
     999903    2    3    3    0    0  0.20341665192E-01  0.91638728557E-01 -0.84558027218E-01  0.12822493446E+00  0.21911958759E-01 0.  0.
         14    1    1    2    0    0  0.23278276602E-01 -0.11270650237E-01 -0.53484853785E-02  0.26410452744E-01  0.00000000000E+00 0.  1.
     999901    1    3    3    0    0 -0.43619941793E-01 -0.80368078320E-01  0.89906512597E-01  0.88929461279E+00  0.88000000000E+00 0.  1.
        -11    1    4    4    0    0  0.11574828937E-01  0.37669405508E-01 -0.49496280220E-01  0.63270084976E-01  0.51100000000E-03 0.  1.
         11    1    4    4    0    0  0.87668362546E-02  0.53969323050E-01 -0.35061746998E-01  0.64954849487E-01  0.51100000000E-03 0. -1.
</event>
<event>
 8    1  0.1099921E+005  0.1043930E+01  0.7957747E-01            NaN
         13   -1    0    0    0    0  0.00000000000E+00  0.00000000000E+00  0.74505805969E-08  0.10566000000E+00  0.10566000000E+00 0.  1.
     999900   -1    0    0    0    0 -0.00000000000E+00 -0.00000000000E+00 -0.74505805969E-08  0.93827000000E+00  0.93827000000E+00 0.  1.
     999902    2    1    2    0    0  0.15751103653E-01 -0.16653298672E-01  0.17801395918E-02  0.10209387295E+01  0.10206798180E+01 0.  0.
     999903    2    3    3    0    0  0.77409614980E-01  0.89741993001E-01 -0.51443582163E-01  0.13079576644E+00  0.20376863658E-01 0.  0.
         14    1    1    2    0    0 -0.15751103653E-01  0.16653298672E-01 -0.17801395918E-02  0.22991270515E-01  0.00000000000E+00 0.  1.
     999901    1    3    3    0    0 -0.61658511327E-01 -0.10639529167E+00  0.53223721755E-01  0.89014296305E+00  0.88000000000E+00 0.  1.
        -11    1    4    4    0    0  0.24603370890E-01  0.40954970681E-01 -0.26869675047E-01  0.54816749637E-01  0.51100000000E-03 0. -1.
         11    1    4    4    0    0  0.52806244090E-01  0.48787022320E-01 -0.24573907117E-01  0.75979016799E-01  0.51100000000E-03 0.  1.
</event>
<event>
 8    1  0.1099921E+005  0.1043930E+01  0.7957747E-01            NaN
         13   -1    0    0    0    0  0.00000000000E+00  0.00000000000E+00  0.74505805969E-08  0.10566000000E+00  0.10566000000E+00 0.  1.
     999900   -1    0    0    0    0 -0.00000000000E+00 -0.00000000000E+00 -0.74505805969E-08  0.93827000000E+00  0.93827000000E+00 0. -1.
     999902    2    1    2    0    0  0.18944723024E-01 -0.79208521613E-02 -0.12370779921E-01  0.10199575444E+01  0.10196757886E+01 0.  0.
     999903    2    3    3    0    0 -0.93131133253E-01  0.41518420769E-01 -0.76495981489E-01  0.12916167516E+00  0.20830648116E-01 0.  0.
         14    1    1    2    0    0 -0.18944723024E-01  0.79208521613E-02  0.12370779921E-01  0.23972455554E-01  0.00000000000E+00 0.  1.
     999901    1    3    3    0    0  0.11207585628E+00 -0.49439272930E-01  0.64125201569E-01  0.89079586929E+00  0.88000000000E+00 0.  1.
        -11    1    4    4    0    0 -0.28763469293E-01  0.23377160578E-01 -0.24254719316E-01  0.44298773488E-01  0.51100000000E-03 0. -1.
         11    1    4    4    0    0 -0.64367663961E-01  0.18141260191E-01 -0.52241262174E-01  0.84862901668E-01  0.51100000000E-03 0.  1.
</event>
<event>
 8    1  0.1099921E+005  0.1043930E+01  0.7957747E-01            NaN
         13   -1    0    0    0    0  0.00000000000E+00  0.00000000000E+00  0.74505805969E-08  0.10566000000E+00  0.10566000000E+00 0.  1.
     999900   -1    0    0    0    0 -0.00000000000E+00 -0.00000000000E+00 -0.74505805969E-08  0.93827000000E+00  0.93827000000E+00 0.  1.
     999902    2    1    2    0    0  0.18033034392E-01  0.11733240891E-01  0.10361623736E-01  0.10200506676E+01  0.10197711223E+01 0.  0.
     999903    2    3    3    0    0  0.39551444539E-01 -0.55648280272E-01  0.11080605976E+00  0.13151682122E+00  0.18911465335E-01 0.  0.
         14    1    1    2    0    0 -0.18033034392E-01 -0.11733240891E-01 -0.10361623736E-01  0.23879332437E-01  0.00000000000E+00 0. -1.
     999901    1    3    3    0    0 -0.21518410147E-01  0.67381521163E-01 -0.10044443603E+00  0.88853384634E+00  0.88000000000E+00 0.  1.
        -11    1    4    4    0    0  0.17644543261E-01 -0.40551508197E-01  0.70006222985E-01  0.82806322836E-01  0.51100000000E-03 0.  1.
         11    1    4    4    0    0  0.21906901278E-01 -0.15096772075E-01  0.40799836777E-01  0.48710498383E-01  0.51100000000E-03 0. -1.
</event>
<event>
 8    1  0.1099921E+005  0.1043930E+01  0.7957747E-01            NaN
         13   -1    0    0    0    0  0.00000000000E+00  0.00000000000E+00  0.74505805969E-08  0.10566000000E+00  0.10566000000E+00 0.  1.
     999900   -1    0    0    0    0 -0.00000000000E+00 -0.00000000000E+00 -0.74505805969E-08  0.93827000000E+00  0.93827000000E+00 0.  1.
     999902    2    1    2    0    0 -0.17534561133E-02 -0.72578434480E-03  0.23684637012E-01  0.10201694570E+01  0.10198927187E+01 0.  0.
     999903    2    3    3    0    0  0.77025817449E-01  0.84150499161E-01 -0.56527942175E-01  0.12896565583E+00  0.20553565949E-01 0.  0.
         14    1    1    2    0    0  0.17534561133E-02  0.72578434480E-03 -0.23684637012E-01  0.23760542957E-01  0.00000000000E+00 0. -1.
     999901    1    3    3    0    0 -0.78779273562E-01 -0.84876283506E-01  0.80212579187E-01  0.89120380122E+00  0.88000000000E+00 0. -1.
        -11    1    4    4    0    0  0.10245615411E-01  0.21197787233E-01 -0.16970635164E-01  0.29027269895E-01  0.51100000000E-03 0.  1.
         11    1    4    4    0    0  0.66780202038E-01  0.62952711928E-01 -0.39557307011E-01  0.99938385930E-01  0.51100000000E-03 0. -1.
</event>
<event>
 8    1  0.1099921E+005  0.1043930E+01  0.7957747E-01            NaN
         13   -1    0    0    0    0  0.00000000000E+00  0.00000000000E+00  0.74505805969E-08  0.10566000000E+00  0.10566000000E+00 0. -1.
     999900   -1    0    0    0    0 -0.00000000000E+00 -0.00000000000E+00 -0.74505805969E-08  0.93827000000E+00  0.93827000000E+00 0.  1.
     999902    2    1    2    0    0  0.13849688403E-01  0.13694955616E-01  0.13914323733E-01  0.10199931229E+01  0.10197122127E+01 0.  0.
     999903    2    3    3    0    0 -0.89402910598E-01  0.60430946698E-01  0.71507520955E-01  0.13085740303E+00  0.19119483060E-01 0.  0.
         14    1    1    2    0    0 -0.13849688403E-01 -0.13694955616E-01 -0.13914323733E-01  0.23936877055E-01  0.00000000000E+00 0.  1.
     999901    1    3    3    0    0  0.10325259900E+00 -0.46735991082E-01 -0.57593197223E-01  0.88913571992E+00  0.88000000000E+00 0.  1.
        -11    1    4    4    0    0 -0.59301515759E-01  0.34097124434E-01  0.35647711287E-01  0.77138214310E-01  0.51100000000E-03 0.  1.
         11    1    4    4    0    0 -0.30101394838E-01  0.26333822264E-01  0.35859809669E-01  0.53719188720E-01  0.51100000000E-03 0. -1.
</event>
<event>
 8    1  0.1099921E+005  0.1043930E+01  0.7957747E-01            NaN
         13   -1    0    0    0    0  0.00000000000E+00  0.00000000000E+00  0.74505805969E-08  0.10566000000E+00  0.10566000000E+00 0. -1.
     999900   -1    0    0    0    0 -0.00000000000E+00 -0.00000000000E+00 -0.74505805969E-08  0.93827000000E+00  0.93827000000E+00 0. -1.
     999902    2    1    2    0    0 -0.12568113819E-01 -0.25785584283E-02 -0.19141881692E-01  0.10208861704E+01  0.10206260602E+01 0.  0.
     999903    2    3    3    0    0 -0.11704246600E+00  0.57452849078E-01 -0.13533684823E-01  0.13265753314E+00  0.20373800843E-01 0.  0.
         14    1    1    2    0    0  0.12568113819E-01  0.25785584283E-02  0.19141881692E-01  0.23043829614E-01  0.00000000000E+00 0. -1.
     999901    1    3    3    0    0  0.10447435218E+00 -0.60031407506E-01 -0.56081968690E-02  0.88822863724E+00  0.88000000000E+00 0.  1.
        -11    1    4    4    0    0 -0.99128222889E-01  0.56205612447E-01 -0.12882711968E-01  0.11468086515E+00  0.51100000000E-03 0.  1.
         11    1    4    4    0    0 -0.17914243107E-01  0.12472366307E-02 -0.65097285524E-03  0.17976667988E-01  0.51100000000E-03 0. -1.
</event>
<event>
 8    1  0.1099921E+005  0.1043930E+01  0.7957747E-01            NaN
         13   -1    0    0    0    0  0.00000000000E+00  0.00000000000E+00  0.74505805969E-08  0.10566000000E+00  0.10566000000E+00 0.  1.
     999900   -1    0    0    0    0 -0.00000000000E+00 -0.00000000000E+00 -0.74505805969E-08  0.93827000000E+00  0.93827000000E+00 0.  1.
     999902    2    1    2    0    0 -0.35366898426E-03  0.34825856866E-02 -0.23746172227E-01  0.10199272047E+01  0.10196447268E+01 0.  0.
     999903    2    3    3    0    0 -0.11491466819E+00  0.77175340690E-02 -0.59263551980E-01  0.13178102218E+00  0.24271957446E-01 0.  0.
         14    1    1    2    0    0  0.35366898426E-03 -0.34825856866E-02  0.23746172227E-01  0.24002795259E-01  0.00000000000E+00 0.  1.
     999901    1    3    3    0    0  0.11456099920E+00 -0.42349483825E-02  0.35517379753E-01  0.88814618256E+00  0.88000000000E+00 0. -1.
        -11    1    4    4    0    0 -0.58000294322E-01 -0.70610242650E-02 -0.35411433369E-01  0.68323663099E-01  0.51100000000E-03 0.  1.
         11    1    4    4    0    0 -0.56914373865E-01  0.14778558334E-01 -0.23852118611E-01  0.63457359085E-01  0.51100000000E-03 0. -1.
</event>
<event>
 7    1  0.1099921E+005  0.1043930E+01  0.7957747E-01            NaN
         13   -1    0    0    0    0  0.00000000000E+00  0.00000000000E+00  0.74505805969E-08  0.10566000000E+00  0.10566000000E+00 0.  1.
     999900   -1    0    0    0    0 -0.00000000000E+00 -0.00000000000E+00 -0.74505805969E-08  0.93827000000E+00  0.93827000000E+00 0.  1.
     999902    2    1    2    0    0 -0.20554988549E-01  0.98646904832E-02  0.34180923239E-02  0.10208756506E+01  0.10206153001E+01 0.  0.
         14    1    1    2    0    0  0.20554988549E-01 -0.98646904832E-02 -0.34180923239E-02  0.23054349432E-01  0.00000000000E+00 0.  1.
     999901    1    3    3    0    0 -0.50793504543E-01 -0.65692983084E-01  0.95443009620E-01  0.88904719572E+00  0.88000000000E+00 0. -1.
        -11    1    3    3    0    0  0.30676752370E-01  0.15802065331E-01 -0.36961532765E-01  0.50568611114E-01  0.51100000000E-03 0.  1.
         11    1    3    3    0    0 -0.43823637630E-03  0.59755608237E-01 -0.55063384531E-01  0.81259843735E-01  0.51100000000E-03 0. -1.
</event>
<event>
 8    1  0.1099921E+005  0.1043930E+01  0.7957747E-01            NaN
         13   -1    0    0    0    0  0.00000000000E+00  0.00000000000E+00  0.74505805969E-08  0.10566000000E+00  0.10566000000E+00 0.  1.
     999900   -1    0    0    0    0 -0.00000000000E+00 -0.00000000000E+00 -0.74505805969E-08  0.93827000000E+00  0.93827000000E+00 0.  1.
     999902    2    1    2    0    0  0.18906809481E-01 -0.13535321910E-01 -0.57053284475E-02  0.10199879208E+01  0.10197068870E+01 0.  0.
     999903    2    3    3    0    0 -0.28881182757E-01 -0.60061061959E-01 -0.11127809310E+00  0.13117188509E+00  0.19539589406E-01 0.  0.
         14    1    1    2    0    0 -0.18906809481E-01  0.13535321910E-01  0.57053284475E-02  0.23942079205E-01  0.00000000000E+00 0. -1.
     999901    1    3    3    0    0  0.47787992238E-01  0.46525740048E-01  0.10557276465E+00  0.88881603570E+00  0.88000000000E+00 0. -1.
        -11    1    4    4    0    0 -0.19745723341E-01 -0.36963161215E-01 -0.51239685205E-01  0.66196188245E-01  0.51100000000E-03 0.  1.
         11    1    4    4    0    0 -0.91354594160E-02 -0.23097900744E-01 -0.60038407891E-01  0.64975696846E-01  0.51100000000E-03 0. -1.
</event>
<event>
 8    1  0.1099921E+005  0.1043930E+01  0.7957747E-01            NaN
         13   -1    0    0    0    0  0.00000000000E+00  0.00000000000E+00  0.74505805969E-08  0.10566000000E+00  0.10566000000E+00 0.  1.
     999900   -1    0    0    0    0 -0.00000000000E+00 -0.00000000000E+00 -0.74505805969E-08  0.93827000000E+00  0.93827000000E+00 0.  1.
     999902    2    1    2    0    0 -0.10304277384E-01 -0.67020960405E-02 -0.17986673954E-01  0.10221443014E+01  0.10219121079E+01 0.  0.
     999903    2    3    3    0    0  0.76927118466E-01  0.88434238003E-01 -0.57308876933E-01  0.13185981084E+00  0.19086810443E-01 0.  0.
         14    1    1    2    0    0  0.10304277384E-01  0.67020960405E-02  0.17986673954E-01  0.21785698604E-01  0.00000000000E+00 0.  1.
     999901    1    3    3    0    0 -0.87231395850E-01 -0.95136334043E-01  0.39322202979E-01  0.89028449056E+00  0.88000000000E+00 0. -1.
        -11    1    4    4    0    0  0.62712951300E-01  0.60896573276E-01 -0.37811718298E-01  0.95243341286E-01  0.51100000000E-03 0.  1.
         11    1    4    4    0    0  0.14214167165E-01  0.27537664726E-01 -0.19497158635E-01  0.36616469554E-01  0.51100000000E-03 0. -1.
</event>
<event>
 8    1  0.1099921E+005  0.1043930E+01  0.7957747E-01            NaN
         13   -1    0    0    0    0  0.00000000000E+00  0.00000000000E+00  0.74505805969E-08  0.10566000000E+00  0.10566000000E+00 0. -1.
     999900   -1    0    0    0    0 -0.00000000000E+00 -0.00000000000E+00 -0.74505805969E-08  0.93827000000E+00  0.93827000000E+00 0. -1.
     999902    2    1    2    0    0 -0.24552848475E-01  0.37725747226E-02 -0.41815225935E-02  0.10187395292E+01  0.10184280380E+01 0.  0.
     999903    2    3    3    0    0 -0.12717790598E+00  0.18579494806E-01 -0.23564068653E-01  0.13244001413E+00  0.21579495211E-01 0.  0.
         14    1    1    2    0    0  0.24552848475E-01 -0.37725747226E-02  0.41815225935E-02  0.25190470807E-01  0.00000000000E+00 0. -1.
     999901    1    3    3    0    0  0.10262505751E+00 -0.14806920083E-01  0.19382546059E-01  0.88629951506E+00  0.88000000000E+00 0.  1.
        -11    1    4    4    0    0 -0.10388089863E+00  0.18219911397E-01 -0.27034636040E-01  0.10887763286E+00  0.51100000000E-03 0. -1.
         11    1    4    4    0    0 -0.23297007356E-01  0.35958340846E-03  0.34705673868E-02  0.23562381267E-01  0.51100000000E-03 0.  1.
</event>
<event>
 8    1  0.1099921E+005  0.1043930E+01  0.7957747E-01            NaN
         13   -1    0    0    0    0  0.00000000000E+00  0.00000000000E+00  0.74505805969E-08  0.10566000000E+00  0.10566000000E+00 0.  1.
     999900   -1    0    0    0    0 -0.00000000000E+00 -0.00000000000E+00 -0.74505805969E-08  0.93827000000E+00  0.93827000000E+00 0. -1.
     999902    2    1    2    0    0 -0.57042855092E-02 -0.10154251432E-01  0.20056162446E-01  0.10207373859E+01  0.10204738672E+01 0.  0.
     999903    2    3    3    0    0  0.17319590658E-01 -0.68356392742E-01 -0.10675067267E+00  0.12944755565E+00  0.19707838547E-01 0.  0.
         14    1    1    2    0    0  0.57042855092E-02  0.10154251432E-01 -0.20056162446E-01  0.23192614069E-01  0.00000000000E+00 0. -1.
     999901    1    3    3    0    0 -0.23023876167E-01  0.58202141310E-01  0.12680683511E+00  0.89128983028E+00  0.88000000000E+00 0.  1.
        -11    1    4    4    0    0  0.54711486288E-02 -0.81021288589E-02 -0.60783372433E-02  0.11523248848E-01  0.51100000000E-03 0. -1.
         11    1    4    4    0    0  0.11848442029E-01 -0.60254263883E-01 -0.10067233542E+00  0.11792430680E+00  0.51100000000E-03 0.  1.
</event>
<event>
 8    1  0.1099921E+005  0.1043930E+01  0.7957747E-01            NaN
         13   -1    0    0    0    0  0.00000000000E+00  0.00000000000E+00  0.74505805969E-08  0.10566000000E+00  0.10566000000E+00 0.  1.
     999900   -1    0    0    0    0 -0.00000000000E+00 -0.00000000000E+00 -0.74505805969E-08  0.93827000000E+00  0.93827000000E+00 0. -1.
     999902    2    1    2    0    0 -0.35924684797E-02  0.24092950408E-01 -0.25778298425E-03  0.10195693239E+01  0.10192782562E+01 0.  0.
     999903    2    3    3    0    0 -0.12545732074E+00  0.21460821661E-01  0.23559323685E-01  0.13084820627E+00  0.19133874598E-01 0.  0.
         14    1    1    2    0    0  0.35924684797E-02 -0.24092950408E-01  0.25778298425E-03  0.24360676123E-01  0.00000000000E+00 0.  1.
     999901    1    3    3    0    0  0.12186485226E+00  0.26321287463E-02 -0.23817106669E-01  0.88872111761E+00  0.88000000000E+00 0.  1.
        -11    1    4    4    0    0 -0.62312039908E-01  0.10777369933E-01  0.21417850317E-01  0.66767712656E-01  0.51100000000E-03 0.  1.
         11    1    4    4    0    0 -0.63145280831E-01  0.10683451728E-01  0.21414733683E-02  0.64080493610E-01  0.51100000000E-03 0. -1.
</event>
<event>
 8    1  0.1099921E+005  0.1043930E+01  0.7957747E-01            NaN
         13   -1    0    0    0    0  0.00000000000E+00  0.00000000000E+00  0.74505805969E-08  0.10566000000E+00  0.10566000000E+00 0. -1.
     999900   -1    0    0    0    0 -0.00000000000E+00 -0.00000000000E+00 -0.74505805969E-08  0.93827000000E+00  0.93827000000E+00 0.  1.
     999902    2    1    2    0    0  0.52983296814E-02  0.20621970771E-01  0.69726049287E-02  0.10215256434E+01  0.10212799248E+01 0.  0.
     999903    2    3    3    0    0 -0.64019799499E-01 -0.93803284802E-01  0.59311570336E-01  0.12987688437E+00  0.21273263764E-01 0.  0.
         14    1    1    2    0    0 -0.52983296814E-02 -0.20621970771E-01 -0.69726049287E-02  0.22404356616E-01  0.00000000000E+00 0.  1.
     999901    1    3    3    0    0  0.69318129180E-01  0.11442525557E+00 -0.52338965407E-01  0.89164875901E+00  0.88000000000E+00 0.  1.
        -11    1    4    4    0    0 -0.10775675529E-01 -0.21444156240E-01  0.22125257544E-01  0.32645905752E-01  0.51100000000E-03 0.  1.
         11    1    4    4    0    0 -0.53244123970E-01 -0.72359128562E-01  0.37186312792E-01  0.97230978621E-01  0.51100000000E-03 0. -1.
</event>
<event>
 8    1  0.1099921E+005  0.1043930E+01  0.7957747E-01            NaN
         13   -1    0    0    0    0  0.00000000000E+00  0.00000000000E+00  0.74505805969E-08  0.10566000000E+00  0.10566000000E+00 0.  1.
     999900   -1    0    0    0    0 -0.00000000000E+00 -0.00000000000E+00 -0.74505805969E-08  0.93827000000E+00  0.93827000000E+00 0.  1.
     999902    2    1    2    0    0  0.23940853133E-01 -0.85250027493E-02 -0.33597886051E-02  0.10182954862E+01  0.10179727741E+01 0.  0.
     999903    2    3    3    0    0  0.35151403039E-01  0.95747199480E-01  0.74391312249E-01  0.12866432535E+00  0.24845400707E-01 0.  0.
         14    1    1    2    0    0 -0.23940853133E-01  0.85250027493E-02  0.33597886051E-02  0.25634513845E-01  0.00000000000E+00 0. -1.
     999901    1    3    3    0    0 -0.11210549907E-01 -0.10427220223E+00 -0.77751100854E-01  0.88963116080E+00  0.88000000000E+00 0. -1.
        -11    1    4    4    0    0 -0.15977036343E-02  0.16618272979E-01  0.19095926091E-01  0.25369965865E-01  0.51100000000E-03 0.  1.
         11    1    4    4    0    0  0.36749106674E-01  0.79128926502E-01  0.55295386158E-01  0.10329435949E+00  0.51100000000E-03 0. -1.
</event>
<event>
 8    1  0.1099921E+005  0.1043930E+01  0.7957747E-01            NaN
         13   -1    0    0    0    0  0.00000000000E+00  0.00000000000E+00  0.74505805969E-08  0.10566000000E+00  0.10566000000E+00 0.  1.
     999900   -1    0    0    0    0 -0.00000000000E+00 -0.00000000000E+00 -0.74505805969E-08  0.93827000000E+00  0.93827000000E+00 0. -1.
     999902    2    1    2    0    0 -0.10906620119E-01 -0.22095314814E-01 -0.29672987452E-02  0.10191114150E+01  0.10188091647E+01 0.  0.
     999903    2    3    3    0    0 -0.10850538999E+00 -0.53744938039E-01  0.47806302929E-01  0.13169653055E+00  0.19914706548E-01 0.  0.
         14    1    1    2    0    0  0.10906620119E-01  0.22095314814E-01  0.29672987452E-02  0.24818584991E-01  0.00000000000E+00 0.  1.
     999901    1    3    3    0    0  0.97598769875E-01  0.31649623226E-01 -0.50773601674E-01  0.88741488446E+00  0.88000000000E+00 0. -1.
        -11    1    4    4    0    0 -0.62086128830E-01 -0.23704335136E-01  0.17875895181E-01  0.68821447579E-01  0.51100000000E-03 0. -1.
         11    1    4    4    0    0 -0.46419261163E-01 -0.30040602904E-01  0.29930407747E-01  0.62875082971E-01  0.51100000000E-03 0.  1.
</event>
<event>
 8    1  0.1099921E+005  0.1043930E+01  0.7957747E-01            NaN
         13   -1    0    0    0    0  0.00000000000E+00  0.00000000000E+00  0.74505805969E-08  0.10566000000E+00  0.10566000000E+00 0.  1.
     999900   -1    0    0    0    0 -0.00000000000E+00 -0.00000000000E+00 -0.74505805969E-08  0.93827000000E+00  0.93827000000E+00 0. -1.
     999902    2    1    2    0    0  0.18754821017E-01  0.14064407733E-01  0.21616727356E-02  0.10203880437E+01  0.10201164326E+01 0.  0.
     999903    2    3    3    0    0  0.16957413858E-01 -0.70566125136E-01 -0.10571311221E+00  0.12976886192E+00  0.19938995234E-01 0.  0.
         14    1    1    2    0    0 -0.18754821017E-01 -0.14064407733E-01 -0.21616727356E-02  0.23541956275E-01  0.00000000000E+00 0.  1.
     999901    1    3    3    0    0  0.17974071592E-02  0.84630532869E-01  0.10787478494E+00  0.89061918180E+00  0.88000000000E+00 0.  1.
        -11    1    4    4    0    0  0.20806615354E-01 -0.59495823313E-01 -0.83171806274E-01  0.10435745644E+00  0.51100000000E-03 0.  1.
         11    1    4    4    0    0 -0.38492014962E-02 -0.11070301822E-01 -0.22541305933E-01  0.25411405486E-01  0.51100000000E-03 0. -1.
</event>
<event>
 8    1  0.1099921E+005  0.1043930E+01  0.7957747E-01            NaN
         13   -1    0    0    0    0  0.00000000000E+00  0.00000000000E+00  0.74505805969E-08  0.10566000000E+00  0.10566000000E+00 0. -1.
     999900   -1    0    0    0    0 -0.00000000000E+00 -0.00000000000E+00 -0.74505805969E-08  0.93827000000E+00  0.93827000000E+00 0.  1.
     999902    2    1    2    0    0  0.16090323842E-01 -0.38790571162E-02 -0.16149136125E-01  0.10208055497E+01  0.10205435954E+01 0.  0.
     999903    2    3    3    0    0  0.11693236492E+00  0.40881975339E-01 -0.45678032569E-01  0.13342478416E+00  0.19265941321E-01 0.  0.
         14    1    1    2    0    0 -0.16090323842E-01  0.38790571162E-02  0.16149136125E-01  0.23124450330E-01  0.00000000000E+00 0. -1.
     999901    1    3    3    0    0 -0.10084204108E+00 -0.44761032455E-01  0.29528896443E-01  0.88738076551E+00  0.88000000000E+00 0. -1.
        -11    1    4    4    0    0  0.34236019842E-01  0.29106405257E-02 -0.12419264112E-01  0.36538693532E-01  0.51100000000E-03 0. -1.
         11    1    4    4    0    0  0.82696345078E-01  0.37971334813E-01 -0.33258768457E-01  0.96886090627E-01  0.51100000000E-03 0.  1.
</event>
<event>
 8    1  0.1099921E+005  0.1043930E+01  0.7957747E-01            NaN
         13   -1    0    0    0    0  0.00000000000E+00  0.00000000000E+00  0.74505805969E-08  0.10566000000E+00  0.10566000000E+00 0.  1.
     999900   -1    0    0    0    0 -0.00000000000E+00 -0.00000000000E+00 -0.74505805969E-08  0.93827000000E+00  0.93827000000E+00 0. -1.
     999902    2    1    2    0    0  0.18866233913E-01  0.81260407946E-02  0.11444657044E-01  0.10204151643E+01  0.10201441860E+01 0.  0.
     999903    2    3    3    0    0 -0.12566891240E+00 -0.16481228668E-01  0.22540392130E-02  0.12823783125E+00  0.19379221590E-01 0.  0.
         14    1    1    2    0    0 -0.18866233913E-01 -0.81260407946E-02 -0.11444657044E-01  0.23514835656E-01  0.00000000000E+00 0. -1.
     999901    1    3    3    0    0  0.14453514631E+00  0.24607269462E-01  0.91906178312E-02  0.89217733309E+00  0.88000000000E+00 0. -1.
        -11    1    4    4    0    0 -0.64548114691E-01 -0.11335710346E-01 -0.80805565676E-02  0.66034187771E-01  0.51100000000E-03 0.  1.
         11    1    4    4    0    0 -0.61120797707E-01 -0.51455183216E-02  0.10334595781E-01  0.62203643480E-01  0.51100000000E-03 0. -1.
</event>
<event>
 8    1  0.1099921E+005  0.1043930E+01  0.7957747E-01            NaN
         13   -1    0    0    0    0  0.00000000000E+00  0.00000000000E+00  0.74505805969E-08  0.10566000000E+00  0.10566000000E+00 0. -1.
     999900   -1    0    0    0    0 -0.00000000000E+00 -0.00000000000E+00 -0.74505805969E-08  0.93827000000E+00  0.93827000000E+00 0. -1.
     999902    2    1    2    0    0  0.35963435673E-02  0.91631953266E-02 -0.21489679338E-01  0.10202930765E+01  0.10200192438E+01 0.  0.
     999903    2    3    3    0    0  0.90833885437E-01 -0.73731692946E-01  0.46081566996E-01  0.12953619351E+00  0.31128079365E-01 0.  0.
         14    1    1    2    0    0 -0.35963435673E-02 -0.91631953266E-02  0.21489679338E-01  0.23636923524E-01  0.00000000000E+00 0. -1.
     999901    1    3    3    0    0 -0.87237541870E-01  0.82894888272E-01 -0.67571246334E-01  0.89075688296E+00  0.88000000000E+00 0.  1.
        -11    1    4    4    0    0  0.59516127510E-01 -0.36389862955E-01  0.13903898802E-01  0.71133473714E-01  0.51100000000E-03 0. -1.
         11    1    4    4    0    0  0.31317757927E-01 -0.37341829990E-01  0.32177668194E-01  0.58402719800E-01  0.51100000000E-03 0.  1.
</event>
<event>
 8    1  0.1099921E+005  0.1043930E+01  0.7957747E-01            NaN
         13   -1    0    0    0    0  0.00000000000E+00  0.00000000000E+00  0.74505805969E-08  0.10566000000E+00  0.10566000000E+00 0. -1.
     999900   -1    0    0    0    0 -0.00000000000E+00 -0.00000000000E+00 -0.74505805969E-08  0.93827000000E+00  0.93827000000E+00 0.  1.
     999902    2    1    2    0    0  0.21770770312E-02  0.18789264459E-01 -0.12858276801E-01  0.10210583712E+01  0.10208021777E+01 0.  0.
     999903    2    3    3    0    0 -0.85352413264E-01 -0.59015552553E-01 -0.77579761886E-01  0.13094384378E+00  0.18968417900E-01 0.  0.
         14    1    1    2    0    0 -0.21770770312E-02 -0.18789264459E-01  0.12858276801E-01  0.22871628835E-01  0.00000000000E+00 0. -1.
     999901    1    3    3    0    0  0.87529490296E-01  0.77804817012E-01  0.64721485085E-01  0.89011452738E+00  0.88000000000E+00 0. -1.
        -11    1    4    4    0    0 -0.43410913079E-01 -0.35596994282E-01 -0.31490291844E-01  0.64370435587E-01  0.51100000000E-03 0.  1.
         11    1    4    4    0    0 -0.41941500185E-01 -0.23418558271E-01 -0.46089470041E-01  0.66573408197E-01  0.51100000000E-03 0. -1.
</event>
<event>
 8    1  0.1099921E+005  0.1043930E+01  0.7957747E-01            NaN
         13   -1    0    0    0    0  0.00000000000E+00  0.00000000000E+00  0.74505805969E-08  0.10566000000E+00  0.10566000000E+00 0.  1.
     999900   -1    0    0    0    0 -0.00000000000E+00 -0.00000000000E+00 -0.74505805969E-08  0.93827000000E+00  0.93827000000E+00 0. -1.
     999902    2    1    2    0    0  0.13629246284E-01 -0.18691324209E-01  0.44455365625E-02  0.10203740082E+01  0.10201020693E+01 0.  0.
     999903    2    3    3    0    0  0.37405834545E-01 -0.98769320165E-01 -0.77769642285E-01  0.13260312152E+00  0.19516544544E-01 0.  0.
         14    1    1    2    0    0 -0.13629246284E-01  0.18691324209E-01 -0.44455365625E-02  0.23555991813E-01  0.00000000000E+00 0. -1.
     999901    1    3    3    0    0 -0.23776588261E-01  0.80077995956E-01  0.82215178847E-01  0.88777088667E+00  0.88000000000E+00 0.  1.
        -11    1    4    4    0    0  0.34175432857E-02 -0.10183173453E-01 -0.14837086612E-02  0.10855373604E-01  0.51100000000E-03 0. -1.
         11    1    4    4    0    0  0.33988291260E-01 -0.88586146712E-01 -0.76285933624E-01  0.12174774791E+00  0.51100000000E-03 0.  1.
</event>
<event>
 8    1  0.1099921E+005  0.1043930E+01  0.7957747E-01            NaN
         13   -1    0    0    0    0  0.00000000000E+00  0.00000000000E+00  0.74505805969E-08  0.10566000000E+00  0.10566000000E+00 0. -1.
     999900   -1    0    0    0    0 -0.00000000000E+00 -0.00000000000E+00 -0.74505805969E-08  0.93827000000E+00  0.93827000000E+00 0.  1.
     999902    2    1    2    0    0 -0.17114220138E-01  0.48246635202E-03  0.16900784980E-01  0.10198724474E+01  0.10195886637E+01 0.  0.
     999903    2    3    3    0    0 -0.69720850736E-02 -0.12745426351E+00 -0.13644378354E-01  0.13003893669E+00  0.20754679937E-01 0.  0.
         14    1    1    2    0    0  0.17114220138E-01 -0.48246635202E-03 -0.16900784980E-01  0.24057552611E-01  0.00000000000E+00 0.  1.
     999901    1    3    3    0    0 -0.10142135064E-01  0.12793672986E+00  0.30545163335E-01  0.88983351069E+00  0.88000000000E+00 0.  1.
        -11    1    4    4    0    0 -0.12300383156E-01 -0.95858591636E-01 -0.46633043568E-02  0.96758340957E-01  0.51100000000E-03 0. -1.
         11    1    4    4    0    0  0.53282980819E-02 -0.31595671872E-01 -0.89810739975E-02  0.33280595737E-01  0.51100000000E-03 0.  1.
</event>
<event>
 8    1  0.1099921E+005  0.1043930E+01  0.7957747E-01            NaN
         13   -1    0    0    0    0  0.00000000000E+00  0.00000000000E+00  0.74505805969E-08  0.10566000000E+00  0.10566000000E+00 0.  1.
     999900   -1    0    0    0    0 -0.00000000000E+00 -0.00000000000E+00 -0.74505805969E-08  0.93827000000E+00  0.93827000000E+00 0. -1.
     999902    2    1    2    0    0 -0.61444739086E-02 -0.12539514517E-01  0.19074559550E-01  0.10202903552E+01  0.10200164588E+01 0.  0.
     999903    2    3    3    0    0 -0.43287205899E-01  0.11629655055E+00 -0.29022365900E-01  0.12883557316E+00  0.18911301486E-01 0.  0.
         14    1    1    2    0    0  0.61444739086E-02  0.12539514517E-01 -0.19074559550E-01  0.23639644794E-01  0.00000000000E+00 0. -1.
     999901    1    3    3    0    0  0.37142731990E-01 -0.12883606507E+00  0.48096925450E-01  0.89145478205E+00  0.88000000000E+00 0.  1.
        -11    1    4    4    0    0 -0.40858278940E-01  0.10946301871E+00 -0.31737640271E-01  0.12107473045E+00  0.51100000000E-03 0. -1.
         11    1    4    4    0    0 -0.24289269588E-02  0.68335318363E-02  0.27152743711E-02  0.77608427017E-02  0.51100000000E-03 0.  1.
</event>
<event>
 8    1  0.1099921E+005  0.1043930E+01  0.7957747E-01            NaN
         13   -1    0    0    0    0  0.00000000000E+00  0.00000000000E+00  0.74505805969E-08  0.10566000000E+00  0.10566000000E+00 0. -1.
     999900   -1    0    0    0    0 -0.00000000000E+00 -0.00000000000E+00 -0.74505805969E-08  0.93827000000E+00  0.93827000000E+00 0. -1.
     999902    2    1    2    0    0  0.10911691788E-01  0.26034912545E-01 -0.53865635032E-02  0.10151915805E+01  0.10147847301E+01 0.  0.
     999903    2    3    3    0    0  0.79839923097E-01  0.35436300832E-01 -0.91807182119E-01  0.12822596082E+00  0.19575331490E-01 0.  0.
         14    1    1    2    0    0 -0.10911691788E-01 -0.26034912545E-01  0.53865635032E-02  0.28738419499E-01  0.00000000000E+00 0. -1.
     999901    1    3    3    0    0 -0.68928231309E-01 -0.94013882863E-02  0.86420618616E-01  0.88696561968E+00  0.88000000000E+00 0. -1.
        -11    1    4    4    0    0  0.42136766060E-01  0.11378799052E-01 -0.55558917194E-01  0.70654359544E-01  0.51100000000E-03 0. -1.
         11    1    4    4    0    0  0.37703157037E-01  0.24057501779E-01 -0.36248264925E-01  0.57571601276E-01  0.51100000000E-03 0.  1.
</event>
<event>
 8    1  0.1099921E+005  0.1043930E+01  0.7957747E-01            NaN
         13   -1    0    0    0    0  0.00000000000E+00  0.00000000000E+00  0.74505805969E-08  0.10566000000E+00  0.10566000000E+00 0. -1.
     999900   -1    0    0    0    0 -0.00000000000E+00 -0.00000000000E+00 -0.74505805969E-08  0.93827000000E+00  0.93827000000E+00 0.  1.
     999902    2    1    2    0    0  0.19235537537E-02 -0.20930362371E-01  0.86469039882E-02  0.10212022840E+01  0.10209493404E+01 0.  0.
     999903    2    3    3    0    0  0.10981125594E+00 -0.52434118183E-02  0.70878281410E-01  0.13229363790E+00  0.19795720571E-01 0.  0.
         14    1    1    2    0    0 -0.19235537537E-02  0.20930362371E-01 -0.86469039882E-02  0.22727716045E-01  0.00000000000E+00 0. -1.
     999901    1    3    3    0    0 -0.10788770219E+00 -0.15686950553E-01 -0.62231377421E-01  0.88890864606E+00  0.88000000000E+00 0.  1.
        -11    1    4    4    0    0  0.49467663740E-01 -0.54791609741E-02  0.43187187585E-01  0.65897384268E-01  0.51100000000E-03 0. -1.
         11    1    4    4    0    0  0.60343592204E-01  0.23574915583E-03  0.27691093825E-01  0.66396253629E-01  0.51100000000E-03 0.  1.
</event>
<event>
 8    1  0.1099921E+005  0.1043930E+01  0.7957747E-01            NaN
         13   -1    0    0    0    0  0.00000000000E+00  0.00000000000E+00  0.74505805969E-08  0.10566000000E+00  0.10566000000E+00 0. -1.
     999900   -1    0    0    0    0 -0.00000000000E+00 -0.00000000000E+00 -0.74505805969E-08  0.93827000000E+00  0.93827000000E+00 0.  1.
     999902    2    1    2    0    0 -0.13536049894E-01 -0.16255282982E-01 -0.11317672847E-01  0.10199394062E+01  0.10196572188E+01 0.  0.
     999903    2    3    3    0    0  0.72373814260E-01 -0.45993892243E-01 -0.96548187748E-01  0.13115983269E+00  0.22976989361E-01 0.  0.
         14    1    1    2    0    0  0.13536049894E-01  0.16255282982E-01  0.11317672847E-01  0.23990593786E-01  0.00000000000E+00 0. -1.
     999901    1    3    3    0    0 -0.85909864154E-01  0.29738609261E-01  0.85230514902E-01  0.88877957352E+00  0.88000000000E+00 0. -1.
        -11    1    4    4    0    0  0.24207987422E-01 -0.21950743211E-01 -0.51341049770E-01  0.60860712246E-01  0.51100000000E-03 0. -1.
         11    1    4    4    0    0  0.48165826838E-01 -0.24043149032E-01 -0.45207137978E-01  0.70299120446E-01  0.51100000000E-03 0.  1.
</event>
<event>
 8    1  0.1099921E+005  0.1043930E+01  0.7957747E-01            NaN
         13   -1    0    0    0    0  0.00000000000E+00  0.00000000000E+00  0.74505805969E-08  0.10566000000E+00  0.10566000000E+00 0. -1.
     999900   -1    0    0    0    0 -0.00000000000E+00 -0.00000000000E+00 -0.74505805969E-08  0.93827000000E+00  0.93827000000E+00 0.  1.
     999902    2    1    2    0    0 -0.13822878282E-01 -0.65289922570E-04 -0.18781562449E-01  0.10206099804E+01  0.10203435249E+01 0.  0.
     999903    2    3    3    0    0  0.11780354293E+00  0.38860436653E-02  0.47037835496E-01  0.12838056990E+00  0.19396821838E-01 0.  0.
         14    1    1    2    0    0  0.13822878282E-01  0.65289922570E-04  0.18781562449E-01  0.23320019614E-01  0.00000000000E+00 0. -1.
     999901    1    3    3    0    0 -0.13162642121E+00 -0.39513335879E-02 -0.65819397945E-01  0.89222941049E+00  0.88000000000E+00 0.  1.
        -11    1    4    4    0    0  0.30361498503E-01  0.98958481536E-03  0.32851798405E-02  0.30559014988E-01  0.51100000000E-03 0.  1.
         11    1    4    4    0    0  0.87442044423E-01  0.28964588499E-02  0.43752655655E-01  0.97821554908E-01  0.51100000000E-03 0. -1.
</event>
<event>
 8    1  0.1099921E+005  0.1043930E+01  0.7957747E-01            NaN
         13   -1    0    0    0    0  0.00000000000E+00  0.00000000000E+00  0.74505805969E-08  0.10566000000E+00  0.10566000000E+00 0.  1.
     999900   -1    0    0    0    0 -0.00000000000E+00 -0.00000000000E+00 -0.74505805969E-08  0.93827000000E+00  0.93827000000E+00 0. -1.
     999902    2    1    2    0    0 -0.15735510975E-01  0.84254296271E-02 -0.15546543412E-01  0.10202595716E+01  0.10199849529E+01 0.  0.
     999903    2    3    3    0    0  0.12118751081E-01 -0.10146356514E+00 -0.78974448956E-01  0.13072342824E+00  0.20246775674E-01 0.  0.
         14    1    1    2    0    0  0.15735510975E-01 -0.84254296271E-02  0.15546543412E-01  0.23670428431E-01  0.00000000000E+00 0.  1.
     999901    1    3    3    0    0 -0.27854262055E-01  0.10988899476E+00  0.63427905543E-01  0.88953614333E+00  0.88000000000E+00 0. -1.
        -11    1    4    4    0    0 -0.55338577361E-02 -0.22962819971E-01 -0.15775728057E-01  0.28408614877E-01  0.51100000000E-03 0.  1.
         11    1    4    4    0    0  0.17652608817E-01 -0.78500745166E-01 -0.63198720898E-01  0.10231481336E+00  0.51100000000E-03 0. -1.
</event>
<event>
 8    1  0.1099921E+005  0.1043930E+01  0.7957747E-01            NaN
         13   -1    0    0    0    0  0.00000000000E+00  0.00000000000E+00  0.74505805969E-08  0.10566000000E+00  0.10566000000E+00 0. -1.
     999900   -1    0    0    0    0 -0.00000000000E+00 -0.00000000000E+00 -0.74505805969E-08  0.93827000000E+00  0.93827000000E+00 0.  1.
     999902    2    1    2    0    0 -0.19006071609E-01  0.10226766061E-01  0.14367803911E-01  0.10180021908E+01  0.10176719556E+01 0.  0.
     999903    2    3    3    0    0 -0.78347891306E-01  0.84698239821E-01  0.59977918385E-01  0.13169088287E+00  0.20807547606E-01 0.  0.
         14    1    1    2    0    0  0.19006071609E-01 -0.10226766061E-01 -0.14367803911E-01  0.25927809227E-01  0.00000000000E+00 0.  1.
     999901    1    3    3    0    0  0.59341819697E-01 -0.74471473760E-01 -0.45610114474E-01  0.88631130790E+00  0.88000000000E+00 0. -1.
        -11    1    4    4    0    0 -0.69667982143E-01  0.74080791087E-01  0.44499370974E-01  0.11100471378E+00  0.51100000000E-03 0. -1.
         11    1    4    4    0    0 -0.86799091621E-02  0.10617448735E-01  0.15478547411E-01  0.20686169090E-01  0.51100000000E-03 0.  1.
</event>
<event>
 8    1  0.1237716E+005  0.1043930E+01  0.7957747E-01            NaN
         13   -1    0    0    0    0  0.00000000000E+00  0.00000000000E+00  0.74505805969E-08  0.10566000000E+00  0.10566000000E+00 0.  1.
     999900   -1    0    0    0    0 -0.00000000000E+00 -0.00000000000E+00 -0.74505805969E-08  0.93827000000E+00  0.93827000000E+00 0.  1.
     999902    2    1    2    0    0  0.15496837946E-01  0.12204974930E-01  0.14202167151E-01  0.10196233147E+01  0.10193335513E+01 0.  0.
     999903    2    3    3    0    0  0.87353525111E-01  0.90476145302E-01  0.37649525436E-01  0.13292182139E+00  0.20836329266E-01 0.  0.
         14    1    1    2    0    0 -0.15496837946E-01 -0.12204974930E-01 -0.14202167151E-01  0.24306685318E-01  0.00000000000E+00 0. -1.
     999901    1    3    3    0    0 -0.71856687165E-01 -0.78271170372E-01 -0.23447358285E-01  0.88670149330E+00  0.88000000000E+00 0.  1.
        -11    1    4    4    0    0  0.48263275053E-01  0.51673936394E-01  0.31800503116E-01  0.77531106923E-01  0.51100000000E-03 0. -1.
         11    1    4    4    0    0  0.39090250058E-01  0.38802208907E-01  0.58490223201E-02  0.55390714464E-01  0.51100000000E-03 0.  1.
</event>
<event>
 8    1  0.1099921E+005  0.1043930E+01  0.7957747E-01            NaN
         13   -1    0    0    0    0  0.00000000000E+00  0.00000000000E+00  0.74505805969E-08  0.10566000000E+00  0.10566000000E+00 0.  1.
     999900   -1    0    0    0    0 -0.00000000000E+00 -0.00000000000E+00 -0.74505805969E-08  0.93827000000E+00  0.93827000000E+00 0. -1.
     999902    2    1    2    0    0  0.18594179569E-01  0.44085118209E-02 -0.92333756434E-02  0.10227065762E+01  0.10224863360E+01 0.  0.
     999903    2    3    3    0    0  0.41609292943E-01 -0.11595175592E+00  0.44636392276E-01  0.13258397716E+00  0.20247481916E-01 0.  0.
         14    1    1    2    0    0 -0.18594179569E-01 -0.44085118209E-02  0.92333756434E-02  0.21223423760E-01  0.00000000000E+00 0.  1.
     999901    1    3    3    0    0 -0.23015113374E-01  0.12036026774E+00 -0.53869767920E-01  0.89012259908E+00  0.88000000000E+00 0.  1.
        -11    1    4    4    0    0  0.26428787282E-01 -0.57085390157E-01  0.31635038448E-01  0.70414908543E-01  0.51100000000E-03 0. -1.
         11    1    4    4    0    0  0.15180505662E-01 -0.58866365765E-01  0.13001353829E-01  0.62169068618E-01  0.51100000000E-03 0.  1.
</event>
<event>
 8    1  0.1099921E+005  0.1043930E+01  0.7957747E-01            NaN
         13   -1    0    0    0    0  0.00000000000E+00  0.00000000000E+00  0.74505805969E-08  0.10566000000E+00  0.10566000000E+00 0.  1.
     999900   -1    0    0    0    0 -0.00000000000E+00 -0.00000000000E+00 -0.74505805969E-08  0.93827000000E+00  0.93827000000E+00 0.  1.
     999902    2    1    2    0    0  0.12472310047E-01 -0.45165073261E-02 -0.20726092928E-01  0.10193225157E+01  0.10190254475E+01 0.  0.
     999903    2    3    3    0    0 -0.97155960425E-01  0.64660940419E-01  0.46591274101E-01  0.12728243538E+00  0.20242373181E-01 0.  0.
         14    1    1    2    0    0 -0.12472310047E-01  0.45165073261E-02  0.20726092928E-01  0.24607484317E-01  0.00000000000E+00 0.  1.
     999901    1    3    3    0    0  0.10962827047E+00 -0.69177447745E-01 -0.67317367029E-01  0.89204008030E+00  0.88000000000E+00 0. -1.
        -11    1    4    4    0    0 -0.63340756984E-01  0.43901630773E-01  0.20357383861E-01  0.79712539029E-01  0.51100000000E-03 0. -1.
         11    1    4    4    0    0 -0.33815203441E-01  0.20759309645E-01  0.26233890239E-01  0.47569896351E-01  0.51100000000E-03 0.  1.
</event>
<event>
 8    1  0.1099921E+005  0.1043930E+01  0.7957747E-01            NaN
         13   -1    0    0    0    0  0.00000000000E+00  0.00000000000E+00  0.74505805969E-08  0.10566000000E+00  0.10566000000E+00 0.  1.
     999900   -1    0    0    0    0 -0.00000000000E+00 -0.00000000000E+00 -0.74505805969E-08  0.93827000000E+00  0.93827000000E+00 0. -1.
     999902    2    1    2    0    0  0.20478960070E-01 -0.75539586041E-02 -0.11619889640E-01  0.10192020415E+01  0.10189020215E+01 0.  0.
     999903    2    3    3    0    0 -0.49647647652E-02  0.12558920808E+00  0.17045078055E-01  0.12836189516E+00  0.19721647179E-01 0.  0.
         14    1    1    2    0    0 -0.20478960070E-01  0.75539586041E-02  0.11619889640E-01  0.24727958496E-01  0.00000000000E+00 0.  1.
     999901    1    3    3    0    0  0.25443724835E-01 -0.13314316668E+00 -0.28664967695E-01  0.89084014635E+00  0.88000000000E+00 0. -1.
        -11    1    4    4    0    0  0.75169751219E-02  0.48992458072E-01  0.83645589374E-02  0.50269203595E-01  0.51100000000E-03 0. -1.
         11    1    4    4    0    0 -0.12481739887E-01  0.76596750008E-01  0.86805191175E-02  0.78092691563E-01  0.51100000000E-03 0.  1.
</event>
<event>
 8    1  0.1099921E+005  0.1043930E+01  0.7957747E-01            NaN
         13   -1    0    0    0    0  0.00000000000E+00  0.00000000000E+00  0.74505805969E-08  0.10566000000E+00  0.10566000000E+00 0. -1.
     999900   -1    0    0    0    0 -0.00000000000E+00 -0.00000000000E+00 -0.74505805969E-08  0.93827000000E+00  0.93827000000E+00 0. -1.
     999902    2    1    2    0    0  0.11541773745E-01 -0.15628728017E-01 -0.16255016195E-01  0.10185982959E+01  0.10182832578E+01 0.  0.
     999903    2    3    3    0    0  0.12057357371E+00  0.21594740764E-01  0.27547547500E-01  0.13000829787E+00  0.33748639017E-01 0.  0.
         14    1    1    2    0    0 -0.11541773745E-01  0.15628728017E-01  0.16255016195E-01  0.25331704090E-01  0.00000000000E+00 0. -1.
     999901    1    3    3    0    0 -0.10903179997E+00 -0.37223468781E-01 -0.43802563696E-01  0.88858999804E+00  0.88000000000E+00 0. -1.
        -11    1    4    4    0    0  0.90845775669E-01  0.97506452517E-03  0.18625194642E-01  0.92741925277E-01  0.51100000000E-03 0.  1.
         11    1    4    4    0    0  0.29727798042E-01  0.20619676239E-01  0.89223528584E-02  0.37266372592E-01  0.51100000000E-03 0. -1.
</event>
<event>
 8    1  0.1099921E+005  0.1043930E+01  0.7957747E-01            NaN
         13   -1    0    0    0    0  0.00000000000E+00  0.00000000000E+00  0.74505805969E-08  0.10566000000E+00  0.10566000000E+00 0.  1.
     999900   -1    0    0    0    0 -0.00000000000E+00 -0.00000000000E+00 -0.74505805969E-08  0.93827000000E+00  0.93827000000E+00 0.  1.
     999902    2    1    2    0    0 -0.10176509650E-01  0.20729761979E-01 -0.23633459768E-02  0.10207164310E+01  0.10204524304E+01 0.  0.
     999903    2    3    3    0    0 -0.60551098115E-01  0.81358044208E-01  0.84238234697E-01  0.13295901960E+00  0.17217835726E-01 0.  0.
         14    1    1    2    0    0  0.10176509650E-01 -0.20729761979E-01  0.23633459768E-02  0.23213568975E-01  0.00000000000E+00 0.  1.
     999901    1    3    3    0    0  0.50374588465E-01 -0.60628282229E-01 -0.86601580674E-01  0.88775741143E+00  0.88000000000E+00 0.  1.
        -11    1    4    4    0    0 -0.16727235156E-01  0.17234526960E-01  0.11851095827E-01  0.26786916747E-01  0.51100000000E-03 0. -1.
         11    1    4    4    0    0 -0.43823862959E-01  0.64123517248E-01  0.72387138870E-01  0.10617210285E+00  0.51100000000E-03 0.  1.
</event>
<event>
 8    1  0.1099921E+005  0.1043930E+01  0.7957747E-01            NaN
         13   -1    0    0    0    0  0.00000000000E+00  0.00000000000E+00  0.74505805969E-08  0.10566000000E+00  0.10566000000E+00 0. -1.
     999900   -1    0    0    0    0 -0.00000000000E+00 -0.00000000000E+00 -0.74505805969E-08  0.93827000000E+00  0.93827000000E+00 0. -1.
     999902    2    1    2    0    0  0.14978528834E-01 -0.28112878591E-03  0.18618673396E-01  0.10200325031E+01  0.10197525273E+01 0.  0.
     999903    2    3    3    0    0 -0.95443022886E-02  0.12550004712E+00 -0.23969460717E-01  0.12973141771E+00  0.20355592910E-01 0.  0.
         14    1    1    2    0    0 -0.14978528834E-01  0.28112878591E-03 -0.18618673396E-01  0.23897496908E-01  0.00000000000E+00 0.  1.
     999901    1    3    3    0    0  0.24522831122E-01 -0.12578117590E+00  0.42588134114E-01  0.89030108538E+00  0.88000000000E+00 0.  1.
        -11    1    4    4    0    0 -0.13819676060E-01  0.58708742750E-01 -0.72901682276E-02  0.60754486217E-01  0.51100000000E-03 0. -1.
         11    1    4    4    0    0  0.42753737718E-02  0.66791304366E-01 -0.16679292490E-01  0.68976931497E-01  0.51100000000E-03 0.  1.
</event>
<event>
 8    1  0.1099921E+005  0.1043930E+01  0.7957747E-01            NaN
         13   -1    0    0    0    0  0.00000000000E+00  0.00000000000E+00  0.74505805969E-08  0.10566000000E+00  0.10566000000E+00 0.  1.
     999900   -1    0    0    0    0 -0.00000000000E+00 -0.00000000000E+00 -0.74505805969E-08  0.93827000000E+00  0.93827000000E+00 0. -1.
     999902    2    1    2    0    0 -0.10531153768E-02  0.19500372167E-01  0.15657063033E-01  0.10188996746E+01  0.10185921803E+01 0.  0.
     999903    2    3    3    0    0  0.67220724318E-01  0.31759434460E-01 -0.10257829831E+00  0.12828685049E+00  0.20197060951E-01 0.  0.
         14    1    1    2    0    0  0.10531153768E-02 -0.19500372167E-01 -0.15657063033E-01  0.25030325397E-01  0.00000000000E+00 0. -1.
     999901    1    3    3    0    0 -0.68273839695E-01 -0.12259062293E-01  0.11823536134E+00  0.89061282411E+00  0.88000000000E+00 0.  1.
        -11    1    4    4    0    0  0.67120076712E-01  0.27233085267E-01 -0.97521000474E-01  0.12147984312E+00  0.51100000000E-03 0.  1.
         11    1    4    4    0    0  0.10064760530E-03  0.45263491933E-02 -0.50572978342E-02  0.68070073706E-02  0.51100000000E-03 0. -1.
</event>
<event>
 8    1  0.1099921E+005  0.1043930E+01  0.7957747E-01            NaN
         13   -1    0    0    0    0  0.00000000000E+00  0.00000000000E+00  0.74505805969E-08  0.10566000000E+00  0.10566000000E+00 0.  1.
     999900   -1    0    0    0    0 -0.00000000000E+00 -0.00000000000E+00 -0.74505805969E-08  0.93827000000E+00  0.93827000000E+00 0. -1.
     999902    2    1    2    0    0 -0.11634535869E-01  0.81515449308E-02 -0.21205153771E-01  0.10184061160E+01  0.10180862185E+01 0.  0.
     999903    2    3    3    0    0 -0.51509793011E-01  0.79434560473E-01  0.84457124937E-01  0.12832981498E+00  0.19298375238E-01 0.  0.
         14    1    1    2    0    0  0.11634535869E-01 -0.81515449308E-02  0.21205153771E-01  0.25523884032E-01  0.00000000000E+00 0. -1.
     999901    1    3    3    0    0  0.39875257142E-01 -0.71283015542E-01 -0.10566227871E+00  0.89007630099E+00  0.88000000000E+00 0. -1.
        -11    1    4    4    0    0 -0.37558708170E-01  0.64952824380E-01  0.56679033558E-01  0.94033504244E-01  0.51100000000E-03 0. -1.
         11    1    4    4    0    0 -0.13951084841E-01  0.14481736094E-01  0.27778091379E-01  0.34296310737E-01  0.51100000000E-03 0.  1.
</event>
<event>
 8    1  0.1099921E+005  0.1043930E+01  0.7957747E-01            NaN
         13   -1    0    0    0    0  0.00000000000E+00  0.00000000000E+00  0.74505805969E-08  0.10566000000E+00  0.10566000000E+00 0.  1.
     999900   -1    0    0    0    0 -0.00000000000E+00 -0.00000000000E+00 -0.74505805969E-08  0.93827000000E+00  0.93827000000E+00 0. -1.
     999902    2    1    2    0    0  0.78820965733E-02 -0.40890837314E-02  0.22804621921E-01  0.10194575904E+01  0.10191638140E+01 0.  0.
     999903    2    3    3    0    0 -0.59278613315E-01 -0.53148950499E-01  0.10322905578E+00  0.13188476460E+00  0.19964674814E-01 0.  0.
         14    1    1    2    0    0 -0.78820965733E-02  0.40890837314E-02 -0.22804621921E-01  0.24472409630E-01  0.00000000000E+00 0.  1.
     999901    1    3    3    0    0  0.67160709888E-01  0.49059866767E-01 -0.80424433863E-01  0.88757282577E+00  0.88000000000E+00 0. -1.
        -11    1    4    4    0    0 -0.21017306642E-01 -0.31620673571E-01  0.52533039668E-01  0.64819561502E-01  0.51100000000E-03 0.  1.
         11    1    4    4    0    0 -0.38261306673E-01 -0.21528276928E-01  0.50696016115E-01  0.67065203100E-01  0.51100000000E-03 0. -1.
</event>
<event>
 8    1  0.1099921E+005  0.1043930E+01  0.7957747E-01            NaN
         13   -1    0    0    0    0  0.00000000000E+00  0.00000000000E+00  0.74505805969E-08  0.10566000000E+00  0.10566000000E+00 0.  1.
     999900   -1    0    0    0    0 -0.00000000000E+00 -0.00000000000E+00 -0.74505805969E-08  0.93827000000E+00  0.93827000000E+00 0. -1.
     999902    2    1    2    0    0  0.55028196766E-03  0.92563934861E-02 -0.21669056805E-01  0.10203602810E+01  0.10200880214E+01 0.  0.
     999903    2    3    3    0    0 -0.10565495362E+00  0.56644485896E-01  0.46317005625E-01  0.13010903105E+00  0.20286151499E-01 0.  0.
         14    1    1    2    0    0 -0.55028196766E-03 -0.92563934861E-02  0.21669056805E-01  0.23569718993E-01  0.00000000000E+00 0.  1.
     999901    1    3    3    0    0  0.10620523559E+00 -0.47388092410E-01 -0.67986062429E-01  0.89025124996E+00  0.88000000000E+00 0. -1.
        -11    1    4    4    0    0 -0.99353863055E-01  0.48024910615E-01  0.45574951758E-01  0.11939396757E+00  0.51100000000E-03 0. -1.
         11    1    4    4    0    0 -0.63010905675E-02  0.86195752815E-02  0.74205386705E-03  0.10715063477E-01  0.51100000000E-03 0.  1.
</event>
<event>
 8    1  0.1325688E+005  0.1043930E+01  0.7957747E-01            NaN
         13   -1    0    0    0    0  0.00000000000E+00  0.00000000000E+00  0.74505805969E-08  0.10566000000E+00  0.10566000000E+00 0. -1.
     999900   -1    0    0    0    0 -0.00000000000E+00 -0.00000000000E+00 -0.74505805969E-08  0.93827000000E+00  0.93827000000E+00 0. -1.
     999902    2    1    2    0    0  0.19501649141E-01  0.11904664406E-01  0.28692347440E-02  0.10209024543E+01  0.10206427158E+01 0.  0.
     999903    2    3    3    0    0  0.52242849183E-01  0.45068715366E-01  0.11192582363E+00  0.13294683600E+00  0.19671472021E-01 0.  0.
         14    1    1    2    0    0 -0.19501649141E-01 -0.11904664406E-01 -0.28692347440E-02  0.23027545719E-01  0.00000000000E+00 0. -1.
     999901    1    3    3    0    0 -0.32741200042E-01 -0.33164050960E-01 -0.10905658889E+00  0.88795561828E+00  0.88000000000E+00 0. -1.
        -11    1    4    4    0    0  0.31099181092E-01  0.36275970536E-01  0.64423212404E-01  0.80210451441E-01  0.51100000000E-03 0.  1.
         11    1    4    4    0    0  0.21143668091E-01  0.87927448300E-02  0.47502611228E-01  0.52736384560E-01  0.51100000000E-03 0. -1.
</event>
<event>
 8    1  0.1099921E+005  0.1043930E+01  0.7957747E-01            NaN
         13   -1    0    0    0    0  0.00000000000E+00  0.00000000000E+00  0.74505805969E-08  0.10566000000E+00  0.10566000000E+00 0.  1.
     999900   -1    0    0    0    0 -0.00000000000E+00 -0.00000000000E+00 -0.74505805969E-08  0.93827000000E+00  0.93827000000E+00 0. -1.
     999902    2    1    2    0    0  0.20114341518E-01  0.75007390982E-02  0.80248240228E-02  0.10210117622E+01  0.10207545116E+01 0.  0.
     999903    2    3    3    0    0 -0.90043097245E-01 -0.40891665156E-02 -0.89829757706E-01  0.12868642560E+00  0.19139752370E-01 0.  0.
         14    1    1    2    0    0 -0.20114341518E-01 -0.75007390982E-02 -0.80248240228E-02  0.22918237767E-01  0.00000000000E+00 0.  1.
     999901    1    3    3    0    0  0.11015743876E+00  0.11589905614E-01  0.97854581729E-01  0.89232533663E+00  0.88000000000E+00 0.  1.
        -11    1    4    4    0    0 -0.52515717117E-01 -0.36983283175E-02 -0.39089385648E-01  0.65573007922E-01  0.51100000000E-03 0. -1.
         11    1    4    4    0    0 -0.37527380128E-01 -0.39083819816E-03 -0.50740372058E-01  0.63113417681E-01  0.51100000000E-03 0.  1.
</event>
<event>
 8    1  0.1099921E+005  0.1043930E+01  0.7957747E-01            NaN
         13   -1    0    0    0    0  0.00000000000E+00  0.00000000000E+00  0.74505805969E-08  0.10566000000E+00  0.10566000000E+00 0. -1.
     999900   -1    0    0    0    0 -0.00000000000E+00 -0.00000000000E+00 -0.74505805969E-08  0.93827000000E+00  0.93827000000E+00 0. -1.
     999902    2    1    2    0    0  0.13975865783E-01  0.13225414399E-01 -0.16677217613E-01  0.10184669680E+01  0.10181486134E+01 0.  0.
     999903    2    3    3    0    0 -0.11028951854E+00 -0.43317516539E-01 -0.43003120952E-01  0.12755056231E+00  0.19485697151E-01 0.  0.
         14    1    1    2    0    0 -0.13975865783E-01 -0.13225414399E-01  0.16677217613E-01  0.25463031982E-01  0.00000000000E+00 0. -1.
     999901    1    3    3    0    0  0.12426538433E+00  0.56542930937E-01  0.26325903339E-01  0.89091640571E+00  0.88000000000E+00 0. -1.
        -11    1    4    4    0    0 -0.33610514934E-01 -0.19095680194E-01 -0.21818150311E-01  0.44391491529E-01  0.51100000000E-03 0. -1.
         11    1    4    4    0    0 -0.76679003609E-01 -0.24221836344E-01 -0.21184970641E-01  0.83159070777E-01  0.51100000000E-03 0.  1.
</event>
<event>
 8    1  0.1099921E+005  0.1043930E+01  0.7957747E-01            NaN
         13   -1    0    0    0    0  0.00000000000E+00  0.00000000000E+00  0.74505805969E-08  0.10566000000E+00  0.10566000000E+00 0. -1.
     999900   -1    0    0    0    0 -0.00000000000E+00 -0.00000000000E+00 -0.74505805969E-08  0.93827000000E+00  0.93827000000E+00 0. -1.
     999902    2    1    2    0    0 -0.35287111910E-02 -0.16663443653E-01 -0.16884415259E-01  0.10199465550E+01  0.10196645377E+01 0.  0.
     999903    2    3    3    0    0  0.11906639844E+00 -0.49776593507E-01  0.23107610427E-02  0.13062406206E+00  0.20069615705E-01 0.  0.
         14    1    1    2    0    0  0.35287111910E-02  0.16663443653E-01  0.16884415259E-01  0.23983445034E-01  0.00000000000E+00 0.  1.
     999901    1    3    3    0    0 -0.12259510963E+00  0.33113149854E-01 -0.19195176302E-01  0.88932249291E+00  0.88000000000E+00 0. -1.
        -11    1    4    4    0    0  0.66176104886E-01 -0.22302328580E-01  0.99257844762E-02  0.70536891315E-01  0.51100000000E-03 0.  1.
         11    1    4    4    0    0  0.52890293550E-01 -0.27474264927E-01 -0.76150234334E-02  0.60087170744E-01  0.51100000000E-03 0. -1.
</event>
<event>
 8    1  0.1099921E+005  0.1043930E+01  0.7957747E-01            NaN
         13   -1    0    0    0    0  0.00000000000E+00  0.00000000000E+00  0.74505805969E-08  0.10566000000E+00  0.10566000000E+00 0. -1.
     999900   -1    0    0    0    0 -0.00000000000E+00 -0.00000000000E+00 -0.74505805969E-08  0.93827000000E+00  0.93827000000E+00 0.  1.
     999902    2    1    2    0    0 -0.66347370498E-02  0.69128947435E-02  0.22172196895E-01  0.10197760321E+01  0.10194899418E+01 0.  0.
     999903    2    3    3    0    0  0.95745471672E-01  0.69078346073E-01 -0.47447583898E-01  0.12893757069E+00  0.20847318188E-01 0.  0.
         14    1    1    2    0    0  0.66347370498E-02 -0.69128947435E-02 -0.22172196895E-01  0.24153967886E-01  0.00000000000E+00 0. -1.
     999901    1    3    3    0    0 -0.10238020872E+00 -0.62165451329E-01  0.69619780793E-01  0.89083846143E+00  0.88000000000E+00 0. -1.
        -11    1    4    4    0    0  0.50881563892E-01  0.43338096763E-01 -0.36164667301E-01  0.75995187065E-01  0.51100000000E-03 0.  1.
         11    1    4    4    0    0  0.44863907780E-01  0.25740249310E-01 -0.11282916597E-01  0.52942383624E-01  0.51100000000E-03 0. -1.
</event>
<event>
 8    1  0.1099921E+005  0.1043930E+01  0.7957747E-01            NaN
         13   -1    0    0    0    0  0.00000000000E+00  0.00000000000E+00  0.74505805969E-08  0.10566000000E+00  0.10566000000E+00 0.  1.
     999900   -1    0    0    0    0 -0.00000000000E+00 -0.00000000000E+00 -0.74505805969E-08  0.93827000000E+00  0.93827000000E+00 0.  1.
     999902    2    1    2    0    0  0.10872438548E-02 -0.22943854318E-01  0.61003928198E-02  0.10201641139E+01  0.10198872496E+01 0.  0.
     999903    2    3    3    0    0 -0.15909841377E-01  0.11420667734E+00  0.52430740251E-01  0.12817438842E+00  0.19580682396E-01 0.  0.
         14    1    1    2    0    0 -0.10872438548E-02  0.22943854318E-01 -0.61003928198E-02  0.23765886113E-01  0.00000000000E+00 0.  1.
     999901    1    3    3    0    0  0.16997085232E-01 -0.13715053166E+00 -0.46330347431E-01  0.89198972546E+00  0.88000000000E+00 0. -1.
        -11    1    4    4    0    0 -0.17763817247E-02  0.78907938148E-01  0.34880287080E-01  0.86293185029E-01  0.51100000000E-03 0.  1.
         11    1    4    4    0    0 -0.14133459652E-01  0.35298739191E-01  0.17550453171E-01  0.41881203394E-01  0.51100000000E-03 0. -1.
</event>
<event>
 8    1  0.1099921E+005  0.1043930E+01  0.7957747E-01            NaN
         13   -1    0    0    0    0  0.00000000000E+00  0.00000000000E+00  0.74505805969E-08  0.10566000000E+00  0.10566000000E+00 0.  1.
     999900   -1    0    0    0    0 -0.00000000000E+00 -0.00000000000E+00 -0.74505805969E-08  0.93827000000E+00  0.93827000000E+00 0.  1.
     999902    2    1    2    0    0 -0.21181725469E-01 -0.15168605436E-02  0.10273910833E-01  0.10203393323E+01  0.10200665828E+01 0.  0.
     999903    2    3    3    0    0 -0.41282838836E-01 -0.64704584390E-01 -0.10358907900E+00  0.13052950785E+00  0.20403409203E-01 0.  0.
         14    1    1    2    0    0  0.21181725469E-01  0.15168605436E-02 -0.10273910833E-01  0.23590667722E-01  0.00000000000E+00 0. -1.
     999901    1    3    3    0    0  0.20101113367E-01  0.63187723846E-01  0.11386298983E+00  0.88980982443E+00  0.88000000000E+00 0. -1.
        -11    1    4    4    0    0 -0.12065490174E-01 -0.35217488163E-01 -0.57496221457E-01  0.68497621335E-01  0.51100000000E-03 0. -1.
         11    1    4    4    0    0 -0.29217348662E-01 -0.29487096227E-01 -0.46092857542E-01  0.62031886511E-01  0.51100000000E-03 0.  1.
</event>
<event>
 7    1  0.1099921E+005  0.1043930E+01  0.7957747E-01            NaN
         13   -1    0    0    0    0  0.00000000000E+00  0.00000000000E+00  0.74505805969E-08  0.10566000000E+00  0.10566000000E+00 0.  1.
     999900   -1    0    0    0    0 -0.00000000000E+00 -0.00000000000E+00 -0.74505805969E-08  0.93827000000E+00  0.93827000000E+00 0.  1.
     999903    2    1    2    0    0  0.50935325353E-02 -0.63298157366E-01 -0.93147206805E-01  0.11448044854E+00  0.19919090434E-01 0.  0.
         14    1    1    2    0    0  0.16023199816E-01  0.90985092468E-02  0.42213294538E-01  0.46059613965E-01  0.00000000000E+00 0.  1.
     999901    1    1    2    0    0 -0.21116732351E-01  0.54199648119E-01  0.50933912267E-01  0.88338993749E+00  0.88000000000E+00 0. -1.
        -11    1    3    3    0    0 -0.12203192921E-03  0.30080417564E-03 -0.82587747162E-02  0.82809332660E-02  0.51100000000E-03 0. -1.
         11    1    3    3    0    0  0.52155644645E-02 -0.63598961541E-01 -0.84888432089E-01  0.10619951528E+00  0.51100000000E-03 0.  1.
</event>
<event>
 8    1  0.1099921E+005  0.1043930E+01  0.7957747E-01            NaN
         13   -1    0    0    0    0  0.00000000000E+00  0.00000000000E+00  0.74505805969E-08  0.10566000000E+00  0.10566000000E+00 0.  1.
     999900   -1    0    0    0    0 -0.00000000000E+00 -0.00000000000E+00 -0.74505805969E-08  0.93827000000E+00  0.93827000000E+00 0. -1.
     999902    2    1    2    0    0  0.18536186023E-01  0.14840192493E-01  0.69547205201E-03  0.10201748914E+01  0.10198982811E+01 0.  0.
     999903    2    3    3    0    0  0.35865390364E-01 -0.61016060389E-01  0.10752708956E+00  0.13030553750E+00  0.20203273590E-01 0.  0.
         14    1    1    2    0    0 -0.18536186023E-01 -0.14840192493E-01 -0.69547205201E-03  0.23755108648E-01  0.00000000000E+00 0.  1.
     999901    1    3    3    0    0 -0.17329204341E-01  0.75856252882E-01 -0.10683161750E+00  0.88986935385E+00  0.88000000000E+00 0. -1.
        -11    1    4    4    0    0  0.33306871862E-02 -0.53711467610E-02  0.23852718074E-01  0.24681085373E-01  0.51100000000E-03 0.  1.
         11    1    4    4    0    0  0.32534703178E-01 -0.55644913628E-01  0.83674371482E-01  0.10562445213E+00  0.51100000000E-03 0. -1.
</event>
<event>
 8    1  0.1099921E+005  0.1043930E+01  0.7957747E-01            NaN
         13   -1    0    0    0    0  0.00000000000E+00  0.00000000000E+00  0.74505805969E-08  0.10566000000E+00  0.10566000000E+00 0.  1.
     999900   -1    0    0    0    0 -0.00000000000E+00 -0.00000000000E+00 -0.74505805969E-08  0.93827000000E+00  0.93827000000E+00 0.  1.
     999902    2    1    2    0    0 -0.44877335980E-02 -0.11137269350E-02  0.25470221070E-01  0.10180434726E+01  0.10177143016E+01 0.  0.
     999903    2    3    3    0    0  0.11508800376E+00  0.47007345241E-01 -0.21842509816E-01  0.12739624216E+00  0.17255960247E-01 0.  0.
         14    1    1    2    0    0  0.44877335980E-02  0.11137269350E-02 -0.25470221070E-01  0.25886527420E-01  0.00000000000E+00 0. -1.
     999901    1    3    3    0    0 -0.11957573736E+00 -0.48121072176E-01  0.47312730886E-01  0.89064723042E+00  0.88000000000E+00 0. -1.
        -11    1    4    4    0    0  0.73719251809E-01  0.32982256606E-01 -0.22022058812E-01  0.83711346504E-01  0.51100000000E-03 0. -1.
         11    1    4    4    0    0  0.41368751955E-01  0.14025088635E-01  0.17954899627E-03  0.43684895655E-01  0.51100000000E-03 0.  1.
</event>
<event>
 8    1  0.1099921E+005  0.1043930E+01  0.7957747E-01            NaN
         13   -1    0    0    0    0  0.00000000000E+00  0.00000000000E+00  0.74505805969E-08  0.10566000000E+00  0.10566000000E+00 0.  1.
     999900   -1    0    0    0    0 -0.00000000000E+00 -0.00000000000E+00 -0.74505805969E-08  0.93827000000E+00  0.93827000000E+00 0. -1.
     999902    2    1    2    0    0  0.14525030303E-01  0.23203779750E-01 -0.16482524987E-01  0.10119758840E+01  0.10114712671E+01 0.  0.
     999903    2    3    3    0    0  0.56261692988E-01 -0.81605299488E-01  0.66646629520E-01  0.12088815069E+00  0.18637831134E-01 0.  0.
         14    1    1    2    0    0 -0.14525030303E-01 -0.23203779750E-01  0.16482524987E-01  0.31954116010E-01  0.00000000000E+00 0.  1.
     999901    1    3    3    0    0 -0.41736662685E-01  0.10480907924E+00 -0.83129154507E-01  0.89108773330E+00  0.88000000000E+00 0. -1.
        -11    1    4    4    0    0  0.23850358693E-01 -0.50685189575E-01  0.38744295601E-01  0.68111743588E-01  0.51100000000E-03 0.  1.
         11    1    4    4    0    0  0.32411334295E-01 -0.30920109913E-01  0.27902333919E-01  0.52776407105E-01  0.51100000000E-03 0. -1.
</event>
<event>
 8    1  0.1099921E+005  0.1043930E+01  0.7957747E-01            NaN
         13   -1    0    0    0    0  0.00000000000E+00  0.00000000000E+00  0.74505805969E-08  0.10566000000E+00  0.10566000000E+00 0.  1.
     999900   -1    0    0    0    0 -0.00000000000E+00 -0.00000000000E+00 -0.74505805969E-08  0.93827000000E+00  0.93827000000E+00 0. -1.
     999902    2    1    2    0    0 -0.99558574482E-02 -0.12053450546E-02  0.22014682816E-01  0.10197387162E+01  0.10194517306E+01 0.  0.
     999903    2    3    3    0    0 -0.79586216890E-01 -0.10160935471E+00 -0.74641081290E-02  0.13080770015E+00  0.19912674963E-01 0.  0.
         14    1    1    2    0    0  0.99558574482E-02  0.12053450546E-02 -0.22014682816E-01  0.24191283838E-01  0.00000000000E+00 0. -1.
     999901    1    3    3    0    0  0.69630359442E-01  0.10040400966E+00  0.29478790945E-01  0.88893101601E+00  0.88000000000E+00 0.  1.
        -11    1    4    4    0    0 -0.29637377070E-01 -0.28860069402E-01 -0.98533033951E-02  0.42527948861E-01  0.51100000000E-03 0.  1.
         11    1    4    4    0    0 -0.49948839820E-01 -0.72749285312E-01  0.23891952661E-02  0.88279751290E-01  0.51100000000E-03 0. -1.
</event>
<event>
 8    1  0.1099921E+005  0.1043930E+01  0.7957747E-01            NaN
         13   -1    0    0    0    0  0.00000000000E+00  0.00000000000E+00  0.74505805969E-08  0.10566000000E+00  0.10566000000E+00 0.  1.
     999900   -1    0    0    0    0 -0.00000000000E+00 -0.00000000000E+00 -0.74505805969E-08  0.93827000000E+00  0.93827000000E+00 0. -1.
     999902    2    1    2    0    0  0.18751062915E-01  0.21572299644E-02 -0.94542978758E-02  0.10228198188E+01  0.10226019470E+01 0.  0.
     999903    2    3    3    0    0 -0.81466196168E-01 -0.89636199464E-01  0.45205979685E-01  0.13071148534E+00  0.19248959139E-01 0.  0.
         14    1    1    2    0    0 -0.18751062915E-01 -0.21572299644E-02  0.94542978758E-02  0.21110181190E-01  0.00000000000E+00 0.  1.
     999901    1    3    3    0    0  0.10021725908E+00  0.91793429428E-01 -0.54660277561E-01  0.89210833347E+00  0.88000000000E+00 0. -1.
        -11    1    4    4    0    0 -0.54609717840E-01 -0.61708627851E-01  0.40049474206E-01  0.91620944871E-01  0.51100000000E-03 0.  1.
         11    1    4    4    0    0 -0.26856478328E-01 -0.27927571613E-01  0.51565054788E-02  0.39090540468E-01  0.51100000000E-03 0. -1.
</event>
<event>
 8    1  0.1099921E+005  0.1043930E+01  0.7957747E-01            NaN
         13   -1    0    0    0    0  0.00000000000E+00  0.00000000000E+00  0.74505805969E-08  0.10566000000E+00  0.10566000000E+00 0. -1.
     999900   -1    0    0    0    0 -0.00000000000E+00 -0.00000000000E+00 -0.74505805969E-08  0.93827000000E+00  0.93827000000E+00 0.  1.
     999902    2    1    2    0    0  0.57251016885E-03 -0.22875720925E-01  0.22718804680E-02  0.10209346131E+01  0.10206756079E+01 0.  0.
     999903    2    3    3    0    0 -0.11955092425E+00  0.33076924300E-01  0.30607590102E-01  0.13056207850E+00  0.26890990335E-01 0.  0.
         14    1    1    2    0    0 -0.57251016885E-03  0.22875720925E-01 -0.22718804680E-02  0.22995386854E-01  0.00000000000E+00 0. -1.
     999901    1    3    3    0    0  0.12012343442E+00 -0.55952645225E-01 -0.28335709634E-01  0.89037253464E+00  0.88000000000E+00 0. -1.
        -11    1    4    4    0    0 -0.67516676100E-01  0.52645396732E-02  0.19982580794E-01  0.70610067170E-01  0.51100000000E-03 0. -1.
         11    1    4    4    0    0 -0.52034248150E-01  0.27812384627E-01  0.10625009308E-01  0.59952011334E-01  0.51100000000E-03 0.  1.
</event>
<event>
 8    1  0.1099921E+005  0.1043930E+01  0.7957747E-01            NaN
         13   -1    0    0    0    0  0.00000000000E+00  0.00000000000E+00  0.74505805969E-08  0.10566000000E+00  0.10566000000E+00 0.  1.
     999900   -1    0    0    0    0 -0.00000000000E+00 -0.00000000000E+00 -0.74505805969E-08  0.93827000000E+00  0.93827000000E+00 0.  1.
     999902    2    1    2    0    0  0.13317385639E-02  0.22615033922E-01  0.71085585529E-02  0.10201866874E+01  0.10199103550E+01 0.  0.
     999903    2    3    3    0    0 -0.37158451166E-01 -0.73657563468E-02 -0.12082210216E+00  0.12959890600E+00  0.27620485254E-01 0.  0.
         14    1    1    2    0    0 -0.13317385639E-02 -0.22615033922E-01 -0.71085585529E-02  0.23743312566E-01  0.00000000000E+00 0.  1.
     999901    1    3    3    0    0  0.38490189730E-01  0.29980790269E-01  0.12793066071E+00  0.89058778144E+00  0.88000000000E+00 0. -1.
        -11    1    4    4    0    0 -0.35577008854E-01  0.32574163333E-02 -0.85174775038E-01  0.92365240994E-01  0.51100000000E-03 0. -1.
         11    1    4    4    0    0 -0.15814423115E-02 -0.10623172680E-01 -0.35647327124E-01  0.37233665005E-01  0.51100000000E-03 0.  1.
</event>
<event>
 8    1  0.1099921E+005  0.1043930E+01  0.7957747E-01            NaN
         13   -1    0    0    0    0  0.00000000000E+00  0.00000000000E+00  0.74505805969E-08  0.10566000000E+00  0.10566000000E+00 0. -1.
     999900   -1    0    0    0    0 -0.00000000000E+00 -0.00000000000E+00 -0.74505805969E-08  0.93827000000E+00  0.93827000000E+00 0.  1.
     999902    2    1    2    0    0  0.43069495413E-02 -0.17740079321E-01  0.42469306358E-02  0.10251870907E+01  0.10250157434E+01 0.  0.
     999903    2    3    3    0    0 -0.78092298624E-01  0.10541519526E+00  0.50882735429E-02  0.13279840544E+00  0.19968862336E-01 0.  0.
         14    1    1    2    0    0 -0.43069495413E-02  0.17740079321E-01 -0.42469306358E-02  0.18742909285E-01  0.00000000000E+00 0.  1.
     999901    1    3    3    0    0  0.82399248166E-01 -0.12315527458E+00 -0.84134290707E-03  0.89238868528E+00  0.88000000000E+00 0. -1.
        -11    1    4    4    0    0 -0.44796412281E-01  0.56147238626E-01 -0.68169471778E-02  0.72152358578E-01  0.51100000000E-03 0.  1.
         11    1    4    4    0    0 -0.33295886344E-01  0.49267956633E-01  0.11905220721E-01  0.60646046859E-01  0.51100000000E-03 0. -1.
</event>
<event>
 8    1  0.1099921E+005  0.1043930E+01  0.7957747E-01            NaN
         13   -1    0    0    0    0  0.00000000000E+00  0.00000000000E+00  0.74505805969E-08  0.10566000000E+00  0.10566000000E+00 0. -1.
     999900   -1    0    0    0    0 -0.00000000000E+00 -0.00000000000E+00 -0.74505805969E-08  0.93827000000E+00  0.93827000000E+00 0.  1.
     999902    2    1    2    0    0 -0.14719155368E-01 -0.15684948091E-01 -0.93714653755E-02  0.10204673596E+01  0.10201975968E+01 0.  0.
     999903    2    3    3    0    0 -0.59537769384E-01  0.72812425611E-03  0.11454500607E+00  0.13050478229E+00  0.19122333452E-01 0.  0.
         14    1    1    2    0    0  0.14719155368E-01  0.15684948091E-01  0.93714653755E-02  0.23462640402E-01  0.00000000000E+00 0. -1.
     999901    1    3    3    0    0  0.44818614017E-01 -0.16413072347E-01 -0.12391647145E+00  0.88996257730E+00  0.88000000000E+00 0.  1.
        -11    1    4    4    0    0 -0.12668008733E-01 -0.73044916748E-02  0.33147516074E-01  0.36233313218E-01  0.51100000000E-03 0. -1.
         11    1    4    4    0    0 -0.46869760652E-01  0.80326159309E-02  0.81397490000E-01  0.94271469075E-01  0.51100000000E-03 0.  1.
</event>
<event>
 8    1  0.1099921E+005  0.1043930E+01  0.7957747E-01            NaN
         13   -1    0    0    0    0  0.00000000000E+00  0.00000000000E+00  0.74505805969E-08  0.10566000000E+00  0.10566000000E+00 0. -1.
     999900   -1    0    0    0    0 -0.00000000000E+00 -0.00000000000E+00 -0.74505805969E-08  0.93827000000E+00  0.93827000000E+00 0. -1.
     999902    2    1    2    0    0  0.14889288283E-01  0.10951405764E-01  0.31421401491E-01  0.10074755261E+01  0.10068157761E+01 0.  0.
     999903    2    3    3    0    0  0.75750589070E-01  0.62188347308E-01  0.71492315183E-01  0.12297849378E+00  0.20174650324E-01 0.  0.
         14    1    1    2    0    0 -0.14889288283E-01 -0.10951405764E-01 -0.31421401491E-01  0.36454473874E-01  0.00000000000E+00 0.  1.
     999901    1    3    3    0    0 -0.60861300787E-01 -0.51236941544E-01 -0.40070913692E-01  0.88449703235E+00  0.88000000000E+00 0.  1.
        -11    1    4    4    0    0  0.39710089094E-01  0.31503273487E-01  0.24589626255E-01  0.56340556055E-01  0.51100000000E-03 0.  1.
         11    1    4    4    0    0  0.36040499977E-01  0.30685073821E-01  0.46902688928E-01  0.66637937721E-01  0.51100000000E-03 0. -1.
</event>
<event>
 8    1  0.1099921E+005  0.1043930E+01  0.7957747E-01            NaN
         13   -1    0    0    0    0  0.00000000000E+00  0.00000000000E+00  0.74505805969E-08  0.10566000000E+00  0.10566000000E+00 0. -1.
     999900   -1    0    0    0    0 -0.00000000000E+00 -0.00000000000E+00 -0.74505805969E-08  0.93827000000E+00  0.93827000000E+00 0.  1.
     999902    2    1    2    0    0  0.81453949313E-02  0.19352158846E-01  0.11799075336E-01  0.10198453225E+01  0.10195608909E+01 0.  0.
     999903    2    3    3    0    0 -0.96879175223E-01 -0.68237189517E-02 -0.81519884373E-01  0.12831643058E+00  0.19684437434E-01 0.  0.
         14    1    1    2    0    0 -0.81453949313E-02 -0.19352158846E-01 -0.11799075336E-01  0.24084677482E-01  0.00000000000E+00 0.  1.
     999901    1    3    3    0    0  0.10502457015E+00  0.26175877798E-01  0.93318959709E-01  0.89152889194E+00  0.88000000000E+00 0. -1.
        -11    1    4    4    0    0 -0.19631100182E-01 -0.78128877359E-02 -0.24126943801E-01  0.32074785226E-01  0.51100000000E-03 0.  1.
         11    1    4    4    0    0 -0.77248075041E-01  0.98916878417E-03 -0.57392940571E-01  0.96241645356E-01  0.51100000000E-03 0. -1.
</event>
<event>
 8    1  0.1099921E+005  0.1043930E+01  0.7957747E-01            NaN
         13   -1    0    0    0    0  0.00000000000E+00  0.00000000000E+00  0.74505805969E-08  0.10566000000E+00  0.10566000000E+00 0.  1.
     999900   -1    0    0    0    0 -0.00000000000E+00 -0.00000000000E+00 -0.74505805969E-08  0.93827000000E+00  0.93827000000E+00 0.  1.
     999902    2    1    2    0    0 -0.39069134084E-02  0.13528249334E-01  0.18756992249E-01  0.10204757411E+01  0.10202061732E+01 0.  0.
     999903    2    3    3    0    0 -0.23571725485E-01  0.11655047649E+00 -0.52306887553E-01  0.13140298866E+00  0.19776125244E-01 0.  0.
         14    1    1    2    0    0  0.39069134084E-02 -0.13528249334E-01 -0.18756992249E-01  0.23454258902E-01  0.00000000000E+00 0. -1.
     999901    1    3    3    0    0  0.19664812077E-01 -0.10302222716E+00  0.71063879802E-01  0.88907275244E+00  0.88000000000E+00 0. -1.
        -11    1    4    4    0    0  0.28494944309E-03  0.11977666525E-01 -0.11580079111E-01  0.16670484240E-01  0.51100000000E-03 0.  1.
         11    1    4    4    0    0 -0.23856674929E-01  0.10457280997E+00 -0.40726808442E-01  0.11473250442E+00  0.51100000000E-03 0. -1.
</event>
<event>
 8    1  0.1099921E+005  0.1043930E+01  0.7957747E-01            NaN
         13   -1    0    0    0    0  0.00000000000E+00  0.00000000000E+00  0.74505805969E-08  0.10566000000E+00  0.10566000000E+00 0. -1.
     999900   -1    0    0    0    0 -0.00000000000E+00 -0.00000000000E+00 -0.74505805969E-08  0.93827000000E+00  0.93827000000E+00 0. -1.
     999902    2    1    2    0    0  0.12423805059E-01 -0.12538031232E-01 -0.15400866938E-01  0.10205048028E+01  0.10202359103E+01 0.  0.
     999903    2    3    3    0    0 -0.76795206625E-01  0.66309353804E-02 -0.10453518717E+00  0.13130718231E+00  0.19300199608E-01 0.  0.
         14    1    1    2    0    0 -0.12423805059E-01  0.12538031232E-01  0.15400866938E-01  0.23425197155E-01  0.00000000000E+00 0. -1.
     999901    1    3    3    0    0  0.89219011684E-01 -0.19168966613E-01  0.89134320228E-01  0.88919762054E+00  0.88000000000E+00 0.  1.
        -11    1    4    4    0    0 -0.64261812752E-01  0.16550669219E-02 -0.95299553672E-01  0.11495471228E+00  0.51100000000E-03 0. -1.
         11    1    4    4    0    0 -0.12533393873E-01  0.49758684584E-02 -0.92356334951E-02  0.16352470026E-01  0.51100000000E-03 0.  1.
</event>
<event>
 8    1  0.1099921E+005  0.1043930E+01  0.7957747E-01            NaN
         13   -1    0    0    0    0  0.00000000000E+00  0.00000000000E+00  0.74505805969E-08  0.10566000000E+00  0.10566000000E+00 0. -1.
     999900   -1    0    0    0    0 -0.00000000000E+00 -0.00000000000E+00 -0.74505805969E-08  0.93827000000E+00  0.93827000000E+00 0. -1.
     999902    2    1    2    0    0  0.22998281541E-01  0.15221738028E-02 -0.34388522847E-02  0.10206262734E+01  0.10203601944E+01 0.  0.
     999903    2    3    3    0    0  0.59174110967E-02  0.12843353304E+00 -0.16879709632E-01  0.13125632460E+00  0.20325107319E-01 0.  0.
         14    1    1    2    0    0 -0.22998281541E-01 -0.15221738028E-02  0.34388522847E-02  0.23303726568E-01  0.00000000000E+00 0.  1.
     999901    1    3    3    0    0  0.17080870444E-01 -0.12691135924E+00  0.13440857347E-01  0.88936994883E+00  0.88000000000E+00 0. -1.
        -11    1    4    4    0    0 -0.75938788925E-02  0.48768165263E-01 -0.59476657819E-02  0.49715558822E-01  0.51100000000E-03 0. -1.
         11    1    4    4    0    0  0.13511289989E-01  0.79665367776E-01 -0.10932043850E-01  0.81540765779E-01  0.51100000000E-03 0.  1.
</event>
<event>
 8    1  0.1099921E+005  0.1043930E+01  0.7957747E-01            NaN
         13   -1    0    0    0    0  0.00000000000E+00  0.00000000000E+00  0.74505805969E-08  0.10566000000E+00  0.10566000000E+00 0.  1.
     999900   -1    0    0    0    0 -0.00000000000E+00 -0.00000000000E+00 -0.74505805969E-08  0.93827000000E+00  0.93827000000E+00 0. -1.
     999902    2    1    2    0    0  0.16377657685E-01 -0.57514142995E-02 -0.16261412996E-01  0.10201447106E+01  0.10198673888E+01 0.  0.
     999903    2    3    3    0    0  0.77464693711E-01 -0.66391056311E-01  0.79355067845E-01  0.13079027984E+00  0.20007982884E-01 0.  0.
         14    1    1    2    0    0 -0.16377657685E-01  0.57514142995E-02  0.16261412996E-01  0.23785289368E-01  0.00000000000E+00 0. -1.
     999901    1    3    3    0    0 -0.61087036026E-01  0.60639642011E-01 -0.95616480841E-01  0.88935443079E+00  0.88000000000E+00 0. -1.
        -11    1    4    4    0    0  0.75811649986E-01 -0.59931595354E-01  0.77422802910E-01  0.12382953576E+00  0.51100000000E-03 0. -1.
         11    1    4    4    0    0  0.16530437259E-02 -0.64594609574E-02  0.19322649351E-02  0.69607440837E-02  0.51100000000E-03 0.  1.
</event>
<event>
 8    1  0.1099921E+005  0.1043930E+01  0.7957747E-01            NaN
         13   -1    0    0    0    0  0.00000000000E+00  0.00000000000E+00  0.74505805969E-08  0.10566000000E+00  0.10566000000E+00 0. -1.
     999900   -1    0    0    0    0 -0.00000000000E+00 -0.00000000000E+00 -0.74505805969E-08  0.93827000000E+00  0.93827000000E+00 0. -1.
     999902    2    1    2    0    0 -0.18766512341E-01  0.27945607219E-02 -0.14131468445E-01  0.10202722327E+01  0.10199979112E+01 0.  0.
     999903    2    3    3    0    0  0.80104293607E-02 -0.11977290316E+00  0.45013971626E-01  0.12940862307E+00  0.17624380116E-01 0.  0.
         14    1    1    2    0    0  0.18766512341E-01 -0.27945607219E-02  0.14131468445E-01  0.23657767339E-01  0.00000000000E+00 0.  1.
     999901    1    3    3    0    0 -0.26776941702E-01  0.12256746388E+00 -0.59145440071E-01  0.89086360959E+00  0.88000000000E+00 0. -1.
        -11    1    4    4    0    0  0.27596730932E-02 -0.64449502551E-01  0.33358795153E-01  0.72625233285E-01  0.51100000000E-03 0.  1.
         11    1    4    4    0    0  0.52507562675E-02 -0.55323400607E-01  0.11655176473E-01  0.56783389787E-01  0.51100000000E-03 0. -1.
</event>
<event>
 8    1  0.1099921E+005  0.1043930E+01  0.7957747E-01            NaN
         13   -1    0    0    0    0  0.00000000000E+00  0.00000000000E+00  0.74505805969E-08  0.10566000000E+00  0.10566000000E+00 0. -1.
     999900   -1    0    0    0    0 -0.00000000000E+00 -0.00000000000E+00 -0.74505805969E-08  0.93827000000E+00  0.93827000000E+00 0. -1.
     999902    2    1    2    0    0  0.81180172733E-02 -0.21699265054E-01  0.54195165855E-02  0.10201364826E+01  0.10198589666E+01 0.  0.
     999903    2    3    3    0    0 -0.89702994210E-01 -0.86994788561E-01 -0.34856018972E-01  0.13139885294E+00  0.20880519357E-01 0.  0.
         14    1    1    2    0    0 -0.81180172733E-02  0.21699265054E-01 -0.54195165855E-02  0.23793517360E-01  0.00000000000E+00 0.  1.
     999901    1    3    3    0    0  0.97821011484E-01  0.65295523506E-01  0.40275535558E-01  0.88873762970E+00  0.88000000000E+00 0.  1.
        -11    1    4    4    0    0 -0.47593819996E-01 -0.36731218162E-01 -0.84681052367E-02  0.60715105343E-01  0.51100000000E-03 0.  1.
         11    1    4    4    0    0 -0.42109174214E-01 -0.50263570399E-01 -0.26387913736E-01  0.70683747599E-01  0.51100000000E-03 0. -1.
</event>
<event>
 8    1  0.1099921E+005  0.1043930E+01  0.7957747E-01            NaN
         13   -1    0    0    0    0  0.00000000000E+00  0.00000000000E+00  0.74505805969E-08  0.10566000000E+00  0.10566000000E+00 0.  1.
     999900   -1    0    0    0    0 -0.00000000000E+00 -0.00000000000E+00 -0.74505805969E-08  0.93827000000E+00  0.93827000000E+00 0.  1.
     999902    2    1    2    0    0 -0.13290136069E-01 -0.16061978174E-01  0.69553533836E-02  0.10219529256E+01  0.10217165900E+01 0.  0.
     999903    2    3    3    0    0 -0.55330674604E-01  0.90454466134E-01 -0.73992514498E-01  0.13084927442E+00  0.20078506384E-01 0.  0.
         14    1    1    2    0    0  0.13290136069E-01  0.16061978174E-01 -0.69553533836E-02  0.21977074425E-01  0.00000000000E+00 0. -1.
     999901    1    3    3    0    0  0.42040538535E-01 -0.10651644431E+00  0.80947867881E-01  0.89110365116E+00  0.88000000000E+00 0. -1.
        -11    1    4    4    0    0 -0.29372779616E-01  0.45119902166E-01 -0.49550813998E-01  0.73171784472E-01  0.51100000000E-03 0. -1.
         11    1    4    4    0    0 -0.25957894988E-01  0.45334563968E-01 -0.24441700500E-01  0.57677489948E-01  0.51100000000E-03 0.  1.
</event>
<event>
 8    1  0.1099921E+005  0.1043930E+01  0.7957747E-01            NaN
         13   -1    0    0    0    0  0.00000000000E+00  0.00000000000E+00  0.74505805969E-08  0.10566000000E+00  0.10566000000E+00 0. -1.
     999900   -1    0    0    0    0 -0.00000000000E+00 -0.00000000000E+00 -0.74505805969E-08  0.93827000000E+00  0.93827000000E+00 0.  1.
     999902    2    1    2    0    0  0.50453187852E-02 -0.10509942541E-02  0.25905595182E-01  0.10175167516E+01  0.10171738691E+01 0.  0.
     999903    2    3    3    0    0  0.21961170107E-01  0.12419524220E+00  0.11731342147E-01  0.12837465088E+00  0.20872839350E-01 0.  0.
         14    1    1    2    0    0 -0.50453187852E-02  0.10509942541E-02 -0.25905595182E-01  0.26413248424E-01  0.00000000000E+00 0.  1.
     999901    1    3    3    0    0 -0.16915851322E-01 -0.12524623646E+00  0.14174253035E-01  0.88914210069E+00  0.88000000000E+00 0.  1.
        -11    1    4    4    0    0  0.31372707867E-02  0.76237589474E-01  0.61587882573E-02  0.76551971304E-01  0.51100000000E-03 0. -1.
         11    1    4    4    0    0  0.18823899321E-01  0.47957652730E-01  0.55725538899E-02  0.51822679580E-01  0.51100000000E-03 0.  1.
</event>
<event>
 8    1  0.1099921E+005  0.1043930E+01  0.7957747E-01            NaN
         13   -1    0    0    0    0  0.00000000000E+00  0.00000000000E+00  0.74505805969E-08  0.10566000000E+00  0.10566000000E+00 0.  1.
     999900   -1    0    0    0    0 -0.00000000000E+00 -0.00000000000E+00 -0.74505805969E-08  0.93827000000E+00  0.93827000000E+00 0. -1.
     999902    2    1    2    0    0  0.68278511377E-02  0.10069144011E-01 -0.20926229480E-01  0.10197243335E+01  0.10194370024E+01 0.  0.
     999903    2    3    3    0    0 -0.11371628419E+00 -0.56735529901E-01  0.37631650031E-02  0.12865569457E+00  0.19692960435E-01 0.  0.
         14    1    1    2    0    0 -0.68278511377E-02 -0.10069144011E-01  0.20926229480E-01  0.24205666537E-01  0.00000000000E+00 0.  1.
     999901    1    3    3    0    0  0.12054413533E+00  0.66804673911E-01 -0.24689394483E-01  0.89106863889E+00  0.88000000000E+00 0. -1.
        -11    1    4    4    0    0 -0.50454865566E-01 -0.35433276652E-01 -0.16937851392E-02  0.61679336756E-01  0.51100000000E-03 0. -1.
         11    1    4    4    0    0 -0.63261418627E-01 -0.21302253249E-01  0.54569501422E-02  0.66976357814E-01  0.51100000000E-03 0.  1.
</event>
<event>
 8    1  0.1099921E+005  0.1043930E+01  0.7957747E-01            NaN
         13   -1    0    0    0    0  0.00000000000E+00  0.00000000000E+00  0.74505805969E-08  0.10566000000E+00  0.10566000000E+00 0. -1.
     999900   -1    0    0    0    0 -0.00000000000E+00 -0.00000000000E+00 -0.74505805969E-08  0.93827000000E+00  0.93827000000E+00 0. -1.
     999902    2    1    2    0    0 -0.19895927804E-01  0.47495647740E-02  0.11923917026E-01  0.10202533004E+01  0.10199785345E+01 0.  0.
     999903    2    3    3    0    0 -0.26666531762E-01  0.12544519915E+00  0.23571985340E-01  0.13191273800E+00  0.19943170460E-01 0.  0.
         14    1    1    2    0    0  0.19895927804E-01 -0.47495647740E-02 -0.11923917026E-01  0.23676699643E-01  0.00000000000E+00 0.  1.
     999901    1    3    3    0    0  0.67706039581E-02 -0.12069563437E+00 -0.11648068314E-01  0.88834056236E+00  0.88000000000E+00 0. -1.
        -11    1    4    4    0    0 -0.28088395692E-01  0.90980636795E-01  0.19247843851E-01  0.97145122668E-01  0.51100000000E-03 0. -1.
         11    1    4    4    0    0  0.14218639299E-02  0.34464562353E-01  0.43241414890E-02  0.34767615332E-01  0.51100000000E-03 0.  1.
</event>
<event>
 8    1  0.1099921E+005  0.1043930E+01  0.7957747E-01            NaN
         13   -1    0    0    0    0  0.00000000000E+00  0.00000000000E+00  0.74505805969E-08  0.10566000000E+00  0.10566000000E+00 0.  1.
     999900   -1    0    0    0    0 -0.00000000000E+00 -0.00000000000E+00 -0.74505805969E-08  0.93827000000E+00  0.93827000000E+00 0.  1.
     999902    2    1    2    0    0 -0.47259811285E-02 -0.21472834342E-01 -0.48597330112E-02  0.10214125730E+01  0.10211643403E+01 0.  0.
     999903    2    3    3    0    0 -0.50025255080E-01 -0.10549579444E+00  0.62158139587E-01  0.13371708623E+00  0.19614689427E-01 0.  0.
         14    1    1    2    0    0  0.47259811285E-02  0.21472834342E-01  0.48597330112E-02  0.22517426968E-01  0.00000000000E+00 0.  1.
     999901    1    3    3    0    0  0.45299273952E-01  0.84022960101E-01 -0.67017872598E-01  0.88769548680E+00  0.88000000000E+00 0.  1.
        -11    1    4    4    0    0 -0.66003967033E-02 -0.34786158992E-01  0.18428640079E-01  0.39918892648E-01  0.51100000000E-03 0.  1.
         11    1    4    4    0    0 -0.43424858377E-01 -0.70709635451E-01  0.43729499508E-01  0.93798193580E-01  0.51100000000E-03 0. -1.
</event>
<event>
 8    1  0.1099921E+005  0.1043930E+01  0.7957747E-01            NaN
         13   -1    0    0    0    0  0.00000000000E+00  0.00000000000E+00  0.74505805969E-08  0.10566000000E+00  0.10566000000E+00 0. -1.
     999900   -1    0    0    0    0 -0.00000000000E+00 -0.00000000000E+00 -0.74505805969E-08  0.93827000000E+00  0.93827000000E+00 0.  1.
     999902    2    1    2    0    0 -0.95143952200E-02  0.21415647285E-01  0.30633458273E-02  0.10202965967E+01  0.10200228465E+01 0.  0.
     999903    2    3    3    0    0 -0.97586325173E-02 -0.29153609195E-01  0.12583194462E+00  0.13033623902E+00  0.14446213227E-01 0.  0.
         14    1    1    2    0    0  0.95143952200E-02 -0.21415647285E-01 -0.30633458273E-02  0.23633403324E-01  0.00000000000E+00 0. -1.
     999901    1    3    3    0    0  0.24423729735E-03  0.50569256480E-01 -0.12276859879E+00  0.88996035766E+00  0.88000000000E+00 0.  1.
        -11    1    4    4    0    0 -0.16739840701E-02 -0.89102045595E-02  0.16332663896E-01  0.18687188095E-01  0.51100000000E-03 0. -1.
         11    1    4    4    0    0 -0.80846484473E-02 -0.20243404636E-01  0.10949928072E+00  0.11164905092E+00  0.51100000000E-03 0.  1.
</event>
<event>
 8    1  0.1099921E+005  0.1043930E+01  0.7957747E-01            NaN
         13   -1    0    0    0    0  0.00000000000E+00  0.00000000000E+00  0.74505805969E-08  0.10566000000E+00  0.10566000000E+00 0. -1.
     999900   -1    0    0    0    0 -0.00000000000E+00 -0.00000000000E+00 -0.74505805969E-08  0.93827000000E+00  0.93827000000E+00 0. -1.
     999902    2    1    2    0    0 -0.52495542883E-04  0.20175279701E-01  0.14590164476E-01  0.10190318562E+01  0.10187276409E+01 0.  0.
     999903    2    3    3    0    0  0.41364048785E-01  0.32132886408E-01 -0.11562233126E+00  0.12840645312E+00  0.19395535499E-01 0.  0.
         14    1    1    2    0    0  0.52495542883E-04 -0.20175279701E-01 -0.14590164476E-01  0.24898143831E-01  0.00000000000E+00 0.  1.
     999901    1    3    3    0    0 -0.41416544328E-01 -0.11957606707E-01  0.13021249574E+00  0.89062540304E+00  0.88000000000E+00 0.  1.
        -11    1    4    4    0    0  0.30608137442E-01  0.15172612306E-01 -0.57207348031E-01  0.66633385263E-01  0.51100000000E-03 0.  1.
         11    1    4    4    0    0  0.10755911343E-01  0.16960274102E-01 -0.58414983229E-01  0.61773067862E-01  0.51100000000E-03 0. -1.
</event>
<event>
 8    1  0.1099921E+005  0.1043930E+01  0.7957747E-01            NaN
         13   -1    0    0    0    0  0.00000000000E+00  0.00000000000E+00  0.74505805969E-08  0.10566000000E+00  0.10566000000E+00 0. -1.
     999900   -1    0    0    0    0 -0.00000000000E+00 -0.00000000000E+00 -0.74505805969E-08  0.93827000000E+00  0.93827000000E+00 0. -1.
     999902    2    1    2    0    0 -0.11537558484E-01  0.22602519162E-01 -0.10161475616E-03  0.10185528557E+01  0.10182366721E+01 0.  0.
     999903    2    3    3    0    0 -0.11380716328E+00  0.58379555284E-01  0.23207251953E-01  0.13160168924E+00  0.20498418968E-01 0.  0.
         14    1    1    2    0    0  0.11537558484E-01 -0.22602519162E-01  0.10161475616E-03  0.25377144320E-01  0.00000000000E+00 0.  1.
     999901    1    3    3    0    0  0.10226960479E+00 -0.35777036122E-01 -0.23308866709E-01  0.88695116644E+00  0.88000000000E+00 0.  1.
        -11    1    4    4    0    0 -0.30254209848E-01  0.11024774078E-01  0.14015508916E-01  0.35122051025E-01  0.51100000000E-03 0.  1.
         11    1    4    4    0    0 -0.83552953428E-01  0.47354781206E-01  0.91917430367E-02  0.96479638218E-01  0.51100000000E-03 0. -1.
</event>
<event>
 8    1  0.1099921E+005  0.1043930E+01  0.7957747E-01            NaN
         13   -1    0    0    0    0  0.00000000000E+00  0.00000000000E+00  0.74505805969E-08  0.10566000000E+00  0.10566000000E+00 0. -1.
     999900   -1    0    0    0    0 -0.00000000000E+00 -0.00000000000E+00 -0.74505805969E-08  0.93827000000E+00  0.93827000000E+00 0.  1.
     999902    2    1    2    0    0  0.20260866431E-01 -0.58914541660E-02  0.49498552725E-02  0.10222571366E+01  0.10220273677E+01 0.  0.
     999903    2    3    3    0    0  0.69971679094E-01 -0.87553136968E-01  0.71559347966E-01  0.13457666489E+00  0.20701468165E-01 0.  0.
         14    1    1    2    0    0 -0.20260866431E-01  0.58914541660E-02 -0.49498552725E-02  0.21672863400E-01  0.00000000000E+00 0. -1.
     999901    1    3    3    0    0 -0.49710812663E-01  0.81661682802E-01 -0.66609492693E-01  0.88768047171E+00  0.88000000000E+00 0.  1.
        -11    1    4    4    0    0  0.83651250218E-02 -0.22298840621E-02  0.43120801884E-02  0.96851874588E-02  0.51100000000E-03 0.  1.
         11    1    4    4    0    0  0.61606554072E-01 -0.85323252906E-01  0.67247267777E-01  0.12489147743E+00  0.51100000000E-03 0. -1.
</event>
<event>
 8    1  0.1099921E+005  0.1043930E+01  0.7957747E-01            NaN
         13   -1    0    0    0    0  0.00000000000E+00  0.00000000000E+00  0.74505805969E-08  0.10566000000E+00  0.10566000000E+00 0. -1.
     999900   -1    0    0    0    0 -0.00000000000E+00 -0.00000000000E+00 -0.74505805969E-08  0.93827000000E+00  0.93827000000E+00 0. -1.
     999902    2    1    2    0    0 -0.17349268104E-01  0.12794400915E-01  0.14240769341E-01  0.10180941081E+01  0.10177662402E+01 0.  0.
     999903    2    3    3    0    0 -0.24158992594E-01 -0.58559160708E-01  0.11136210157E+00  0.12985413137E+00  0.21159998583E-01 0.  0.
         14    1    1    2    0    0  0.17349268104E-01 -0.12794400915E-01 -0.14240769341E-01  0.25835891894E-01  0.00000000000E+00 0. -1.
     999901    1    3    3    0    0  0.68097244897E-02  0.71353561624E-01 -0.97121332232E-01  0.88823997674E+00  0.88000000000E+00 0. -1.
        -11    1    4    4    0    0 -0.26728555628E-02 -0.17581474016E-01  0.49508765527E-01  0.52608282337E-01  0.51100000000E-03 0. -1.
         11    1    4    4    0    0 -0.21486137031E-01 -0.40977686693E-01  0.61853336046E-01  0.77245849029E-01  0.51100000000E-03 0.  1.
</event>
<event>
 8    1  0.1099921E+005  0.1043930E+01  0.7957747E-01            NaN
         13   -1    0    0    0    0  0.00000000000E+00  0.00000000000E+00  0.74505805969E-08  0.10566000000E+00  0.10566000000E+00 0. -1.
     999900   -1    0    0    0    0 -0.00000000000E+00 -0.00000000000E+00 -0.74505805969E-08  0.93827000000E+00  0.93827000000E+00 0. -1.
     999902    2    1    2    0    0 -0.19540565494E-01  0.11854206046E-01 -0.16003647300E-02  0.10210189313E+01  0.10207618435E+01 0.  0.
     999903    2    3    3    0    0 -0.75897600337E-01 -0.87564942468E-01 -0.59358749532E-01  0.13175164108E+00  0.20173470102E-01 0.  0.
         14    1    1    2    0    0  0.19540565494E-01 -0.11854206046E-01  0.16003647300E-02  0.22911068680E-01  0.00000000000E+00 0. -1.
     999901    1    3    3    0    0  0.56357034843E-01  0.99419148514E-01  0.57758384802E-01  0.88926729024E+00  0.88000000000E+00 0.  1.
        -11    1    4    4    0    0 -0.55628215121E-01 -0.51704714486E-01 -0.44085069148E-01  0.87815888428E-01  0.51100000000E-03 0. -1.
         11    1    4    4    0    0 -0.20269385216E-01 -0.35860227982E-01 -0.15273680384E-01  0.43935752656E-01  0.51100000000E-03 0.  1.
</event>
<event>
 8    1  0.1099921E+005  0.1043930E+01  0.7957747E-01            NaN
         13   -1    0    0    0    0  0.00000000000E+00  0.00000000000E+00  0.74505805969E-08  0.10566000000E+00  0.10566000000E+00 0. -1.
     999900   -1    0    0    0    0 -0.00000000000E+00 -0.00000000000E+00 -0.74505805969E-08  0.93827000000E+00  0.93827000000E+00 0. -1.
     999902    2    1    2    0    0 -0.13289418535E-01 -0.18802449253E-01  0.71592470985E-02  0.10198178545E+01  0.10195327659E+01 0.  0.
     999903    2    3    3    0    0 -0.10243252090E+00  0.42667914590E-01  0.66866018190E-01  0.13117282025E+00  0.20549260582E-01 0.  0.
         14    1    1    2    0    0  0.13289418535E-01  0.18802449253E-01 -0.71592470985E-02  0.24112145527E-01  0.00000000000E+00 0.  1.
     999901    1    3    3    0    0  0.89143102368E-01 -0.61470363842E-01 -0.59706771091E-01  0.88864503422E+00  0.88000000000E+00 0.  1.
        -11    1    4    4    0    0 -0.21164572922E-01  0.41308343372E-02  0.21424641750E-01  0.30401962674E-01  0.51100000000E-03 0.  1.
         11    1    4    4    0    0 -0.81267947980E-01  0.38537080252E-01  0.45441376439E-01  0.10077085758E+00  0.51100000000E-03 0. -1.
</event>
<event>
 8    1  0.1099921E+005  0.1043930E+01  0.7957747E-01            NaN
         13   -1    0    0    0    0  0.00000000000E+00  0.00000000000E+00  0.74505805969E-08  0.10566000000E+00  0.10566000000E+00 0.  1.
     999900   -1    0    0    0    0 -0.00000000000E+00 -0.00000000000E+00 -0.74505805969E-08  0.93827000000E+00  0.93827000000E+00 0. -1.
     999902    2    1    2    0    0 -0.20545977213E-01 -0.69327767259E-02  0.98082964179E-02  0.10201307720E+01  0.10198531212E+01 0.  0.
     999903    2    3    3    0    0 -0.12045393482E+00  0.29512226098E-02  0.53803109505E-01  0.13333043543E+00  0.19088485862E-01 0.  0.
         14    1    1    2    0    0  0.20545977213E-01  0.69327767259E-02 -0.98082964179E-02  0.23799227958E-01  0.00000000000E+00 0. -1.
     999901    1    3    3    0    0  0.99907957602E-01 -0.98839993356E-02 -0.43994813087E-01  0.88680033661E+00  0.88000000000E+00 0.  1.
        -11    1    4    4    0    0 -0.64976069078E-01 -0.68969867939E-02  0.24203995939E-01  0.69681794754E-01  0.51100000000E-03 0. -1.
         11    1    4    4    0    0 -0.55477865737E-01  0.98482094037E-02  0.29599113566E-01  0.63648640677E-01  0.51100000000E-03 0.  1.
</event>
<event>
 8    1  0.1099921E+005  0.1043930E+01  0.7957747E-01            NaN
         13   -1    0    0    0    0  0.00000000000E+00  0.00000000000E+00  0.74505805969E-08  0.10566000000E+00  0.10566000000E+00 0.  1.
     999900   -1    0    0    0    0 -0.00000000000E+00 -0.00000000000E+00 -0.74505805969E-08  0.93827000000E+00  0.93827000000E+00 0.  1.
     999902    2    1    2    0    0  0.96324540650E-02 -0.81961617380E-02 -0.19269581616E-01  0.10208805312E+01  0.10206202922E+01 0.  0.
     999903    2    3    3    0    0 -0.92747559345E-01 -0.88939939234E-01  0.12872738761E-01  0.13069271192E+00  0.20061280870E-01 0.  0.
         14    1    1    2    0    0 -0.96324540650E-02  0.81961617380E-02  0.19269581616E-01  0.23049468849E-01  0.00000000000E+00 0.  1.
     999901    1    3    3    0    0  0.10238001341E+00  0.80743777496E-01 -0.32142320377E-01  0.89018781923E+00  0.88000000000E+00 0.  1.
        -11    1    4    4    0    0 -0.14735579863E-01 -0.11758511268E-01 -0.49885443355E-02  0.19507603562E-01  0.51100000000E-03 0. -1.
         11    1    4    4    0    0 -0.78011979482E-01 -0.77181427966E-01  0.17861283097E-01  0.11118510836E+00  0.51100000000E-03 0.  1.
</event>
<event>
 8    1  0.1099921E+005  0.1043930E+01  0.7957747E-01            NaN
         13   -1    0    0    0    0  0.00000000000E+00  0.00000000000E+00  0.74505805969E-08  0.10566000000E+00  0.10566000000E+00 0. -1.
     999900   -1    0    0    0    0 -0.00000000000E+00 -0.00000000000E+00 -0.74505805969E-08  0.93827000000E+00  0.93827000000E+00 0.  1.
     999902    2    1    2    0    0 -0.45128390992E-02 -0.15427252209E-01  0.17249464476E-01  0.10203522594E+01  0.10200798123E+01 0.  0.
     999903    2    3    3    0    0  0.11132203639E+00 -0.57573274768E-01  0.35576853043E-01  0.13157225356E+00  0.18392054836E-01 0.  0.
         14    1    1    2    0    0  0.45128390992E-02  0.15427252209E-01 -0.17249464476E-01  0.23577740607E-01  0.00000000000E+00 0.  1.
     999901    1    3    3    0    0 -0.11583487549E+00  0.42146022559E-01 -0.18327388568E-01  0.88878000583E+00  0.88000000000E+00 0.  1.
        -11    1    4    4    0    0  0.63656833544E-01 -0.42767385511E-01  0.23616731718E-01  0.80244955345E-01  0.51100000000E-03 0.  1.
         11    1    4    4    0    0  0.47665202845E-01 -0.14805889257E-01  0.11960121326E-01  0.51327298215E-01  0.51100000000E-03 0. -1.
</event>
<event>
 8    1  0.1099921E+005  0.1043930E+01  0.7957747E-01            NaN
         13   -1    0    0    0    0  0.00000000000E+00  0.00000000000E+00  0.74505805969E-08  0.10566000000E+00  0.10566000000E+00 0.  1.
     999900   -1    0    0    0    0 -0.00000000000E+00 -0.00000000000E+00 -0.74505805969E-08  0.93827000000E+00  0.93827000000E+00 0. -1.
     999902    2    1    2    0    0 -0.70264889043E-02 -0.20808842817E-01  0.88439051871E-02  0.10202531306E+01  0.10199783607E+01 0.  0.
     999903    2    3    3    0    0 -0.51066636813E-01  0.28225153562E-01 -0.11363082525E+00  0.12933005478E+00  0.20244454363E-01 0.  0.
         14    1    1    2    0    0  0.70264889043E-02  0.20808842817E-01 -0.88439051871E-02  0.23676869402E-01  0.00000000000E+00 0. -1.
     999901    1    3    3    0    0  0.44040147909E-01 -0.49033996379E-01  0.12247473044E+00  0.89092307582E+00  0.88000000000E+00 0.  1.
        -11    1    4    4    0    0 -0.33202492283E-01  0.76003037045E-02 -0.70349916061E-01  0.78163558779E-01  0.51100000000E-03 0.  1.
         11    1    4    4    0    0 -0.17864144530E-01  0.20624849857E-01 -0.43280909194E-01  0.51166496001E-01  0.51100000000E-03 0. -1.
</event>
<event>
 8    1  0.1099921E+005  0.1043930E+01  0.7957747E-01            NaN
         13   -1    0    0    0    0  0.00000000000E+00  0.00000000000E+00  0.74505805969E-08  0.10566000000E+00  0.10566000000E+00 0. -1.
     999900   -1    0    0    0    0 -0.00000000000E+00 -0.00000000000E+00 -0.74505805969E-08  0.93827000000E+00  0.93827000000E+00 0. -1.
     999902    2    1    2    0    0  0.15348988861E-01  0.55950549103E-02 -0.18461933256E-01  0.10192776354E+01  0.10189794694E+01 0.  0.
     999903    2    3    3    0    0 -0.12257995800E-01  0.14776181157E-01  0.12426214019E+00  0.12730420545E+00  0.19917009039E-01 0.  0.
         14    1    1    2    0    0 -0.15348988861E-01 -0.55950549103E-02  0.18461933256E-01  0.24652364553E-01  0.00000000000E+00 0.  1.
     999901    1    3    3    0    0  0.27606984661E-01 -0.91811262463E-02 -0.14272407345E+00  0.89197343000E+00  0.88000000000E+00 0. -1.
        -11    1    4    4    0    0 -0.12414029240E-01  0.16861289385E-01  0.71660742992E-01  0.74658786548E-01  0.51100000000E-03 0. -1.
         11    1    4    4    0    0  0.15603343970E-03 -0.20851082280E-02  0.52601397201E-01  0.52645418901E-01  0.51100000000E-03 0.  1.
</event>
<event>
 8    1  0.1099921E+005  0.1043930E+01  0.7957747E-01            NaN
         13   -1    0    0    0    0  0.00000000000E+00  0.00000000000E+00  0.74505805969E-08  0.10566000000E+00  0.10566000000E+00 0. -1.
     999900   -1    0    0    0    0 -0.00000000000E+00 -0.00000000000E+00 -0.74505805969E-08  0.93827000000E+00  0.93827000000E+00 0.  1.
     999902    2    1    2    0    0 -0.18923937729E-01  0.13454817997E-01 -0.34975409375E-02  0.10204485107E+01  0.10201783093E+01 0.  0.
     999903    2    3    3    0    0  0.11459505552E+00 -0.45052660968E-01  0.28250266808E-01  0.12789130249E+00  0.19908256252E-01 0.  0.
         14    1    1    2    0    0  0.18923937729E-01 -0.13454817997E-01  0.34975409375E-02  0.23481489287E-01  0.00000000000E+00 0.  1.
     999901    1    3    3    0    0 -0.13351899325E+00  0.58507478965E-01 -0.31747807745E-01  0.89255720822E+00  0.88000000000E+00 0.  1.
        -11    1    4    4    0    0  0.77124564660E-01 -0.26949055983E-01  0.95158590447E-02  0.82251217540E-01  0.51100000000E-03 0.  1.
         11    1    4    4    0    0  0.37470490864E-01 -0.18103604985E-01  0.18734407763E-01  0.45640084950E-01  0.51100000000E-03 0. -1.
</event>
<event>
 8    1  0.1099921E+005  0.1043930E+01  0.7957747E-01            NaN
         13   -1    0    0    0    0  0.00000000000E+00  0.00000000000E+00  0.74505805969E-08  0.10566000000E+00  0.10566000000E+00 0.  1.
     999900   -1    0    0    0    0 -0.00000000000E+00 -0.00000000000E+00 -0.74505805969E-08  0.93827000000E+00  0.93827000000E+00 0.  1.
     999902    2    1    2    0    0 -0.30098152633E-02  0.10923063330E-01  0.20847138446E-01  0.10202028956E+01  0.10199269448E+01 0.  0.
     999903    2    3    3    0    0  0.12387492073E+00 -0.31898354009E-01  0.12894010751E-01  0.13003624705E+00  0.19510742128E-01 0.  0.
         14    1    1    2    0    0  0.30098152633E-02 -0.10923063330E-01 -0.20847138446E-01  0.23727104370E-01  0.00000000000E+00 0. -1.
     999901    1    3    3    0    0 -0.12688473599E+00  0.42821417340E-01  0.79531276948E-02  0.89016664858E+00  0.88000000000E+00 0.  1.
        -11    1    4    4    0    0  0.27885811597E-01  0.61084165838E-03  0.19639301473E-03  0.27897872807E-01  0.51100000000E-03 0.  1.
         11    1    4    4    0    0  0.95989109132E-01 -0.32509195668E-01  0.12697617736E-01  0.10213837424E+00  0.51100000000E-03 0. -1.
</event>
<event>
 8    1  0.1099921E+005  0.1043930E+01  0.7957747E-01            NaN
         13   -1    0    0    0    0  0.00000000000E+00  0.00000000000E+00  0.74505805969E-08  0.10566000000E+00  0.10566000000E+00 0. -1.
     999900   -1    0    0    0    0 -0.00000000000E+00 -0.00000000000E+00 -0.74505805969E-08  0.93827000000E+00  0.93827000000E+00 0. -1.
     999902    2    1    2    0    0 -0.25521928109E-02  0.20006257776E-01 -0.11599025071E-01  0.10206641147E+01  0.10203989090E+01 0.  0.
     999903    2    3    3    0    0 -0.11717804025E+00 -0.11948701858E-01  0.52283335198E-01  0.13036014392E+00  0.19666097542E-01 0.  0.
         14    1    1    2    0    0  0.25521928109E-02 -0.20006257776E-01  0.11599025071E-01  0.23265885346E-01  0.00000000000E+00 0.  1.
     999901    1    3    3    0    0  0.11462584743E+00  0.31954959634E-01 -0.63882360269E-01  0.89030397073E+00  0.88000000000E+00 0. -1.
        -11    1    4    4    0    0 -0.61662536793E-01 -0.15528181968E-01  0.24181719170E-01  0.68032415377E-01  0.51100000000E-03 0.  1.
         11    1    4    4    0    0 -0.55515503452E-01  0.35794801095E-02  0.28101616028E-01  0.62327728547E-01  0.51100000000E-03 0. -1.
</event>
<event>
 8    1  0.1099921E+005  0.1043930E+01  0.7957747E-01            NaN
         13   -1    0    0    0    0  0.00000000000E+00  0.00000000000E+00  0.74505805969E-08  0.10566000000E+00  0.10566000000E+00 0.  1.
     999900   -1    0    0    0    0 -0.00000000000E+00 -0.00000000000E+00 -0.74505805969E-08  0.93827000000E+00  0.93827000000E+00 0.  1.
     999902    2    1    2    0    0 -0.37415502240E-01  0.62546610329E-02 -0.26257253140E-02  0.10059045477E+01  0.10051855669E+01 0.  0.
     999903    2    3    3    0    0 -0.72453199409E-01  0.16298845184E-01  0.92300403015E-01  0.12004931360E+00  0.19425623313E-01 0.  0.
         14    1    1    2    0    0  0.37415502240E-01 -0.62546610329E-02  0.26257253140E-02  0.38025452344E-01  0.00000000000E+00 0. -1.
     999901    1    3    3    0    0  0.35037697169E-01 -0.10044184151E-01 -0.94926128329E-01  0.88585523405E+00  0.88000000000E+00 0.  1.
        -11    1    4    4    0    0 -0.20905486952E-01 -0.64627958113E-03  0.37418995209E-01  0.42870728772E-01  0.51100000000E-03 0. -1.
         11    1    4    4    0    0 -0.51547712457E-01  0.16945124765E-01  0.54881407805E-01  0.77178584832E-01  0.51100000000E-03 0.  1.
</event>
<event>
 8    1  0.1099921E+005  0.1043930E+01  0.7957747E-01            NaN
         13   -1    0    0    0    0  0.00000000000E+00  0.00000000000E+00  0.74505805969E-08  0.10566000000E+00  0.10566000000E+00 0. -1.
     999900   -1    0    0    0    0 -0.00000000000E+00 -0.00000000000E+00 -0.74505805969E-08  0.93827000000E+00  0.93827000000E+00 0. -1.
     999902    2    1    2    0    0 -0.20373016014E-01 -0.21835072603E-01 -0.16397598276E-01  0.10098607851E+01  0.10092859326E+01 0.  0.
     999903    2    3    3    0    0  0.48722375989E-01 -0.93289548560E-01 -0.60782138336E-01  0.12315344737E+00  0.19887017504E-01 0.  0.
         14    1    1    2    0    0  0.20373016014E-01  0.21835072603E-01  0.16397598276E-01  0.34069214936E-01  0.00000000000E+00 0.  1.
     999901    1    3    3    0    0 -0.69095392003E-01  0.71454475956E-01  0.44384540060E-01  0.88670733770E+00  0.88000000000E+00 0.  1.
        -11    1    4    4    0    0  0.27451595182E-01 -0.37855852658E-01 -0.18644160662E-01  0.50344031486E-01  0.51100000000E-03 0. -1.
         11    1    4    4    0    0  0.21270780807E-01 -0.55433695902E-01 -0.42137977674E-01  0.72809415881E-01  0.51100000000E-03 0.  1.
</event>
<event>
 8    1  0.1099921E+005  0.1043930E+01  0.7957747E-01            NaN
         13   -1    0    0    0    0  0.00000000000E+00  0.00000000000E+00  0.74505805969E-08  0.10566000000E+00  0.10566000000E+00 0.  1.
     999900   -1    0    0    0    0 -0.00000000000E+00 -0.00000000000E+00 -0.74505805969E-08  0.93827000000E+00  0.93827000000E+00 0. -1.
     999902    2    1    2    0    0  0.23481002469E-01  0.93186240195E-03  0.33341496183E-02  0.10201951649E+01  0.10199190321E+01 0.  0.
     999903    2    3    3    0    0 -0.12176782075E+00  0.32689947803E-01  0.60101291502E-02  0.12771941871E+00  0.19495984362E-01 0.  0.
         14    1    1    2    0    0 -0.23481002469E-01 -0.93186240195E-03 -0.33341496183E-02  0.23734835120E-01  0.00000000000E+00 0. -1.
     999901    1    3    3    0    0  0.14524882322E+00 -0.31758085401E-01 -0.26759795319E-02  0.89247574617E+00  0.88000000000E+00 0.  1.
        -11    1    4    4    0    0 -0.47379595597E-01  0.19596519964E-01 -0.44388305839E-02  0.51466630078E-01  0.51100000000E-03 0. -1.
         11    1    4    4    0    0 -0.74388225151E-01  0.13093427839E-01  0.10448959734E-01  0.76252788633E-01  0.51100000000E-03 0.  1.
</event>
<event>
 8    1  0.1099921E+005  0.1043930E+01  0.7957747E-01            NaN
         13   -1    0    0    0    0  0.00000000000E+00  0.00000000000E+00  0.74505805969E-08  0.10566000000E+00  0.10566000000E+00 0. -1.
     999900   -1    0    0    0    0 -0.00000000000E+00 -0.00000000000E+00 -0.74505805969E-08  0.93827000000E+00  0.93827000000E+00 0.  1.
     999902    2    1    2    0    0 -0.61215597362E-02  0.21358767043E-01 -0.84302927984E-02  0.10201657357E+01  0.10198889096E+01 0.  0.
     999903    2    3    3    0    0  0.74434711365E-01 -0.10149643738E+00 -0.13616935734E-01  0.12797202612E+00  0.18691320820E-01 0.  0.
         14    1    1    2    0    0  0.61215597362E-02 -0.21358767043E-01  0.84302927984E-02  0.23764264345E-01  0.00000000000E+00 0. -1.
     999901    1    3    3    0    0 -0.80556271101E-01  0.12285520442E+00  0.51866429360E-02  0.89219370953E+00  0.88000000000E+00 0. -1.
        -11    1    4    4    0    0  0.54722651286E-01 -0.86120363181E-01 -0.13802869226E-01  0.10296633352E+00  0.51100000000E-03 0. -1.
         11    1    4    4    0    0  0.19712060079E-01 -0.15376074199E-01  0.18593349135E-03  0.25005692604E-01  0.51100000000E-03 0.  1.
</event>
<event>
 8    1  0.1099921E+005  0.1043930E+01  0.7957747E-01            NaN
         13   -1    0    0    0    0  0.00000000000E+00  0.00000000000E+00  0.74505805969E-08  0.10566000000E+00  0.10566000000E+00 0.  1.
     999900   -1    0    0    0    0 -0.00000000000E+00 -0.00000000000E+00 -0.74505805969E-08  0.93827000000E+00  0.93827000000E+00 0.  1.
     999902    2    1    2    0    0  0.80458297021E-03 -0.17252589705E-01 -0.14315596059E-01  0.10214970890E+01  0.10212507368E+01 0.  0.
     999903    2    3    3    0    0 -0.12704863629E+00 -0.78125607170E-02  0.25654780592E-01  0.13130992282E+00  0.19538064802E-01 0.  0.
         14    1    1    2    0    0 -0.80458297021E-03  0.17252589705E-01  0.14315596059E-01  0.22432910998E-01  0.00000000000E+00 0.  1.
     999901    1    3    3    0    0  0.12785321926E+00 -0.94400289885E-02 -0.39970376651E-01  0.89018716618E+00  0.88000000000E+00 0. -1.
        -11    1    4    4    0    0 -0.59875152634E-01  0.25890062987E-03  0.29768433658E-02  0.59951844425E-01  0.51100000000E-03 0. -1.
         11    1    4    4    0    0 -0.67173483656E-01 -0.80714613469E-02  0.22677937226E-01  0.71358078397E-01  0.51100000000E-03 0.  1.
</event>
<event>
 8    1  0.1099921E+005  0.1043930E+01  0.7957747E-01            NaN
         13   -1    0    0    0    0  0.00000000000E+00  0.00000000000E+00  0.74505805969E-08  0.10566000000E+00  0.10566000000E+00 0. -1.
     999900   -1    0    0    0    0 -0.00000000000E+00 -0.00000000000E+00 -0.74505805969E-08  0.93827000000E+00  0.93827000000E+00 0. -1.
     999902    2    1    2    0    0  0.16085208146E-01 -0.90168109588E-02 -0.12306354046E-01  0.10217605807E+01  0.10215200444E+01 0.  0.
     999903    2    3    3    0    0 -0.15206194082E-01  0.92290203191E-01  0.88062254672E-01  0.12973136563E+00  0.18070876766E-01 0.  0.
         14    1    1    2    0    0 -0.16085208146E-01  0.90168109588E-02  0.12306354046E-01  0.22169419273E-01  0.00000000000E+00 0. -1.
     999901    1    3    3    0    0  0.31291402228E-01 -0.10130701415E+00 -0.10036860872E+00  0.89202921510E+00  0.88000000000E+00 0. -1.
        -11    1    4    4    0    0 -0.16142589560E-01  0.44635973158E-01  0.40552249437E-01  0.62431557348E-01  0.51100000000E-03 0. -1.
         11    1    4    4    0    0  0.93639547824E-03  0.47654230033E-01  0.47510005236E-01  0.67299808284E-01  0.51100000000E-03 0.  1.
</event>
<event>
 8    1  0.1099921E+005  0.1043930E+01  0.7957747E-01            NaN
         13   -1    0    0    0    0  0.00000000000E+00  0.00000000000E+00  0.74505805969E-08  0.10566000000E+00  0.10566000000E+00 0. -1.
     999900   -1    0    0    0    0 -0.00000000000E+00 -0.00000000000E+00 -0.74505805969E-08  0.93827000000E+00  0.93827000000E+00 0. -1.
     999902    2    1    2    0    0  0.12012578888E-02  0.21883821656E-01 -0.24595284905E-03  0.10220118531E+01  0.10217767969E+01 0.  0.
     999903    2    3    3    0    0 -0.78269311313E-01  0.58973528812E-01 -0.88618156374E-01  0.13324818142E+00  0.17260881146E-01 0.  0.
         14    1    1    2    0    0 -0.12012578888E-02 -0.21883821656E-01  0.24595284905E-03  0.21918146901E-01  0.00000000000E+00 0.  1.
     999901    1    3    3    0    0  0.79470569202E-01 -0.37089707156E-01  0.88372203525E-01  0.88876367168E+00  0.88000000000E+00 0.  1.
        -11    1    4    4    0    0 -0.41126326150E-01  0.31461137535E-01 -0.35239019753E-01  0.62635672837E-01  0.51100000000E-03 0. -1.
         11    1    4    4    0    0 -0.37142985163E-01  0.27512391276E-01 -0.53379136621E-01  0.70612508580E-01  0.51100000000E-03 0.  1.
</event>
<event>
 8    1  0.1099921E+005  0.1043930E+01  0.7957747E-01            NaN
         13   -1    0    0    0    0  0.00000000000E+00  0.00000000000E+00  0.74505805969E-08  0.10566000000E+00  0.10566000000E+00 0.  1.
     999900   -1    0    0    0    0 -0.00000000000E+00 -0.00000000000E+00 -0.74505805969E-08  0.93827000000E+00  0.93827000000E+00 0. -1.
     999902    2    1    2    0    0 -0.22211402592E-01 -0.66691791465E-02  0.39907329213E-02  0.10203981003E+01  0.10201267239E+01 0.  0.
     999903    2    3    3    0    0 -0.27334390327E-01  0.11821951779E+00 -0.43042994183E-01  0.13032192201E+00  0.20201008065E-01 0.  0.
         14    1    1    2    0    0  0.22211402592E-01  0.66691791465E-02 -0.39907329213E-02  0.23531899729E-01  0.00000000000E+00 0.  1.
     999901    1    3    3    0    0  0.51229877347E-02 -0.12488869694E+00  0.47033727104E-01  0.89007617826E+00  0.88000000000E+00 0.  1.
        -11    1    4    4    0    0 -0.36661028859E-02  0.35186266386E-01 -0.41454552130E-02  0.35622458822E-01  0.51100000000E-03 0.  1.
         11    1    4    4    0    0 -0.23668287441E-01  0.83033251403E-01 -0.38897538970E-01  0.94699463187E-01  0.51100000000E-03 0. -1.
</event>
<event>
 8    1  0.1099921E+005  0.1043930E+01  0.7957747E-01            NaN
         13   -1    0    0    0    0  0.00000000000E+00  0.00000000000E+00  0.74505805969E-08  0.10566000000E+00  0.10566000000E+00 0. -1.
     999900   -1    0    0    0    0 -0.00000000000E+00 -0.00000000000E+00 -0.74505805969E-08  0.93827000000E+00  0.93827000000E+00 0. -1.
     999902    2    1    2    0    0 -0.51942305816E-02  0.59766948888E-02  0.23092701129E-01  0.10195174262E+01  0.10192251020E+01 0.  0.
     999903    2    3    3    0    0  0.47969775931E-01 -0.26116453506E-01 -0.11273434993E+00  0.12693388976E+00  0.20494149587E-01 0.  0.
         14    1    1    2    0    0  0.51942305816E-02 -0.59766948888E-02 -0.23092701129E-01  0.24412573780E-01  0.00000000000E+00 0.  1.
     999901    1    3    3    0    0 -0.53164006513E-01  0.32093148395E-01  0.13582705106E+00  0.89258353646E+00  0.88000000000E+00 0.  1.
        -11    1    4    4    0    0  0.18874192325E-02 -0.40416628824E-02 -0.25027840162E-01  0.25427372936E-01  0.51100000000E-03 0. -1.
         11    1    4    4    0    0  0.46082356699E-01 -0.22074790623E-01 -0.87706509772E-01  0.10150651682E+00  0.51100000000E-03 0.  1.
</event>
<event>
 8    1  0.1099921E+005  0.1043930E+01  0.7957747E-01            NaN
         13   -1    0    0    0    0  0.00000000000E+00  0.00000000000E+00  0.74505805969E-08  0.10566000000E+00  0.10566000000E+00 0.  1.
     999900   -1    0    0    0    0 -0.00000000000E+00 -0.00000000000E+00 -0.74505805969E-08  0.93827000000E+00  0.93827000000E+00 0.  1.
     999902    2    1    2    0    0 -0.12247227156E-02 -0.48981598005E-02 -0.24230871361E-01  0.10191786962E+01  0.10188781025E+01 0.  0.
     999903    2    3    3    0    0  0.16456443789E-01  0.12585061213E+00 -0.97946603736E-02  0.12922573717E+00  0.22229814657E-01 0.  0.
         14    1    1    2    0    0  0.12247227156E-02  0.48981598005E-02  0.24230871361E-01  0.24751303846E-01  0.00000000000E+00 0.  1.
     999901    1    3    3    0    0 -0.17681166504E-01 -0.13074877193E+00 -0.14436210987E-01  0.88995295898E+00  0.88000000000E+00 0.  1.
        -11    1    4    4    0    0  0.83182911438E-04  0.16592891717E-01  0.59405869302E-02  0.17631865159E-01  0.51100000000E-03 0.  1.
         11    1    4    4    0    0  0.16373260877E-01  0.10925772042E+00 -0.15735247304E-01  0.11159387201E+00  0.51100000000E-03 0. -1.
</event>
<event>
 8    1  0.1099921E+005  0.1043930E+01  0.7957747E-01            NaN
         13   -1    0    0    0    0  0.00000000000E+00  0.00000000000E+00  0.74505805969E-08  0.10566000000E+00  0.10566000000E+00 0. -1.
     999900   -1    0    0    0    0 -0.00000000000E+00 -0.00000000000E+00 -0.74505805969E-08  0.93827000000E+00  0.93827000000E+00 0.  1.
     999902    2    1    2    0    0  0.18053639281E-01  0.14456851969E-01  0.63148947204E-02  0.10199547554E+01  0.10196729332E+01 0.  0.
     999903    2    3    3    0    0  0.62056911362E-01 -0.10758534903E+00 -0.31322265550E-01  0.12964742493E+00  0.20042527277E-01 0.  0.
         14    1    1    2    0    0 -0.18053639281E-01 -0.14456851969E-01 -0.63148947204E-02  0.23975244639E-01  0.00000000000E+00 0.  1.
     999901    1    3    3    0    0 -0.44003272081E-01  0.12204220100E+00  0.37637160270E-01  0.89030733043E+00  0.88000000000E+00 0.  1.
        -11    1    4    4    0    0  0.48963971222E-01 -0.95172056851E-01 -0.31594895251E-01  0.11159609944E+00  0.51100000000E-03 0. -1.
         11    1    4    4    0    0  0.13092940140E-01 -0.12413292178E-01  0.27262970156E-03  0.18051325496E-01  0.51100000000E-03 0.  1.
</event>
<event>
 8    1  0.1099921E+005  0.1043930E+01  0.7957747E-01            NaN
         13   -1    0    0    0    0  0.00000000000E+00  0.00000000000E+00  0.74505805969E-08  0.10566000000E+00  0.10566000000E+00 0. -1.
     999900   -1    0    0    0    0 -0.00000000000E+00 -0.00000000000E+00 -0.74505805969E-08  0.93827000000E+00  0.93827000000E+00 0.  1.
     999902    2    1    2    0    0 -0.16773592527E-01  0.10842649622E-01  0.12137827317E-01  0.10205581514E+01  0.10202904964E+01 0.  0.
     999903    2    3    3    0    0 -0.35267785248E-01  0.64560753801E-01  0.10951426167E+00  0.13336604147E+00  0.19524853395E-01 0.  0.
         14    1    1    2    0    0  0.16773592527E-01 -0.10842649622E-01 -0.12137827317E-01  0.23371848645E-01  0.00000000000E+00 0.  1.
     999901    1    3    3    0    0  0.18494192721E-01 -0.53718104179E-01 -0.97376434352E-01  0.88719210989E+00  0.88000000000E+00 0.  1.
        -11    1    4    4    0    0 -0.20934596303E-01  0.53648275096E-01  0.89557958935E-01  0.10647668230E+00  0.51100000000E-03 0.  1.
         11    1    4    4    0    0 -0.14333188946E-01  0.10912478705E-01  0.19956302733E-01  0.26889359171E-01  0.51100000000E-03 0. -1.
</event>
<event>
 8    1  0.1099921E+005  0.1043930E+01  0.7957747E-01            NaN
         13   -1    0    0    0    0  0.00000000000E+00  0.00000000000E+00  0.74505805969E-08  0.10566000000E+00  0.10566000000E+00 0.  1.
     999900   -1    0    0    0    0 -0.00000000000E+00 -0.00000000000E+00 -0.74505805969E-08  0.93827000000E+00  0.93827000000E+00 0.  1.
     999902    2    1    2    0    0  0.16329377975E-01 -0.88496930015E-02  0.13748802685E-01  0.10208216633E+01  0.10205600781E+01 0.  0.
     999903    2    3    3    0    0  0.99352403385E-01  0.34592710416E-01  0.79586316105E-01  0.13340144526E+00  0.19859713318E-01 0.  0.
         14    1    1    2    0    0 -0.16329377975E-01  0.88496930015E-02 -0.13748802685E-01  0.23108336732E-01  0.00000000000E+00 0.  1.
     999901    1    3    3    0    0 -0.83023025410E-01 -0.43442403417E-01 -0.65837513420E-01  0.88742021801E+00  0.88000000000E+00 0. -1.
        -11    1    4    4    0    0  0.78923010552E-01  0.31957239914E-01  0.71778908624E-01  0.11136686950E+00  0.51100000000E-03 0.  1.
         11    1    4    4    0    0  0.20429392832E-01  0.26354705015E-02  0.78074074808E-02  0.22034575758E-01  0.51100000000E-03 0. -1.
</event>
<event>
 8    1  0.1099921E+005  0.1043930E+01  0.7957747E-01            NaN
         13   -1    0    0    0    0  0.00000000000E+00  0.00000000000E+00  0.74505805969E-08  0.10566000000E+00  0.10566000000E+00 0.  1.
     999900   -1    0    0    0    0 -0.00000000000E+00 -0.00000000000E+00 -0.74505805969E-08  0.93827000000E+00  0.93827000000E+00 0. -1.
     999902    2    1    2    0    0  0.16388863588E-01 -0.37172169233E-02  0.16303595777E-01  0.10205159062E+01  0.10202472715E+01 0.  0.
     999903    2    3    3    0    0 -0.69687345008E-01 -0.92925311558E-01 -0.52424018231E-01  0.12917383792E+00  0.21122573996E-01 0.  0.
         14    1    1    2    0    0 -0.16388863588E-01  0.37172169233E-02 -0.16303595777E-01  0.23414093761E-01  0.00000000000E+00 0. -1.
     999901    1    3    3    0    0  0.86076208596E-01  0.89208094635E-01  0.68727614009E-01  0.89134206832E+00  0.88000000000E+00 0.  1.
        -11    1    4    4    0    0 -0.57777990542E-01 -0.86725165796E-01 -0.49738337730E-01  0.11547170188E+00  0.51100000000E-03 0. -1.
         11    1    4    4    0    0 -0.11909354466E-01 -0.62001457617E-02 -0.26856805014E-02  0.13702136039E-01  0.51100000000E-03 0.  1.
</event>
<event>
 8    1  0.1099921E+005  0.1043930E+01  0.7957747E-01            NaN
         13   -1    0    0    0    0  0.00000000000E+00  0.00000000000E+00  0.74505805969E-08  0.10566000000E+00  0.10566000000E+00 0.  1.
     999900   -1    0    0    0    0 -0.00000000000E+00 -0.00000000000E+00 -0.74505805969E-08  0.93827000000E+00  0.93827000000E+00 0. -1.
     999902    2    1    2    0    0  0.12534690848E-01 -0.11893977594E-01 -0.32728055288E-01  0.10069203961E+01  0.10062400177E+01 0.  0.
     999903    2    3    3    0    0 -0.66649146898E-01  0.91134277276E-01 -0.24623309930E-01  0.11734151351E+00  0.20375429408E-01 0.  0.
         14    1    1    2    0    0 -0.12534690848E-01  0.11893977594E-01  0.32728055288E-01  0.37009603896E-01  0.00000000000E+00 0.  1.
     999901    1    3    3    0    0  0.79183837746E-01 -0.10302825487E+00 -0.81047453574E-02  0.88957888260E+00  0.88000000000E+00 0. -1.
        -11    1    4    4    0    0 -0.41776240983E-01  0.62848465597E-01 -0.25504940365E-01  0.79661452677E-01  0.51100000000E-03 0. -1.
         11    1    4    4    0    0 -0.24872905916E-01  0.28285811679E-01  0.88163043485E-03  0.37680060831E-01  0.51100000000E-03 0.  1.
</event>
<event>
 8    1  0.1099921E+005  0.1043930E+01  0.7957747E-01            NaN
         13   -1    0    0    0    0  0.00000000000E+00  0.00000000000E+00  0.74505805969E-08  0.10566000000E+00  0.10566000000E+00 0. -1.
     999900   -1    0    0    0    0 -0.00000000000E+00 -0.00000000000E+00 -0.74505805969E-08  0.93827000000E+00  0.93827000000E+00 0. -1.
     999902    2    1    2    0    0 -0.12786684020E-01  0.42375356013E-02  0.18779950502E-01  0.10208184761E+01  0.10205568179E+01 0.  0.
     999903    2    3    3    0    0 -0.95541557805E-01  0.45585800186E-01 -0.74529322753E-01  0.13106307792E+00  0.20412153156E-01 0.  0.
         14    1    1    2    0    0  0.12786684020E-01 -0.42375356013E-02 -0.18779950502E-01  0.23111523902E-01  0.00000000000E+00 0. -1.
     999901    1    3    3    0    0  0.82754873784E-01 -0.41348264585E-01  0.93309273255E-01  0.88975539818E+00  0.88000000000E+00 0.  1.
        -11    1    4    4    0    0 -0.15248669705E-01  0.14664128553E-01 -0.94271376355E-02  0.23166584534E-01  0.51100000000E-03 0.  1.
         11    1    4    4    0    0 -0.80292888100E-01  0.30921671633E-01 -0.65102185118E-01  0.10789649338E+00  0.51100000000E-03 0. -1.
</event>
<event>
 8    1  0.1099921E+005  0.1043930E+01  0.7957747E-01            NaN
         13   -1    0    0    0    0  0.00000000000E+00  0.00000000000E+00  0.74505805969E-08  0.10566000000E+00  0.10566000000E+00 0.  1.
     999900   -1    0    0    0    0 -0.00000000000E+00 -0.00000000000E+00 -0.74505805969E-08  0.93827000000E+00  0.93827000000E+00 0.  1.
     999902    2    1    2    0    0  0.26994672042E-02  0.81067870481E-02  0.22187734609E-01  0.10201539051E+01  0.10198768002E+01 0.  0.
     999903    2    3    3    0    0 -0.10613958029E+00  0.34651029032E-01 -0.61835951228E-01  0.12908122864E+00  0.19286638010E-01 0.  0.
         14    1    1    2    0    0 -0.26994672042E-02 -0.81067870481E-02 -0.22187734609E-01  0.23776094854E-01  0.00000000000E+00 0. -1.
     999901    1    3    3    0    0  0.10883904749E+00 -0.26544241983E-01  0.84023685837E-01  0.89107267651E+00  0.88000000000E+00 0.  1.
        -11    1    4    4    0    0 -0.55865784066E-01  0.22792550325E-01 -0.43022606077E-01  0.74105950735E-01  0.51100000000E-03 0. -1.
         11    1    4    4    0    0 -0.50273796219E-01  0.11858478707E-01 -0.18813345151E-01  0.54975277901E-01  0.51100000000E-03 0.  1.
</event>
<event>
 8    1  0.1099921E+005  0.1043930E+01  0.7957747E-01            NaN
         13   -1    0    0    0    0  0.00000000000E+00  0.00000000000E+00  0.74505805969E-08  0.10566000000E+00  0.10566000000E+00 0.  1.
     999900   -1    0    0    0    0 -0.00000000000E+00 -0.00000000000E+00 -0.74505805969E-08  0.93827000000E+00  0.93827000000E+00 0. -1.
     999902    2    1    2    0    0 -0.15565000394E-01 -0.46019861464E-02  0.16693629167E-01  0.10206464271E+01  0.10203808134E+01 0.  0.
     999903    2    3    3    0    0 -0.58605989803E-01  0.11463959634E+00 -0.13747989659E-01  0.13104102358E+00  0.20145559105E-01 0.  0.
         14    1    1    2    0    0  0.15565000394E-01  0.46019861464E-02 -0.16693629167E-01  0.23283572933E-01  0.00000000000E+00 0. -1.
     999901    1    3    3    0    0  0.43040989410E-01 -0.11924158248E+00  0.30441618826E-01  0.88960540349E+00  0.88000000000E+00 0.  1.
        -11    1    4    4    0    0 -0.17591907319E-01  0.35504587885E-01 -0.13635602088E-01  0.41907537858E-01  0.51100000000E-03 0. -1.
         11    1    4    4    0    0 -0.41014082484E-01  0.79135008450E-01 -0.11238757097E-03  0.89133485719E-01  0.51100000000E-03 0.  1.
</event>
<event>
 8    1  0.1099921E+005  0.1043930E+01  0.7957747E-01            NaN
         13   -1    0    0    0    0  0.00000000000E+00  0.00000000000E+00  0.74505805969E-08  0.10566000000E+00  0.10566000000E+00 0.  1.
     999900   -1    0    0    0    0 -0.00000000000E+00 -0.00000000000E+00 -0.74505805969E-08  0.93827000000E+00  0.93827000000E+00 0.  1.
     999902    2    1    2    0    0 -0.20078788119E-01  0.96720947629E-02 -0.91174284578E-02  0.10198502440E+01  0.10195659299E+01 0.  0.
     999903    2    3    3    0    0 -0.89594647221E-01 -0.71964622606E-01 -0.61345073042E-01  0.13180478614E+00  0.20079241657E-01 0.  0.
         14    1    1    2    0    0  0.20078788119E-01 -0.96720947629E-02  0.91174284578E-02  0.24079756043E-01  0.00000000000E+00 0.  1.
     999901    1    3    3    0    0  0.69515859103E-01  0.81636717369E-01  0.52227644584E-01  0.88804545782E+00  0.88000000000E+00 0.  1.
        -11    1    4    4    0    0 -0.36248208691E-01 -0.20782049966E-01 -0.30323008747E-01  0.51629179875E-01  0.51100000000E-03 0.  1.
         11    1    4    4    0    0 -0.53346438531E-01 -0.51182572640E-01 -0.31022064295E-01  0.80175606266E-01  0.51100000000E-03 0. -1.
</event>
<event>
 8    1  0.1099921E+005  0.1043930E+01  0.7957747E-01            NaN
         13   -1    0    0    0    0  0.00000000000E+00  0.00000000000E+00  0.74505805969E-08  0.10566000000E+00  0.10566000000E+00 0. -1.
     999900   -1    0    0    0    0 -0.00000000000E+00 -0.00000000000E+00 -0.74505805969E-08  0.93827000000E+00  0.93827000000E+00 0. -1.
     999902    2    1    2    0    0 -0.79178915184E-02  0.19468800988E-01  0.10692822214E-01  0.10203489978E+01  0.10200764744E+01 0.  0.
     999903    2    3    3    0    0 -0.38621760829E-01  0.45347580241E-01  0.11740445982E+00  0.13299348144E+00  0.18852466056E-01 0.  0.
         14    1    1    2    0    0  0.79178915184E-02 -0.19468800988E-01 -0.10692822214E-01  0.23581002203E-01  0.00000000000E+00 0. -1.
     999901    1    3    3    0    0  0.30703869310E-01 -0.25878779253E-01 -0.10671163761E+00  0.88735551636E+00  0.88000000000E+00 0. -1.
        -11    1    4    4    0    0 -0.31032086558E-01  0.23896916593E-01  0.65508020043E-01  0.76325715390E-01  0.51100000000E-03 0. -1.
         11    1    4    4    0    0 -0.75896742706E-02  0.21450663648E-01  0.51896439779E-01  0.56667766051E-01  0.51100000000E-03 0.  1.
</event>
<event>
 7    1  0.1099921E+005  0.1043930E+01  0.7957747E-01            NaN
         13   -1    0    0    0    0  0.00000000000E+00  0.00000000000E+00  0.74505805969E-08  0.10566000000E+00  0.10566000000E+00 0. -1.
     999900   -1    0    0    0    0 -0.00000000000E+00 -0.00000000000E+00 -0.74505805969E-08  0.93827000000E+00  0.93827000000E+00 0.  1.
     999902    2    1    2    0    0  0.69449404907E-02 -0.23118050560E-01  0.18958635727E-01  0.10132362494E+01  0.10127712430E+01 0.  0.
         14    1    1    2    0    0 -0.69449404907E-02  0.23118050560E-01 -0.18958635727E-01  0.30693750647E-01  0.00000000000E+00 0.  1.
     999901    1    3    3    0    0  0.97242675271E-02  0.93285198864E-01  0.51971155425E-01  0.88650870876E+00  0.88000000000E+00 0. -1.
        -11    1    3    3    0    0  0.97844757874E-02 -0.76667465840E-01 -0.35334959379E-01  0.84985038449E-01  0.51100000000E-03 0.  1.
         11    1    3    3    0    0 -0.12563802824E-01 -0.39735783584E-01  0.23224396816E-02  0.41742502147E-01  0.51100000000E-03 0. -1.
</event>
<event>
 8    1  0.1099921E+005  0.1043930E+01  0.7957747E-01            NaN
         13   -1    0    0    0    0  0.00000000000E+00  0.00000000000E+00  0.74505805969E-08  0.10566000000E+00  0.10566000000E+00 0. -1.
     999900   -1    0    0    0    0 -0.00000000000E+00 -0.00000000000E+00 -0.74505805969E-08  0.93827000000E+00  0.93827000000E+00 0.  1.
     999902    2    1    2    0    0  0.32999588110E-02 -0.16546646543E-01  0.16049276383E-01  0.10206435122E+01  0.10203778313E+01 0.  0.
     999903    2    3    3    0    0  0.71645911317E-01  0.82308874029E-01  0.69687717996E-01  0.13085664697E+00  0.18952484417E-01 0.  0.
         14    1    1    2    0    0 -0.32999588110E-02  0.16546646543E-01 -0.16049276383E-01  0.23286487765E-01  0.00000000000E+00 0.  1.
     999901    1    3    3    0    0 -0.68345952506E-01 -0.98855520573E-01 -0.53638441613E-01  0.88978686526E+00  0.88000000000E+00 0.  1.
        -11    1    4    4    0    0  0.37186527269E-01  0.56578701648E-01  0.44347303981E-01  0.80937826644E-01  0.51100000000E-03 0.  1.
         11    1    4    4    0    0  0.34459384048E-01  0.25730172381E-01  0.25340414015E-01  0.49918820331E-01  0.51100000000E-03 0. -1.
</event>
<event>
 8    1  0.1099921E+005  0.1043930E+01  0.7957747E-01            NaN
         13   -1    0    0    0    0  0.00000000000E+00  0.00000000000E+00  0.74505805969E-08  0.10566000000E+00  0.10566000000E+00 0.  1.
     999900   -1    0    0    0    0 -0.00000000000E+00 -0.00000000000E+00 -0.74505805969E-08  0.93827000000E+00  0.93827000000E+00 0.  1.
     999902    2    1    2    0    0 -0.14414251030E-01 -0.19840135367E-02  0.18130821168E-01  0.10206827718E+01  0.10204179962E+01 0.  0.
     999903    2    3    3    0    0  0.75413340245E-01  0.31741395558E-01 -0.96694918578E-01  0.12805107291E+00  0.18774501723E-01 0.  0.
         14    1    1    2    0    0  0.14414251030E-01  0.19840135367E-02 -0.18130821168E-01  0.23247228193E-01  0.00000000000E+00 0. -1.
     999901    1    3    3    0    0 -0.89827591274E-01 -0.33725409094E-01  0.11482573975E+00  0.89263169890E+00  0.88000000000E+00 0. -1.
        -11    1    4    4    0    0  0.28056964740E-01  0.19460588576E-01 -0.30861659306E-01  0.46028370754E-01  0.51100000000E-03 0.  1.
         11    1    4    4    0    0  0.47356375504E-01  0.12280806982E-01 -0.65833259272E-01  0.82022702153E-01  0.51100000000E-03 0. -1.
</event>
<event>
 8    1  0.1099921E+005  0.1043930E+01  0.7957747E-01            NaN
         13   -1    0    0    0    0  0.00000000000E+00  0.00000000000E+00  0.74505805969E-08  0.10566000000E+00  0.10566000000E+00 0. -1.
     999900   -1    0    0    0    0 -0.00000000000E+00 -0.00000000000E+00 -0.74505805969E-08  0.93827000000E+00  0.93827000000E+00 0. -1.
     999902    2    1    2    0    0  0.13805964958E-01 -0.19214944945E-01 -0.19387331723E-02  0.10201902135E+01  0.10199139641E+01 0.  0.
     999903    2    3    3    0    0 -0.65198202966E-01 -0.56923017368E-01 -0.95182648218E-01  0.13094447412E+00  0.24406622160E-01 0.  0.
         14    1    1    2    0    0 -0.13805964958E-01  0.19214944945E-01  0.19387331723E-02  0.23739786519E-01  0.00000000000E+00 0. -1.
     999901    1    3    3    0    0  0.79004167924E-01  0.37708072423E-01  0.93243915045E-01  0.88924573936E+00  0.88000000000E+00 0. -1.
        -11    1    4    4    0    0 -0.37509826096E-01 -0.20589743014E-01 -0.34381921690E-01  0.54893553640E-01  0.51100000000E-03 0. -1.
         11    1    4    4    0    0 -0.27688376870E-01 -0.36333274354E-01 -0.60800726527E-01  0.76050920482E-01  0.51100000000E-03 0.  1.
</event>
<event>
 8    1  0.1099921E+005  0.1043930E+01  0.7957747E-01            NaN
         13   -1    0    0    0    0  0.00000000000E+00  0.00000000000E+00  0.74505805969E-08  0.10566000000E+00  0.10566000000E+00 0. -1.
     999900   -1    0    0    0    0 -0.00000000000E+00 -0.00000000000E+00 -0.74505805969E-08  0.93827000000E+00  0.93827000000E+00 0. -1.
     999902    2    1    2    0    0  0.21189400508E-01 -0.12293409141E-01  0.39891404211E-02  0.10191100112E+01  0.10188077263E+01 0.  0.
     999903    2    3    3    0    0 -0.61531652230E-01 -0.41516533456E-02  0.11139415097E+00  0.12869162806E+00  0.18694860552E-01 0.  0.
         14    1    1    2    0    0 -0.21189400508E-01  0.12293409141E-01 -0.39891404211E-02  0.24819988789E-01  0.00000000000E+00 0.  1.
     999901    1    3    3    0    0  0.82721052738E-01 -0.81417557954E-02 -0.10740501055E+00  0.89041838315E+00  0.88000000000E+00 0. -1.
        -11    1    4    4    0    0 -0.49953054838E-01 -0.49380704364E-02  0.10224985797E+00  0.11390779957E+00  0.51100000000E-03 0. -1.
         11    1    4    4    0    0 -0.11578597392E-01  0.78641709089E-03  0.91442930073E-02  0.14783828496E-01  0.51100000000E-03 0.  1.
</event>
<event>
 8    1  0.1099921E+005  0.1043930E+01  0.7957747E-01            NaN
         13   -1    0    0    0    0  0.00000000000E+00  0.00000000000E+00  0.74505805969E-08  0.10566000000E+00  0.10566000000E+00 0. -1.
     999900   -1    0    0    0    0 -0.00000000000E+00 -0.00000000000E+00 -0.74505805969E-08  0.93827000000E+00  0.93827000000E+00 0.  1.
     999902    2    1    2    0    0 -0.76513568499E-02 -0.21244108923E-01 -0.82053954477E-02  0.10199053472E+01  0.10196223484E+01 0.  0.
     999903    2    3    3    0    0  0.92723831594E-01  0.82788243198E-01  0.21383361307E-01  0.12761985298E+00  0.19441619721E-01 0.  0.
         14    1    1    2    0    0  0.76513568499E-02  0.21244108923E-01  0.82053954477E-02  0.24024652756E-01  0.00000000000E+00 0.  1.
     999901    1    3    3    0    0 -0.10037518844E+00 -0.10403235212E+00 -0.29588756755E-01  0.89228549426E+00  0.88000000000E+00 0. -1.
        -11    1    4    4    0    0  0.81018841019E-01  0.71049054055E-01  0.25050896302E-01  0.11063376161E+00  0.51100000000E-03 0. -1.
         11    1    4    4    0    0  0.11704990575E-01  0.11739189143E-01 -0.36675349944E-02  0.16986091370E-01  0.51100000000E-03 0.  1.
</event>
<event>
 8    1  0.1099921E+005  0.1043930E+01  0.7957747E-01            NaN
         13   -1    0    0    0    0  0.00000000000E+00  0.00000000000E+00  0.74505805969E-08  0.10566000000E+00  0.10566000000E+00 0. -1.
     999900   -1    0    0    0    0 -0.00000000000E+00 -0.00000000000E+00 -0.74505805969E-08  0.93827000000E+00  0.93827000000E+00 0.  1.
     999902    2    1    2    0    0  0.17185997309E-01 -0.57156112401E-02  0.15089910941E-01  0.10203560286E+01  0.10200836696E+01 0.  0.
     999903    2    3    3    0    0  0.94019631886E-01 -0.16033787991E-01 -0.87630855166E-01  0.13099590584E+00  0.19595587040E-01 0.  0.
         14    1    1    2    0    0 -0.17185997309E-01  0.57156112401E-02 -0.15089910941E-01  0.23573971400E-01  0.00000000000E+00 0. -1.
     999901    1    3    3    0    0 -0.76833634577E-01  0.10318176750E-01  0.10272076611E+00  0.88936012276E+00  0.88000000000E+00 0. -1.
        -11    1    4    4    0    0  0.45992339313E-01 -0.15575573151E-01 -0.52304855534E-01  0.71371932775E-01  0.51100000000E-03 0. -1.
         11    1    4    4    0    0  0.48027292573E-01 -0.45821483973E-03 -0.35325999631E-01  0.59623973062E-01  0.51100000000E-03 0.  1.
</event>
<event>
 8    1  0.1099921E+005  0.1043930E+01  0.7957747E-01            NaN
         13   -1    0    0    0    0  0.00000000000E+00  0.00000000000E+00  0.74505805969E-08  0.10566000000E+00  0.10566000000E+00 0. -1.
     999900   -1    0    0    0    0 -0.00000000000E+00 -0.00000000000E+00 -0.74505805969E-08  0.93827000000E+00  0.93827000000E+00 0. -1.
     999902    2    1    2    0    0 -0.39306283542E-02 -0.23298905018E-01  0.11969621383E-02  0.10202715653E+01  0.10199972281E+01 0.  0.
     999903    2    3    3    0    0  0.54747623016E-01 -0.43808033953E-02 -0.11646472813E+00  0.13030229329E+00  0.19953973920E-01 0.  0.
         14    1    1    2    0    0  0.39306283542E-02  0.23298905018E-01 -0.11969621383E-02  0.23658434705E-01  0.00000000000E+00 0.  1.
     999901    1    3    3    0    0 -0.58678251370E-01 -0.18918101623E-01  0.11766169027E+00  0.88996927200E+00  0.88000000000E+00 0.  1.
        -11    1    4    4    0    0  0.28116113066E-01 -0.11778641910E-01 -0.54438527300E-01  0.62394443621E-01  0.51100000000E-03 0.  1.
         11    1    4    4    0    0  0.26631509950E-01  0.73978385150E-02 -0.62026200828E-01  0.67907849672E-01  0.51100000000E-03 0. -1.
</event>
<event>
 8    1  0.1099921E+005  0.1043930E+01  0.7957747E-01            NaN
         13   -1    0    0    0    0  0.00000000000E+00  0.00000000000E+00  0.74505805969E-08  0.10566000000E+00  0.10566000000E+00 0.  1.
     999900   -1    0    0    0    0 -0.00000000000E+00 -0.00000000000E+00 -0.74505805969E-08  0.93827000000E+00  0.93827000000E+00 0.  1.
     999902    2    1    2    0    0 -0.14308381070E-01  0.15477602219E-01  0.10895200706E-01  0.10202025615E+01  0.10199266028E+01 0.  0.
     999903    2    3    3    0    0  0.27660778563E-01  0.47781598566E-02  0.12690869572E+00  0.13153219548E+00  0.20173049207E-01 0.  0.
         14    1    1    2    0    0  0.14308381070E-01 -0.15477602219E-01 -0.10895200706E-01  0.23727438498E-01  0.00000000000E+00 0.  1.
     999901    1    3    3    0    0 -0.41969159632E-01  0.10699442362E-01 -0.11601349502E+00  0.88867036603E+00  0.88000000000E+00 0.  1.
        -11    1    4    4    0    0  0.98989837928E-03 -0.38106567696E-02  0.40465824820E-01  0.40660116861E-01  0.51100000000E-03 0. -1.
         11    1    4    4    0    0  0.26670880184E-01  0.85888166262E-02  0.86442870902E-01  0.90872078614E-01  0.51100000000E-03 0.  1.
</event>
<event>
 8    1  0.1099921E+005  0.1043930E+01  0.7957747E-01            NaN
         13   -1    0    0    0    0  0.00000000000E+00  0.00000000000E+00  0.74505805969E-08  0.10566000000E+00  0.10566000000E+00 0.  1.
     999900   -1    0    0    0    0 -0.00000000000E+00 -0.00000000000E+00 -0.74505805969E-08  0.93827000000E+00  0.93827000000E+00 0.  1.
     999902    2    1    2    0    0 -0.23245274651E-02  0.22497441724E-01 -0.71039858393E-02  0.10202233569E+01  0.10199478874E+01 0.  0.
     999903    2    3    3    0    0 -0.11316400839E+00 -0.19446145869E-01  0.57805104238E-01  0.12991001597E+00  0.18733306940E-01 0.  0.
         14    1    1    2    0    0  0.23245274651E-02 -0.22497441724E-01  0.71039858393E-02  0.23706643096E-01  0.00000000000E+00 0.  1.
     999901    1    3    3    0    0  0.11083948093E+00  0.41943587593E-01 -0.64909090078E-01  0.89031334093E+00  0.88000000000E+00 0. -1.
        -11    1    4    4    0    0 -0.10374181318E+00 -0.12488315142E-01  0.50108631139E-01  0.11588553772E+00  0.51100000000E-03 0. -1.
         11    1    4    4    0    0 -0.94221952124E-02 -0.69578307267E-02  0.76964730998E-02  0.14024478251E-01  0.51100000000E-03 0.  1.
</event>
<event>
 8    1  0.1099921E+005  0.1043930E+01  0.7957747E-01            NaN
         13   -1    0    0    0    0  0.00000000000E+00  0.00000000000E+00  0.74505805969E-08  0.10566000000E+00  0.10566000000E+00 0. -1.
     999900   -1    0    0    0    0 -0.00000000000E+00 -0.00000000000E+00 -0.74505805969E-08  0.93827000000E+00  0.93827000000E+00 0.  1.
     999902    2    1    2    0    0 -0.35975395842E-02  0.14263233494E-01  0.18026076869E-01  0.10206636817E+01  0.10203984661E+01 0.  0.
     999903    2    3    3    0    0  0.55885441167E-01  0.69643193640E-01  0.97241398782E-01  0.13337554798E+00  0.18968136620E-01 0.  0.
         14    1    1    2    0    0  0.35975395842E-02 -0.14263233494E-01 -0.18026076869E-01  0.23266318318E-01  0.00000000000E+00 0.  1.
     999901    1    3    3    0    0 -0.59482980751E-01 -0.55379960146E-01 -0.79215321913E-01  0.88728813370E+00  0.88000000000E+00 0. -1.
        -11    1    4    4    0    0  0.24960291870E-01  0.45860888136E-01  0.53367309165E-01  0.74663029937E-01  0.51100000000E-03 0.  1.
         11    1    4    4    0    0  0.30925149297E-01  0.23782305504E-01  0.43874089617E-01  0.58712518042E-01  0.51100000000E-03 0. -1.
</event>
<event>
 8    1  0.1099921E+005  0.1043930E+01  0.7957747E-01            NaN
         13   -1    0    0    0    0  0.00000000000E+00  0.00000000000E+00  0.74505805969E-08  0.10566000000E+00  0.10566000000E+00 0.  1.
     999900   -1    0    0    0    0 -0.00000000000E+00 -0.00000000000E+00 -0.74505805969E-08  0.93827000000E+00  0.93827000000E+00 0.  1.
     999902    2    1    2    0    0 -0.71248553539E-02 -0.22427352495E-01  0.91094065944E-03  0.10203804880E+01  0.10201087004E+01 0.  0.
     999903    2    3    3    0    0  0.86013188095E-01  0.40688977389E-02 -0.95107015766E-01  0.12987715032E+00  0.20196664896E-01 0.  0.
         14    1    1    2    0    0  0.71248553539E-02  0.22427352495E-01 -0.91094065944E-03  0.23549512025E-01  0.00000000000E+00 0. -1.
     999901    1    3    3    0    0 -0.93138043448E-01 -0.26496250234E-01  0.96017956425E-01  0.89050333765E+00  0.88000000000E+00 0. -1.
        -11    1    4    4    0    0  0.31355679250E-01 -0.39404840604E-02 -0.46908940498E-01  0.56563379103E-01  0.51100000000E-03 0. -1.
         11    1    4    4    0    0  0.54657508845E-01  0.80093817994E-02 -0.48198075267E-01  0.73313771219E-01  0.51100000000E-03 0.  1.
</event>
<event>
 8    1  0.1099921E+005  0.1043930E+01  0.7957747E-01            NaN
         13   -1    0    0    0    0  0.00000000000E+00  0.00000000000E+00  0.74505805969E-08  0.10566000000E+00  0.10566000000E+00 0.  1.
     999900   -1    0    0    0    0 -0.00000000000E+00 -0.00000000000E+00 -0.74505805969E-08  0.93827000000E+00  0.93827000000E+00 0. -1.
     999902    2    1    2    0    0 -0.23689939824E-01 -0.17523543104E-02  0.84470449005E-02  0.10187181662E+01  0.10184061398E+01 0.  0.
     999903    2    3    3    0    0 -0.60660342091E-01 -0.11356019878E+00  0.12046149696E-01  0.13086640029E+00  0.20132291273E-01 0.  0.
         14    1    1    2    0    0  0.23689939824E-01  0.17523543104E-02 -0.84470449005E-02  0.25211833770E-01  0.00000000000E+00 0. -1.
     999901    1    3    3    0    0  0.36970402267E-01  0.11180784447E+00 -0.35991047954E-02  0.88785176594E+00  0.88000000000E+00 0.  1.
        -11    1    4    4    0    0 -0.28248895841E-01 -0.45562698706E-01  0.14361661757E-01  0.55502054728E-01  0.51100000000E-03 0. -1.
         11    1    4    4    0    0 -0.32411446250E-01 -0.67997500077E-01 -0.23155120614E-02  0.75364345561E-01  0.51100000000E-03 0.  1.
</event>
<event>
 8    1  0.1099921E+005  0.1043930E+01  0.7957747E-01            NaN
         13   -1    0    0    0    0  0.00000000000E+00  0.00000000000E+00  0.74505805969E-08  0.10566000000E+00  0.10566000000E+00 0. -1.
     999900   -1    0    0    0    0 -0.00000000000E+00 -0.00000000000E+00 -0.74505805969E-08  0.93827000000E+00  0.93827000000E+00 0. -1.
     999902    2    1    2    0    0 -0.25894006304E-01  0.49405963112E-02  0.32228012202E-02  0.10173725999E+01  0.10170259148E+01 0.  0.
     999903    2    3    3    0    0  0.45341231386E-01 -0.11229318724E+00  0.29944312458E-01  0.12634383587E+00  0.20012892116E-01 0.  0.
         14    1    1    2    0    0  0.25894006304E-01 -0.49405963112E-02 -0.32228012202E-02  0.26557400138E-01  0.00000000000E+00 0.  1.
     999901    1    3    3    0    0 -0.71235237690E-01  0.11723378355E+00 -0.26721511238E-01  0.89102876399E+00  0.88000000000E+00 0. -1.
        -11    1    4    4    0    0  0.16416127663E-01 -0.48820438680E-01  0.22446182169E-01  0.56187335720E-01  0.51100000000E-03 0. -1.
         11    1    4    4    0    0  0.28925103723E-01 -0.63472748557E-01  0.74981302889E-02  0.70156500152E-01  0.51100000000E-03 0.  1.
</event>
<event>
 8    1  0.1099921E+005  0.1043930E+01  0.7957747E-01            NaN
         13   -1    0    0    0    0  0.00000000000E+00  0.00000000000E+00  0.74505805969E-08  0.10566000000E+00  0.10566000000E+00 0.  1.
     999900   -1    0    0    0    0 -0.00000000000E+00 -0.00000000000E+00 -0.74505805969E-08  0.93827000000E+00  0.93827000000E+00 0.  1.
     999902    2    1    2    0    0 -0.18330444616E-01 -0.90446835564E-02 -0.98341341809E-02  0.10212469293E+01  0.10209949897E+01 0.  0.
     999903    2    3    3    0    0 -0.16826146043E-01  0.10663503182E+00 -0.72252026308E-01  0.13148288603E+00  0.20328423769E-01 0.  0.
         14    1    1    2    0    0  0.18330444616E-01  0.90446835564E-02  0.98341341809E-02  0.22683070681E-01  0.00000000000E+00 0.  1.
     999901    1    3    3    0    0 -0.15042985725E-02 -0.11567971537E+00  0.62417892127E-01  0.88976404328E+00  0.88000000000E+00 0.  1.
        -11    1    4    4    0    0 -0.11378130779E-01  0.25210974124E-01 -0.24355055865E-01  0.36857630736E-01  0.51100000000E-03 0. -1.
         11    1    4    4    0    0 -0.54480152638E-02  0.81424057694E-01 -0.47896970443E-01  0.94625255298E-01  0.51100000000E-03 0.  1.
</event>
<event>
 8    1  0.1099921E+005  0.1043930E+01  0.7957747E-01            NaN
         13   -1    0    0    0    0  0.00000000000E+00  0.00000000000E+00  0.74505805969E-08  0.10566000000E+00  0.10566000000E+00 0. -1.
     999900   -1    0    0    0    0 -0.00000000000E+00 -0.00000000000E+00 -0.74505805969E-08  0.93827000000E+00  0.93827000000E+00 0. -1.
     999902    2    1    2    0    0 -0.46643023232E-02 -0.79767331016E-02  0.21735728732E-01  0.10203116620E+01  0.10200382648E+01 0.  0.
     999903    2    3    3    0    0 -0.94786662029E-01 -0.37680503272E-01  0.83194489188E-01  0.13307914854E+00  0.19606252024E-01 0.  0.
         14    1    1    2    0    0  0.46643023232E-02  0.79767331016E-02 -0.21735728732E-01  0.23618338016E-01  0.00000000000E+00 0.  1.
     999901    1    3    3    0    0  0.90122359706E-01  0.29703770170E-01 -0.61458760456E-01  0.88723251345E+00  0.88000000000E+00 0. -1.
        -11    1    4    4    0    0 -0.41460722413E-01 -0.26370735508E-01  0.43723313236E-01  0.65775348236E-01  0.51100000000E-03 0. -1.
         11    1    4    4    0    0 -0.53325939616E-01 -0.11309767763E-01  0.39471175953E-01  0.67303800300E-01  0.51100000000E-03 0.  1.
</event>
<event>
 8    1  0.1099921E+005  0.1043930E+01  0.7957747E-01            NaN
         13   -1    0    0    0    0  0.00000000000E+00  0.00000000000E+00  0.74505805969E-08  0.10566000000E+00  0.10566000000E+00 0. -1.
     999900   -1    0    0    0    0 -0.00000000000E+00 -0.00000000000E+00 -0.74505805969E-08  0.93827000000E+00  0.93827000000E+00 0. -1.
     999902    2    1    2    0    0  0.29745079227E-02 -0.12216887064E-02  0.23582080184E-01  0.10201296906E+01  0.10198520142E+01 0.  0.
     999903    2    3    3    0    0  0.11810169860E+00 -0.19706539638E-01  0.51586121427E-01  0.13199671293E+00  0.20631175014E-01 0.  0.
         14    1    1    2    0    0 -0.29745079227E-02  0.12216887064E-02 -0.23582080184E-01  0.23800309378E-01  0.00000000000E+00 0.  1.
     999901    1    3    3    0    0 -0.11512719068E+00  0.18484850931E-01 -0.28004041243E-01  0.88813297770E+00  0.88000000000E+00 0.  1.
        -11    1    4    4    0    0  0.92255947483E-01 -0.12280137009E-01  0.30903488973E-01  0.98067570393E-01  0.51100000000E-03 0.  1.
         11    1    4    4    0    0  0.25845751117E-01 -0.74264026284E-02  0.20682632453E-01  0.33929142533E-01  0.51100000000E-03 0. -1.
</event>
<event>
 8    1  0.1099921E+005  0.1043930E+01  0.7957747E-01            NaN
         13   -1    0    0    0    0  0.00000000000E+00  0.00000000000E+00  0.74505805969E-08  0.10566000000E+00  0.10566000000E+00 0. -1.
     999900   -1    0    0    0    0 -0.00000000000E+00 -0.00000000000E+00 -0.74505805969E-08  0.93827000000E+00  0.93827000000E+00 0.  1.
     999902    2    1    2    0    0  0.24040547155E-02  0.11438974789E-01  0.20731480960E-01  0.10201303377E+01  0.10198526766E+01 0.  0.
     999903    2    3    3    0    0  0.11976087615E+00  0.29484147994E-01  0.41985759884E-01  0.13190176565E+00  0.20573995973E-01 0.  0.
         14    1    1    2    0    0 -0.24040547155E-02 -0.11438974789E-01 -0.20731480960E-01  0.23799662311E-01  0.00000000000E+00 0.  1.
     999901    1    3    3    0    0 -0.11735682143E+00 -0.18045173205E-01 -0.21254278924E-01  0.88822857204E+00  0.88000000000E+00 0.  1.
        -11    1    4    4    0    0  0.57546396781E-01  0.24733667814E-01  0.21607278018E-01  0.66260679821E-01  0.51100000000E-03 0. -1.
         11    1    4    4    0    0  0.62214479367E-01  0.47504801801E-02  0.20378481866E-01  0.65641085830E-01  0.51100000000E-03 0.  1.
</event>
<event>
 8    1  0.1099921E+005  0.1043930E+01  0.7957747E-01            NaN
         13   -1    0    0    0    0  0.00000000000E+00  0.00000000000E+00  0.74505805969E-08  0.10566000000E+00  0.10566000000E+00 0.  1.
     999900   -1    0    0    0    0 -0.00000000000E+00 -0.00000000000E+00 -0.74505805969E-08  0.93827000000E+00  0.93827000000E+00 0.  1.
     999902    2    1    2    0    0 -0.53174576688E-02  0.15728529217E-01  0.15847683962E-01  0.10209776347E+01  0.10207196086E+01 0.  0.
     999903    2    3    3    0    0 -0.86897868458E-01  0.93256536438E-01  0.35135562139E-01  0.13360061357E+00  0.19146673035E-01 0.  0.
         14    1    1    2    0    0  0.53174576688E-02 -0.15728529217E-01 -0.15847683962E-01  0.22952365332E-01  0.00000000000E+00 0. -1.
     999901    1    3    3    0    0  0.81580410789E-01 -0.77528007221E-01 -0.19287878178E-01  0.88737702110E+00  0.88000000000E+00 0.  1.
        -11    1    4    4    0    0 -0.76147682174E-01  0.71502041763E-01  0.25800272989E-01  0.10759612764E+00  0.51100000000E-03 0.  1.
         11    1    4    4    0    0 -0.10750186284E-01  0.21754494676E-01  0.93352891501E-02  0.26004485926E-01  0.51100000000E-03 0. -1.
</event>
<event>
 8    1  0.1099921E+005  0.1043930E+01  0.7957747E-01            NaN
         13   -1    0    0    0    0  0.00000000000E+00  0.00000000000E+00  0.74505805969E-08  0.10566000000E+00  0.10566000000E+00 0. -1.
     999900   -1    0    0    0    0 -0.00000000000E+00 -0.00000000000E+00 -0.74505805969E-08  0.93827000000E+00  0.93827000000E+00 0.  1.
     999902    2    1    2    0    0 -0.13207045270E-01 -0.86725748963E-02 -0.25556951881E-01  0.10138834130E+01  0.10134380977E+01 0.  0.
     999903    2    3    3    0    0  0.57230397380E-01 -0.61718157620E-01 -0.92886795204E-01  0.12691747512E+00  0.19890686371E-01 0.  0.
         14    1    1    2    0    0  0.13207045270E-01  0.86725748963E-02  0.25556951881E-01  0.30046586987E-01  0.00000000000E+00 0. -1.
     999901    1    3    3    0    0 -0.70437442650E-01  0.53045582724E-01  0.67329843323E-01  0.88696593789E+00  0.88000000000E+00 0. -1.
        -11    1    4    4    0    0  0.43594006597E-01 -0.42242492028E-01 -0.78087502686E-01  0.98907960957E-01  0.51100000000E-03 0.  1.
         11    1    4    4    0    0  0.13636390783E-01 -0.19475665592E-01 -0.14799292518E-01  0.28009514167E-01  0.51100000000E-03 0. -1.
</event>
<event>
 8    1  0.1099921E+005  0.1043930E+01  0.7957747E-01            NaN
         13   -1    0    0    0    0  0.00000000000E+00  0.00000000000E+00  0.74505805969E-08  0.10566000000E+00  0.10566000000E+00 0. -1.
     999900   -1    0    0    0    0 -0.00000000000E+00 -0.00000000000E+00 -0.74505805969E-08  0.93827000000E+00  0.93827000000E+00 0. -1.
     999902    2    1    2    0    0 -0.10572147929E-01 -0.20069398941E-01 -0.44582554508E-02  0.10208123200E+01  0.10205505208E+01 0.  0.
     999903    2    3    3    0    0 -0.49895280133E-02  0.88356989764E-01 -0.92876160331E-01  0.12974264076E+00  0.19373142299E-01 0.  0.
         14    1    1    2    0    0  0.10572147929E-01  0.20069398941E-01  0.44582554508E-02  0.23117679973E-01  0.00000000000E+00 0. -1.
     999901    1    3    3    0    0 -0.55826199152E-02 -0.10842638871E+00  0.88417904880E-01  0.89106967927E+00  0.88000000000E+00 0.  1.
        -11    1    4    4    0    0 -0.14880088433E-02  0.67918349793E-01 -0.81441242931E-01  0.10605684127E+00  0.51100000000E-03 0. -1.
         11    1    4    4    0    0 -0.35015191700E-02  0.20438639971E-01 -0.11434917400E-01  0.23685799487E-01  0.51100000000E-03 0.  1.
</event>
<event>
 8    1  0.1099921E+005  0.1043930E+01  0.7957747E-01            NaN
         13   -1    0    0    0    0  0.00000000000E+00  0.00000000000E+00  0.74505805969E-08  0.10566000000E+00  0.10566000000E+00 0. -1.
     999900   -1    0    0    0    0 -0.00000000000E+00 -0.00000000000E+00 -0.74505805969E-08  0.93827000000E+00  0.93827000000E+00 0.  1.
     999902    2    1    2    0    0  0.85705193529E-03 -0.93613529650E-02 -0.19739666426E-01  0.10220662424E+01  0.10218323639E+01 0.  0.
     999903    2    3    3    0    0 -0.92366001640E-01 -0.67575138459E-01  0.61629488290E-01  0.13150444110E+00  0.19933554731E-01 0.  0.
         14    1    1    2    0    0 -0.85705193529E-03  0.93613529650E-02  0.19739666426E-01  0.21863757636E-01  0.00000000000E+00 0. -1.
     999901    1    3    3    0    0  0.93223053575E-01  0.58213785494E-01 -0.81369154716E-01  0.89056180127E+00  0.88000000000E+00 0.  1.
        -11    1    4    4    0    0 -0.68965158633E-01 -0.40609194206E-01  0.47734383131E-01  0.93188691445E-01  0.51100000000E-03 0. -1.
         11    1    4    4    0    0 -0.23400843007E-01 -0.26965944253E-01  0.13895105159E-01  0.38315749650E-01  0.51100000000E-03 0.  1.
</event>
<event>
 8    1  0.1099921E+005  0.1043930E+01  0.7957747E-01            NaN
         13   -1    0    0    0    0  0.00000000000E+00  0.00000000000E+00  0.74505805969E-08  0.10566000000E+00  0.10566000000E+00 0.  1.
     999900   -1    0    0    0    0 -0.00000000000E+00 -0.00000000000E+00 -0.74505805969E-08  0.93827000000E+00  0.93827000000E+00 0.  1.
     999902    2    1    2    0    0 -0.90984881965E-02  0.20669353246E-01  0.16477872443E-02  0.10212866819E+01  0.10210356344E+01 0.  0.
     999903    2    3    3    0    0  0.89154605771E-01  0.52530240391E-01  0.78595450204E-01  0.13191064815E+00  0.22698114823E-01 0.  0.
         14    1    1    2    0    0  0.90984881965E-02 -0.20669353246E-01 -0.16477872443E-02  0.22643318085E-01  0.00000000000E+00 0. -1.
     999901    1    3    3    0    0 -0.98253093968E-01 -0.31860887145E-01 -0.76947662959E-01  0.88937603377E+00  0.88000000000E+00 0.  1.
        -11    1    4    4    0    0  0.26493209856E-01  0.12929289147E-01  0.10632604812E-01  0.31342783737E-01  0.51100000000E-03 0.  1.
         11    1    4    4    0    0  0.62661395915E-01  0.39600951244E-01  0.67962845392E-01  0.10056786441E+00  0.51100000000E-03 0. -1.
</event>
<event>
 8    1  0.1099921E+005  0.1043930E+01  0.7957747E-01            NaN
         13   -1    0    0    0    0  0.00000000000E+00  0.00000000000E+00  0.74505805969E-08  0.10566000000E+00  0.10566000000E+00 0.  1.
     999900   -1    0    0    0    0 -0.00000000000E+00 -0.00000000000E+00 -0.74505805969E-08  0.93827000000E+00  0.93827000000E+00 0. -1.
     999902    2    1    2    0    0 -0.30177176388E-02  0.23400956383E-01 -0.14138479795E-02  0.10202929455E+01  0.10200191098E+01 0.  0.
     999903    2    3    3    0    0 -0.84437802131E-01  0.71006609923E-01  0.70163761489E-01  0.13236339729E+00  0.20626062009E-01 0.  0.
         14    1    1    2    0    0  0.30177176388E-02 -0.23400956383E-01  0.14138479795E-02  0.23637054502E-01  0.00000000000E+00 0. -1.
     999901    1    3    3    0    0  0.81420084492E-01 -0.47605653539E-01 -0.71577609468E-01  0.88792954821E+00  0.88000000000E+00 0. -1.
        -11    1    4    4    0    0 -0.42855264092E-01  0.40486968634E-01  0.25915516096E-01  0.64402200157E-01  0.51100000000E-03 0. -1.
         11    1    4    4    0    0 -0.41582538039E-01  0.30519641289E-01  0.44248245393E-01  0.67961197131E-01  0.51100000000E-03 0.  1.
</event>
<event>
 8    1  0.1099921E+005  0.1043930E+01  0.7957747E-01            NaN
         13   -1    0    0    0    0  0.00000000000E+00  0.00000000000E+00  0.74505805969E-08  0.10566000000E+00  0.10566000000E+00 0.  1.
     999900   -1    0    0    0    0 -0.00000000000E+00 -0.00000000000E+00 -0.74505805969E-08  0.93827000000E+00  0.93827000000E+00 0.  1.
     999902    2    1    2    0    0  0.12819915355E-01 -0.13173839010E-01 -0.14553182929E-01  0.10204844163E+01  0.10202150501E+01 0.  0.
     999903    2    3    3    0    0  0.68584478815E-01  0.57767339036E-02 -0.11267277444E+00  0.13307455323E+00  0.16627724654E-01 0.  0.
         14    1    1    2    0    0 -0.12819915355E-01  0.13173839010E-01  0.14553182929E-01  0.23445583749E-01  0.00000000000E+00 0.  1.
     999901    1    3    3    0    0 -0.55764563461E-01 -0.18950572913E-01  0.98119591514E-01  0.88740986302E+00  0.88000000000E+00 0. -1.
        -11    1    4    4    0    0  0.17028536717E-01  0.87622102691E-02 -0.29783712478E-01  0.35412964314E-01  0.51100000000E-03 0.  1.
         11    1    4    4    0    0  0.51555942098E-01 -0.29854763655E-02 -0.82889061965E-01  0.97661588914E-01  0.51100000000E-03 0. -1.
</event>
<event>
 8    1  0.1099921E+005  0.1043930E+01  0.7957747E-01            NaN
         13   -1    0    0    0    0  0.00000000000E+00  0.00000000000E+00  0.74505805969E-08  0.10566000000E+00  0.10566000000E+00 0. -1.
     999900   -1    0    0    0    0 -0.00000000000E+00 -0.00000000000E+00 -0.74505805969E-08  0.93827000000E+00  0.93827000000E+00 0.  1.
     999902    2    1    2    0    0 -0.25218345050E-01 -0.28418282762E-02 -0.45417180504E-02  0.10181488418E+01  0.10178223794E+01 0.  0.
     999903    2    3    3    0    0 -0.15588863388E-01 -0.12589940297E+00 -0.17760674420E-01  0.12943593292E+00  0.18561973086E-01 0.  0.
         14    1    1    2    0    0  0.25218345050E-01  0.28418282762E-02  0.45417180504E-02  0.25781158194E-01  0.00000000000E+00 0.  1.
     999901    1    3    3    0    0 -0.96294816616E-02  0.12305757470E+00  0.13218956369E-01  0.88871290888E+00  0.88000000000E+00 0. -1.
        -11    1    4    4    0    0 -0.13646933766E-01 -0.48360051748E-01 -0.11953724520E-01  0.51653519310E-01  0.51100000000E-03 0. -1.
         11    1    4    4    0    0 -0.19419296226E-02 -0.77539351226E-01 -0.58069498994E-02  0.77782413612E-01  0.51100000000E-03 0.  1.
</event>
<event>
 8    1  0.1099921E+005  0.1043930E+01  0.7957747E-01            NaN
         13   -1    0    0    0    0  0.00000000000E+00  0.00000000000E+00  0.74505805969E-08  0.10566000000E+00  0.10566000000E+00 0.  1.
     999900   -1    0    0    0    0 -0.00000000000E+00 -0.00000000000E+00 -0.74505805969E-08  0.93827000000E+00  0.93827000000E+00 0.  1.
     999902    2    1    2    0    0 -0.62516812550E-02 -0.16191478951E-01  0.13880579122E-01  0.10217057343E+01  0.10214639933E+01 0.  0.
     999903    2    3    3    0    0  0.88085667328E-01  0.85775967356E-01 -0.35452627976E-01  0.12944419150E+00  0.19552711249E-01 0.  0.
         14    1    1    2    0    0  0.62516812550E-02  0.16191478951E-01 -0.13880579122E-01  0.22224265700E-01  0.00000000000E+00 0. -1.
     999901    1    3    3    0    0 -0.94337348583E-01 -0.10196744631E+00  0.49333207098E-01  0.89226154280E+00  0.88000000000E+00 0. -1.
        -11    1    4    4    0    0  0.15257641028E-01  0.19374986430E-01  0.11409076349E-03  0.24666978870E-01  0.51100000000E-03 0.  1.
         11    1    4    4    0    0  0.72828026300E-01  0.66400980926E-01 -0.35566718739E-01  0.10477721263E+00  0.51100000000E-03 0. -1.
</event>
<event>
 8    1  0.1099921E+005  0.1043930E+01  0.7957747E-01            NaN
         13   -1    0    0    0    0  0.00000000000E+00  0.00000000000E+00  0.74505805969E-08  0.10566000000E+00  0.10566000000E+00 0. -1.
     999900   -1    0    0    0    0 -0.00000000000E+00 -0.00000000000E+00 -0.74505805969E-08  0.93827000000E+00  0.93827000000E+00 0. -1.
     999902    2    1    2    0    0 -0.55614632058E-02 -0.62473145878E-02  0.21356423961E-01  0.10209940968E+01  0.10207364449E+01 0.  0.
     999903    2    3    3    0    0 -0.85101658406E-01  0.43832928506E-01 -0.85441152075E-01  0.12956805068E+00  0.18001983337E-01 0.  0.
         14    1    1    2    0    0  0.55614632058E-02  0.62473145878E-02 -0.21356423961E-01  0.22935903230E-01  0.00000000000E+00 0. -1.
     999901    1    3    3    0    0  0.79540195201E-01 -0.50080243094E-01  0.10679757604E+00  0.89142604609E+00  0.88000000000E+00 0.  1.
        -11    1    4    4    0    0 -0.37165595111E-01  0.25785816652E-01 -0.49100231751E-01  0.66762891484E-01  0.51100000000E-03 0.  1.
         11    1    4    4    0    0 -0.47936063296E-01  0.18047111855E-01 -0.36340920325E-01  0.62805159196E-01  0.51100000000E-03 0. -1.
</event>
<event>
 8    1  0.1099921E+005  0.1043930E+01  0.7957747E-01            NaN
         13   -1    0    0    0    0  0.00000000000E+00  0.00000000000E+00  0.74505805969E-08  0.10566000000E+00  0.10566000000E+00 0.  1.
     999900   -1    0    0    0    0 -0.00000000000E+00 -0.00000000000E+00 -0.74505805969E-08  0.93827000000E+00  0.93827000000E+00 0.  1.
     999902    2    1    2    0    0  0.18893122135E-01  0.94523876024E-02  0.14571165506E-01  0.10182664741E+01  0.10179430219E+01 0.  0.
     999903    2    3    3    0    0 -0.95595559725E-01  0.36331751434E-01 -0.71103480128E-01  0.12631899621E+00  0.21030376044E-01 0.  0.
         14    1    1    2    0    0 -0.18893122135E-01 -0.94523876024E-02 -0.14571165506E-01  0.25663525861E-01  0.00000000000E+00 0. -1.
     999901    1    3    3    0    0  0.11448868186E+00 -0.26879363832E-01  0.85674645634E-01  0.89194747793E+00  0.88000000000E+00 0. -1.
        -11    1    4    4    0    0 -0.72384062352E-01  0.28180796662E-01 -0.42344477543E-01  0.88469913996E-01  0.51100000000E-03 0.  1.
         11    1    4    4    0    0 -0.23211497373E-01  0.81509547723E-02 -0.28759002585E-01  0.37849082217E-01  0.51100000000E-03 0. -1.
</event>
<event>
 8    1  0.1099921E+005  0.1043930E+01  0.7957747E-01            NaN
         13   -1    0    0    0    0  0.00000000000E+00  0.00000000000E+00  0.74505805969E-08  0.10566000000E+00  0.10566000000E+00 0.  1.
     999900   -1    0    0    0    0 -0.00000000000E+00 -0.00000000000E+00 -0.74505805969E-08  0.93827000000E+00  0.93827000000E+00 0. -1.
     999902    2    1    2    0    0  0.10124374579E-01 -0.19317585050E-01  0.86612287638E-02  0.10204632376E+01  0.10201933789E+01 0.  0.
     999903    2    3    3    0    0 -0.12124646171E+00 -0.80646779150E-02 -0.40201438279E-01  0.12929968093E+00  0.18344163702E-01 0.  0.
         14    1    1    2    0    0 -0.10124374579E-01  0.19317585050E-01 -0.86612287638E-02  0.23466762377E-01  0.00000000000E+00 0. -1.
     999901    1    3    3    0    0  0.13137083629E+00 -0.11252907135E-01  0.48862667043E-01  0.89116355669E+00  0.88000000000E+00 0. -1.
        -11    1    4    4    0    0 -0.50996670279E-01 -0.12468272873E-01 -0.17349386967E-01  0.55293585136E-01  0.51100000000E-03 0. -1.
         11    1    4    4    0    0 -0.70249791430E-01  0.44035949582E-02 -0.22852051312E-01  0.74006095794E-01  0.51100000000E-03 0.  1.
</event>
<event>
 8    1  0.1099921E+005  0.1043930E+01  0.7957747E-01            NaN
         13   -1    0    0    0    0  0.00000000000E+00  0.00000000000E+00  0.74505805969E-08  0.10566000000E+00  0.10566000000E+00 0.  1.
     999900   -1    0    0    0    0 -0.00000000000E+00 -0.00000000000E+00 -0.74505805969E-08  0.93827000000E+00  0.93827000000E+00 0. -1.
     999902    2    1    2    0    0  0.18174237532E-02 -0.79517103054E-02  0.22107130262E-01  0.10203660883E+01  0.10200939644E+01 0.  0.
     999903    2    3    3    0    0  0.59472394913E-01 -0.17772282408E-01  0.11631942038E+00  0.13340696019E+00  0.20356563835E-01 0.  0.
         14    1    1    2    0    0 -0.18174237532E-02  0.79517103054E-02 -0.22107130262E-01  0.23563911694E-01  0.00000000000E+00 0. -1.
     999901    1    3    3    0    0 -0.57654971160E-01  0.98205721031E-02 -0.94212290119E-01  0.88695912811E+00  0.88000000000E+00 0. -1.
        -11    1    4    4    0    0  0.69884642947E-02 -0.77067501512E-02  0.10141092543E-01  0.14537383192E-01  0.51100000000E-03 0. -1.
         11    1    4    4    0    0  0.52483930618E-01 -0.10065532257E-01  0.10617832784E+00  0.11886957700E+00  0.51100000000E-03 0.  1.
</event>
<event>
 8    1  0.1099921E+005  0.1043930E+01  0.7957747E-01            NaN
         13   -1    0    0    0    0  0.00000000000E+00  0.00000000000E+00  0.74505805969E-08  0.10566000000E+00  0.10566000000E+00 0.  1.
     999900   -1    0    0    0    0 -0.00000000000E+00 -0.00000000000E+00 -0.74505805969E-08  0.93827000000E+00  0.93827000000E+00 0. -1.
     999902    2    1    2    0    0 -0.17544493395E-01 -0.12522484216E-01 -0.11456023268E-01  0.10195197086E+01  0.10192274397E+01 0.  0.
     999903    2    3    3    0    0  0.94606460462E-01 -0.35800235670E-01  0.75553342452E-01  0.12784133611E+00  0.20076364885E-01 0.  0.
         14    1    1    2    0    0  0.17544493395E-01  0.12522484216E-01  0.11456023268E-01  0.24410291447E-01  0.00000000000E+00 0.  1.
     999901    1    3    3    0    0 -0.11215095386E+00  0.23277751454E-01 -0.87009365720E-01  0.89167837245E+00  0.88000000000E+00 0. -1.
        -11    1    4    4    0    0  0.20052969583E-01 -0.14930328015E-01  0.25107303809E-01  0.35435492226E-01  0.51100000000E-03 0. -1.
         11    1    4    4    0    0  0.74553490879E-01 -0.20869907655E-01  0.50446038643E-01  0.92405843882E-01  0.51100000000E-03 0.  1.
</event>
<event>
 8    1  0.1099921E+005  0.1043930E+01  0.7957747E-01            NaN
         13   -1    0    0    0    0  0.00000000000E+00  0.00000000000E+00  0.74505805969E-08  0.10566000000E+00  0.10566000000E+00 0.  1.
     999900   -1    0    0    0    0 -0.00000000000E+00 -0.00000000000E+00 -0.74505805969E-08  0.93827000000E+00  0.93827000000E+00 0. -1.
     999902    2    1    2    0    0  0.18848724870E-01  0.12905050518E-01 -0.22012903866E-02  0.10209809164E+01  0.10207229650E+01 0.  0.
     999903    2    3    3    0    0 -0.88466529082E-01  0.85013464974E-02  0.91945244856E-01  0.12946561849E+00  0.20219264540E-01 0.  0.
         14    1    1    2    0    0 -0.18848724870E-01 -0.12905050518E-01  0.22012903866E-02  0.22949083586E-01  0.00000000000E+00 0.  1.
     999901    1    3    3    0    0  0.10731525395E+00  0.44037040202E-02 -0.94146535242E-01  0.89151529793E+00  0.88000000000E+00 0. -1.
        -11    1    4    4    0    0 -0.33007744628E-01  0.79348680380E-02  0.47522450774E-01  0.58404775360E-01  0.51100000000E-03 0.  1.
         11    1    4    4    0    0 -0.55458784454E-01  0.56647845947E-03  0.44422794081E-01  0.71060843127E-01  0.51100000000E-03 0. -1.
</event>
<event>
 8    1  0.1099921E+005  0.1043930E+01  0.7957747E-01            NaN
         13   -1    0    0    0    0  0.00000000000E+00  0.00000000000E+00  0.74505805969E-08  0.10566000000E+00  0.10566000000E+00 0. -1.
     999900   -1    0    0    0    0 -0.00000000000E+00 -0.00000000000E+00 -0.74505805969E-08  0.93827000000E+00  0.93827000000E+00 0.  1.
     999902    2    1    2    0    0 -0.90381313444E-02  0.19242287106E-01 -0.11128572571E-01  0.10199341971E+01  0.10196518856E+01 0.  0.
     999903    2    3    3    0    0  0.29106892102E-01  0.64165841723E-01 -0.10984868270E+00  0.13245527972E+00  0.22653953816E-01 0.  0.
         14    1    1    2    0    0  0.90381313444E-02 -0.19242287106E-01  0.11128572571E-01  0.23995802940E-01  0.00000000000E+00 0. -1.
     999901    1    3    3    0    0 -0.38145023446E-01 -0.44923554616E-01  0.98720110131E-01  0.88747891734E+00  0.88000000000E+00 0. -1.
        -11    1    4    4    0    0  0.10770950226E-01  0.45283496977E-01 -0.80824296253E-01  0.93270769553E-01  0.51100000000E-03 0.  1.
         11    1    4    4    0    0  0.18335941876E-01  0.18882344745E-01 -0.29024386448E-01  0.39184510170E-01  0.51100000000E-03 0. -1.
</event>
<event>
 8    1  0.1099921E+005  0.1043930E+01  0.7957747E-01            NaN
         13   -1    0    0    0    0  0.00000000000E+00  0.00000000000E+00  0.74505805969E-08  0.10566000000E+00  0.10566000000E+00 0. -1.
     999900   -1    0    0    0    0 -0.00000000000E+00 -0.00000000000E+00 -0.74505805969E-08  0.93827000000E+00  0.93827000000E+00 0.  1.
     999902    2    1    2    0    0 -0.33449733114E-02  0.27059375435E-02  0.23504821378E-01  0.10200346537E+01  0.10197547290E+01 0.  0.
     999903    2    3    3    0    0 -0.12899940434E+00  0.49408312093E-02 -0.30343299506E-02  0.13070999012E+00  0.20264161082E-01 0.  0.
         14    1    1    2    0    0  0.33449733114E-02 -0.27059375435E-02 -0.23504821378E-01  0.23895346251E-01  0.00000000000E+00 0.  1.
     999901    1    3    3    0    0  0.12565443103E+00 -0.22348936658E-02  0.26539151329E-01  0.88932466363E+00  0.88000000000E+00 0.  1.
        -11    1    4    4    0    0 -0.22884093177E-01 -0.21697217224E-03  0.71491234701E-02  0.23981240269E-01  0.51100000000E-03 0. -1.
         11    1    4    4    0    0 -0.10611531117E+00  0.51578033815E-02 -0.10183453421E-01  0.10672874985E+00  0.51100000000E-03 0.  1.
</event>
<event>
 8    1  0.1099921E+005  0.1043930E+01  0.7957747E-01            NaN
         13   -1    0    0    0    0  0.00000000000E+00  0.00000000000E+00  0.74505805969E-08  0.10566000000E+00  0.10566000000E+00 0. -1.
     999900   -1    0    0    0    0 -0.00000000000E+00 -0.00000000000E+00 -0.74505805969E-08  0.93827000000E+00  0.93827000000E+00 0.  1.
     999902    2    1    2    0    0  0.15390006095E-01 -0.20036471881E-02  0.17698937883E-01  0.10203902614E+01  0.10201187021E+01 0.  0.
     999903    2    3    3    0    0  0.43017180624E-02  0.20955956551E-01 -0.12517376657E+00  0.12850310309E+00  0.19670250940E-01 0.  0.
         14    1    1    2    0    0 -0.15390006095E-01  0.20036471881E-02 -0.17698937883E-01  0.23539738568E-01  0.00000000000E+00 0.  1.
     999901    1    3    3    0    0  0.11088288033E-01 -0.22959603739E-01  0.14287270446E+00  0.89188715834E+00  0.88000000000E+00 0. -1.
        -11    1    4    4    0    0  0.10223478309E-01  0.73088406584E-02 -0.78840072838E-01  0.79837064491E-01  0.51100000000E-03 0. -1.
         11    1    4    4    0    0 -0.59217602469E-02  0.13647115892E-01 -0.46333693737E-01  0.48666038599E-01  0.51100000000E-03 0.  1.
</event>
<event>
 8    1  0.1099921E+005  0.1043930E+01  0.7957747E-01            NaN
         13   -1    0    0    0    0  0.00000000000E+00  0.00000000000E+00  0.74505805969E-08  0.10566000000E+00  0.10566000000E+00 0. -1.
     999900   -1    0    0    0    0 -0.00000000000E+00 -0.00000000000E+00 -0.74505805969E-08  0.93827000000E+00  0.93827000000E+00 0. -1.
     999902    2    1    2    0    0 -0.10902451974E-01  0.19048306824E-01 -0.51805471281E-02  0.10213791792E+01  0.10211302013E+01 0.  0.
     999903    2    3    3    0    0 -0.41192735214E-01 -0.57480687793E-01  0.10749718084E+00  0.13038509464E+00  0.21065566993E-01 0.  0.
         14    1    1    2    0    0  0.10902451974E-01 -0.19048306824E-01  0.51805471281E-02  0.22550820837E-01  0.00000000000E+00 0.  1.
     999901    1    3    3    0    0  0.30290283240E-01  0.76528994617E-01 -0.11267772796E+00  0.89099408452E+00  0.88000000000E+00 0. -1.
        -11    1    4    4    0    0 -0.35306043216E-02 -0.21133579865E-01  0.32303087265E-01  0.38766531088E-01  0.51100000000E-03 0.  1.
         11    1    4    4    0    0 -0.37662130892E-01 -0.36347107928E-01  0.75194093572E-01  0.91618563551E-01  0.51100000000E-03 0. -1.
</event>
<event>
 8    1  0.1099921E+005  0.1043930E+01  0.7957747E-01            NaN
         13   -1    0    0    0    0  0.00000000000E+00  0.00000000000E+00  0.74505805969E-08  0.10566000000E+00  0.10566000000E+00 0. -1.
     999900   -1    0    0    0    0 -0.00000000000E+00 -0.00000000000E+00 -0.74505805969E-08  0.93827000000E+00  0.93827000000E+00 0. -1.
     999902    2    1    2    0    0 -0.17896391741E-01 -0.14860076602E-01 -0.91881787291E-05  0.10206683836E+01  0.10204032764E+01 0.  0.
     999903    2    3    3    0    0 -0.79363076612E-01 -0.84084843932E-01  0.64175018332E-01  0.13348754851E+00  0.18213558682E-01 0.  0.
         14    1    1    2    0    0  0.17896391741E-01  0.14860076602E-01  0.91881787291E-05  0.23261616418E-01  0.00000000000E+00 0. -1.
     999901    1    3    3    0    0  0.61466684871E-01  0.69224767330E-01 -0.64184206511E-01  0.88718083508E+00  0.88000000000E+00 0.  1.
        -11    1    4    4    0    0 -0.22101671053E-01 -0.28062540279E-01  0.28919082679E-01  0.45962642376E-01  0.51100000000E-03 0. -1.
         11    1    4    4    0    0 -0.57261405559E-01 -0.56022303653E-01  0.35255935653E-01  0.87524906130E-01  0.51100000000E-03 0.  1.
</event>
<event>
 8    1  0.1099921E+005  0.1043930E+01  0.7957747E-01            NaN
         13   -1    0    0    0    0  0.00000000000E+00  0.00000000000E+00  0.74505805969E-08  0.10566000000E+00  0.10566000000E+00 0. -1.
     999900   -1    0    0    0    0 -0.00000000000E+00 -0.00000000000E+00 -0.74505805969E-08  0.93827000000E+00  0.93827000000E+00 0.  1.
     999902    2    1    2    0    0  0.70397362696E-03  0.81412364079E-02  0.22534481848E-01  0.10199596395E+01  0.10196779335E+01 0.  0.
     999903    2    3    3    0    0  0.95064013887E-01 -0.81001080859E-01  0.31511440455E-01  0.13039190421E+00  0.20266622008E-01 0.  0.
         14    1    1    2    0    0 -0.70397362696E-03 -0.81412364079E-02 -0.22534481848E-01  0.23970360475E-01  0.00000000000E+00 0.  1.
     999901    1    3    3    0    0 -0.94360040260E-01  0.89142317267E-01 -0.89769586065E-02  0.88956773531E+00  0.88000000000E+00 0. -1.
        -11    1    4    4    0    0  0.63770627302E-01 -0.58429652330E-01  0.30751753987E-01  0.91796779204E-01  0.51100000000E-03 0. -1.
         11    1    4    4    0    0  0.31293386585E-01 -0.22571428529E-01  0.75968646765E-03  0.38595125007E-01  0.51100000000E-03 0.  1.
</event>
<event>
 8    1  0.1099921E+005  0.1043930E+01  0.7957747E-01            NaN
         13   -1    0    0    0    0  0.00000000000E+00  0.00000000000E+00  0.74505805969E-08  0.10566000000E+00  0.10566000000E+00 0.  1.
     999900   -1    0    0    0    0 -0.00000000000E+00 -0.00000000000E+00 -0.74505805969E-08  0.93827000000E+00  0.93827000000E+00 0.  1.
     999902    2    1    2    0    0  0.75968271281E-02  0.43222118027E-02 -0.22786799506E-01  0.10195244365E+01  0.10192322822E+01 0.  0.
     999903    2    3    3    0    0 -0.96230263150E-01 -0.53087012744E-02 -0.86575092635E-01  0.13107535778E+00  0.19926286602E-01 0.  0.
         14    1    1    2    0    0 -0.75968271281E-02 -0.43222118027E-02  0.22786799506E-01  0.24405563484E-01  0.00000000000E+00 0. -1.
     999901    1    3    3    0    0  0.10382709028E+00  0.96309130771E-02  0.63788293129E-01  0.88844907873E+00  0.88000000000E+00 0.  1.
        -11    1    4    4    0    0 -0.23496632712E-01 -0.15551966373E-02 -0.10598877874E-01  0.25828428496E-01  0.51100000000E-03 0. -1.
         11    1    4    4    0    0 -0.72733630439E-01 -0.37535046371E-02 -0.75976214760E-01  0.10524692929E+00  0.51100000000E-03 0.  1.
</event>
<event>
 8    1  0.1099921E+005  0.1043930E+01  0.7957747E-01            NaN
         13   -1    0    0    0    0  0.00000000000E+00  0.00000000000E+00  0.74505805969E-08  0.10566000000E+00  0.10566000000E+00 0. -1.
     999900   -1    0    0    0    0 -0.00000000000E+00 -0.00000000000E+00 -0.74505805969E-08  0.93827000000E+00  0.93827000000E+00 0.  1.
     999902    2    1    2    0    0  0.10495331146E-01  0.88703331610E-02  0.20480103560E-01  0.10192668812E+01  0.10189684518E+01 0.  0.
     999903    2    3    3    0    0  0.88955789908E-01  0.15426591099E-01  0.94931928885E-01  0.13262033247E+00  0.20614780920E-01 0.  0.
         14    1    1    2    0    0 -0.10495331146E-01 -0.88703331610E-02 -0.20480103560E-01  0.24663118782E-01  0.00000000000E+00 0.  1.
     999901    1    3    3    0    0 -0.78460458762E-01 -0.65562579381E-02 -0.74451825325E-01  0.88664654875E+00  0.88000000000E+00 0.  1.
        -11    1    4    4    0    0  0.29849443079E-01 -0.45092918658E-02  0.29272128320E-01  0.42052842741E-01  0.51100000000E-03 0. -1.
         11    1    4    4    0    0  0.59106346829E-01  0.19935882965E-01  0.65659800565E-01  0.90567489732E-01  0.51100000000E-03 0.  1.
</event>
<event>
 8    1  0.1099921E+005  0.1043930E+01  0.7957747E-01            NaN
         13   -1    0    0    0    0  0.00000000000E+00  0.00000000000E+00  0.74505805969E-08  0.10566000000E+00  0.10566000000E+00 0. -1.
     999900   -1    0    0    0    0 -0.00000000000E+00 -0.00000000000E+00 -0.74505805969E-08  0.93827000000E+00  0.93827000000E+00 0.  1.
     999902    2    1    2    0    0 -0.94267914485E-02 -0.19044773852E-01 -0.96277313772E-02  0.10206005975E+01  0.10203339251E+01 0.  0.
     999903    2    3    3    0    0  0.46854733226E-01  0.97386856438E-01  0.66490230639E-01  0.12789802741E+00  0.16043341722E-01 0.  0.
         14    1    1    2    0    0  0.94267914485E-02  0.19044773852E-01  0.96277313772E-02  0.23329402469E-01  0.00000000000E+00 0. -1.
     999901    1    3    3    0    0 -0.56281524674E-01 -0.11643163029E+00 -0.76117962016E-01  0.89270257012E+00  0.88000000000E+00 0.  1.
        -11    1    4    4    0    0  0.20266929777E-01  0.53260342840E-01  0.27437314932E-01  0.63249347298E-01  0.51100000000E-03 0.  1.
         11    1    4    4    0    0  0.26587803449E-01  0.44126513598E-01  0.39052915707E-01  0.64648680116E-01  0.51100000000E-03 0. -1.
</event>
<event>
 8    1  0.1099921E+005  0.1043930E+01  0.7957747E-01            NaN
         13   -1    0    0    0    0  0.00000000000E+00  0.00000000000E+00  0.74505805969E-08  0.10566000000E+00  0.10566000000E+00 0. -1.
     999900   -1    0    0    0    0 -0.00000000000E+00 -0.00000000000E+00 -0.74505805969E-08  0.93827000000E+00  0.93827000000E+00 0. -1.
     999902    2    1    2    0    0 -0.17717203120E-01  0.17138390427E-02 -0.15706127777E-01  0.10201914453E+01  0.10199152249E+01 0.  0.
     999903    2    3    3    0    0  0.10228154724E-01 -0.12655569751E+00 -0.22272770272E-01  0.13042904001E+00  0.19867019430E-01 0.  0.
         14    1    1    2    0    0  0.17717203120E-01 -0.17138390427E-02  0.15706127777E-01  0.23738554725E-01  0.00000000000E+00 0.  1.
     999901    1    3    3    0    0 -0.27945357844E-01  0.12826953655E+00  0.65666424947E-02  0.88976240527E+00  0.88000000000E+00 0.  1.
        -11    1    4    4    0    0 -0.24424469119E-02 -0.49353185531E-01 -0.15995710066E-01  0.51940603871E-01  0.51100000000E-03 0. -1.
         11    1    4    4    0    0  0.12670601636E-01 -0.77202511978E-01 -0.62770602058E-02  0.78488436138E-01  0.51100000000E-03 0.  1.
</event>
<event>
 8    1  0.1099921E+005  0.1043930E+01  0.7957747E-01            NaN
         13   -1    0    0    0    0  0.00000000000E+00  0.00000000000E+00  0.74505805969E-08  0.10566000000E+00  0.10566000000E+00 0.  1.
     999900   -1    0    0    0    0 -0.00000000000E+00 -0.00000000000E+00 -0.74505805969E-08  0.93827000000E+00  0.93827000000E+00 0. -1.
     999902    2    1    2    0    0 -0.17671653619E-01  0.16164658128E-01 -0.22136832306E-02  0.10198783076E+01  0.10195946638E+01 0.  0.
     999903    2    3    3    0    0 -0.58931700339E-01 -0.10527144128E+00  0.42614521066E-01  0.12945218175E+00  0.19668459530E-01 0.  0.
         14    1    1    2    0    0  0.17671653619E-01 -0.16164658128E-01  0.22136832306E-02  0.24051692403E-01  0.00000000000E+00 0. -1.
     999901    1    3    3    0    0  0.41260046720E-01  0.12143609940E+00 -0.44828204296E-01  0.89042612585E+00  0.88000000000E+00 0.  1.
        -11    1    4    4    0    0 -0.40382975193E-01 -0.55943640763E-01  0.30138282616E-01  0.75293112748E-01  0.51100000000E-03 0.  1.
         11    1    4    4    0    0 -0.18548725146E-01 -0.49327800513E-01  0.12476238450E-01  0.54159068999E-01  0.51100000000E-03 0. -1.
</event>
<event>
 8    1  0.1099921E+005  0.1043930E+01  0.7957747E-01            NaN
         13   -1    0    0    0    0  0.00000000000E+00  0.00000000000E+00  0.74505805969E-08  0.10566000000E+00  0.10566000000E+00 0.  1.
     999900   -1    0    0    0    0 -0.00000000000E+00 -0.00000000000E+00 -0.74505805969E-08  0.93827000000E+00  0.93827000000E+00 0. -1.
     999902    2    1    2    0    0  0.87024642734E-02 -0.60870132954E-02  0.17647123938E-01  0.10233337479E+01  0.10231264605E+01 0.  0.
     999903    2    3    3    0    0  0.42518265603E-01 -0.11683478605E-01  0.12720709075E+00  0.13587771232E+00  0.18352171141E-01 0.  0.
         14    1    1    2    0    0 -0.87024642734E-02  0.60870132954E-02 -0.17647123938E-01  0.20596252052E-01  0.00000000000E+00 0. -1.
     999901    1    3    3    0    0 -0.33815801329E-01  0.55964653100E-02 -0.10955996681E+00  0.88745603563E+00  0.88000000000E+00 0. -1.
        -11    1    4    4    0    0  0.29371042636E-01  0.10931992203E-02  0.76173321318E-01  0.81648571522E-01  0.51100000000E-03 0.  1.
         11    1    4    4    0    0  0.13147222966E-01 -0.12776677826E-01  0.51033769435E-01  0.54229140798E-01  0.51100000000E-03 0. -1.
</event>
<event>
 8    1  0.1099921E+005  0.1043930E+01  0.7957747E-01            NaN
         13   -1    0    0    0    0  0.00000000000E+00  0.00000000000E+00  0.74505805969E-08  0.10566000000E+00  0.10566000000E+00 0. -1.
     999900   -1    0    0    0    0 -0.00000000000E+00 -0.00000000000E+00 -0.74505805969E-08  0.93827000000E+00  0.93827000000E+00 0.  1.
     999902    2    1    2    0    0 -0.57499494473E-02 -0.12679618124E-01  0.18051423321E-01  0.10211333222E+01  0.10208788240E+01 0.  0.
     999903    2    3    3    0    0  0.49102865709E-02 -0.10659191933E+00 -0.73300926275E-01  0.13137020051E+00  0.22341790662E-01 0.  0.
         14    1    1    2    0    0  0.57499494473E-02  0.12679618124E-01 -0.18051423321E-01  0.22796677792E-01  0.00000000000E+00 0.  1.
     999901    1    3    3    0    0 -0.10660236018E-01  0.93912301205E-01  0.91352349596E-01  0.88976312169E+00  0.88000000000E+00 0. -1.
        -11    1    4    4    0    0  0.93630575456E-02 -0.91106915050E-01 -0.54390125044E-01  0.10652081318E+00  0.51100000000E-03 0. -1.
         11    1    4    4    0    0 -0.44527709746E-02 -0.15485004279E-01 -0.18910801230E-01  0.24849387338E-01  0.51100000000E-03 0.  1.
</event>
<event>
 8    1  0.1099921E+005  0.1043930E+01  0.7957747E-01            NaN
         13   -1    0    0    0    0  0.00000000000E+00  0.00000000000E+00  0.74505805969E-08  0.10566000000E+00  0.10566000000E+00 0. -1.
     999900   -1    0    0    0    0 -0.00000000000E+00 -0.00000000000E+00 -0.74505805969E-08  0.93827000000E+00  0.93827000000E+00 0.  1.
     999902    2    1    2    0    0 -0.40664305327E-02 -0.22021700482E-01  0.75122918666E-02  0.10203095496E+01  0.10200361029E+01 0.  0.
     999903    2    3    3    0    0 -0.11873871116E+00  0.36914030471E-02  0.52550363332E-01  0.13135548804E+00  0.19499117055E-01 0.  0.
         14    1    1    2    0    0  0.40664305327E-02  0.22021700482E-01 -0.75122918666E-02  0.23620450430E-01  0.00000000000E+00 0. -1.
     999901    1    3    3    0    0  0.11467228063E+00 -0.25713103529E-01 -0.45038071465E-01  0.88895406153E+00  0.88000000000E+00 0. -1.
        -11    1    4    4    0    0 -0.64600434952E-01 -0.59274716728E-02  0.22326313204E-01  0.68608137263E-01  0.51100000000E-03 0.  1.
         11    1    4    4    0    0 -0.54138276210E-01  0.96188747200E-02  0.30224050128E-01  0.62747350773E-01  0.51100000000E-03 0. -1.
</event>
<event>
 8    1  0.1099921E+005  0.1043930E+01  0.7957747E-01            NaN
         13   -1    0    0    0    0  0.00000000000E+00  0.00000000000E+00  0.74505805969E-08  0.10566000000E+00  0.10566000000E+00 0.  1.
     999900   -1    0    0    0    0 -0.00000000000E+00 -0.00000000000E+00 -0.74505805969E-08  0.93827000000E+00  0.93827000000E+00 0. -1.
     999902    2    1    2    0    0  0.20753908794E-01 -0.10702514045E-01  0.13422167098E-02  0.10205404707E+01  0.10202724059E+01 0.  0.
     999903    2    3    3    0    0  0.69277665289E-01 -0.25031446314E-02  0.11054929033E+00  0.13242563038E+00  0.22577452197E-01 0.  0.
         14    1    1    2    0    0 -0.20753908794E-01  0.10702514045E-01 -0.13422167098E-02  0.23389529341E-01  0.00000000000E+00 0.  1.
     999901    1    3    3    0    0 -0.48523756496E-01 -0.81993694135E-02 -0.10920707362E+00  0.88811484028E+00  0.88000000000E+00 0. -1.
        -11    1    4    4    0    0  0.30710544985E-01  0.15799514809E-04  0.29290115245E-01  0.42441840146E-01  0.51100000000E-03 0. -1.
         11    1    4    4    0    0  0.38567120304E-01 -0.25189441462E-02  0.81259175082E-01  0.89983790230E-01  0.51100000000E-03 0.  1.
</event>
<event>
 8    1  0.1099921E+005  0.1043930E+01  0.7957747E-01            NaN
         13   -1    0    0    0    0  0.00000000000E+00  0.00000000000E+00  0.74505805969E-08  0.10566000000E+00  0.10566000000E+00 0.  1.
     999900   -1    0    0    0    0 -0.00000000000E+00 -0.00000000000E+00 -0.74505805969E-08  0.93827000000E+00  0.93827000000E+00 0.  1.
     999902    2    1    2    0    0 -0.22702409548E-01 -0.13231177338E-01  0.11011361174E-01  0.10154394133E+01  0.10150396488E+01 0.  0.
     999903    2    3    3    0    0 -0.68891093003E-01 -0.10177285015E+00 -0.32833390275E-01  0.12870642956E+00  0.19586162699E-01 0.  0.
         14    1    1    2    0    0  0.22702409548E-01  0.13231177338E-01 -0.11011361174E-01  0.28490586655E-01  0.00000000000E+00 0. -1.
     999901    1    3    3    0    0  0.46188683454E-01  0.88541672816E-01  0.43844751448E-01  0.88673298379E+00  0.88000000000E+00 0. -1.
        -11    1    4    4    0    0 -0.40843890386E-01 -0.67538069036E-01 -0.12175748234E-01  0.79863158697E-01  0.51100000000E-03 0. -1.
         11    1    4    4    0    0 -0.28047202617E-01 -0.34234781118E-01 -0.20657642041E-01  0.48843270862E-01  0.51100000000E-03 0.  1.
</event>
<event>
 8    1  0.1099921E+005  0.1043930E+01  0.7957747E-01            NaN
         13   -1    0    0    0    0  0.00000000000E+00  0.00000000000E+00  0.74505805969E-08  0.10566000000E+00  0.10566000000E+00 0. -1.
     999900   -1    0    0    0    0 -0.00000000000E+00 -0.00000000000E+00 -0.74505805969E-08  0.93827000000E+00  0.93827000000E+00 0. -1.
     999902    2    1    2    0    0 -0.16489923931E-01 -0.70644585984E-02 -0.14593785944E-01  0.10208041972E+01  0.10205422119E+01 0.  0.
     999903    2    3    3    0    0  0.11728924587E+00 -0.24083133597E-01  0.42588438470E-01  0.12869640756E+00  0.20303342223E-01 0.  0.
         14    1    1    2    0    0  0.16489923931E-01  0.70644585984E-02  0.14593785944E-01  0.23125802790E-01  0.00000000000E+00 0. -1.
     999901    1    3    3    0    0 -0.13377916980E+00  0.17018674998E-01 -0.57182224413E-01  0.89210778965E+00  0.88000000000E+00 0. -1.
        -11    1    4    4    0    0  0.71390456097E-01 -0.14219861981E-01  0.15274965780E-01  0.74380020147E-01  0.51100000000E-03 0.  1.
         11    1    4    4    0    0  0.45898789776E-01 -0.98632716159E-02  0.27313472690E-01  0.54316387409E-01  0.51100000000E-03 0. -1.
</event>
<event>
 8    1  0.1099921E+005  0.1043930E+01  0.7957747E-01            NaN
         13   -1    0    0    0    0  0.00000000000E+00  0.00000000000E+00  0.74505805969E-08  0.10566000000E+00  0.10566000000E+00 0. -1.
     999900   -1    0    0    0    0 -0.00000000000E+00 -0.00000000000E+00 -0.74505805969E-08  0.93827000000E+00  0.93827000000E+00 0. -1.
     999902    2    1    2    0    0 -0.82484530452E-02 -0.19674155199E-01  0.85048166067E-02  0.10209639105E+01  0.10207055723E+01 0.  0.
     999903    2    3    3    0    0  0.87163548184E-02  0.63923874033E-01 -0.10991236548E+00  0.12894425591E+00  0.19587152263E-01 0.  0.
         14    1    1    2    0    0  0.82484530452E-02  0.19674155199E-01 -0.85048166067E-02  0.22966089479E-01  0.00000000000E+00 0.  1.
     999901    1    3    3    0    0 -0.16964807864E-01 -0.83598029232E-01  0.11841718209E+00  0.89201965461E+00  0.88000000000E+00 0.  1.
        -11    1    4    4    0    0 -0.64972948275E-03  0.20833156145E-01 -0.20457698437E-01  0.29209948471E-01  0.51100000000E-03 0. -1.
         11    1    4    4    0    0  0.93660843012E-02  0.43090717888E-01 -0.89454667046E-01  0.99734307440E-01  0.51100000000E-03 0.  1.
</event>
<event>
 8    1  0.1099921E+005  0.1043930E+01  0.7957747E-01            NaN
         13   -1    0    0    0    0  0.00000000000E+00  0.00000000000E+00  0.74505805969E-08  0.10566000000E+00  0.10566000000E+00 0. -1.
     999900   -1    0    0    0    0 -0.00000000000E+00 -0.00000000000E+00 -0.74505805969E-08  0.93827000000E+00  0.93827000000E+00 0. -1.
     999902    2    1    2    0    0  0.20363439972E-01  0.12368253849E-01 -0.13823204215E-02  0.10200646653E+01  0.10197854515E+01 0.  0.
     999903    2    3    3    0    0 -0.67921147162E-01  0.63553678786E-01  0.87978835328E-01  0.12967175640E+00  0.20545963689E-01 0.  0.
         14    1    1    2    0    0 -0.20363439972E-01 -0.12368253849E-01  0.13823204215E-02  0.23865334703E-01  0.00000000000E+00 0.  1.
     999901    1    3    3    0    0  0.88284587134E-01 -0.51185424937E-01 -0.89361155750E-01  0.89039290889E+00  0.88000000000E+00 0. -1.
        -11    1    4    4    0    0 -0.29247274369E-01  0.31524659360E-01  0.54029187246E-01  0.69055205461E-01  0.51100000000E-03 0.  1.
         11    1    4    4    0    0 -0.38673872793E-01  0.32029019426E-01  0.33949648082E-01  0.60616550942E-01  0.51100000000E-03 0. -1.
</event>
<event>
 8    1  0.1099921E+005  0.1043930E+01  0.7957747E-01            NaN
         13   -1    0    0    0    0  0.00000000000E+00  0.00000000000E+00  0.74505805969E-08  0.10566000000E+00  0.10566000000E+00 0.  1.
     999900   -1    0    0    0    0 -0.00000000000E+00 -0.00000000000E+00 -0.74505805969E-08  0.93827000000E+00  0.93827000000E+00 0.  1.
     999902    2    1    2    0    0 -0.11770191083E-01 -0.15568008905E-01  0.14513926673E-01  0.10196081093E+01  0.10193179789E+01 0.  0.
     999903    2    3    3    0    0  0.11815001746E+00 -0.48036497949E-01  0.59306386680E-03  0.12936811145E+00  0.21652361868E-01 0.  0.
         14    1    1    2    0    0  0.11770191083E-01  0.15568008905E-01 -0.14513926673E-01  0.24321890693E-01  0.00000000000E+00 0.  1.
     999901    1    3    3    0    0 -0.12992020854E+00  0.32468489044E-01  0.13920862807E-01  0.89023999786E+00  0.88000000000E+00 0.  1.
        -11    1    4    4    0    0  0.81504636613E-01 -0.22131058006E-01 -0.91916768419E-03  0.84462391087E-01  0.51100000000E-03 0. -1.
         11    1    4    4    0    0  0.36645380844E-01 -0.25905439943E-01  0.15122315510E-02  0.44905720361E-01  0.51100000000E-03 0.  1.
</event>
<event>
 8    1  0.1099921E+005  0.1043930E+01  0.7957747E-01            NaN
         13   -1    0    0    0    0  0.00000000000E+00  0.00000000000E+00  0.74505805969E-08  0.10566000000E+00  0.10566000000E+00 0.  1.
     999900   -1    0    0    0    0 -0.00000000000E+00 -0.00000000000E+00 -0.74505805969E-08  0.93827000000E+00  0.93827000000E+00 0. -1.
     999902    2    1    2    0    0 -0.19254897920E-01 -0.11028857088E-01 -0.71687743527E-02  0.10206109497E+01  0.10203445166E+01 0.  0.
     999903    2    3    3    0    0 -0.41499917003E-01  0.86782167187E-01 -0.86991471594E-01  0.13132275097E+00  0.20609734122E-01 0.  0.
         14    1    1    2    0    0  0.19254897920E-01  0.11028857088E-01  0.71687743527E-02  0.23319050330E-01  0.00000000000E+00 0. -1.
     999901    1    3    3    0    0  0.22245019084E-01 -0.97811024275E-01  0.79822697241E-01  0.88928819870E+00  0.88000000000E+00 0. -1.
        -11    1    4    4    0    0 -0.26000017407E-01  0.66649839127E-01 -0.73418995626E-01  0.10251249680E+00  0.51100000000E-03 0. -1.
         11    1    4    4    0    0 -0.15499899596E-01  0.20132328060E-01 -0.13572475968E-01  0.28810254173E-01  0.51100000000E-03 0.  1.
</event>
<event>
 8    1  0.1099921E+005  0.1043930E+01  0.7957747E-01            NaN
         13   -1    0    0    0    0  0.00000000000E+00  0.00000000000E+00  0.74505805969E-08  0.10566000000E+00  0.10566000000E+00 0.  1.
     999900   -1    0    0    0    0 -0.00000000000E+00 -0.00000000000E+00 -0.74505805969E-08  0.93827000000E+00  0.93827000000E+00 0. -1.
     999902    2    1    2    0    0 -0.16135400329E-01 -0.14461394987E-01 -0.98206642542E-02  0.10201407475E+01  0.10198633321E+01 0.  0.
     999903    2    3    3    0    0 -0.21194416014E-01  0.75513167973E-01  0.10024892732E+00  0.12871698148E+00  0.19151294561E-01 0.  0.
         14    1    1    2    0    0  0.16135400329E-01  0.14461394987E-01  0.98206642542E-02  0.23789252513E-01  0.00000000000E+00 0.  1.
     999901    1    3    3    0    0  0.50590156849E-02 -0.89974562960E-01 -0.11006959158E+00  0.89142376601E+00  0.88000000000E+00 0. -1.
        -11    1    4    4    0    0 -0.82989638067E-02  0.13245593384E-01  0.30861139283E-01  0.34597537241E-01  0.51100000000E-03 0.  1.
         11    1    4    4    0    0 -0.12895452207E-01  0.62267574590E-01  0.69387788040E-01  0.94119444234E-01  0.51100000000E-03 0. -1.
</event>
<event>
 8    1  0.1099921E+005  0.1043930E+01  0.7957747E-01            NaN
         13   -1    0    0    0    0  0.00000000000E+00  0.00000000000E+00  0.74505805969E-08  0.10566000000E+00  0.10566000000E+00 0.  1.
     999900   -1    0    0    0    0 -0.00000000000E+00 -0.00000000000E+00 -0.74505805969E-08  0.93827000000E+00  0.93827000000E+00 0.  1.
     999902    2    1    2    0    0  0.18645837704E-01  0.14451090029E-01  0.10255646420E-02  0.10203174387E+01  0.10200441769E+01 0.  0.
     999903    2    3    3    0    0  0.86402677854E-01 -0.87719429293E-01  0.39663258403E-01  0.13097910279E+00  0.20548242841E-01 0.  0.
         14    1    1    2    0    0 -0.18645837704E-01 -0.14451090029E-01 -0.10255646420E-02  0.23612561266E-01  0.00000000000E+00 0. -1.
     999901    1    3    3    0    0 -0.67756840150E-01  0.10217051932E+00 -0.38637693761E-01  0.88933833595E+00  0.88000000000E+00 0.  1.
        -11    1    4    4    0    0  0.46877525471E-01 -0.45028948741E-01  0.10317328597E-01  0.65816540545E-01  0.51100000000E-03 0. -1.
         11    1    4    4    0    0  0.39525152383E-01 -0.42690480552E-01  0.29345929806E-01  0.65162562241E-01  0.51100000000E-03 0.  1.
</event>
<event>
 8    1  0.1099921E+005  0.1043930E+01  0.7957747E-01            NaN
         13   -1    0    0    0    0  0.00000000000E+00  0.00000000000E+00  0.74505805969E-08  0.10566000000E+00  0.10566000000E+00 0. -1.
     999900   -1    0    0    0    0 -0.00000000000E+00 -0.00000000000E+00 -0.74505805969E-08  0.93827000000E+00  0.93827000000E+00 0. -1.
     999902    2    1    2    0    0  0.22728658751E-02  0.13815525195E-01 -0.19639345629E-01  0.10198107431E+01  0.10195254843E+01 0.  0.
     999903    2    3    3    0    0 -0.10584786658E+00  0.59239319527E-01  0.41914968007E-01  0.12989931640E+00  0.20097263988E-01 0.  0.
         14    1    1    2    0    0 -0.22728658751E-02 -0.13815525195E-01  0.19639345629E-01  0.24119256880E-01  0.00000000000E+00 0. -1.
     999901    1    3    3    0    0  0.10812073246E+00 -0.45423794332E-01 -0.61554313636E-01  0.88991142672E+00  0.88000000000E+00 0. -1.
        -11    1    4    4    0    0 -0.33025205889E-01  0.14837540748E-01  0.35736278172E-02  0.36384732735E-01  0.51100000000E-03 0.  1.
         11    1    4    4    0    0 -0.72822660696E-01  0.44401778779E-01  0.38341340190E-01  0.93514583665E-01  0.51100000000E-03 0. -1.
</event>
<event>
 8    1  0.1099921E+005  0.1043930E+01  0.7957747E-01            NaN
         13   -1    0    0    0    0  0.00000000000E+00  0.00000000000E+00  0.74505805969E-08  0.10566000000E+00  0.10566000000E+00 0. -1.
     999900   -1    0    0    0    0 -0.00000000000E+00 -0.00000000000E+00 -0.74505805969E-08  0.93827000000E+00  0.93827000000E+00 0.  1.
     999902    2    1    2    0    0 -0.27224728667E-02  0.13139241417E-01  0.19614089175E-01  0.10201652358E+01  0.10198883980E+01 0.  0.
     999903    2    3    3    0    0 -0.68165436800E-01  0.11115416936E+00  0.82709608542E-02  0.13223597387E+00  0.20400192430E-01 0.  0.
         14    1    1    2    0    0  0.27224728667E-02 -0.13139241417E-01 -0.19614089175E-01  0.23764764204E-01  0.00000000000E+00 0.  1.
     999901    1    3    3    0    0  0.65442963934E-01 -0.98014927942E-01  0.11343128321E-01  0.88792926193E+00  0.88000000000E+00 0.  1.
        -11    1    4    4    0    0 -0.54272160421E-01  0.10131312164E+00  0.66926766439E-02  0.11512979221E+00  0.51100000000E-03 0. -1.
         11    1    4    4    0    0 -0.13893276380E-01  0.98410477183E-02  0.15782842102E-02  0.17106181655E-01  0.51100000000E-03 0.  1.
</event>
<event>
 8    1  0.1099921E+005  0.1043930E+01  0.7957747E-01            NaN
         13   -1    0    0    0    0  0.00000000000E+00  0.00000000000E+00  0.74505805969E-08  0.10566000000E+00  0.10566000000E+00 0.  1.
     999900   -1    0    0    0    0 -0.00000000000E+00 -0.00000000000E+00 -0.74505805969E-08  0.93827000000E+00  0.93827000000E+00 0. -1.
     999902    2    1    2    0    0  0.24637412846E-01 -0.80551731977E-03 -0.55798705894E-02  0.10186557854E+01  0.10183421935E+01 0.  0.
     999903    2    3    3    0    0 -0.11581285389E+00  0.13184265042E-01  0.43958461079E-01  0.12603266346E+00  0.19116589364E-01 0.  0.
         14    1    1    2    0    0 -0.24637412846E-01  0.80551731977E-03  0.55798705894E-02  0.25274214641E-01  0.00000000000E+00 0. -1.
     999901    1    3    3    0    0  0.14045026674E+00 -0.13989782362E-01 -0.49538331668E-01  0.89262312189E+00  0.88000000000E+00 0. -1.
        -11    1    4    4    0    0 -0.55805603371E-01  0.84237999352E-02  0.11349321182E-01  0.57569905204E-01  0.51100000000E-03 0.  1.
         11    1    4    4    0    0 -0.60007250518E-01  0.47604651072E-02  0.32609139897E-01  0.68462758261E-01  0.51100000000E-03 0. -1.
</event>
<event>
 8    1  0.1099921E+005  0.1043930E+01  0.7957747E-01            NaN
         13   -1    0    0    0    0  0.00000000000E+00  0.00000000000E+00  0.74505805969E-08  0.10566000000E+00  0.10566000000E+00 0. -1.
     999900   -1    0    0    0    0 -0.00000000000E+00 -0.00000000000E+00 -0.74505805969E-08  0.93827000000E+00  0.93827000000E+00 0. -1.
     999902    2    1    2    0    0 -0.51302784724E-02  0.23198358873E-01  0.46922058475E-02  0.10197122295E+01  0.10194246076E+01 0.  0.
     999903    2    3    3    0    0  0.96890521446E-01 -0.32336722558E-01  0.76457743776E-01  0.12918279074E+00  0.20223008394E-01 0.  0.
         14    1    1    2    0    0  0.51302784724E-02 -0.23198358873E-01 -0.46922058475E-02  0.24217770487E-01  0.00000000000E+00 0.  1.
     999901    1    3    3    0    0 -0.10202079992E+00  0.55535081432E-01 -0.71765537929E-01  0.89052943877E+00  0.88000000000E+00 0. -1.
        -11    1    4    4    0    0  0.70138129714E-01 -0.30819187747E-01  0.63023853920E-01  0.99204066736E-01  0.51100000000E-03 0.  1.
         11    1    4    4    0    0  0.26752391732E-01 -0.15175348111E-02  0.13433889856E-01  0.29978724005E-01  0.51100000000E-03 0. -1.
</event>
<event>
 8    1  0.1099921E+005  0.1043930E+01  0.7957747E-01            NaN
         13   -1    0    0    0    0  0.00000000000E+00  0.00000000000E+00  0.74505805969E-08  0.10566000000E+00  0.10566000000E+00 0.  1.
     999900   -1    0    0    0    0 -0.00000000000E+00 -0.00000000000E+00 -0.74505805969E-08  0.93827000000E+00  0.93827000000E+00 0. -1.
     999902    2    1    2    0    0 -0.99331628691E-02  0.10581596554E-01  0.15355244850E-01  0.10228013120E+01  0.10225830541E+01 0.  0.
     999903    2    3    3    0    0 -0.53909121971E-01  0.92644654355E-01 -0.75370952765E-01  0.13325115980E+00  0.24204661830E-01 0.  0.
         14    1    1    2    0    0  0.99331628691E-02 -0.10581596554E-01 -0.15355244850E-01  0.21128687953E-01  0.00000000000E+00 0. -1.
     999901    1    3    3    0    0  0.43975959101E-01 -0.82063057801E-01  0.90726197615E-01  0.88955015225E+00  0.88000000000E+00 0.  1.
        -11    1    4    4    0    0 -0.19342874125E-01  0.25065976483E-01 -0.10383699888E-01  0.33324650048E-01  0.51100000000E-03 0.  1.
         11    1    4    4    0    0 -0.34566247845E-01  0.67578677872E-01 -0.64987252877E-01  0.99926509749E-01  0.51100000000E-03 0. -1.
</event>
<event>
 8    1  0.1099921E+005  0.1043930E+01  0.7957747E-01            NaN
         13   -1    0    0    0    0  0.00000000000E+00  0.00000000000E+00  0.74505805969E-08  0.10566000000E+00  0.10566000000E+00 0.  1.
     999900   -1    0    0    0    0 -0.00000000000E+00 -0.00000000000E+00 -0.74505805969E-08  0.93827000000E+00  0.93827000000E+00 0.  1.
     999902    2    1    2    0    0  0.13427212228E-01  0.16959897179E-01  0.85192874986E-02  0.10206812065E+01  0.10204163948E+01 0.  0.
     999903    2    3    3    0    0 -0.41774438169E-01 -0.11952634420E+00  0.28346649151E-02  0.12843234477E+00  0.21334976373E-01 0.  0.
         14    1    1    2    0    0 -0.13427212228E-01 -0.16959897179E-01 -0.85192874986E-02  0.23248793518E-01  0.00000000000E+00 0. -1.
     999901    1    3    3    0    0  0.55201650397E-01  0.13648624138E+00  0.56846225835E-02  0.89224886171E+00  0.88000000000E+00 0.  1.
        -11    1    4    4    0    0 -0.19767111641E-01 -0.77899475716E-01 -0.57171619924E-02  0.80573035699E-01  0.51100000000E-03 0.  1.
         11    1    4    4    0    0 -0.22007326528E-01 -0.41626868481E-01  0.85518269075E-02  0.47859309072E-01  0.51100000000E-03 0. -1.
</event>
<event>
 8    1  0.1099921E+005  0.1043930E+01  0.7957747E-01            NaN
         13   -1    0    0    0    0  0.00000000000E+00  0.00000000000E+00  0.74505805969E-08  0.10566000000E+00  0.10566000000E+00 0.  1.
     999900   -1    0    0    0    0 -0.00000000000E+00 -0.00000000000E+00 -0.74505805969E-08  0.93827000000E+00  0.93827000000E+00 0.  1.
     999902    2    1    2    0    0 -0.10862567426E-01 -0.11648378248E-01 -0.17752525371E-01  0.10200797957E+01  0.10198009401E+01 0.  0.
     999903    2    3    3    0    0 -0.77850373184E-01  0.63008547709E-01 -0.83419717899E-01  0.13195074942E+00  0.20527865190E-01 0.  0.
         14    1    1    2    0    0  0.10862567426E-01  0.11648378248E-01  0.17752525371E-01  0.23850204275E-01  0.00000000000E+00 0.  1.
     999901    1    3    3    0    0  0.66987805757E-01 -0.74656925957E-01  0.65667192529E-01  0.88812904630E+00  0.88000000000E+00 0. -1.
        -11    1    4    4    0    0 -0.24844877236E-01  0.28162702502E-01 -0.41196890047E-01  0.55748099588E-01  0.51100000000E-03 0.  1.
         11    1    4    4    0    0 -0.53005495948E-01  0.34845845207E-01 -0.42222827852E-01  0.76202649834E-01  0.51100000000E-03 0. -1.
</event>
<event>
 8    1  0.1099921E+005  0.1043930E+01  0.7957747E-01            NaN
         13   -1    0    0    0    0  0.00000000000E+00  0.00000000000E+00  0.74505805969E-08  0.10566000000E+00  0.10566000000E+00 0. -1.
     999900   -1    0    0    0    0 -0.00000000000E+00 -0.00000000000E+00 -0.74505805969E-08  0.93827000000E+00  0.93827000000E+00 0.  1.
     999902    2    1    2    0    0 -0.15929485458E-01 -0.15891746734E-01  0.60049959914E-02  0.10206414599E+01  0.10203757316E+01 0.  0.
     999903    2    3    3    0    0 -0.52335883490E-01 -0.11348884984E+00 -0.41511862723E-01  0.13322471894E+00  0.20169959097E-01 0.  0.
         14    1    1    2    0    0  0.15929485458E-01  0.15891746734E-01 -0.60049959914E-02  0.23288540059E-01  0.00000000000E+00 0. -1.
     999901    1    3    3    0    0  0.36406398032E-01  0.97597103108E-01  0.47516858714E-01  0.88741674100E+00  0.88000000000E+00 0. -1.
        -11    1    4    4    0    0 -0.24085163322E-01 -0.65032324337E-01 -0.14006885667E-01  0.70751341104E-01  0.51100000000E-03 0. -1.
         11    1    4    4    0    0 -0.28250720168E-01 -0.48456525505E-01 -0.27504977056E-01  0.62473377833E-01  0.51100000000E-03 0.  1.
</event>
<event>
 8    1  0.1099921E+005  0.1043930E+01  0.7957747E-01            NaN
         13   -1    0    0    0    0  0.00000000000E+00  0.00000000000E+00  0.74505805969E-08  0.10566000000E+00  0.10566000000E+00 0.  1.
     999900   -1    0    0    0    0 -0.00000000000E+00 -0.00000000000E+00 -0.74505805969E-08  0.93827000000E+00  0.93827000000E+00 0. -1.
     999902    2    1    2    0    0  0.21505017210E-01  0.10502611879E-01  0.38067956165E-02  0.10196965043E+01  0.10194085043E+01 0.  0.
     999903    2    3    3    0    0  0.13026861658E+00 -0.87237645963E-02 -0.12145456704E-01  0.13264878942E+00  0.20054243453E-01 0.  0.
         14    1    1    2    0    0 -0.21505017210E-01 -0.10502611879E-01 -0.38067956165E-02  0.24233495711E-01  0.00000000000E+00 0.  1.
     999901    1    3    3    0    0 -0.10876359937E+00  0.19226376475E-01  0.15952252320E-01  0.88704771487E+00  0.88000000000E+00 0. -1.
        -11    1    4    4    0    0  0.79769394080E-02 -0.47440067926E-02  0.19016943722E-02  0.94876090377E-02  0.51100000000E-03 0.  1.
         11    1    4    4    0    0  0.12229167718E+00 -0.39797578038E-02 -0.14047151076E-01  0.12316118038E+00  0.51100000000E-03 0. -1.
</event>
<event>
 8    1  0.1099921E+005  0.1043930E+01  0.7957747E-01            NaN
         13   -1    0    0    0    0  0.00000000000E+00  0.00000000000E+00  0.74505805969E-08  0.10566000000E+00  0.10566000000E+00 0.  1.
     999900   -1    0    0    0    0 -0.00000000000E+00 -0.00000000000E+00 -0.74505805969E-08  0.93827000000E+00  0.93827000000E+00 0. -1.
     999902    2    1    2    0    0  0.12861441806E-01 -0.16685735098E-01  0.10124687616E-01  0.10205560885E+01  0.10202883857E+01 0.  0.
     999903    2    3    3    0    0  0.12627316974E+00 -0.15718359411E-02  0.35593306921E-01  0.13278398902E+00  0.20428415983E-01 0.  0.
         14    1    1    2    0    0 -0.12861441806E-01  0.16685735098E-01 -0.10124687616E-01  0.23373911534E-01  0.00000000000E+00 0. -1.
     999901    1    3    3    0    0 -0.11341172793E+00 -0.15113899156E-01 -0.25468619305E-01  0.88777209944E+00  0.88000000000E+00 0. -1.
        -11    1    4    4    0    0  0.55772812905E-01  0.93450635133E-02  0.14321585321E-01  0.58337859050E-01  0.51100000000E-03 0. -1.
         11    1    4    4    0    0  0.70500356832E-01 -0.10916899454E-01  0.21271721600E-01  0.74446129974E-01  0.51100000000E-03 0.  1.
</event>
<event>
 8    1  0.1099921E+005  0.1043930E+01  0.7957747E-01            NaN
         13   -1    0    0    0    0  0.00000000000E+00  0.00000000000E+00  0.74505805969E-08  0.10566000000E+00  0.10566000000E+00 0. -1.
     999900   -1    0    0    0    0 -0.00000000000E+00 -0.00000000000E+00 -0.74505805969E-08  0.93827000000E+00  0.93827000000E+00 0.  1.
     999902    2    1    2    0    0  0.28047191837E-02  0.22749856938E-01  0.14649925390E-02  0.10209611375E+01  0.10207027362E+01 0.  0.
     999903    2    3    3    0    0  0.12256141187E+00 -0.21688229358E-01 -0.35497164081E-01  0.13097090725E+00  0.20041230419E-01 0.  0.
         14    1    1    2    0    0 -0.28047191837E-02 -0.22749856938E-01 -0.14649925390E-02  0.22968862478E-01  0.00000000000E+00 0. -1.
     999901    1    3    3    0    0 -0.11975669268E+00  0.44438086296E-01  0.36962156620E-01  0.88999023027E+00  0.88000000000E+00 0.  1.
        -11    1    4    4    0    0  0.60543316154E-01 -0.11991996946E-02 -0.20712587534E-01  0.64001590716E-01  0.51100000000E-03 0.  1.
         11    1    4    4    0    0  0.62018095713E-01 -0.20489029663E-01 -0.14784576547E-01  0.66969316535E-01  0.51100000000E-03 0. -1.
</event>
<event>
 8    1  0.1099921E+005  0.1043930E+01  0.7957747E-01            NaN
         13   -1    0    0    0    0  0.00000000000E+00  0.00000000000E+00  0.74505805969E-08  0.10566000000E+00  0.10566000000E+00 0. -1.
     999900   -1    0    0    0    0 -0.00000000000E+00 -0.00000000000E+00 -0.74505805969E-08  0.93827000000E+00  0.93827000000E+00 0. -1.
     999902    2    1    2    0    0 -0.15094943921E-01 -0.17365353832E-01 -0.66833551232E-02  0.10199700317E+01  0.10196885728E+01 0.  0.
     999903    2    3    3    0    0 -0.52058552384E-01  0.79464795934E-01  0.83203194806E-01  0.12933992996E+00  0.27951729577E-01 0.  0.
         14    1    1    2    0    0  0.15094943921E-01  0.17365353832E-01  0.66833551232E-02  0.23959968309E-01  0.00000000000E+00 0. -1.
     999901    1    3    3    0    0  0.36963608464E-01 -0.96830149766E-01 -0.89886549929E-01  0.89063010173E+00  0.88000000000E+00 0. -1.
        -11    1    4    4    0    0 -0.38233729587E-01  0.54629949860E-01  0.73644161703E-01  0.99347738645E-01  0.51100000000E-03 0.  1.
         11    1    4    4    0    0 -0.13824822797E-01  0.24834846074E-01  0.95590331029E-02  0.29992191313E-01  0.51100000000E-03 0. -1.
</event>
<event>
 8    1  0.1099921E+005  0.1043930E+01  0.7957747E-01            NaN
         13   -1    0    0    0    0  0.00000000000E+00  0.00000000000E+00  0.74505805969E-08  0.10566000000E+00  0.10566000000E+00 0. -1.
     999900   -1    0    0    0    0 -0.00000000000E+00 -0.00000000000E+00 -0.74505805969E-08  0.93827000000E+00  0.93827000000E+00 0. -1.
     999902    2    1    2    0    0  0.32722407762E-02 -0.48345233403E-02 -0.24350721271E-01  0.10188892771E+01  0.10185815241E+01 0.  0.
     999903    2    3    3    0    0  0.57873059539E-01  0.10918118605E+00  0.28322214752E-01  0.12829662637E+00  0.19699088321E-01 0.  0.
         14    1    1    2    0    0 -0.32722407762E-02  0.48345233403E-02  0.24350721271E-01  0.25040722874E-01  0.00000000000E+00 0. -1.
     999901    1    3    3    0    0 -0.54600818763E-01 -0.11401570939E+00 -0.52672936022E-01  0.89059265076E+00  0.88000000000E+00 0. -1.
        -11    1    4    4    0    0  0.26870770713E-01  0.46186024763E-01  0.25285635196E-02  0.53496186374E-01  0.51100000000E-03 0.  1.
         11    1    4    4    0    0  0.31002288826E-01  0.62995161289E-01  0.25793651232E-01  0.74800439993E-01  0.51100000000E-03 0. -1.
</event>
<event>
 8    1  0.1099921E+005  0.1043930E+01  0.7957747E-01            NaN
         13   -1    0    0    0    0  0.00000000000E+00  0.00000000000E+00  0.74505805969E-08  0.10566000000E+00  0.10566000000E+00 0. -1.
     999900   -1    0    0    0    0 -0.00000000000E+00 -0.00000000000E+00 -0.74505805969E-08  0.93827000000E+00  0.93827000000E+00 0.  1.
     999902    2    1    2    0    0  0.16244763252E-01  0.16083666282E-01 -0.61800989607E-02  0.10202494114E+01  0.10199745542E+01 0.  0.
     999903    2    3    3    0    0 -0.31141226819E-01 -0.12244456398E+00 -0.65569661638E-02  0.12815320319E+00  0.20440215930E-01 0.  0.
         14    1    1    2    0    0 -0.16244763252E-01 -0.16083666282E-01  0.61800989607E-02  0.23680588619E-01  0.00000000000E+00 0. -1.
     999901    1    3    3    0    0  0.47385990071E-01  0.13852823026E+00  0.37686720312E-03  0.89209620819E+00  0.88000000000E+00 0. -1.
        -11    1    4    4    0    0 -0.15161538865E-01 -0.28913794300E-01 -0.63608240149E-02  0.33265612345E-01  0.51100000000E-03 0. -1.
         11    1    4    4    0    0 -0.15979687954E-01 -0.93530769681E-01 -0.19614214894E-03  0.94887590848E-01  0.51100000000E-03 0.  1.
</event>
<event>
 8    1  0.1099921E+005  0.1043930E+01  0.7957747E-01            NaN
         13   -1    0    0    0    0  0.00000000000E+00  0.00000000000E+00  0.74505805969E-08  0.10566000000E+00  0.10566000000E+00 0.  1.
     999900   -1    0    0    0    0 -0.00000000000E+00 -0.00000000000E+00 -0.74505805969E-08  0.93827000000E+00  0.93827000000E+00 0. -1.
     999902    2    1    2    0    0 -0.22563463735E-01 -0.18739305565E-02 -0.55685783453E-02  0.10206141132E+01  0.10203477532E+01 0.  0.
     999903    2    3    3    0    0  0.57173795808E-01 -0.95636846794E-01 -0.63270803870E-01  0.13017654559E+00  0.22967128849E-01 0.  0.
         14    1    1    2    0    0  0.22563463735E-01  0.18739305565E-02  0.55685783453E-02  0.23315886778E-01  0.00000000000E+00 0.  1.
     999901    1    3    3    0    0 -0.79737259543E-01  0.93762916237E-01  0.57702225525E-01  0.89043756763E+00  0.88000000000E+00 0.  1.
        -11    1    4    4    0    0  0.24815579781E-01 -0.40556461330E-01 -0.14207577140E-01  0.49626161696E-01  0.51100000000E-03 0. -1.
         11    1    4    4    0    0  0.32358216027E-01 -0.55080385464E-01 -0.49063226730E-01  0.80550383894E-01  0.51100000000E-03 0.  1.
</event>
<event>
 8    1  0.1099921E+005  0.1043930E+01  0.7957747E-01            NaN
         13   -1    0    0    0    0  0.00000000000E+00  0.00000000000E+00  0.74505805969E-08  0.10566000000E+00  0.10566000000E+00 0. -1.
     999900   -1    0    0    0    0 -0.00000000000E+00 -0.00000000000E+00 -0.74505805969E-08  0.93827000000E+00  0.93827000000E+00 0. -1.
     999902    2    1    2    0    0 -0.23174978744E-01  0.47940911993E-02  0.30217128813E-02  0.10200722193E+01  0.10197931844E+01 0.  0.
     999903    2    3    3    0    0 -0.20448949579E-01  0.82752045335E-01 -0.97316728872E-01  0.13094192699E+00  0.20228247062E-01 0.  0.
         14    1    1    2    0    0  0.23174978744E-01 -0.47940911993E-02 -0.30217128813E-02  0.23857780679E-01  0.00000000000E+00 0.  1.
     999901    1    3    3    0    0 -0.27260291653E-02 -0.77957954136E-01  0.10033844175E+00  0.88913029233E+00  0.88000000000E+00 0.  1.
        -11    1    4    4    0    0 -0.24553651728E-01  0.72805240735E-01 -0.85310937746E-01  0.11481159398E+00  0.51100000000E-03 0. -1.
         11    1    4    4    0    0  0.41047021489E-02  0.99468045998E-02 -0.12005791126E-01  0.16130333011E-01  0.51100000000E-03 0.  1.
</event>
<event>
 8    1  0.1099921E+005  0.1043930E+01  0.7957747E-01            NaN
         13   -1    0    0    0    0  0.00000000000E+00  0.00000000000E+00  0.74505805969E-08  0.10566000000E+00  0.10566000000E+00 0.  1.
     999900   -1    0    0    0    0 -0.00000000000E+00 -0.00000000000E+00 -0.74505805969E-08  0.93827000000E+00  0.93827000000E+00 0.  1.
     999902    2    1    2    0    0 -0.58307011147E-02  0.18901628361E-01  0.27109192286E-02  0.10239645871E+01  0.10237699243E+01 0.  0.
     999903    2    3    3    0    0 -0.81153217920E-01  0.82950924357E-01  0.68122126467E-01  0.13601502776E+00  0.19818249968E-01 0.  0.
         14    1    1    2    0    0  0.58307011147E-02 -0.18901628361E-01 -0.27109192286E-02  0.19965412925E-01  0.00000000000E+00 0. -1.
     999901    1    3    3    0    0  0.75322516805E-01 -0.64049295996E-01 -0.65411207238E-01  0.88794955931E+00  0.88000000000E+00 0.  1.
        -11    1    4    4    0    0 -0.54810636263E-01  0.66490678669E-01  0.44469296296E-01  0.96969044708E-01  0.51100000000E-03 0. -1.
         11    1    4    4    0    0 -0.26342581657E-01  0.16460245688E-01  0.23652830171E-01  0.39045983052E-01  0.51100000000E-03 0.  1.
</event>
<event>
 8    1  0.1099921E+005  0.1043930E+01  0.7957747E-01            NaN
         13   -1    0    0    0    0  0.00000000000E+00  0.00000000000E+00  0.74505805969E-08  0.10566000000E+00  0.10566000000E+00 0. -1.
     999900   -1    0    0    0    0 -0.00000000000E+00 -0.00000000000E+00 -0.74505805969E-08  0.93827000000E+00  0.93827000000E+00 0.  1.
     999902    2    1    2    0    0  0.15529323952E-01 -0.11921810851E-01 -0.16682966596E-01  0.10182082028E+01  0.10178832612E+01 0.  0.
     999903    2    3    3    0    0  0.55541377371E-01 -0.11092288238E+00 -0.38992864040E-01  0.13147266833E+00  0.19387847634E-01 0.  0.
         14    1    1    2    0    0 -0.15529323952E-01  0.11921810851E-01  0.16682966596E-01  0.25721797192E-01  0.00000000000E+00 0. -1.
     999901    1    3    3    0    0 -0.40012053419E-01  0.99001071529E-01  0.22309897444E-01  0.88673553448E+00  0.88000000000E+00 0. -1.
        -11    1    4    4    0    0  0.66208924682E-02 -0.27552607114E-01 -0.37730076802E-02  0.28591591138E-01  0.51100000000E-03 0. -1.
         11    1    4    4    0    0  0.48920484903E-01 -0.83370275266E-01 -0.35219856360E-01  0.10288107719E+00  0.51100000000E-03 0.  1.
</event>
<event>
 8    1  0.1410559E+005  0.1043930E+01  0.7957747E-01            NaN
         13   -1    0    0    0    0  0.00000000000E+00  0.00000000000E+00  0.74505805969E-08  0.10566000000E+00  0.10566000000E+00 0.  1.
     999900   -1    0    0    0    0 -0.00000000000E+00 -0.00000000000E+00 -0.74505805969E-08  0.93827000000E+00  0.93827000000E+00 0.  1.
     999902    2    1    2    0    0  0.97820826203E-02 -0.21713920307E-02  0.20510715603E-01  0.10211025267E+01  0.10208473326E+01 0.  0.
     999903    2    3    3    0    0  0.54699011476E-01  0.56888006764E-01  0.10567702697E+00  0.13388279985E+00  0.22994410089E-01 0.  0.
         14    1    1    2    0    0 -0.97820826203E-02  0.21713920307E-02 -0.20510715603E-01  0.22827473323E-01  0.00000000000E+00 0. -1.
     999901    1    3    3    0    0 -0.44916928856E-01 -0.59059398795E-01 -0.85166311368E-01  0.88721972683E+00  0.88000000000E+00 0.  1.
        -11    1    4    4    0    0  0.29475690312E-01  0.43897838906E-01  0.58739432659E-01  0.79034287813E-01  0.51100000000E-03 0. -1.
         11    1    4    4    0    0  0.25223321164E-01  0.12990167858E-01  0.46937594313E-01  0.54848512034E-01  0.51100000000E-03 0.  1.
</event>
<event>
 8    1  0.1099921E+005  0.1043930E+01  0.7957747E-01            NaN
         13   -1    0    0    0    0  0.00000000000E+00  0.00000000000E+00  0.74505805969E-08  0.10566000000E+00  0.10566000000E+00 0.  1.
     999900   -1    0    0    0    0 -0.00000000000E+00 -0.00000000000E+00 -0.74505805969E-08  0.93827000000E+00  0.93827000000E+00 0. -1.
     999902    2    1    2    0    0 -0.77830832396E-02 -0.18850911095E-01 -0.11918324392E-01  0.10203084063E+01  0.10200349328E+01 0.  0.
     999903    2    3    3    0    0 -0.82689294615E-01  0.34582663538E-01 -0.94567458090E-01  0.13165945044E+00  0.18913664365E-01 0.  0.
         14    1    1    2    0    0  0.77830832396E-02  0.18850911095E-01  0.11918324392E-01  0.23621593726E-01  0.00000000000E+00 0.  1.
     999901    1    3    3    0    0  0.74906211375E-01 -0.53433574633E-01  0.82649133698E-01  0.88864895583E+00  0.88000000000E+00 0.  1.
        -11    1    4    4    0    0 -0.23567638285E-02  0.55497755039E-02 -0.46045041752E-02  0.76037440505E-02  0.51100000000E-03 0. -1.
         11    1    4    4    0    0 -0.80332530786E-01  0.29032888034E-01 -0.89962953915E-01  0.12405570639E+00  0.51100000000E-03 0.  1.
</event>
<event>
 8    1  0.1099921E+005  0.1043930E+01  0.7957747E-01            NaN
         13   -1    0    0    0    0  0.00000000000E+00  0.00000000000E+00  0.74505805969E-08  0.10566000000E+00  0.10566000000E+00 0. -1.
     999900   -1    0    0    0    0 -0.00000000000E+00 -0.00000000000E+00 -0.74505805969E-08  0.93827000000E+00  0.93827000000E+00 0.  1.
     999902    2    1    2    0    0  0.90039175753E-02  0.22640661143E-01  0.44255730898E-02  0.10191659986E+01  0.10188650926E+01 0.  0.
     999903    2    3    3    0    0 -0.85290654489E-01  0.63883806010E-01  0.72760569882E-01  0.13053664104E+00  0.19750385058E-01 0.  0.
         14    1    1    2    0    0 -0.90039175753E-02 -0.22640661143E-01 -0.44255730898E-02  0.24764001410E-01  0.00000000000E+00 0. -1.
     999901    1    3    3    0    0  0.94294572065E-01 -0.41243144867E-01 -0.68334996792E-01  0.88862935755E+00  0.88000000000E+00 0.  1.
        -11    1    4    4    0    0 -0.76810865181E-01  0.60824108287E-01  0.59951034379E-01  0.11486456722E+00  0.51100000000E-03 0. -1.
         11    1    4    4    0    0 -0.84797893083E-02  0.30596977230E-02  0.12809535503E-01  0.15672073815E-01  0.51100000000E-03 0.  1.
</event>
<event>
 8    1  0.1099921E+005  0.1043930E+01  0.7957747E-01            NaN
         13   -1    0    0    0    0  0.00000000000E+00  0.00000000000E+00  0.74505805969E-08  0.10566000000E+00  0.10566000000E+00 0.  1.
     999900   -1    0    0    0    0 -0.00000000000E+00 -0.00000000000E+00 -0.74505805969E-08  0.93827000000E+00  0.93827000000E+00 0. -1.
     999902    2    1    2    0    0  0.95547779804E-03  0.14877854847E-01  0.18093765282E-01  0.10204854304E+01  0.10202160878E+01 0.  0.
     999903    2    3    3    0    0 -0.34605497103E-01  0.53835649888E-01  0.11555325009E+00  0.13353523792E+00  0.19577756020E-01 0.  0.
         14    1    1    2    0    0 -0.95547779804E-03 -0.14877854847E-01 -0.18093765282E-01  0.23444569621E-01  0.00000000000E+00 0. -1.
     999901    1    3    3    0    0  0.35560974901E-01 -0.38957795041E-01 -0.97459484806E-01  0.88695019246E+00  0.88000000000E+00 0. -1.
        -11    1    4    4    0    0 -0.27477568386E-01  0.32218257278E-01  0.59470325087E-01  0.73006941816E-01  0.51100000000E-03 0.  1.
         11    1    4    4    0    0 -0.71279287170E-02  0.21617392611E-01  0.56082925001E-01  0.60528296100E-01  0.51100000000E-03 0. -1.
</event>
<event>
 8    1  0.1099921E+005  0.1043930E+01  0.7957747E-01            NaN
         13   -1    0    0    0    0  0.00000000000E+00  0.00000000000E+00  0.74505805969E-08  0.10566000000E+00  0.10566000000E+00 0.  1.
     999900   -1    0    0    0    0 -0.00000000000E+00 -0.00000000000E+00 -0.74505805969E-08  0.93827000000E+00  0.93827000000E+00 0. -1.
     999902    2    1    2    0    0 -0.15302822167E-02 -0.10276624350E-01 -0.21543276522E-01  0.10200121503E+01  0.10197316918E+01 0.  0.
     999903    2    3    3    0    0 -0.95069814141E-01 -0.48419777153E-02 -0.89886524601E-01  0.13240301391E+00  0.19729583849E-01 0.  0.
         14    1    1    2    0    0  0.15302822167E-02  0.10276624350E-01  0.21543276522E-01  0.23917849716E-01  0.00000000000E+00 0.  1.
     999901    1    3    3    0    0  0.93539531924E-01 -0.54346466348E-02  0.68343248079E-01  0.88760913637E+00  0.88000000000E+00 0.  1.
        -11    1    4    4    0    0 -0.40131506349E-01  0.38288250529E-02 -0.48528818997E-01  0.63091244222E-01  0.51100000000E-03 0.  1.
         11    1    4    4    0    0 -0.54938307791E-01 -0.86708027682E-02 -0.41357705603E-01  0.69311769689E-01  0.51100000000E-03 0. -1.
</event>
<event>
 8    1  0.1099921E+005  0.1043930E+01  0.7957747E-01            NaN
         13   -1    0    0    0    0  0.00000000000E+00  0.00000000000E+00  0.74505805969E-08  0.10566000000E+00  0.10566000000E+00 0.  1.
     999900   -1    0    0    0    0 -0.00000000000E+00 -0.00000000000E+00 -0.74505805969E-08  0.93827000000E+00  0.93827000000E+00 0. -1.
     999902    2    1    2    0    0 -0.14946814249E-02  0.18225638413E-01  0.14950488431E-01  0.10203095624E+01  0.10200361161E+01 0.  0.
     999903    2    3    3    0    0  0.61397384122E-01  0.10370856430E+00 -0.49273621179E-01  0.13160968123E+00  0.19186280614E-01 0.  0.
         14    1    1    2    0    0  0.14946814249E-02 -0.18225638413E-01 -0.14950488431E-01  0.23620437600E-01  0.00000000000E+00 0. -1.
     999901    1    3    3    0    0 -0.62892065547E-01 -0.85482925890E-01  0.64224109610E-01  0.88869988117E+00  0.88000000000E+00 0.  1.
        -11    1    4    4    0    0  0.10571925103E-01  0.32104558162E-01 -0.88610176686E-02  0.34946344734E-01  0.51100000000E-03 0.  1.
         11    1    4    4    0    0  0.50825459019E-01  0.71604006141E-01 -0.40412603510E-01  0.96663336501E-01  0.51100000000E-03 0. -1.
</event>
<event>
 8    1  0.1099921E+005  0.1043930E+01  0.7957747E-01            NaN
         13   -1    0    0    0    0  0.00000000000E+00  0.00000000000E+00  0.74505805969E-08  0.10566000000E+00  0.10566000000E+00 0.  1.
     999900   -1    0    0    0    0 -0.00000000000E+00 -0.00000000000E+00 -0.74505805969E-08  0.93827000000E+00  0.93827000000E+00 0.  1.
     999902    2    1    2    0    0 -0.49425707722E-02 -0.24051702905E-02  0.22985228712E-01  0.10202966636E+01  0.10200229150E+01 0.  0.
     999903    2    3    3    0    0  0.11577870496E+00  0.10707265580E-01 -0.52111025899E-01  0.12878950725E+00  0.18756974630E-01 0.  0.
         14    1    1    2    0    0  0.49425707722E-02  0.24051702905E-02 -0.22985228712E-01  0.23633336390E-01  0.00000000000E+00 0. -1.
     999901    1    3    3    0    0 -0.12072127574E+00 -0.13112435870E-01  0.75096254611E-01  0.89150715636E+00  0.88000000000E+00 0. -1.
        -11    1    4    4    0    0  0.24081410895E-01  0.91390612950E-02 -0.15317951808E-01  0.29972279870E-01  0.51100000000E-03 0. -1.
         11    1    4    4    0    0  0.91697294069E-01  0.15682042846E-02 -0.36793074092E-01  0.98817227377E-01  0.51100000000E-03 0.  1.
</event>
<event>
 8    1  0.1099921E+005  0.1043930E+01  0.7957747E-01            NaN
         13   -1    0    0    0    0  0.00000000000E+00  0.00000000000E+00  0.74505805969E-08  0.10566000000E+00  0.10566000000E+00 0.  1.
     999900   -1    0    0    0    0 -0.00000000000E+00 -0.00000000000E+00 -0.74505805969E-08  0.93827000000E+00  0.93827000000E+00 0.  1.
     999902    2    1    2    0    0 -0.46456787697E-03  0.22187578419E-01 -0.82423774890E-02  0.10202563597E+01  0.10199816656E+01 0.  0.
     999903    2    3    3    0    0 -0.85176265242E-01  0.10423863939E-01 -0.96344889670E-01  0.13173145327E+00  0.26592948616E-01 0.  0.
         14    1    1    2    0    0  0.46456787697E-03 -0.22187578419E-01  0.82423774890E-02  0.23673640321E-01  0.00000000000E+00 0. -1.
     999901    1    3    3    0    0  0.84711697365E-01  0.11763714479E-01  0.88102512182E-01  0.88852490640E+00  0.88000000000E+00 0. -1.
        -11    1    4    4    0    0 -0.66394938510E-01  0.60154596394E-02 -0.88728936853E-01  0.11098449878E+00  0.51100000000E-03 0.  1.
         11    1    4    4    0    0 -0.18781326731E-01  0.44084042999E-02 -0.76159528179E-02  0.20746954489E-01  0.51100000000E-03 0. -1.
</event>
<event>
 8    1  0.1099921E+005  0.1043930E+01  0.7957747E-01            NaN
         13   -1    0    0    0    0  0.00000000000E+00  0.00000000000E+00  0.74505805969E-08  0.10566000000E+00  0.10566000000E+00 0.  1.
     999900   -1    0    0    0    0 -0.00000000000E+00 -0.00000000000E+00 -0.74505805969E-08  0.93827000000E+00  0.93827000000E+00 0. -1.
     999902    2    1    2    0    0  0.63264977412E-02  0.21214772852E-01 -0.79163677859E-02  0.10204191506E+01  0.10201482651E+01 0.  0.
     999903    2    3    3    0    0 -0.11323018005E+00  0.25908493600E-01 -0.57374162020E-01  0.13094632716E+00  0.19047897897E-01 0.  0.
         14    1    1    2    0    0 -0.63264977412E-02 -0.21214772852E-01  0.79163677859E-02  0.23510849405E-01  0.00000000000E+00 0. -1.
     999901    1    3    3    0    0  0.11955667779E+00 -0.46937207478E-02  0.49457794234E-01  0.88947282344E+00  0.88000000000E+00 0.  1.
        -11    1    4    4    0    0 -0.15756791740E-01  0.29456197795E-02 -0.11011253682E-02  0.16075657370E-01  0.51100000000E-03 0.  1.
         11    1    4    4    0    0 -0.97473388311E-01  0.22962873820E-01 -0.56273036652E-01  0.11487066979E+00  0.51100000000E-03 0. -1.
</event>
<event>
 8    1  0.1099921E+005  0.1043930E+01  0.7957747E-01            NaN
         13   -1    0    0    0    0  0.00000000000E+00  0.00000000000E+00  0.74505805969E-08  0.10566000000E+00  0.10566000000E+00 0. -1.
     999900   -1    0    0    0    0 -0.00000000000E+00 -0.00000000000E+00 -0.74505805969E-08  0.93827000000E+00  0.93827000000E+00 0.  1.
     999902    2    1    2    0    0 -0.19626801366E-01  0.20338737004E-02 -0.92554404172E-02  0.10221352495E+01  0.10219028609E+01 0.  0.
     999903    2    3    3    0    0 -0.27383246678E-01 -0.87161682830E-01  0.92641018404E-01  0.13174269666E+00  0.20658622411E-01 0.  0.
         14    1    1    2    0    0  0.19626801366E-01 -0.20338737004E-02  0.92554404172E-02  0.21794750547E-01  0.00000000000E+00 0.  1.
     999901    1    3    3    0    0  0.77564453119E-02  0.89195556530E-01 -0.10189645882E+00  0.89039255279E+00  0.88000000000E+00 0.  1.
        -11    1    4    4    0    0 -0.25714177851E-01 -0.48020057751E-01  0.55006849175E-01  0.77415498875E-01  0.51100000000E-03 0.  1.
         11    1    4    4    0    0 -0.16690688274E-02 -0.39141625079E-01  0.37634169229E-01  0.54327197785E-01  0.51100000000E-03 0. -1.
</event>
<event>
 8    1  0.1099921E+005  0.1043930E+01  0.7957747E-01            NaN
         13   -1    0    0    0    0  0.00000000000E+00  0.00000000000E+00  0.74505805969E-08  0.10566000000E+00  0.10566000000E+00 0. -1.
     999900   -1    0    0    0    0 -0.00000000000E+00 -0.00000000000E+00 -0.74505805969E-08  0.93827000000E+00  0.93827000000E+00 0. -1.
     999902    2    1    2    0    0 -0.11125336893E-01 -0.18150291799E-01 -0.81764536031E-03  0.10226256634E+01  0.10224037230E+01 0.  0.
     999903    2    3    3    0    0 -0.12414324919E+00 -0.48811392117E-02  0.46253062675E-01  0.13405109116E+00  0.19874038204E-01 0.  0.
         14    1    1    2    0    0  0.11125336893E-01  0.18150291799E-01  0.81764536031E-03  0.21304336584E-01  0.00000000000E+00 0.  1.
     999901    1    3    3    0    0  0.11301791230E+00 -0.13269152587E-01 -0.47070708035E-01  0.88857457226E+00  0.88000000000E+00 0.  1.
        -11    1    4    4    0    0 -0.71740350070E-01  0.56700651433E-02  0.21263374593E-01  0.75041453124E-01  0.51100000000E-03 0.  1.
         11    1    4    4    0    0 -0.52402899118E-01 -0.10551204355E-01  0.24989688082E-01  0.59009638033E-01  0.51100000000E-03 0. -1.
</event>
<event>
 8    1  0.1099921E+005  0.1043930E+01  0.7957747E-01            NaN
         13   -1    0    0    0    0  0.00000000000E+00  0.00000000000E+00  0.74505805969E-08  0.10566000000E+00  0.10566000000E+00 0.  1.
     999900   -1    0    0    0    0 -0.00000000000E+00 -0.00000000000E+00 -0.74505805969E-08  0.93827000000E+00  0.93827000000E+00 0. -1.
     999902    2    1    2    0    0  0.21773595825E-01  0.81586119127E-02 -0.64134472304E-02  0.10198097859E+01  0.10195245042E+01 0.  0.
     999903    2    3    3    0    0  0.10542890774E+00 -0.59897157942E-01  0.46899113850E-01  0.13162510453E+00  0.20560086241E-01 0.  0.
         14    1    1    2    0    0 -0.21773595825E-01 -0.81586119127E-02  0.64134472304E-02  0.24120214113E-01  0.00000000000E+00 0. -1.
     999901    1    3    3    0    0 -0.83655311917E-01  0.68055769854E-01 -0.53312561080E-01  0.88818468135E+00  0.88000000000E+00 0. -1.
        -11    1    4    4    0    0  0.41653074326E-01 -0.12397313739E-01  0.16917169311E-01  0.46638221742E-01  0.51100000000E-03 0. -1.
         11    1    4    4    0    0  0.63775833416E-01 -0.47499844203E-01  0.29981944539E-01  0.84986882791E-01  0.51100000000E-03 0.  1.
</event>
<event>
 8    1  0.1099921E+005  0.1043930E+01  0.7957747E-01            NaN
         13   -1    0    0    0    0  0.00000000000E+00  0.00000000000E+00  0.74505805969E-08  0.10566000000E+00  0.10566000000E+00 0.  1.
     999900   -1    0    0    0    0 -0.00000000000E+00 -0.00000000000E+00 -0.74505805969E-08  0.93827000000E+00  0.93827000000E+00 0. -1.
     999902    2    1    2    0    0  0.72785268310E-02  0.12655285679E-01 -0.19503654034E-01  0.10195676165E+01  0.10192765076E+01 0.  0.
     999903    2    3    3    0    0 -0.23998210167E-01  0.48811457127E-01 -0.11928439918E+00  0.13263937809E+00  0.20148555629E-01 0.  0.
         14    1    1    2    0    0 -0.72785268310E-02 -0.12655285679E-01  0.19503654034E-01  0.24362383486E-01  0.00000000000E+00 0.  1.
     999901    1    3    3    0    0  0.31276736998E-01 -0.36156171448E-01  0.99780745149E-01  0.88692823842E+00  0.88000000000E+00 0.  1.
        -11    1    4    4    0    0 -0.12692108111E-01  0.43826133560E-01 -0.94681499264E-01  0.10510312562E+00  0.51100000000E-03 0. -1.
         11    1    4    4    0    0 -0.11306102056E-01  0.49853235669E-02 -0.24602899918E-01  0.27536252471E-01  0.51100000000E-03 0.  1.
</event>
<event>
 8    1  0.1099921E+005  0.1043930E+01  0.7957747E-01            NaN
         13   -1    0    0    0    0  0.00000000000E+00  0.00000000000E+00  0.74505805969E-08  0.10566000000E+00  0.10566000000E+00 0.  1.
     999900   -1    0    0    0    0 -0.00000000000E+00 -0.00000000000E+00 -0.74505805969E-08  0.93827000000E+00  0.93827000000E+00 0.  1.
     999902    2    1    2    0    0  0.61212370700E-02  0.15787226135E-01 -0.16252946128E-01  0.10204595013E+01  0.10201895556E+01 0.  0.
     999903    2    3    3    0    0 -0.11540324224E-01  0.10701105929E+00 -0.76304661023E-01  0.13353226247E+00  0.20589267407E-01 0.  0.
         14    1    1    2    0    0 -0.61212370700E-02 -0.15787226135E-01  0.16252946128E-01  0.23470498720E-01  0.00000000000E+00 0.  1.
     999901    1    3    3    0    0  0.17661561294E-01 -0.91223833157E-01  0.60051714895E-01  0.88692723881E+00  0.88000000000E+00 0.  1.
        -11    1    4    4    0    0 -0.12541525601E-01  0.30346487089E-01 -0.20708154740E-01  0.38823806315E-01  0.51100000000E-03 0. -1.
         11    1    4    4    0    0  0.10012013775E-02  0.76664572203E-01 -0.55596506283E-01  0.94708456154E-01  0.51100000000E-03 0.  1.
</event>
<event>
 8    1  0.1099921E+005  0.1043930E+01  0.7957747E-01            NaN
         13   -1    0    0    0    0  0.00000000000E+00  0.00000000000E+00  0.74505805969E-08  0.10566000000E+00  0.10566000000E+00 0. -1.
     999900   -1    0    0    0    0 -0.00000000000E+00 -0.00000000000E+00 -0.74505805969E-08  0.93827000000E+00  0.93827000000E+00 0. -1.
     999902    2    1    2    0    0  0.96775336445E-02 -0.24288507636E-02 -0.21927123736E-01  0.10198394888E+01  0.10195549177E+01 0.  0.
     999903    2    3    3    0    0 -0.65528713153E-01  0.49901456049E-01  0.95051599435E-01  0.12738306846E+00  0.20185936000E-01 0.  0.
         14    1    1    2    0    0 -0.96775336445E-02  0.24288507636E-02  0.21927123736E-01  0.24090511178E-01  0.00000000000E+00 0. -1.
     999901    1    3    3    0    0  0.75206246797E-01 -0.52330306812E-01 -0.11697872317E+00  0.89245642036E+00  0.88000000000E+00 0. -1.
        -11    1    4    4    0    0 -0.41895188859E-01  0.42181215426E-01  0.60605382232E-01  0.84898381968E-01  0.51100000000E-03 0. -1.
         11    1    4    4    0    0 -0.23633524294E-01  0.77202406229E-02  0.34446217203E-01  0.42484686493E-01  0.51100000000E-03 0.  1.
</event>
<event>
 8    1  0.1099921E+005  0.1043930E+01  0.7957747E-01            NaN
         13   -1    0    0    0    0  0.00000000000E+00  0.00000000000E+00  0.74505805969E-08  0.10566000000E+00  0.10566000000E+00 0.  1.
     999900   -1    0    0    0    0 -0.00000000000E+00 -0.00000000000E+00 -0.74505805969E-08  0.93827000000E+00  0.93827000000E+00 0.  1.
     999902    2    1    2    0    0 -0.10442005002E-01  0.28122122310E-02  0.21506673520E-01  0.10198575882E+01  0.10195734496E+01 0.  0.
     999903    2    3    3    0    0 -0.89656031679E-01  0.55740738925E-01  0.76411963792E-01  0.13301437661E+00  0.26623339063E-01 0.  0.
         14    1    1    2    0    0  0.10442005002E-01 -0.28122122310E-02 -0.21506673520E-01  0.24072411844E-01  0.00000000000E+00 0. -1.
     999901    1    3    3    0    0  0.79214026677E-01 -0.52928526694E-01 -0.54905290272E-01  0.88684321154E+00  0.88000000000E+00 0.  1.
        -11    1    4    4    0    0 -0.58067354368E-01  0.21650188516E-01  0.37823400024E-01  0.72604538539E-01  0.51100000000E-03 0.  1.
         11    1    4    4    0    0 -0.31588677311E-01  0.34090550409E-01  0.38588563768E-01  0.60409838074E-01  0.51100000000E-03 0. -1.
</event>
<event>
 8    1  0.1099921E+005  0.1043930E+01  0.7957747E-01            NaN
         13   -1    0    0    0    0  0.00000000000E+00  0.00000000000E+00  0.74505805969E-08  0.10566000000E+00  0.10566000000E+00 0. -1.
     999900   -1    0    0    0    0 -0.00000000000E+00 -0.00000000000E+00 -0.74505805969E-08  0.93827000000E+00  0.93827000000E+00 0. -1.
     999902    2    1    2    0    0  0.17222157380E-01 -0.79263358626E-02  0.16175480652E-01  0.10190086100E+01  0.10187038194E+01 0.  0.
     999903    2    3    3    0    0 -0.10152095107E+00  0.50994570784E-01  0.55926342004E-01  0.12819340469E+00  0.19971067067E-01 0.  0.
         14    1    1    2    0    0 -0.17222157380E-01  0.79263358626E-02 -0.16175480652E-01  0.24921389997E-01  0.00000000000E+00 0. -1.
     999901    1    3    3    0    0  0.11874310845E+00 -0.58920906646E-01 -0.39750861352E-01  0.89081520532E+00  0.88000000000E+00 0.  1.
        -11    1    4    4    0    0 -0.26924725901E-01  0.23670679700E-01  0.15616071462E-01  0.39107093362E-01  0.51100000000E-03 0. -1.
         11    1    4    4    0    0 -0.74596225168E-01  0.27323891084E-01  0.40310270543E-01  0.89086311325E-01  0.51100000000E-03 0.  1.
</event>
<event>
 8    1  0.1099921E+005  0.1043930E+01  0.7957747E-01            NaN
         13   -1    0    0    0    0  0.00000000000E+00  0.00000000000E+00  0.74505805969E-08  0.10566000000E+00  0.10566000000E+00 0.  1.
     999900   -1    0    0    0    0 -0.00000000000E+00 -0.00000000000E+00 -0.74505805969E-08  0.93827000000E+00  0.93827000000E+00 0. -1.
     999902    2    1    2    0    0  0.23001296192E-01  0.12993295888E-02  0.67878965829E-02  0.10199128515E+01  0.10196300315E+01 0.  0.
     999903    2    3    3    0    0  0.12039914341E+00 -0.24786804650E-01 -0.46403193576E-01  0.13255941618E+00  0.17561407246E-01 0.  0.
         14    1    1    2    0    0 -0.23001296192E-01 -0.12993295888E-02 -0.67878965829E-02  0.24017148538E-01  0.00000000000E+00 0.  1.
     999901    1    3    3    0    0 -0.97397847217E-01  0.26086134239E-01  0.53191090159E-01  0.88735343529E+00  0.88000000000E+00 0.  1.
        -11    1    4    4    0    0  0.36509080787E-01 -0.12674014314E-01 -0.21440702716E-01  0.44198512110E-01  0.51100000000E-03 0.  1.
         11    1    4    4    0    0  0.83890062622E-01 -0.12112790336E-01 -0.24962490860E-01  0.88360904066E-01  0.51100000000E-03 0. -1.
</event>
<event>
 8    1  0.1099921E+005  0.1043930E+01  0.7957747E-01            NaN
         13   -1    0    0    0    0  0.00000000000E+00  0.00000000000E+00  0.74505805969E-08  0.10566000000E+00  0.10566000000E+00 0. -1.
     999900   -1    0    0    0    0 -0.00000000000E+00 -0.00000000000E+00 -0.74505805969E-08  0.93827000000E+00  0.93827000000E+00 0. -1.
     999902    2    1    2    0    0  0.20960579859E-01 -0.10780633796E-01  0.20451852892E-03  0.10203586233E+01  0.10200863249E+01 0.  0.
     999903    2    3    3    0    0  0.89451248825E-01  0.72670860951E-01 -0.60570188771E-01  0.13168056640E+00  0.19708978992E-01 0.  0.
         14    1    1    2    0    0 -0.20960579859E-01  0.10780633796E-01 -0.20451852892E-03  0.23571376729E-01  0.00000000000E+00 0. -1.
     999901    1    3    3    0    0 -0.68490668965E-01 -0.83451494746E-01  0.60774707300E-01  0.88867805687E+00  0.88000000000E+00 0.  1.
        -11    1    4    4    0    0  0.53895147098E-01  0.55508124736E-01 -0.37962451794E-01  0.86181480955E-01  0.51100000000E-03 0.  1.
         11    1    4    4    0    0  0.35556101727E-01  0.17162736214E-01 -0.22607736978E-01  0.45499085448E-01  0.51100000000E-03 0. -1.
</event>
<event>
 8    1  0.1099921E+005  0.1043930E+01  0.7957747E-01            NaN
         13   -1    0    0    0    0  0.00000000000E+00  0.00000000000E+00  0.74505805969E-08  0.10566000000E+00  0.10566000000E+00 0.  1.
     999900   -1    0    0    0    0 -0.00000000000E+00 -0.00000000000E+00 -0.74505805969E-08  0.93827000000E+00  0.93827000000E+00 0.  1.
     999902    2    1    2    0    0 -0.15424411322E-01 -0.17798492523E-01  0.25895506847E-02  0.10202360224E+01  0.10199608507E+01 0.  0.
     999903    2    3    3    0    0 -0.12873912086E+00  0.21605079945E-01 -0.12018509669E-01  0.13197577883E+00  0.15251914762E-01 0.  0.
         14    1    1    2    0    0  0.15424411322E-01  0.17798492523E-01 -0.25895506847E-02  0.23693977578E-01  0.00000000000E+00 0.  1.
     999901    1    3    3    0    0  0.11331470954E+00 -0.39403572468E-01  0.14608060354E-01  0.88826024359E+00  0.88000000000E+00 0.  1.
        -11    1    4    4    0    0 -0.40374564704E-01  0.13209579286E-01 -0.71255974311E-02  0.43077067214E-01  0.51100000000E-03 0.  1.
         11    1    4    4    0    0 -0.88364556155E-01  0.83955006588E-02 -0.48929122382E-02  0.88898711615E-01  0.51100000000E-03 0. -1.
</event>
<event>
 8    1  0.1099921E+005  0.1043930E+01  0.7957747E-01            NaN
         13   -1    0    0    0    0  0.00000000000E+00  0.00000000000E+00  0.74505805969E-08  0.10566000000E+00  0.10566000000E+00 0.  1.
     999900   -1    0    0    0    0 -0.00000000000E+00 -0.00000000000E+00 -0.74505805969E-08  0.93827000000E+00  0.93827000000E+00 0. -1.
     999902    2    1    2    0    0  0.15111291236E-01  0.13309355407E-01 -0.10705215291E-01  0.10211244810E+01  0.10208697830E+01 0.  0.
     999903    2    3    3    0    0  0.10331904704E+00  0.26866951344E-01  0.75618838454E-01  0.13240840772E+00  0.20423495019E-01 0.  0.
         14    1    1    2    0    0 -0.15111291236E-01 -0.13309355407E-01  0.10705215291E-01  0.22805519038E-01  0.00000000000E+00 0.  1.
     999901    1    3    3    0    0 -0.88207755804E-01 -0.13557595937E-01 -0.86324053745E-01  0.88871607325E+00  0.88000000000E+00 0. -1.
        -11    1    4    4    0    0  0.59710049649E-01  0.22403715017E-01  0.53805248844E-01  0.83441490877E-01  0.51100000000E-03 0. -1.
         11    1    4    4    0    0  0.43608997391E-01  0.44632363271E-02  0.21813589610E-01  0.48966916838E-01  0.51100000000E-03 0.  1.
</event>
<event>
 8    1  0.1099921E+005  0.1043930E+01  0.7957747E-01            NaN
         13   -1    0    0    0    0  0.00000000000E+00  0.00000000000E+00  0.74505805969E-08  0.10566000000E+00  0.10566000000E+00 0.  1.
     999900   -1    0    0    0    0 -0.00000000000E+00 -0.00000000000E+00 -0.74505805969E-08  0.93827000000E+00  0.93827000000E+00 0. -1.
     999902    2    1    2    0    0  0.13053290104E-01  0.19156458217E-01  0.91707542838E-02  0.10190008803E+01  0.10186958982E+01 0.  0.
     999903    2    3    3    0    0  0.35546016370E-02  0.12818097320E+00 -0.21995162983E-01  0.13167462445E+00  0.20283551172E-01 0.  0.
         14    1    1    2    0    0 -0.13053290104E-01 -0.19156458217E-01 -0.91707542838E-02  0.24929119682E-01  0.00000000000E+00 0.  1.
     999901    1    3    3    0    0  0.94986884675E-02 -0.10902451498E+00  0.31165917267E-01  0.88732625587E+00  0.88000000000E+00 0.  1.
        -11    1    4    4    0    0 -0.22411140231E-02  0.92658309637E-01 -0.79197836340E-02  0.93024561437E-01  0.51100000000E-03 0.  1.
         11    1    4    4    0    0  0.57957156601E-02  0.35522663558E-01 -0.14075379349E-01  0.38650063016E-01  0.51100000000E-03 0. -1.
</event>
<event>
 8    1  0.1099921E+005  0.1043930E+01  0.7957747E-01            NaN
         13   -1    0    0    0    0  0.00000000000E+00  0.00000000000E+00  0.74505805969E-08  0.10566000000E+00  0.10566000000E+00 0.  1.
     999900   -1    0    0    0    0 -0.00000000000E+00 -0.00000000000E+00 -0.74505805969E-08  0.93827000000E+00  0.93827000000E+00 0. -1.
     999902    2    1    2    0    0 -0.13942034338E-02  0.12324496335E-01 -0.21036210177E-01  0.10195095342E+01  0.10192170186E+01 0.  0.
     999903    2    3    3    0    0 -0.86623019663E-01 -0.80839897174E-01  0.44501072157E-01  0.12808444437E+00  0.19663238697E-01 0.  0.
         14    1    1    2    0    0  0.13942034338E-02 -0.12324496335E-01  0.21036210177E-01  0.24420465838E-01  0.00000000000E+00 0.  1.
     999901    1    3    3    0    0  0.85228816229E-01  0.93164393509E-01 -0.65537282334E-01  0.89142508979E+00  0.88000000000E+00 0. -1.
        -11    1    4    4    0    0 -0.62141681421E-01 -0.45117278352E-01  0.28173107007E-01  0.81799403758E-01  0.51100000000E-03 0.  1.
         11    1    4    4    0    0 -0.24481338242E-01 -0.35722618822E-01  0.16327965150E-01  0.46285040613E-01  0.51100000000E-03 0. -1.
</event>
<event>
 8    1  0.1099921E+005  0.1043930E+01  0.7957747E-01            NaN
         13   -1    0    0    0    0  0.00000000000E+00  0.00000000000E+00  0.74505805969E-08  0.10566000000E+00  0.10566000000E+00 0.  1.
     999900   -1    0    0    0    0 -0.00000000000E+00 -0.00000000000E+00 -0.74505805969E-08  0.93827000000E+00  0.93827000000E+00 0. -1.
     999902    2    1    2    0    0 -0.19462075716E-01  0.48430013935E-02 -0.11278072238E-01  0.10209208286E+01  0.10206615092E+01 0.  0.
     999903    2    3    3    0    0 -0.66749413404E-01  0.28245413629E-02  0.11132703333E+00  0.13116121031E+00  0.18603561918E-01 0.  0.
         14    1    1    2    0    0  0.19462075716E-01 -0.48430013935E-02  0.11278072238E-01  0.23009171369E-01  0.00000000000E+00 0.  1.
     999901    1    3    3    0    0  0.47287337688E-01  0.20184600306E-02 -0.12260510557E+00  0.88975961832E+00  0.88000000000E+00 0. -1.
        -11    1    4    4    0    0 -0.28646485875E-01  0.89951880766E-02  0.58196106466E-01  0.65487269682E-01  0.51100000000E-03 0.  1.
         11    1    4    4    0    0 -0.38102927530E-01 -0.61706467136E-02  0.53130926863E-01  0.65673940627E-01  0.51100000000E-03 0. -1.
</event>
<event>
 8    1  0.1099921E+005  0.1043930E+01  0.7957747E-01            NaN
         13   -1    0    0    0    0  0.00000000000E+00  0.00000000000E+00  0.74505805969E-08  0.10566000000E+00  0.10566000000E+00 0. -1.
     999900   -1    0    0    0    0 -0.00000000000E+00 -0.00000000000E+00 -0.74505805969E-08  0.93827000000E+00  0.93827000000E+00 0. -1.
     999902    2    1    2    0    0  0.63694783552E-04 -0.17482780303E-01 -0.14932050713E-01  0.10209383101E+01  0.10206793891E+01 0.  0.
     999903    2    3    3    0    0 -0.21136032852E-01  0.28858093238E-01 -0.12593214576E+00  0.13250264780E+00  0.20457881342E-01 0.  0.
         14    1    1    2    0    0 -0.63694783552E-04  0.17482780303E-01  0.14932050713E-01  0.22991689861E-01  0.00000000000E+00 0. -1.
     999901    1    3    3    0    0  0.21199727636E-01 -0.46340873541E-01  0.11100009505E+00  0.88843566234E+00  0.88000000000E+00 0.  1.
        -11    1    4    4    0    0 -0.15966203488E-01  0.28907675516E-01 -0.84161104142E-01  0.90409766779E-01  0.51100000000E-03 0.  1.
         11    1    4    4    0    0 -0.51698293639E-02 -0.49582278761E-04 -0.41771041617E-01  0.42092881023E-01  0.51100000000E-03 0. -1.
</event>
<event>
 8    1  0.1099921E+005  0.1043930E+01  0.7957747E-01            NaN
         13   -1    0    0    0    0  0.00000000000E+00  0.00000000000E+00  0.74505805969E-08  0.10566000000E+00  0.10566000000E+00 0. -1.
     999900   -1    0    0    0    0 -0.00000000000E+00 -0.00000000000E+00 -0.74505805969E-08  0.93827000000E+00  0.93827000000E+00 0.  1.
     999902    2    1    2    0    0  0.62881986216E-02  0.49238153999E-03  0.23041890442E-01  0.10200404082E+01  0.10197606198E+01 0.  0.
     999903    2    3    3    0    0 -0.74430561160E-02 -0.90633222705E-01  0.94062915035E-01  0.13238258615E+00  0.20187545374E-01 0.  0.
         14    1    1    2    0    0 -0.62881986216E-02 -0.49238153999E-03 -0.23041890442E-01  0.23889591806E-01  0.00000000000E+00 0.  1.
     999901    1    3    3    0    0  0.13731254738E-01  0.91125604245E-01 -0.71021024593E-01  0.88765782205E+00  0.88000000000E+00 0.  1.
        -11    1    4    4    0    0 -0.14135125079E-01 -0.51868203757E-01  0.56411729036E-01  0.77927252073E-01  0.51100000000E-03 0.  1.
         11    1    4    4    0    0  0.66920689626E-02 -0.38765018948E-01  0.37651185999E-01  0.54455334075E-01  0.51100000000E-03 0. -1.
</event>
<event>
 8    1  0.1099921E+005  0.1043930E+01  0.7957747E-01            NaN
         13   -1    0    0    0    0  0.00000000000E+00  0.00000000000E+00  0.74505805969E-08  0.10566000000E+00  0.10566000000E+00 0. -1.
     999900   -1    0    0    0    0 -0.00000000000E+00 -0.00000000000E+00 -0.74505805969E-08  0.93827000000E+00  0.93827000000E+00 0. -1.
     999902    2    1    2    0    0  0.21375686482E-01 -0.55751137238E-02 -0.38281389935E-02  0.10215099975E+01  0.10212639318E+01 0.  0.
     999903    2    3    3    0    0 -0.25208919003E-01 -0.78443356406E-02 -0.12737479261E+00  0.13165661041E+00  0.20300297366E-01 0.  0.
         14    1    1    2    0    0 -0.21375686482E-01  0.55751137238E-02  0.38281389935E-02  0.22420002537E-01  0.00000000000E+00 0. -1.
     999901    1    3    3    0    0  0.46584605485E-01  0.22692219168E-02  0.12354665361E+00  0.88985338706E+00  0.88000000000E+00 0.  1.
        -11    1    4    4    0    0  0.50702071068E-03  0.45300774750E-04 -0.44876068126E-01  0.44881864195E-01  0.51100000000E-03 0.  1.
         11    1    4    4    0    0 -0.25715939714E-01 -0.78896364154E-02 -0.82498724481E-01  0.86774746212E-01  0.51100000000E-03 0. -1.
</event>
<event>
 8    1  0.1099921E+005  0.1043930E+01  0.7957747E-01            NaN
         13   -1    0    0    0    0  0.00000000000E+00  0.00000000000E+00  0.74505805969E-08  0.10566000000E+00  0.10566000000E+00 0. -1.
     999900   -1    0    0    0    0 -0.00000000000E+00 -0.00000000000E+00 -0.74505805969E-08  0.93827000000E+00  0.93827000000E+00 0.  1.
     999902    2    1    2    0    0  0.22398081524E-02  0.22596906188E-01 -0.18477207039E-02  0.10211473096E+01  0.10208931271E+01 0.  0.
     999903    2    3    3    0    0 -0.41736578571E-01  0.12582034689E+00 -0.33907662429E-02  0.13402196204E+00  0.19434179443E-01 0.  0.
         14    1    1    2    0    0 -0.22398081524E-02 -0.22596906188E-01  0.18477207039E-02  0.22782690395E-01  0.00000000000E+00 0. -1.
     999901    1    3    3    0    0  0.43976386723E-01 -0.10322344071E+00  0.15430455390E-02  0.88712534756E+00  0.88000000000E+00 0.  1.
        -11    1    4    4    0    0 -0.39460733944E-02  0.83619086591E-02 -0.51983101024E-02  0.10619630906E-01  0.51100000000E-03 0. -1.
         11    1    4    4    0    0 -0.37790505176E-01  0.11745843823E+00  0.18075438595E-02  0.12340233114E+00  0.51100000000E-03 0.  1.
</event>
<event>
 7    1  0.1099921E+005  0.1043930E+01  0.7957747E-01            NaN
         13   -1    0    0    0    0  0.00000000000E+00  0.00000000000E+00  0.74505805969E-08  0.10566000000E+00  0.10566000000E+00 0.  1.
     999900   -1    0    0    0    0 -0.00000000000E+00 -0.00000000000E+00 -0.74505805969E-08  0.93827000000E+00  0.93827000000E+00 0. -1.
     999902    2    1    2    0    0 -0.23826109541E-01 -0.69989547535E-02 -0.24978251850E-02  0.10189718752E+01  0.10186661742E+01 0.  0.
         14    1    1    2    0    0  0.23826109541E-01  0.69989547535E-02  0.24978251850E-02  0.24958124813E-01  0.00000000000E+00 0. -1.
     999901    1    3    3    0    0 -0.65400989116E-01  0.83087612155E-01 -0.52774711820E-01  0.88789977524E+00  0.88000000000E+00 0. -1.
        -11    1    3    3    0    0  0.26132158046E-01 -0.80161839061E-01  0.65858869187E-01  0.10698813905E+00  0.51100000000E-03 0.  1.
         11    1    3    3    0    0  0.15442721528E-01 -0.99247278471E-02 -0.15581982552E-01  0.24083960893E-01  0.51100000000E-03 0. -1.
</event>
<event>
 8    1  0.1099921E+005  0.1043930E+01  0.7957747E-01            NaN
         13   -1    0    0    0    0  0.00000000000E+00  0.00000000000E+00  0.74505805969E-08  0.10566000000E+00  0.10566000000E+00 0. -1.
     999900   -1    0    0    0    0 -0.00000000000E+00 -0.00000000000E+00 -0.74505805969E-08  0.93827000000E+00  0.93827000000E+00 0.  1.
     999902    2    1    2    0    0 -0.12683595689E-01  0.16989270930E-02  0.20208172120E-01  0.10200107573E+01  0.10197302657E+01 0.  0.
     999903    2    3    3    0    0  0.59327741163E-01  0.10848692265E+00  0.36327286074E-01  0.13048890004E+00  0.20456980782E-01 0.  0.
         14    1    1    2    0    0  0.12683595689E-01 -0.16989270930E-02 -0.20208172120E-01  0.23919242741E-01  0.00000000000E+00 0. -1.
     999901    1    3    3    0    0 -0.72011336853E-01 -0.10678799556E+00 -0.16119113954E-01  0.88952185722E+00  0.88000000000E+00 0.  1.
        -11    1    4    4    0    0  0.28234216427E-01  0.71891411895E-01  0.24480474888E-01  0.81025309954E-01  0.51100000000E-03 0.  1.
         11    1    4    4    0    0  0.31093524737E-01  0.36595510758E-01  0.11846811186E-01  0.49463590088E-01  0.51100000000E-03 0. -1.
</event>
<event>
 8    1  0.1099921E+005  0.1043930E+01  0.7957747E-01            NaN
         13   -1    0    0    0    0  0.00000000000E+00  0.00000000000E+00  0.74505805969E-08  0.10566000000E+00  0.10566000000E+00 0.  1.
     999900   -1    0    0    0    0 -0.00000000000E+00 -0.00000000000E+00 -0.74505805969E-08  0.93827000000E+00  0.93827000000E+00 0. -1.
     999902    2    1    2    0    0 -0.22179646765E-01 -0.10689040373E-01  0.10715793982E-02  0.10192857188E+01  0.10189877506E+01 0.  0.
     999903    2    3    3    0    0 -0.25298979142E-01  0.59325736071E-01  0.11085887941E+00  0.12969870763E+00  0.19299800797E-01 0.  0.
         14    1    1    2    0    0  0.22179646765E-01  0.10689040373E-01 -0.10715793982E-02  0.24644281226E-01  0.00000000000E+00 0.  1.
     999901    1    3    3    0    0  0.31193323766E-02 -0.70014776444E-01 -0.10978730001E+00  0.88958701115E+00  0.88000000000E+00 0. -1.
        -11    1    4    4    0    0 -0.13721037949E-02  0.19652961303E-01  0.45487819871E-01  0.49573424679E-01  0.51100000000E-03 0.  1.
         11    1    4    4    0    0 -0.23926875347E-01  0.39672774768E-01  0.65371059538E-01  0.80125282950E-01  0.51100000000E-03 0. -1.
</event>
<event>
 8    1  0.1099921E+005  0.1043930E+01  0.7957747E-01            NaN
         13   -1    0    0    0    0  0.00000000000E+00  0.00000000000E+00  0.74505805969E-08  0.10566000000E+00  0.10566000000E+00 0. -1.
     999900   -1    0    0    0    0 -0.00000000000E+00 -0.00000000000E+00 -0.74505805969E-08  0.93827000000E+00  0.93827000000E+00 0.  1.
     999902    2    1    2    0    0  0.18961751835E-02 -0.88461281726E-02 -0.22778497288E-01  0.10194206262E+01  0.10191259509E+01 0.  0.
     999903    2    3    3    0    0  0.83370853411E-01 -0.36113258062E-01  0.88546311097E-01  0.12825575230E+00  0.18820791230E-01 0.  0.
         14    1    1    2    0    0 -0.18961751835E-02  0.88461281726E-02  0.22778497288E-01  0.24509373771E-01  0.00000000000E+00 0. -1.
     999901    1    3    3    0    0 -0.81474678227E-01  0.27267129889E-01 -0.11132480838E+00  0.89116487393E+00  0.88000000000E+00 0. -1.
        -11    1    4    4    0    0  0.34974832975E-01 -0.15786500583E-01  0.24864190959E-01  0.45726815495E-01  0.51100000000E-03 0. -1.
         11    1    4    4    0    0  0.48396020436E-01 -0.20326757479E-01  0.63682120138E-01  0.82528936804E-01  0.51100000000E-03 0.  1.
</event>
<event>
 8    1  0.1099921E+005  0.1043930E+01  0.7957747E-01            NaN
         13   -1    0    0    0    0  0.00000000000E+00  0.00000000000E+00  0.74505805969E-08  0.10566000000E+00  0.10566000000E+00 0.  1.
     999900   -1    0    0    0    0 -0.00000000000E+00 -0.00000000000E+00 -0.74505805969E-08  0.93827000000E+00  0.93827000000E+00 0. -1.
     999902    2    1    2    0    0 -0.26556752118E-02 -0.64031283792E-02 -0.23579069152E-01  0.10193530766E+01  0.10190567548E+01 0.  0.
     999903    2    3    3    0    0  0.10008120344E+00  0.78108560160E-01 -0.18174774946E-01  0.12933830245E+00  0.16759462474E-01 0.  0.
         14    1    1    2    0    0  0.26556752118E-02  0.64031283792E-02  0.23579069152E-01  0.24576923444E-01  0.00000000000E+00 0.  1.
     999901    1    3    3    0    0 -0.10273687866E+00 -0.84511688539E-01 -0.54042942066E-02  0.89001477411E+00  0.88000000000E+00 0. -1.
        -11    1    4    4    0    0  0.30817490643E-01  0.26017525726E-01 -0.13542204792E-01  0.42547406572E-01  0.51100000000E-03 0.  1.
         11    1    4    4    0    0  0.69263712802E-01  0.52091034434E-01 -0.46325701540E-02  0.86790895875E-01  0.51100000000E-03 0. -1.
</event>
<event>
 8    1  0.1099921E+005  0.1043930E+01  0.7957747E-01            NaN
         13   -1    0    0    0    0  0.00000000000E+00  0.00000000000E+00  0.74505805969E-08  0.10566000000E+00  0.10566000000E+00 0. -1.
     999900   -1    0    0    0    0 -0.00000000000E+00 -0.00000000000E+00 -0.74505805969E-08  0.93827000000E+00  0.93827000000E+00 0.  1.
     999902    2    1    2    0    0 -0.86624691508E-02  0.17351696845E-01  0.13343929345E-01  0.10203889676E+01  0.10201173781E+01 0.  0.
     999903    2    3    3    0    0  0.23310704582E-01 -0.19527302679E-01 -0.12315422360E+00  0.12852906259E+00  0.20689433092E-01 0.  0.
         14    1    1    2    0    0  0.86624691508E-02 -0.17351696845E-01 -0.13343929345E-01  0.23541032381E-01  0.00000000000E+00 0.  1.
     999901    1    3    3    0    0 -0.31973173733E-01  0.36878999524E-01  0.13649815294E+00  0.89185990503E+00  0.88000000000E+00 0. -1.
        -11    1    4    4    0    0  0.21472750367E-01 -0.23367103957E-01 -0.97983156717E-01  0.10299544008E+00  0.51100000000E-03 0. -1.
         11    1    4    4    0    0  0.18379542155E-02  0.38398012777E-02 -0.25171066881E-01  0.25533622510E-01  0.51100000000E-03 0.  1.
</event>
<event>
 8    1  0.1099921E+005  0.1043930E+01  0.7957747E-01            NaN
         13   -1    0    0    0    0  0.00000000000E+00  0.00000000000E+00  0.74505805969E-08  0.10566000000E+00  0.10566000000E+00 0. -1.
     999900   -1    0    0    0    0 -0.00000000000E+00 -0.00000000000E+00 -0.74505805969E-08  0.93827000000E+00  0.93827000000E+00 0.  1.
     999902    2    1    2    0    0 -0.13920162320E-01  0.14070706904E-01  0.16768191507E-01  0.10179891450E+01  0.10176585731E+01 0.  0.
     999903    2    3    3    0    0 -0.65441934697E-01 -0.96015564187E-01 -0.48130056688E-01  0.12726737995E+00  0.19464024759E-01 0.  0.
         14    1    1    2    0    0  0.13920162320E-01 -0.14070706904E-01 -0.16768191507E-01  0.25940855001E-01  0.00000000000E+00 0.  1.
     999901    1    3    3    0    0  0.51521772378E-01  0.11008627109E+00  0.64898248195E-01  0.89072176505E+00  0.88000000000E+00 0. -1.
        -11    1    4    4    0    0 -0.34600739084E-01 -0.61485909861E-01 -0.21045352608E-01  0.73626735932E-01  0.51100000000E-03 0.  1.
         11    1    4    4    0    0 -0.30841195613E-01 -0.34529654326E-01 -0.27084704080E-01  0.53640644019E-01  0.51100000000E-03 0. -1.
</event>
<event>
 8    1  0.1099921E+005  0.1043930E+01  0.7957747E-01            NaN
         13   -1    0    0    0    0  0.00000000000E+00  0.00000000000E+00  0.74505805969E-08  0.10566000000E+00  0.10566000000E+00 0. -1.
     999900   -1    0    0    0    0 -0.00000000000E+00 -0.00000000000E+00 -0.74505805969E-08  0.93827000000E+00  0.93827000000E+00 0.  1.
     999902    2    1    2    0    0 -0.19433014558E-01 -0.69356432521E-04  0.13745625042E-01  0.10201268684E+01  0.10198491254E+01 0.  0.
     999903    2    3    3    0    0  0.68366726800E-01 -0.12601628107E-01 -0.10538325933E+00  0.12768216789E+00  0.19086494867E-01 0.  0.
         14    1    1    2    0    0  0.19433014558E-01  0.69356432521E-04 -0.13745625042E-01  0.23803131578E-01  0.00000000000E+00 0.  1.
     999901    1    3    3    0    0 -0.87799741358E-01  0.12532271674E-01  0.11912888437E+00  0.89244470053E+00  0.88000000000E+00 0. -1.
        -11    1    4    4    0    0  0.20604224335E-01  0.45431813923E-02 -0.26385253978E-01  0.33787827780E-01  0.51100000000E-03 0.  1.
         11    1    4    4    0    0  0.47762502465E-01 -0.17144809499E-01 -0.78998005349E-01  0.93894340110E-01  0.51100000000E-03 0. -1.
</event>
<event>
 8    1  0.1099921E+005  0.1043930E+01  0.7957747E-01            NaN
         13   -1    0    0    0    0  0.00000000000E+00  0.00000000000E+00  0.74505805969E-08  0.10566000000E+00  0.10566000000E+00 0. -1.
     999900   -1    0    0    0    0 -0.00000000000E+00 -0.00000000000E+00 -0.74505805969E-08  0.93827000000E+00  0.93827000000E+00 0. -1.
     999902    2    1    2    0    0 -0.18903892525E-01 -0.98235971521E-02  0.83785088505E-02  0.10210376514E+01  0.10207809882E+01 0.  0.
     999903    2    3    3    0    0 -0.38491838602E-01  0.39469722419E-01  0.11907825068E+00  0.13251756056E+00  0.18487656590E-01 0.  0.
         14    1    1    2    0    0  0.18903892525E-01  0.98235971521E-02 -0.83785088505E-02  0.22892348595E-01  0.00000000000E+00 0. -1.
     999901    1    3    3    0    0  0.19587946076E-01 -0.49293319571E-01 -0.11069974183E+00  0.88852009084E+00  0.88000000000E+00 0. -1.
        -11    1    4    4    0    0 -0.29323592086E-02  0.12827957746E-01  0.20198082898E-01  0.24111800103E-01  0.51100000000E-03 0. -1.
         11    1    4    4    0    0 -0.35559479393E-01  0.26641764672E-01  0.98880167782E-01  0.10840576046E+00  0.51100000000E-03 0.  1.
</event>
<event>
 8    1  0.1099921E+005  0.1043930E+01  0.7957747E-01            NaN
         13   -1    0    0    0    0  0.00000000000E+00  0.00000000000E+00  0.74505805969E-08  0.10566000000E+00  0.10566000000E+00 0.  1.
     999900   -1    0    0    0    0 -0.00000000000E+00 -0.00000000000E+00 -0.74505805969E-08  0.93827000000E+00  0.93827000000E+00 0. -1.
     999902    2    1    2    0    0 -0.18702806745E-01 -0.95830984507E-02 -0.11149862199E-01  0.10201402925E+01  0.10198628664E+01 0.  0.
     999903    2    3    3    0    0 -0.35616699703E-01 -0.10956689486E+00  0.59883301879E-01  0.13147356660E+00  0.20635772896E-01 0.  0.
         14    1    1    2    0    0  0.18702806745E-01  0.95830984507E-02  0.11149862199E-01  0.23789707504E-01  0.00000000000E+00 0.  1.
     999901    1    3    3    0    0  0.16913892958E-01  0.99983796410E-01 -0.71033164077E-01  0.88866672590E+00  0.88000000000E+00 0.  1.
        -11    1    4    4    0    0 -0.26181791578E-01 -0.56625028855E-01  0.24110076455E-01  0.66883757451E-01  0.51100000000E-03 0. -1.
         11    1    4    4    0    0 -0.94349081249E-02 -0.52941866006E-01  0.35773225424E-01  0.64589809147E-01  0.51100000000E-03 0.  1.
</event>
<event>
 8    1  0.1099921E+005  0.1043930E+01  0.7957747E-01            NaN
         13   -1    0    0    0    0  0.00000000000E+00  0.00000000000E+00  0.74505805969E-08  0.10566000000E+00  0.10566000000E+00 0.  1.
     999900   -1    0    0    0    0 -0.00000000000E+00 -0.00000000000E+00 -0.74505805969E-08  0.93827000000E+00  0.93827000000E+00 0. -1.
     999902    2    1    2    0    0 -0.17158365999E-01 -0.15658604292E-01 -0.15999565874E-02  0.10206456432E+01  0.10203800114E+01 0.  0.
     999903    2    3    3    0    0 -0.64573890283E-01 -0.63507943996E-02  0.11292545651E+00  0.13191005959E+00  0.20928095893E-01 0.  0.
         14    1    1    2    0    0  0.17158365999E-01  0.15658604292E-01  0.15999565874E-02  0.23284356835E-01  0.00000000000E+00 0.  1.
     999901    1    3    3    0    0  0.47415524284E-01 -0.93078098929E-02 -0.11452541309E+00  0.88873558358E+00  0.88000000000E+00 0. -1.
        -11    1    4    4    0    0 -0.63191509954E-01 -0.10233443190E-01  0.10557513803E+00  0.12346765236E+00  0.51100000000E-03 0. -1.
         11    1    4    4    0    0 -0.13823803294E-02  0.38826487905E-02  0.73503184801E-02  0.84424072257E-02  0.51100000000E-03 0.  1.
</event>
<event>
 8    1  0.1099921E+005  0.1043930E+01  0.7957747E-01            NaN
         13   -1    0    0    0    0  0.00000000000E+00  0.00000000000E+00  0.74505805969E-08  0.10566000000E+00  0.10566000000E+00 0. -1.
     999900   -1    0    0    0    0 -0.00000000000E+00 -0.00000000000E+00 -0.74505805969E-08  0.93827000000E+00  0.93827000000E+00 0. -1.
     999902    2    1    2    0    0 -0.18112200692E-01  0.53020921724E-02  0.13328741043E-01  0.10208254694E+01  0.10205639714E+01 0.  0.
     999903    2    3    3    0    0 -0.47411769304E-01 -0.34088192141E-01 -0.11459834191E+00  0.13022151829E+00  0.20371135118E-01 0.  0.
         14    1    1    2    0    0  0.18112200692E-01 -0.53020921724E-02 -0.13328741043E-01  0.23104530575E-01  0.00000000000E+00 0. -1.
     999901    1    3    3    0    0  0.29299568612E-01  0.39390284313E-01  0.12792708295E+00  0.89060395113E+00  0.88000000000E+00 0.  1.
        -11    1    4    4    0    0 -0.43775396396E-01 -0.36282763326E-01 -0.10028480564E+00  0.11528238204E+00  0.51100000000E-03 0.  1.
         11    1    4    4    0    0 -0.36363729082E-02  0.21945711852E-02 -0.14313536268E-01  0.14939136257E-01  0.51100000000E-03 0. -1.
</event>
<event>
 8    1  0.1099921E+005  0.1043930E+01  0.7957747E-01            NaN
         13   -1    0    0    0    0  0.00000000000E+00  0.00000000000E+00  0.74505805969E-08  0.10566000000E+00  0.10566000000E+00 0. -1.
     999900   -1    0    0    0    0 -0.00000000000E+00 -0.00000000000E+00 -0.74505805969E-08  0.93827000000E+00  0.93827000000E+00 0.  1.
     999902    2    1    2    0    0 -0.10552549339E-01  0.51737485134E-02 -0.20552903629E-01  0.10202541511E+01  0.10199794052E+01 0.  0.
     999903    2    3    3    0    0 -0.82185474128E-01  0.24230488965E-01  0.95191813132E-01  0.12958514713E+00  0.19729681070E-01 0.  0.
         14    1    1    2    0    0  0.10552549339E-01 -0.51737485134E-02  0.20552903629E-01  0.23675848851E-01  0.00000000000E+00 0. -1.
     999901    1    3    3    0    0  0.71632924790E-01 -0.19056740452E-01 -0.11574471676E+00  0.89066900402E+00  0.88000000000E+00 0.  1.
        -11    1    4    4    0    0 -0.15016406535E-01  0.65652633885E-02  0.30704998497E-01  0.34808809263E-01  0.51100000000E-03 0. -1.
         11    1    4    4    0    0 -0.67169067593E-01  0.17665225577E-01  0.64486814635E-01  0.94776337863E-01  0.51100000000E-03 0.  1.
</event>
<event>
 8    1  0.1099921E+005  0.1043930E+01  0.7957747E-01            NaN
         13   -1    0    0    0    0  0.00000000000E+00  0.00000000000E+00  0.74505805969E-08  0.10566000000E+00  0.10566000000E+00 0. -1.
     999900   -1    0    0    0    0 -0.00000000000E+00 -0.00000000000E+00 -0.74505805969E-08  0.93827000000E+00  0.93827000000E+00 0. -1.
     999902    2    1    2    0    0  0.13914941394E-01 -0.55752710956E-02  0.18878074207E-01  0.10198241723E+01  0.10195392349E+01 0.  0.
     999903    2    3    3    0    0 -0.48696987539E-02 -0.10717884881E+00 -0.68792078119E-01  0.12945222459E+00  0.22682787335E-01 0.  0.
         14    1    1    2    0    0 -0.13914941394E-01  0.55752710956E-02 -0.18878074207E-01  0.24105827668E-01  0.00000000000E+00 0. -1.
     999901    1    3    3    0    0  0.18784640148E-01  0.10160357772E+00  0.87670152326E-01  0.89037194774E+00  0.88000000000E+00 0.  1.
        -11    1    4    4    0    0  0.77549324112E-02 -0.22441503641E-01 -0.18530058997E-01  0.30122819751E-01  0.51100000000E-03 0.  1.
         11    1    4    4    0    0 -0.12624631165E-01 -0.84737345174E-01 -0.50262019122E-01  0.99329404842E-01  0.51100000000E-03 0. -1.
</event>
<event>
 8    1  0.1099921E+005  0.1043930E+01  0.7957747E-01            NaN
         13   -1    0    0    0    0  0.00000000000E+00  0.00000000000E+00  0.74505805969E-08  0.10566000000E+00  0.10566000000E+00 0. -1.
     999900   -1    0    0    0    0 -0.00000000000E+00 -0.00000000000E+00 -0.74505805969E-08  0.93827000000E+00  0.93827000000E+00 0.  1.
     999902    2    1    2    0    0  0.16252564326E-01  0.18665731890E-01  0.26075218140E-02  0.10190431648E+01  0.10187392293E+01 0.  0.
     999903    2    3    3    0    0 -0.37324096233E-01  0.65978523592E-01 -0.10339371820E+00  0.12980460197E+00  0.20315511159E-01 0.  0.
         14    1    1    2    0    0 -0.16252564326E-01 -0.18665731890E-01 -0.26075218140E-02  0.24886835158E-01  0.00000000000E+00 0.  1.
     999901    1    3    3    0    0  0.53576660559E-01 -0.47312791702E-01  0.10600124002E+00  0.88923856287E+00  0.88000000000E+00 0. -1.
        -11    1    4    4    0    0 -0.12883811619E-01  0.21808581975E-01 -0.19819793439E-01  0.32166631508E-01  0.51100000000E-03 0. -1.
         11    1    4    4    0    0 -0.24440284614E-01  0.44169941617E-01 -0.83573924763E-01  0.97637970462E-01  0.51100000000E-03 0.  1.
</event>
<event>
 8    1  0.1099921E+005  0.1043930E+01  0.7957747E-01            NaN
         13   -1    0    0    0    0  0.00000000000E+00  0.00000000000E+00  0.74505805969E-08  0.10566000000E+00  0.10566000000E+00 0. -1.
     999900   -1    0    0    0    0 -0.00000000000E+00 -0.00000000000E+00 -0.74505805969E-08  0.93827000000E+00  0.93827000000E+00 0. -1.
     999902    2    1    2    0    0 -0.19811679993E-01 -0.12481815943E-01 -0.91125457455E-03  0.10204965031E+01  0.10202274178E+01 0.  0.
     999903    2    3    3    0    0 -0.82433171313E-01 -0.96205695594E-01  0.36832457847E-01  0.13350398505E+00  0.20394128459E-01 0.  0.
         14    1    1    2    0    0  0.19811679993E-01  0.12481815943E-01  0.91125457455E-03  0.23433496928E-01  0.00000000000E+00 0.  1.
     999901    1    3    3    0    0  0.62621491320E-01  0.83723879651E-01 -0.37743712422E-01  0.88699251802E+00  0.88000000000E+00 0. -1.
        -11    1    4    4    0    0 -0.19831017063E-01 -0.30810365209E-01  0.18834884092E-01  0.41201478394E-01  0.51100000000E-03 0. -1.
         11    1    4    4    0    0 -0.62602154250E-01 -0.65395330385E-01  0.17997573755E-01  0.92302506656E-01  0.51100000000E-03 0.  1.
</event>
<event>
 7    1  0.1099921E+005  0.1043930E+01  0.7957747E-01            NaN
         13   -1    0    0    0    0  0.00000000000E+00  0.00000000000E+00  0.74505805969E-08  0.10566000000E+00  0.10566000000E+00 0.  1.
     999900   -1    0    0    0    0 -0.00000000000E+00 -0.00000000000E+00 -0.74505805969E-08  0.93827000000E+00  0.93827000000E+00 0.  1.
     999903    2    1    2    0    0 -0.58064582550E-01 -0.72465051025E-01 -0.46856614475E-01  0.10591778936E+00  0.20008908402E-01 0.  0.
         14    1    1    2    0    0 -0.31997628164E-01 -0.21989809779E-01  0.28561134234E-01  0.48198945331E-01  0.00000000000E+00 0.  1.
     999901    1    1    2    0    0  0.90062210714E-01  0.94454860804E-01  0.18295480241E-01  0.88981326531E+00  0.88000000000E+00 0.  1.
        -11    1    3    3    0    0 -0.32573236041E-01 -0.25727225673E-01 -0.24265675769E-01  0.48083157015E-01  0.51100000000E-03 0.  1.
         11    1    3    3    0    0 -0.25491346509E-01 -0.46737825353E-01 -0.22590938707E-01  0.57834632342E-01  0.51100000000E-03 0. -1.
</event>
<event>
 8    1  0.1099921E+005  0.1043930E+01  0.7957747E-01            NaN
         13   -1    0    0    0    0  0.00000000000E+00  0.00000000000E+00  0.74505805969E-08  0.10566000000E+00  0.10566000000E+00 0.  1.
     999900   -1    0    0    0    0 -0.00000000000E+00 -0.00000000000E+00 -0.74505805969E-08  0.93827000000E+00  0.93827000000E+00 0.  1.
     999902    2    1    2    0    0 -0.15228685846E-01  0.27841810550E-02 -0.18231653835E-01  0.10200122715E+01  0.10197318158E+01 0.  0.
     999903    2    3    3    0    0 -0.65239387555E-01  0.50922573080E-01  0.97731731655E-01  0.12969441707E+00  0.20490590771E-01 0.  0.
         14    1    1    2    0    0  0.15228685846E-01 -0.27841810550E-02  0.18231653835E-01  0.23917728535E-01  0.00000000000E+00 0.  1.
     999901    1    3    3    0    0  0.50010701710E-01 -0.48138392025E-01 -0.11596338549E+00  0.89031785439E+00  0.88000000000E+00 0.  1.
        -11    1    4    4    0    0 -0.52753508929E-01  0.29474299890E-01  0.69912544129E-01  0.92410453986E-01  0.51100000000E-03 0.  1.
         11    1    4    4    0    0 -0.12485878626E-01  0.21448273190E-01  0.27819187526E-01  0.37283963088E-01  0.51100000000E-03 0. -1.
</event>
<event>
 8    1  0.1099921E+005  0.1043930E+01  0.7957747E-01            NaN
         13   -1    0    0    0    0  0.00000000000E+00  0.00000000000E+00  0.74505805969E-08  0.10566000000E+00  0.10566000000E+00 0. -1.
     999900   -1    0    0    0    0 -0.00000000000E+00 -0.00000000000E+00 -0.74505805969E-08  0.93827000000E+00  0.93827000000E+00 0.  1.
     999902    2    1    2    0    0  0.90514357826E-02  0.13692261603E-02 -0.20287987994E-01  0.10216722884E+01  0.10214298111E+01 0.  0.
     999903    2    3    3    0    0 -0.37342138749E-01  0.19891743420E-01  0.12068895231E+00  0.12905257926E+00  0.17280862840E-01 0.  0.
         14    1    1    2    0    0 -0.90514357826E-02 -0.13692261603E-02  0.20287987994E-01  0.22257711627E-01  0.00000000000E+00 0. -1.
     999901    1    3    3    0    0  0.46393574532E-01 -0.18522517259E-01 -0.14097694031E+00  0.89261970912E+00  0.88000000000E+00 0.  1.
        -11    1    4    4    0    0 -0.23503066801E-01  0.19726287596E-01  0.68554468064E-01  0.75109898042E-01  0.51100000000E-03 0.  1.
         11    1    4    4    0    0 -0.13839071948E-01  0.16545582387E-03  0.52134484247E-01  0.53942681216E-01  0.51100000000E-03 0. -1.
</event>
<event>
 8    1  0.1099921E+005  0.1043930E+01  0.7957747E-01            NaN
         13   -1    0    0    0    0  0.00000000000E+00  0.00000000000E+00  0.74505805969E-08  0.10566000000E+00  0.10566000000E+00 0. -1.
     999900   -1    0    0    0    0 -0.00000000000E+00 -0.00000000000E+00 -0.74505805969E-08  0.93827000000E+00  0.93827000000E+00 0.  1.
     999902    2    1    2    0    0  0.16019076820E-01 -0.12269819717E-01 -0.12114754404E-01  0.10203943553E+01  0.10201228915E+01 0.  0.
     999903    2    3    3    0    0  0.86766279823E-01 -0.66362336702E-01  0.71194155438E-01  0.13198479793E+00  0.20470272845E-01 0.  0.
         14    1    1    2    0    0 -0.16019076820E-01  0.12269819717E-01  0.12114754404E-01  0.23535644719E-01  0.00000000000E+00 0.  1.
     999901    1    3    3    0    0 -0.70747203004E-01  0.54092516985E-01 -0.83308909842E-01  0.88840955735E+00  0.88000000000E+00 0.  1.
        -11    1    4    4    0    0  0.56122201401E-02 -0.93312337670E-02  0.13067843871E-01  0.17017596862E-01  0.51100000000E-03 0. -1.
         11    1    4    4    0    0  0.81154059683E-01 -0.57031102935E-01  0.58126311567E-01  0.11496720107E+00  0.51100000000E-03 0.  1.
</event>
<event>
 7    1  0.1099921E+005  0.1043930E+01  0.7957747E-01            NaN
         13   -1    0    0    0    0  0.00000000000E+00  0.00000000000E+00  0.74505805969E-08  0.10566000000E+00  0.10566000000E+00 0. -1.
     999900   -1    0    0    0    0 -0.00000000000E+00 -0.00000000000E+00 -0.74505805969E-08  0.93827000000E+00  0.93827000000E+00 0. -1.
     999903    2    1    2    0    0 -0.97246185416E-01 -0.42543038551E-01  0.25211537793E-01  0.11090016413E+00  0.19912158556E-01 0.  0.
         14    1    1    2    0    0 -0.11681956976E-02  0.40653125560E-01 -0.24620479962E-01  0.47541658917E-01  0.00000000000E+00 0.  1.
     999901    1    1    2    0    0  0.98414381114E-01  0.18899129907E-02 -0.59105783069E-03  0.88548817696E+00  0.88000000000E+00 0. -1.
        -11    1    3    3    0    0 -0.93067984094E-02 -0.11159153375E-01  0.49012896655E-02  0.15343629364E-01  0.51100000000E-03 0.  1.
         11    1    3    3    0    0 -0.87939387007E-01 -0.31383885176E-01  0.20310248127E-01  0.95556534762E-01  0.51100000000E-03 0. -1.
</event>
<event>
 8    1  0.1099921E+005  0.1043930E+01  0.7957747E-01            NaN
         13   -1    0    0    0    0  0.00000000000E+00  0.00000000000E+00  0.74505805969E-08  0.10566000000E+00  0.10566000000E+00 0. -1.
     999900   -1    0    0    0    0 -0.00000000000E+00 -0.00000000000E+00 -0.74505805969E-08  0.93827000000E+00  0.93827000000E+00 0. -1.
     999902    2    1    2    0    0 -0.52079569408E-03  0.14758594026E-01 -0.11156138466E-01  0.10254219814E+01  0.10252549406E+01 0.  0.
     999903    2    3    3    0    0 -0.96062495905E-02 -0.12885414450E+00  0.24613420382E-01  0.13301701424E+00  0.19799874392E-01 0.  0.
         14    1    1    2    0    0  0.52079569408E-03 -0.14758594026E-01  0.11156138466E-01  0.18508018566E-01  0.00000000000E+00 0. -1.
     999901    1    3    3    0    0  0.90854538964E-02  0.14361273853E+00 -0.35769558848E-01  0.89240496720E+00  0.88000000000E+00 0.  1.
        -11    1    4    4    0    0 -0.18825892662E-03 -0.22478610317E-01 -0.30714300904E-02  0.22694011699E-01  0.51100000000E-03 0.  1.
         11    1    4    4    0    0 -0.94179906638E-02 -0.10637553419E+00  0.27684850472E-01  0.11032300254E+00  0.51100000000E-03 0. -1.
</event>
<event>
 8    1  0.1099921E+005  0.1043930E+01  0.7957747E-01            NaN
         13   -1    0    0    0    0  0.00000000000E+00  0.00000000000E+00  0.74505805969E-08  0.10566000000E+00  0.10566000000E+00 0. -1.
     999900   -1    0    0    0    0 -0.00000000000E+00 -0.00000000000E+00 -0.74505805969E-08  0.93827000000E+00  0.93827000000E+00 0.  1.
     999902    2    1    2    0    0 -0.18067162330E-01 -0.21364993703E-02  0.13607052815E-01  0.10212113101E+01  0.10209585697E+01 0.  0.
     999903    2    3    3    0    0  0.11453331241E+00 -0.47687112252E-01  0.32941204660E-01  0.12990241098E+00  0.19939234900E-01 0.  0.
         14    1    1    2    0    0  0.18067162330E-01  0.21364993703E-02 -0.13607052815E-01  0.22718689895E-01  0.00000000000E+00 0.  1.
     999901    1    3    3    0    0 -0.13260047474E+00  0.45550612881E-01 -0.19334151844E-01  0.89130889913E+00  0.88000000000E+00 0. -1.
        -11    1    4    4    0    0  0.83805659293E-01 -0.27559294908E-01  0.16947765429E-01  0.89835355732E-01  0.51100000000E-03 0. -1.
         11    1    4    4    0    0  0.30727653112E-01 -0.20127817343E-01  0.15993439231E-01  0.40067055247E-01  0.51100000000E-03 0.  1.
</event>
<event>
 8    1  0.1099921E+005  0.1043930E+01  0.7957747E-01            NaN
         13   -1    0    0    0    0  0.00000000000E+00  0.00000000000E+00  0.74505805969E-08  0.10566000000E+00  0.10566000000E+00 0. -1.
     999900   -1    0    0    0    0 -0.00000000000E+00 -0.00000000000E+00 -0.74505805969E-08  0.93827000000E+00  0.93827000000E+00 0. -1.
     999902    2    1    2    0    0  0.15713844465E-01  0.16366439641E-01 -0.37294974256E-02  0.10209366443E+01  0.10206776853E+01 0.  0.
     999903    2    3    3    0    0  0.10949349723E-01  0.13005497927E+00 -0.20531282194E-01  0.13345138561E+00  0.18803001897E-01 0.  0.
         14    1    1    2    0    0 -0.15713844465E-01 -0.16366439641E-01  0.37294974256E-02  0.22993355681E-01  0.00000000000E+00 0. -1.
     999901    1    3    3    0    0  0.47644947426E-02 -0.11368853963E+00  0.16801784768E-01  0.88748525871E+00  0.88000000000E+00 0. -1.
        -11    1    4    4    0    0  0.50059753783E-02  0.90458674011E-01 -0.57981731229E-02  0.90783872058E-01  0.51100000000E-03 0.  1.
         11    1    4    4    0    0  0.59433743445E-02  0.39596305260E-01 -0.14733109071E-01  0.42667513553E-01  0.51100000000E-03 0. -1.
</event>
<event>
 8    1  0.1099921E+005  0.1043930E+01  0.7957747E-01            NaN
         13   -1    0    0    0    0  0.00000000000E+00  0.00000000000E+00  0.74505805969E-08  0.10566000000E+00  0.10566000000E+00 0. -1.
     999900   -1    0    0    0    0 -0.00000000000E+00 -0.00000000000E+00 -0.74505805969E-08  0.93827000000E+00  0.93827000000E+00 0.  1.
     999902    2    1    2    0    0  0.15849966817E-01 -0.15315954585E-01  0.46624466961E-02  0.10214013888E+01  0.10211529066E+01 0.  0.
     999903    2    3    3    0    0  0.41887689478E-01  0.83897041953E-01  0.90373819113E-01  0.13130722467E+00  0.16759113638E-01 0.  0.
         14    1    1    2    0    0 -0.15849966817E-01  0.15315954585E-01 -0.46624466961E-02  0.22528611190E-01  0.00000000000E+00 0.  1.
     999901    1    3    3    0    0 -0.26037722662E-01 -0.99212996538E-01 -0.85711372417E-01  0.89009416415E+00  0.88000000000E+00 0.  1.
        -11    1    4    4    0    0  0.29192654047E-01  0.71520449491E-01  0.69475391641E-01  0.10389647208E+00  0.51100000000E-03 0. -1.
         11    1    4    4    0    0  0.12695035432E-01  0.12376592463E-01  0.20898427471E-01  0.27410752587E-01  0.51100000000E-03 0.  1.
</event>
<event>
 8    1  0.1099921E+005  0.1043930E+01  0.7957747E-01            NaN
         13   -1    0    0    0    0  0.00000000000E+00  0.00000000000E+00  0.74505805969E-08  0.10566000000E+00  0.10566000000E+00 0.  1.
     999900   -1    0    0    0    0 -0.00000000000E+00 -0.00000000000E+00 -0.74505805969E-08  0.93827000000E+00  0.93827000000E+00 0. -1.
     999902    2    1    2    0    0  0.11648663139E-01  0.15236688160E-01 -0.13625530922E-01  0.10204033532E+01  0.10201320993E+01 0.  0.
     999903    2    3    3    0    0 -0.73733667184E-01 -0.46012471717E-02  0.10321412053E+00  0.12836344925E+00  0.19136229364E-01 0.  0.
         14    1    1    2    0    0 -0.11648663139E-01 -0.15236688160E-01  0.13625530922E-01  0.23526646849E-01  0.00000000000E+00 0.  1.
     999901    1    3    3    0    0  0.85382330323E-01  0.19837935332E-01 -0.11683965145E+00  0.89203990391E+00  0.88000000000E+00 0. -1.
        -11    1    4    4    0    0 -0.36865394562E-01  0.69146256321E-02  0.55200082966E-01  0.66739640727E-01  0.51100000000E-03 0.  1.
         11    1    4    4    0    0 -0.36868272622E-01 -0.11515872804E-01  0.48014037560E-01  0.61623808519E-01  0.51100000000E-03 0. -1.
</event>
<event>
 8    1  0.1099921E+005  0.1043930E+01  0.7957747E-01            NaN
         13   -1    0    0    0    0  0.00000000000E+00  0.00000000000E+00  0.74505805969E-08  0.10566000000E+00  0.10566000000E+00 0.  1.
     999900   -1    0    0    0    0 -0.00000000000E+00 -0.00000000000E+00 -0.74505805969E-08  0.93827000000E+00  0.93827000000E+00 0. -1.
     999902    2    1    2    0    0  0.18707781687E-01 -0.23935426130E-02  0.12223872711E-01  0.10214548313E+01  0.10212075398E+01 0.  0.
     999903    2    3    3    0    0 -0.39580531372E-01 -0.89520885367E-01  0.87027433542E-01  0.13208186459E+00  0.17065678509E-01 0.  0.
         14    1    1    2    0    0 -0.18707781687E-01  0.23935426130E-02 -0.12223872711E-01  0.22475168652E-01  0.00000000000E+00 0. -1.
     999901    1    3    3    0    0  0.58288313059E-01  0.87127342754E-01 -0.74803560832E-01  0.88937296676E+00  0.88000000000E+00 0. -1.
        -11    1    4    4    0    0 -0.19100209942E-01 -0.28275885436E-01  0.37443577809E-01  0.50661882685E-01  0.51100000000E-03 0. -1.
         11    1    4    4    0    0 -0.20480321429E-01 -0.61244999931E-01  0.49583855733E-01  0.81419981901E-01  0.51100000000E-03 0.  1.
</event>
<event>
 8    1  0.1099921E+005  0.1043930E+01  0.7957747E-01            NaN
         13   -1    0    0    0    0  0.00000000000E+00  0.00000000000E+00  0.74505805969E-08  0.10566000000E+00  0.10566000000E+00 0.  1.
     999900   -1    0    0    0    0 -0.00000000000E+00 -0.00000000000E+00 -0.74505805969E-08  0.93827000000E+00  0.93827000000E+00 0.  1.
     999902    2    1    2    0    0 -0.16431249301E-01  0.14823976186E-01  0.94446039927E-02  0.10198688951E+01  0.10195850266E+01 0.  0.
     999903    2    3    3    0    0 -0.54447837077E-01 -0.84933211252E-01  0.80550176617E-01  0.13056986788E+00  0.19543339244E-01 0.  0.
         14    1    1    2    0    0  0.16431249301E-01 -0.14823976186E-01 -0.94446039927E-02  0.24061104882E-01  0.00000000000E+00 0. -1.
     999901    1    3    3    0    0  0.38016587776E-01  0.99757187438E-01 -0.71105572624E-01  0.88929902724E+00  0.88000000000E+00 0.  1.
        -11    1    4    4    0    0 -0.23771009412E-01 -0.20592529993E-01  0.23295161075E-01  0.39141267615E-01  0.51100000000E-03 0. -1.
         11    1    4    4    0    0 -0.30676827665E-01 -0.64340681259E-01  0.57255015542E-01  0.91428600263E-01  0.51100000000E-03 0.  1.
</event>
<event>
 8    1  0.1099921E+005  0.1043930E+01  0.7957747E-01            NaN
         13   -1    0    0    0    0  0.00000000000E+00  0.00000000000E+00  0.74505805969E-08  0.10566000000E+00  0.10566000000E+00 0.  1.
     999900   -1    0    0    0    0 -0.00000000000E+00 -0.00000000000E+00 -0.74505805969E-08  0.93827000000E+00  0.93827000000E+00 0. -1.
     999902    2    1    2    0    0 -0.37777313683E-02 -0.20905342360E-01  0.63409466966E-02  0.10217599256E+01  0.10215193749E+01 0.  0.
     999903    2    3    3    0    0  0.79820073168E-01  0.81672897782E-01 -0.58011360657E-01  0.12954240295E+00  0.19344505286E-01 0.  0.
         14    1    1    2    0    0  0.37777313683E-02  0.20905342360E-01 -0.63409466966E-02  0.22170074391E-01  0.00000000000E+00 0. -1.
     999901    1    3    3    0    0 -0.83597804536E-01 -0.10257824014E+00  0.64352307354E-01  0.89221752266E+00  0.88000000000E+00 0.  1.
        -11    1    4    4    0    0  0.37866557795E-01  0.25371757523E-01 -0.24237610760E-01  0.51626787382E-01  0.51100000000E-03 0. -1.
         11    1    4    4    0    0  0.41953515373E-01  0.56301140259E-01 -0.33773749898E-01  0.77915615570E-01  0.51100000000E-03 0.  1.
</event>
<event>
 8    1  0.1099921E+005  0.1043930E+01  0.7957747E-01            NaN
         13   -1    0    0    0    0  0.00000000000E+00  0.00000000000E+00  0.74505805969E-08  0.10566000000E+00  0.10566000000E+00 0.  1.
     999900   -1    0    0    0    0 -0.00000000000E+00 -0.00000000000E+00 -0.74505805969E-08  0.93827000000E+00  0.93827000000E+00 0. -1.
     999902    2    1    2    0    0 -0.21411168804E-01 -0.61312155655E-02 -0.81709375212E-02  0.10202067166E+01  0.10199308557E+01 0.  0.
     999903    2    3    3    0    0 -0.63256545609E-01  0.11211258486E+00  0.15048232501E-01  0.13100945969E+00  0.19141760105E-01 0.  0.
         14    1    1    2    0    0  0.21411168804E-01  0.61312155655E-02  0.81709375212E-02  0.23723283370E-01  0.00000000000E+00 0. -1.
     999901    1    3    3    0    0  0.41845376805E-01 -0.11824380042E+00 -0.23219170022E-01  0.88919725694E+00  0.88000000000E+00 0.  1.
        -11    1    4    4    0    0 -0.49248467341E-01  0.96650339861E-01  0.17908943391E-01  0.10994403624E+00  0.51100000000E-03 0.  1.
         11    1    4    4    0    0 -0.14008078268E-01  0.15462244998E-01 -0.28607108903E-02  0.21065423445E-01  0.51100000000E-03 0. -1.
</event>
<event>
 8    1  0.1099921E+005  0.1043930E+01  0.7957747E-01            NaN
         13   -1    0    0    0    0  0.00000000000E+00  0.00000000000E+00  0.74505805969E-08  0.10566000000E+00  0.10566000000E+00 0. -1.
     999900   -1    0    0    0    0 -0.00000000000E+00 -0.00000000000E+00 -0.74505805969E-08  0.93827000000E+00  0.93827000000E+00 0. -1.
     999902    2    1    2    0    0  0.69419679574E-02 -0.92106845897E-02 -0.20920208175E-01  0.10200410331E+01  0.10197612595E+01 0.  0.
     999903    2    3    3    0    0 -0.22670069785E-01 -0.50434882189E-01 -0.11945087005E+00  0.13308861127E+00  0.19658552588E-01 0.  0.
         14    1    1    2    0    0 -0.69419679574E-02  0.92106845897E-02  0.20920208175E-01  0.23888966906E-01  0.00000000000E+00 0. -1.
     999901    1    3    3    0    0  0.29612037742E-01  0.41224197599E-01  0.98530661872E-01  0.88695242182E+00  0.88000000000E+00 0.  1.
        -11    1    4    4    0    0 -0.11274222540E-01 -0.39844818034E-01 -0.99575557419E-01  0.10784373127E+00  0.51100000000E-03 0. -1.
         11    1    4    4    0    0 -0.11395847244E-01 -0.10590064155E-01 -0.19875312628E-01  0.25244880001E-01  0.51100000000E-03 0.  1.
</event>
<event>
 8    1  0.1099921E+005  0.1043930E+01  0.7957747E-01            NaN
         13   -1    0    0    0    0  0.00000000000E+00  0.00000000000E+00  0.74505805969E-08  0.10566000000E+00  0.10566000000E+00 0. -1.
     999900   -1    0    0    0    0 -0.00000000000E+00 -0.00000000000E+00 -0.74505805969E-08  0.93827000000E+00  0.93827000000E+00 0.  1.
     999902    2    1    2    0    0  0.16160948772E-01  0.13061989009E-01  0.10776399312E-01  0.10205222533E+01  0.10202537660E+01 0.  0.
     999903    2    3    3    0    0  0.54517398962E-01  0.11537459403E+00 -0.33450066972E-01  0.13266242952E+00  0.14034581898E-01 0.  0.
         14    1    1    2    0    0 -0.16160948772E-01 -0.13061989009E-01 -0.10776399312E-01  0.23407746671E-01  0.00000000000E+00 0.  1.
     999901    1    3    3    0    0 -0.38356450190E-01 -0.10231260502E+00  0.44226466284E-01  0.88785982381E+00  0.88000000000E+00 0. -1.
        -11    1    4    4    0    0  0.25726150948E-01  0.57149379939E-01 -0.23561349655E-01  0.66957335585E-01  0.51100000000E-03 0. -1.
         11    1    4    4    0    0  0.28791248014E-01  0.58225214087E-01 -0.98887173167E-02  0.65705093934E-01  0.51100000000E-03 0.  1.
</event>
<event>
 8    1  0.1099921E+005  0.1043930E+01  0.7957747E-01            NaN
         13   -1    0    0    0    0  0.00000000000E+00  0.00000000000E+00  0.74505805969E-08  0.10566000000E+00  0.10566000000E+00 0. -1.
     999900   -1    0    0    0    0 -0.00000000000E+00 -0.00000000000E+00 -0.74505805969E-08  0.93827000000E+00  0.93827000000E+00 0.  1.
     999902    2    1    2    0    0  0.17405695077E-01 -0.10422926339E-01  0.12443738034E-01  0.10201299531E+01  0.10198522830E+01 0.  0.
     999903    2    3    3    0    0 -0.69681210971E-01  0.99745597192E-01 -0.32925379018E-01  0.12784099233E+00  0.21320961897E-01 0.  0.
         14    1    1    2    0    0 -0.17405695077E-01  0.10422926339E-01 -0.12443738034E-01  0.23800046866E-01  0.00000000000E+00 0.  1.
     999901    1    3    3    0    0  0.87086906047E-01 -0.11016852353E+00  0.45369117052E-01  0.89228896080E+00  0.88000000000E+00 0. -1.
        -11    1    4    4    0    0 -0.47643051904E-01  0.53355005265E-01 -0.25519022707E-01  0.75947999463E-01  0.51100000000E-03 0.  1.
         11    1    4    4    0    0 -0.22038159067E-01  0.46390591927E-01 -0.74063563106E-02  0.51892992872E-01  0.51100000000E-03 0. -1.
</event>
<event>
 8    1  0.1099921E+005  0.1043930E+01  0.7957747E-01            NaN
         13   -1    0    0    0    0  0.00000000000E+00  0.00000000000E+00  0.74505805969E-08  0.10566000000E+00  0.10566000000E+00 0.  1.
     999900   -1    0    0    0    0 -0.00000000000E+00 -0.00000000000E+00 -0.74505805969E-08  0.93827000000E+00  0.93827000000E+00 0.  1.
     999902    2    1    2    0    0 -0.12473491605E-01 -0.81486206192E-02 -0.17910164470E-01  0.10206327469E+01  0.10203668174E+01 0.  0.
     999903    2    3    3    0    0 -0.11079544236E+00  0.50933208246E-01  0.43631209273E-01  0.13105688775E+00  0.20060001348E-01 0.  0.
         14    1    1    2    0    0  0.12473491605E-01  0.81486206192E-02  0.17910164470E-01  0.23297253103E-01  0.00000000000E+00 0.  1.
     999901    1    3    3    0    0  0.98321950751E-01 -0.59081828866E-01 -0.61541373742E-01  0.88957585915E+00  0.88000000000E+00 0.  1.
        -11    1    4    4    0    0 -0.31841375089E-01  0.23774664665E-01  0.95469230925E-02  0.40871906110E-01  0.51100000000E-03 0.  1.
         11    1    4    4    0    0 -0.78954067266E-01  0.27158543581E-01  0.34084286180E-01  0.90184981636E-01  0.51100000000E-03 0. -1.
</event>
<event>
 8    1  0.1099921E+005  0.1043930E+01  0.7957747E-01            NaN
         13   -1    0    0    0    0  0.00000000000E+00  0.00000000000E+00  0.74505805969E-08  0.10566000000E+00  0.10566000000E+00 0.  1.
     999900   -1    0    0    0    0 -0.00000000000E+00 -0.00000000000E+00 -0.74505805969E-08  0.93827000000E+00  0.93827000000E+00 0. -1.
     999902    2    1    2    0    0  0.26885499649E-02  0.21304781742E-01 -0.23672771238E-03  0.10224549432E+01  0.10222293934E+01 0.  0.
     999903    2    3    3    0    0 -0.33595865650E-01  0.84931986958E-01 -0.96147843128E-01  0.13421853200E+00  0.20690142506E-01 0.  0.
         14    1    1    2    0    0 -0.26885499649E-02 -0.21304781742E-01  0.23672771238E-03  0.21475056833E-01  0.00000000000E+00 0. -1.
     999901    1    3    3    0    0  0.36284415615E-01 -0.63627205217E-01  0.95911115416E-01  0.88823641117E+00  0.88000000000E+00 0.  1.
        -11    1    4    4    0    0 -0.25547094009E-01  0.72210785119E-01 -0.89361913329E-01  0.11769819104E+00  0.51100000000E-03 0.  1.
         11    1    4    4    0    0 -0.80487716410E-02  0.12721201840E-01 -0.67859297995E-02  0.16520340960E-01  0.51100000000E-03 0. -1.
</event>
<event>
 8    1  0.1099921E+005  0.1043930E+01  0.7957747E-01            NaN
         13   -1    0    0    0    0  0.00000000000E+00  0.00000000000E+00  0.74505805969E-08  0.10566000000E+00  0.10566000000E+00 0. -1.
     999900   -1    0    0    0    0 -0.00000000000E+00 -0.00000000000E+00 -0.74505805969E-08  0.93827000000E+00  0.93827000000E+00 0. -1.
     999902    2    1    2    0    0  0.23022432009E-01  0.41452022418E-02  0.14462476917E-02  0.10204927069E+01  0.10202235334E+01 0.  0.
     999903    2    3    3    0    0 -0.98821709116E-01 -0.78795891853E-01  0.83254554508E-02  0.12820769448E+00  0.19833732649E-01 0.  0.
         14    1    1    2    0    0 -0.23022432009E-01 -0.41452022418E-02 -0.14462476917E-02  0.23437293138E-01  0.00000000000E+00 0. -1.
     999901    1    3    3    0    0  0.12184414112E+00  0.82941094095E-01 -0.68792077591E-02  0.89228501238E+00  0.88000000000E+00 0. -1.
        -11    1    4    4    0    0 -0.20048754205E-01 -0.23355753378E-01  0.82837838290E-02  0.31879867575E-01  0.51100000000E-03 0.  1.
         11    1    4    4    0    0 -0.78772954911E-01 -0.55440138475E-01  0.41671621755E-04  0.96327826909E-01  0.51100000000E-03 0. -1.
</event>
<event>
 7    1  0.1099921E+005  0.1043930E+01  0.7957747E-01            NaN
         13   -1    0    0    0    0  0.00000000000E+00  0.00000000000E+00  0.74505805969E-08  0.10566000000E+00  0.10566000000E+00 0. -1.
     999900   -1    0    0    0    0 -0.00000000000E+00 -0.00000000000E+00 -0.74505805969E-08  0.93827000000E+00  0.93827000000E+00 0. -1.
     999902    2    1    2    0    0  0.18048608194E-01 -0.10638638697E-01 -0.11246170022E-01  0.10201516647E+01  0.10198745068E+01 0.  0.
         14    1    1    2    0    0 -0.18048608194E-01  0.10638638697E-01  0.11246170022E-01  0.23778335334E-01  0.00000000000E+00 0.  1.
     999901    1    3    3    0    0 -0.40041108825E-02  0.78981430787E-01  0.43579938096E-01  0.88462043291E+00  0.88000000000E+00 0.  1.
        -11    1    3    3    0    0  0.30184790852E-01 -0.44811816276E-01  0.11336809067E-01  0.55208738779E-01  0.51100000000E-03 0. -1.
         11    1    3    3    0    0 -0.81320717752E-02 -0.44808253208E-01 -0.66162917186E-01  0.80322492979E-01  0.51100000000E-03 0.  1.
</event>
<event>
 8    1  0.1099921E+005  0.1043930E+01  0.7957747E-01            NaN
         13   -1    0    0    0    0  0.00000000000E+00  0.00000000000E+00  0.74505805969E-08  0.10566000000E+00  0.10566000000E+00 0. -1.
     999900   -1    0    0    0    0 -0.00000000000E+00 -0.00000000000E+00 -0.74505805969E-08  0.93827000000E+00  0.93827000000E+00 0. -1.
     999902    2    1    2    0    0  0.99132750110E-03  0.11131036168E-01 -0.21663630685E-01  0.10195538725E+01  0.10192624311E+01 0.  0.
     999903    2    3    3    0    0 -0.48818014332E-01 -0.21424150887E-01 -0.11928845882E+00  0.13215800944E+00  0.19844653860E-01 0.  0.
         14    1    1    2    0    0 -0.99132750110E-03 -0.11131036168E-01  0.21663630685E-01  0.24376127478E-01  0.00000000000E+00 0. -1.
     999901    1    3    3    0    0  0.49809341834E-01  0.32555187055E-01  0.97624828140E-01  0.88739586308E+00  0.88000000000E+00 0.  1.
        -11    1    4    4    0    0 -0.34154878877E-01 -0.23245348183E-01 -0.77413736999E-01  0.87749927410E-01  0.51100000000E-03 0. -1.
         11    1    4    4    0    0 -0.14663135456E-01  0.18211972964E-02 -0.41874721826E-01  0.44408082034E-01  0.51100000000E-03 0.  1.
</event>
<event>
 8    1  0.1099921E+005  0.1043930E+01  0.7957747E-01            NaN
         13   -1    0    0    0    0  0.00000000000E+00  0.00000000000E+00  0.74505805969E-08  0.10566000000E+00  0.10566000000E+00 0. -1.
     999900   -1    0    0    0    0 -0.00000000000E+00 -0.00000000000E+00 -0.74505805969E-08  0.93827000000E+00  0.93827000000E+00 0.  1.
     999902    2    1    2    0    0 -0.16605958094E-01  0.55812645804E-02  0.17086121102E-01  0.10194587129E+01  0.10191649638E+01 0.  0.
     999903    2    3    3    0    0 -0.11189892186E+00 -0.55950747322E-01 -0.32140570630E-01  0.13081356177E+00  0.20671642951E-01 0.  0.
         14    1    1    2    0    0  0.16605958094E-01 -0.55812645804E-02 -0.17086121102E-01  0.24471287110E-01  0.00000000000E+00 0.  1.
     999901    1    3    3    0    0  0.95292963769E-01  0.61532011902E-01  0.49226691732E-01  0.88864515112E+00  0.88000000000E+00 0.  1.
        -11    1    4    4    0    0 -0.60479773860E-01 -0.41465791550E-01 -0.16787264640E-01  0.75228241307E-01  0.51100000000E-03 0.  1.
         11    1    4    4    0    0 -0.51419148002E-01 -0.14484955772E-01 -0.15353305990E-01  0.55585320462E-01  0.51100000000E-03 0. -1.
</event>
<event>
 8    1  0.1099921E+005  0.1043930E+01  0.7957747E-01            NaN
         13   -1    0    0    0    0  0.00000000000E+00  0.00000000000E+00  0.74505805969E-08  0.10566000000E+00  0.10566000000E+00 0.  1.
     999900   -1    0    0    0    0 -0.00000000000E+00 -0.00000000000E+00 -0.74505805969E-08  0.93827000000E+00  0.93827000000E+00 0. -1.
     999902    2    1    2    0    0  0.21060956388E-01 -0.79787155245E-02  0.23397484601E-02  0.10212871599E+01  0.10210361231E+01 0.  0.
     999903    2    3    3    0    0 -0.36253203102E-01 -0.22066259134E-01 -0.12183778145E+00  0.13061133183E+00  0.20338645131E-01 0.  0.
         14    1    1    2    0    0 -0.21060956388E-01  0.79787155245E-02 -0.23397484601E-02  0.22642840111E-01  0.00000000000E+00 0. -1.
     999901    1    3    3    0    0  0.57314159491E-01  0.14087543609E-01  0.12417752991E+00  0.89067582806E+00  0.88000000000E+00 0.  1.
        -11    1    4    4    0    0 -0.26575273146E-01 -0.14676498163E-01 -0.10792846443E+00  0.11211805963E+00  0.51100000000E-03 0. -1.
         11    1    4    4    0    0 -0.96779299560E-02 -0.73897609707E-02 -0.13909317022E-01  0.18493272194E-01  0.51100000000E-03 0.  1.
</event>
<event>
 8    1  0.1099921E+005  0.1043930E+01  0.7957747E-01            NaN
         13   -1    0    0    0    0  0.00000000000E+00  0.00000000000E+00  0.74505805969E-08  0.10566000000E+00  0.10566000000E+00 0.  1.
     999900   -1    0    0    0    0 -0.00000000000E+00 -0.00000000000E+00 -0.74505805969E-08  0.93827000000E+00  0.93827000000E+00 0.  1.
     999902    2    1    2    0    0 -0.70159373765E-02 -0.22638624582E-01 -0.37319134170E-02  0.10199371286E+01  0.10196548869E+01 0.  0.
     999903    2    3    3    0    0  0.48628357890E-01 -0.11768926750E+00 -0.31114852581E-01  0.13264871006E+00  0.20299392987E-01 0.  0.
         14    1    1    2    0    0  0.70159373765E-02  0.22638624582E-01  0.37319134170E-02  0.23992871399E-01  0.00000000000E+00 0. -1.
     999901    1    3    3    0    0 -0.55644295266E-01  0.95050642914E-01  0.27382939164E-01  0.88728841854E+00  0.88000000000E+00 0. -1.
        -11    1    4    4    0    0  0.99032482011E-02 -0.21096647619E-01 -0.13975407648E-01  0.27179330485E-01  0.51100000000E-03 0.  1.
         11    1    4    4    0    0  0.38725109689E-01 -0.96592619877E-01 -0.17139444933E-01  0.10546937958E+00  0.51100000000E-03 0. -1.
</event>
<event>
 8    1  0.1099921E+005  0.1043930E+01  0.7957747E-01            NaN
         13   -1    0    0    0    0  0.00000000000E+00  0.00000000000E+00  0.74505805969E-08  0.10566000000E+00  0.10566000000E+00 0. -1.
     999900   -1    0    0    0    0 -0.00000000000E+00 -0.00000000000E+00 -0.74505805969E-08  0.93827000000E+00  0.93827000000E+00 0.  1.
     999902    2    1    2    0    0 -0.21142469733E-01  0.67820091360E-02 -0.12748669790E-01  0.10183267140E+01  0.10180047977E+01 0.  0.
     999903    2    3    3    0    0  0.39534677599E-02  0.60797179604E-01  0.11046836459E+00  0.12774831636E+00  0.20110837938E-01 0.  0.
         14    1    1    2    0    0  0.21142469733E-01 -0.67820091360E-02  0.12748669790E-01  0.25603286034E-01  0.00000000000E+00 0.  1.
     999901    1    3    3    0    0 -0.25095937493E-01 -0.54015170468E-01 -0.12321703438E+00  0.89057839761E+00  0.88000000000E+00 0.  1.
        -11    1    4    4    0    0 -0.68826022040E-02  0.33550114697E-01  0.67973969925E-01  0.76116372205E-01  0.51100000000E-03 0.  1.
         11    1    4    4    0    0  0.10836069964E-01  0.27247064907E-01  0.42494394666E-01  0.51631944156E-01  0.51100000000E-03 0. -1.
</event>
<event>
 8    1  0.1099921E+005  0.1043930E+01  0.7957747E-01            NaN
         13   -1    0    0    0    0  0.00000000000E+00  0.00000000000E+00  0.74505805969E-08  0.10566000000E+00  0.10566000000E+00 0.  1.
     999900   -1    0    0    0    0 -0.00000000000E+00 -0.00000000000E+00 -0.74505805969E-08  0.93827000000E+00  0.93827000000E+00 0.  1.
     999902    2    1    2    0    0 -0.10548315757E-01  0.19852519424E-01  0.70281835410E-02  0.10203761286E+01  0.10201042393E+01 0.  0.
     999903    2    3    3    0    0 -0.23473441358E-01  0.18983605000E-01  0.12708940533E+00  0.13212925367E+00  0.19875689211E-01 0.  0.
         14    1    1    2    0    0  0.10548315757E-01 -0.19852519424E-01 -0.70281835410E-02  0.23553871374E-01  0.00000000000E+00 0. -1.
     999901    1    3    3    0    0  0.12925125601E-01  0.86891442448E-03 -0.12006122179E+00  0.88824687495E+00  0.88000000000E+00 0.  1.
        -11    1    4    4    0    0 -0.91084262563E-02  0.17745029418E-01  0.52635156301E-01  0.56290055052E-01  0.51100000000E-03 0. -1.
         11    1    4    4    0    0 -0.14365015102E-01  0.12385755819E-02  0.74454249028E-01  0.75839198622E-01  0.51100000000E-03 0.  1.
</event>
<event>
 8    1  0.1099921E+005  0.1043930E+01  0.7957747E-01            NaN
         13   -1    0    0    0    0  0.00000000000E+00  0.00000000000E+00  0.74505805969E-08  0.10566000000E+00  0.10566000000E+00 0.  1.
     999900   -1    0    0    0    0 -0.00000000000E+00 -0.00000000000E+00 -0.74505805969E-08  0.93827000000E+00  0.93827000000E+00 0. -1.
     999902    2    1    2    0    0 -0.12197836622E-01  0.14094945975E-01  0.14675566572E-01  0.10202060253E+01  0.10199301482E+01 0.  0.
     999903    2    3    3    0    0 -0.82220808294E-01  0.10233333934E+00 -0.45013736926E-02  0.13281829402E+00  0.19699319875E-01 0.  0.
         14    1    1    2    0    0  0.12197836622E-01 -0.14094945975E-01 -0.14675566572E-01  0.23723974678E-01  0.00000000000E+00 0. -1.
     999901    1    3    3    0    0  0.70022971672E-01 -0.88238393370E-01  0.19176940265E-01  0.88738773130E+00  0.88000000000E+00 0.  1.
        -11    1    4    4    0    0 -0.19139506495E-01  0.37794675308E-01  0.12589998922E-02  0.42386370359E-01  0.51100000000E-03 0.  1.
         11    1    4    4    0    0 -0.63081301799E-01  0.64538664037E-01 -0.57603735848E-02  0.90431923662E-01  0.51100000000E-03 0. -1.
</event>
<event>
 7    1  0.1132330E+005  0.1043930E+01  0.7957747E-01            NaN
         13   -1    0    0    0    0  0.00000000000E+00  0.00000000000E+00  0.74505805969E-08  0.10566000000E+00  0.10566000000E+00 0. -1.
     999900   -1    0    0    0    0 -0.00000000000E+00 -0.00000000000E+00 -0.74505805969E-08  0.93827000000E+00  0.93827000000E+00 0.  1.
     999903    2    1    2    0    0  0.70322366489E-01  0.29788901243E-01 -0.64220682997E-01  0.10186304576E+00  0.20473644042E-01 0.  0.
         14    1    1    2    0    0 -0.39842539596E-01  0.18058010937E-01  0.40969963087E-01  0.59933776753E-01  0.00000000000E+00 0. -1.
     999901    1    1    2    0    0 -0.30479826893E-01 -0.47846912180E-01  0.23250719910E-01  0.88213317749E+00  0.88000000000E+00 0. -1.
        -11    1    3    3    0    0  0.47429410835E-01  0.27003542612E-01 -0.35863333671E-01  0.65308346701E-01  0.51100000000E-03 0. -1.
         11    1    3    3    0    0  0.22892955654E-01  0.27853586303E-02 -0.28357349326E-01  0.36554699056E-01  0.51100000000E-03 0.  1.
</event>
<event>
 8    1  0.1099921E+005  0.1043930E+01  0.7957747E-01            NaN
         13   -1    0    0    0    0  0.00000000000E+00  0.00000000000E+00  0.74505805969E-08  0.10566000000E+00  0.10566000000E+00 0. -1.
     999900   -1    0    0    0    0 -0.00000000000E+00 -0.00000000000E+00 -0.74505805969E-08  0.93827000000E+00  0.93827000000E+00 0.  1.
     999902    2    1    2    0    0  0.12776882680E-01  0.20507816752E-01  0.15925766146E-02  0.10197152198E+01  0.10194276698E+01 0.  0.
     999903    2    3    3    0    0 -0.52422620081E-01  0.10723692273E+00  0.51791541681E-01  0.13163141236E+00  0.19914221960E-01 0.  0.
         14    1    1    2    0    0 -0.12776882680E-01 -0.20507816752E-01 -0.15925766146E-02  0.24214780181E-01  0.00000000000E+00 0. -1.
     999901    1    3    3    0    0  0.65199502761E-01 -0.86729105979E-01 -0.50198965066E-01  0.88808380746E+00  0.88000000000E+00 0.  1.
        -11    1    4    4    0    0 -0.38534403134E-01  0.62247287296E-01  0.24473570287E-01  0.77193534472E-01  0.51100000000E-03 0. -1.
         11    1    4    4    0    0 -0.13888216947E-01  0.44989635435E-01  0.27317971393E-01  0.54437877885E-01  0.51100000000E-03 0.  1.
</event>
<event>
 8    1  0.1099921E+005  0.1043930E+01  0.7957747E-01            NaN
         13   -1    0    0    0    0  0.00000000000E+00  0.00000000000E+00  0.74505805969E-08  0.10566000000E+00  0.10566000000E+00 0. -1.
     999900   -1    0    0    0    0 -0.00000000000E+00 -0.00000000000E+00 -0.74505805969E-08  0.93827000000E+00  0.93827000000E+00 0.  1.
     999902    2    1    2    0    0 -0.74120390501E-02 -0.78484440008E-02  0.19674821034E-01  0.10214881868E+01  0.10212416368E+01 0.  0.
     999903    2    3    3    0    0  0.35018862187E-01  0.66599186202E-01 -0.10269573373E+00  0.12889792041E+00  0.20161543740E-01 0.  0.
         14    1    1    2    0    0  0.74120390501E-02  0.78484440008E-02 -0.19674821034E-01  0.22441813181E-01  0.00000000000E+00 0.  1.
     999901    1    3    3    0    0 -0.42430901237E-01 -0.74447630203E-01  0.12237055477E+00  0.89259026641E+00  0.88000000000E+00 0. -1.
        -11    1    4    4    0    0  0.18765612319E-01  0.25441712355E-01 -0.28820152345E-01  0.42781903130E-01  0.51100000000E-03 0.  1.
         11    1    4    4    0    0  0.16253249868E-01  0.41157473848E-01 -0.73875581389E-01  0.86116017275E-01  0.51100000000E-03 0. -1.
</event>
<event>
 8    1  0.1099921E+005  0.1043930E+01  0.7957747E-01            NaN
         13   -1    0    0    0    0  0.00000000000E+00  0.00000000000E+00  0.74505805969E-08  0.10566000000E+00  0.10566000000E+00 0. -1.
     999900   -1    0    0    0    0 -0.00000000000E+00 -0.00000000000E+00 -0.74505805969E-08  0.93827000000E+00  0.93827000000E+00 0.  1.
     999902    2    1    2    0    0 -0.19532897494E-01  0.12879292561E-01 -0.23313270013E-02  0.10204173365E+01  0.10201464087E+01 0.  0.
     999903    2    3    3    0    0  0.76575821306E-01 -0.23804928863E-01  0.98772651881E-01  0.12867486664E+00  0.19252363436E-01 0.  0.
         14    1    1    2    0    0  0.19532897494E-01 -0.12879292561E-01  0.23313270013E-02  0.23512663545E-01  0.00000000000E+00 0.  1.
     999901    1    3    3    0    0 -0.96108718800E-01  0.36684221423E-01 -0.10110397888E+00  0.89174246982E+00  0.88000000000E+00 0. -1.
        -11    1    4    4    0    0  0.54130883376E-01 -0.19019647674E-01  0.82688590757E-01  0.10064573362E+00  0.51100000000E-03 0. -1.
         11    1    4    4    0    0  0.22444937930E-01 -0.47852811891E-02  0.16084061124E-01  0.28029133022E-01  0.51100000000E-03 0.  1.
</event>
<event>
 8    1  0.1099921E+005  0.1043930E+01  0.7957747E-01            NaN
         13   -1    0    0    0    0  0.00000000000E+00  0.00000000000E+00  0.74505805969E-08  0.10566000000E+00  0.10566000000E+00 0. -1.
     999900   -1    0    0    0    0 -0.00000000000E+00 -0.00000000000E+00 -0.74505805969E-08  0.93827000000E+00  0.93827000000E+00 0. -1.
     999902    2    1    2    0    0  0.18043391406E-01  0.77472346761E-02 -0.12801757056E-01  0.10204892534E+01  0.10202199996E+01 0.  0.
     999903    2    3    3    0    0 -0.11271369134E+00  0.23656200205E-01 -0.56022896337E-01  0.12963652887E+00  0.20076670086E-01 0.  0.
         14    1    1    2    0    0 -0.18043391406E-01 -0.77472346761E-02  0.12801757056E-01  0.23440746623E-01  0.00000000000E+00 0.  1.
     999901    1    3    3    0    0  0.13075708274E+00 -0.15908965529E-01  0.43221139281E-01  0.89085272450E+00  0.88000000000E+00 0. -1.
        -11    1    4    4    0    0 -0.75715094221E-01  0.67216348581E-02 -0.32861720781E-01  0.82813704674E-01  0.51100000000E-03 0.  1.
         11    1    4    4    0    0 -0.36998597116E-01  0.16934565347E-01 -0.23161175555E-01  0.46822824201E-01  0.51100000000E-03 0. -1.
</event>
<event>
 8    1  0.1099921E+005  0.1043930E+01  0.7957747E-01            NaN
         13   -1    0    0    0    0  0.00000000000E+00  0.00000000000E+00  0.74505805969E-08  0.10566000000E+00  0.10566000000E+00 0.  1.
     999900   -1    0    0    0    0 -0.00000000000E+00 -0.00000000000E+00 -0.74505805969E-08  0.93827000000E+00  0.93827000000E+00 0.  1.
     999902    2    1    2    0    0  0.20345961676E-01 -0.76091270853E-02 -0.10151650518E-01  0.10199526569E+01  0.10196707848E+01 0.  0.
     999903    2    3    3    0    0  0.24621301529E-01  0.12098926296E+00  0.33753129515E-01  0.12951262294E+00  0.19739187108E-01 0.  0.
         14    1    1    2    0    0 -0.20345961676E-01  0.76091270853E-02  0.10151650518E-01  0.23977343050E-01  0.00000000000E+00 0.  1.
     999901    1    3    3    0    0 -0.42753398531E-02 -0.12859839005E+00 -0.43904780034E-01  0.89044003401E+00  0.88000000000E+00 0. -1.
        -11    1    4    4    0    0  0.13085043927E-01  0.88125440140E-01  0.16377288294E-01  0.90585806102E-01  0.51100000000E-03 0. -1.
         11    1    4    4    0    0  0.11536257602E-01  0.32863822824E-01  0.17375841222E-01  0.38926816839E-01  0.51100000000E-03 0.  1.
</event>
<event>
 8    1  0.1099921E+005  0.1043930E+01  0.7957747E-01            NaN
         13   -1    0    0    0    0  0.00000000000E+00  0.00000000000E+00  0.74505805969E-08  0.10566000000E+00  0.10566000000E+00 0. -1.
     999900   -1    0    0    0    0 -0.00000000000E+00 -0.00000000000E+00 -0.74505805969E-08  0.93827000000E+00  0.93827000000E+00 0. -1.
     999902    2    1    2    0    0 -0.84672409741E-02 -0.12472520454E-01 -0.17625845929E-01  0.10207367169E+01  0.10204731828E+01 0.  0.
     999903    2    3    3    0    0  0.22876407466E-01 -0.34586471395E-01  0.12056810415E+00  0.12912636537E+00  0.20430283202E-01 0.  0.
         14    1    1    2    0    0  0.84672409741E-02  0.12472520454E-01  0.17625845929E-01  0.23193283099E-01  0.00000000000E+00 0.  1.
     999901    1    3    3    0    0 -0.31343648440E-01  0.22113950941E-01 -0.13819395008E+00  0.89161035153E+00  0.88000000000E+00 0.  1.
        -11    1    4    4    0    0  0.20337245670E-02 -0.20185969023E-01  0.64044042059E-01  0.67182660153E-01  0.51100000000E-03 0. -1.
         11    1    4    4    0    0  0.20842682899E-01 -0.14400502372E-01  0.56524062094E-01  0.61943705214E-01  0.51100000000E-03 0.  1.
</event>
<event>
 8    1  0.1099921E+005  0.1043930E+01  0.7957747E-01            NaN
         13   -1    0    0    0    0  0.00000000000E+00  0.00000000000E+00  0.74505805969E-08  0.10566000000E+00  0.10566000000E+00 0. -1.
     999900   -1    0    0    0    0 -0.00000000000E+00 -0.00000000000E+00 -0.74505805969E-08  0.93827000000E+00  0.93827000000E+00 0.  1.
     999902    2    1    2    0    0 -0.97971859736E-02 -0.71841607631E-02 -0.23104170049E-01  0.10178263663E+01  0.10174915785E+01 0.  0.
     999903    2    3    3    0    0 -0.10515329147E+00  0.68567973707E-01 -0.24198786030E-01  0.12943885461E+00  0.20249792927E-01 0.  0.
         14    1    1    2    0    0  0.97971859736E-02  0.71841607631E-02  0.23104170049E-01  0.26103633703E-01  0.00000000000E+00 0. -1.
     999901    1    3    3    0    0  0.95356105493E-01 -0.75752134470E-01  0.10946159813E-02  0.88838751168E+00  0.88000000000E+00 0. -1.
        -11    1    4    4    0    0 -0.85860580605E-01  0.64591377102E-01 -0.19948612982E-01  0.10928080151E+00  0.51100000000E-03 0.  1.
         11    1    4    4    0    0 -0.19292710861E-01  0.39765966047E-02 -0.42501730487E-02  0.20158053102E-01  0.51100000000E-03 0. -1.
</event>
<event>
 8    1  0.1099921E+005  0.1043930E+01  0.7957747E-01            NaN
         13   -1    0    0    0    0  0.00000000000E+00  0.00000000000E+00  0.74505805969E-08  0.10566000000E+00  0.10566000000E+00 0.  1.
     999900   -1    0    0    0    0 -0.00000000000E+00 -0.00000000000E+00 -0.74505805969E-08  0.93827000000E+00  0.93827000000E+00 0.  1.
     999902    2    1    2    0    0  0.18874880498E-01  0.85149300744E-02 -0.99015136163E-02  0.10209777644E+01  0.10207197413E+01 0.  0.
     999903    2    3    3    0    0 -0.40589337754E-01 -0.91615347136E-01 -0.81064203983E-01  0.13045758260E+00  0.20171998395E-01 0.  0.
         14    1    1    2    0    0 -0.18874880498E-01 -0.85149300744E-02  0.99015136163E-02  0.22952235619E-01  0.00000000000E+00 0. -1.
     999901    1    3    3    0    0  0.59464218252E-01  0.10013027721E+00  0.71162690367E-01  0.89052018179E+00  0.88000000000E+00 0.  1.
        -11    1    4    4    0    0 -0.63933196660E-02 -0.26791797266E-01 -0.13106118020E-01  0.30507480847E-01  0.51100000000E-03 0. -1.
         11    1    4    4    0    0 -0.34196018088E-01 -0.64823549871E-01 -0.67958085963E-01  0.99950101749E-01  0.51100000000E-03 0.  1.
</event>
<event>
 8    1  0.1099921E+005  0.1043930E+01  0.7957747E-01            NaN
         13   -1    0    0    0    0  0.00000000000E+00  0.00000000000E+00  0.74505805969E-08  0.10566000000E+00  0.10566000000E+00 0. -1.
     999900   -1    0    0    0    0 -0.00000000000E+00 -0.00000000000E+00 -0.74505805969E-08  0.93827000000E+00  0.93827000000E+00 0.  1.
     999902    2    1    2    0    0  0.29732537173E-03 -0.16145360333E-01 -0.23483009534E-01  0.10154306526E+01  0.10150306387E+01 0.  0.
     999903    2    3    3    0    0  0.86498239696E-01  0.65931992791E-01  0.55727283991E-01  0.12389178074E+00  0.20363447882E-01 0.  0.
         14    1    1    2    0    0 -0.29732537173E-03  0.16145360333E-01  0.23483009534E-01  0.28499347351E-01  0.00000000000E+00 0. -1.
     999901    1    3    3    0    0 -0.86200914324E-01 -0.82077353124E-01 -0.79210293525E-01  0.89153887191E+00  0.88000000000E+00 0.  1.
        -11    1    4    4    0    0  0.57692845394E-01  0.53915194424E-01  0.34693266733E-01  0.86250776675E-01  0.51100000000E-03 0.  1.
         11    1    4    4    0    0  0.28805394302E-01  0.12016798367E-01  0.21034017258E-01  0.37641004064E-01  0.51100000000E-03 0. -1.
</event>
<event>
 8    1  0.1099921E+005  0.1043930E+01  0.7957747E-01            NaN
         13   -1    0    0    0    0  0.00000000000E+00  0.00000000000E+00  0.74505805969E-08  0.10566000000E+00  0.10566000000E+00 0.  1.
     999900   -1    0    0    0    0 -0.00000000000E+00 -0.00000000000E+00 -0.74505805969E-08  0.93827000000E+00  0.93827000000E+00 0. -1.
     999902    2    1    2    0    0  0.22611563832E-01 -0.11130940753E-01 -0.27065501164E-02  0.10185822965E+01  0.10182668553E+01 0.  0.
     999903    2    3    3    0    0  0.61563434795E-01 -0.11394588307E+00  0.79196125407E-02  0.13167695994E+00  0.22413851626E-01 0.  0.
         14    1    1    2    0    0 -0.22611563832E-01  0.11130940753E-01  0.27065501164E-02  0.25347703535E-01  0.00000000000E+00 0.  1.
     999901    1    3    3    0    0 -0.38951870963E-01  0.10281494232E+00 -0.10626162657E-01  0.88690533652E+00  0.88000000000E+00 0. -1.
        -11    1    4    4    0    0  0.58445725482E-01 -0.92843585834E-01  0.28532029944E-02  0.10974623522E+00  0.51100000000E-03 0. -1.
         11    1    4    4    0    0  0.31177093134E-02 -0.21102297237E-01  0.50664095463E-02  0.21930724720E-01  0.51100000000E-03 0.  1.
</event>
<event>
 8    1  0.1099921E+005  0.1043930E+01  0.7957747E-01            NaN
         13   -1    0    0    0    0  0.00000000000E+00  0.00000000000E+00  0.74505805969E-08  0.10566000000E+00  0.10566000000E+00 0.  1.
     999900   -1    0    0    0    0 -0.00000000000E+00 -0.00000000000E+00 -0.74505805969E-08  0.93827000000E+00  0.93827000000E+00 0.  1.
     999902    2    1    2    0    0  0.19343193480E-02  0.21622647374E-01  0.66051996934E-02  0.10212383907E+01  0.10209862592E+01 0.  0.
     999903    2    3    3    0    0 -0.75967070406E-01 -0.74276980453E-01  0.72800472225E-01  0.13014514121E+00  0.18702497482E-01 0.  0.
         14    1    1    2    0    0 -0.19343193480E-02 -0.21622647374E-01 -0.66051996934E-02  0.22691609325E-01  0.00000000000E+00 0. -1.
     999901    1    3    3    0    0  0.77901389754E-01  0.95899627826E-01 -0.66195272532E-01  0.89109324947E+00  0.88000000000E+00 0.  1.
        -11    1    4    4    0    0 -0.59457524790E-01 -0.61851089610E-01  0.66456072599E-01  0.10852384644E+00  0.51100000000E-03 0.  1.
         11    1    4    4    0    0 -0.16509545616E-01 -0.12425890843E-01  0.63443996257E-02  0.21621294765E-01  0.51100000000E-03 0. -1.
</event>
<event>
 8    1  0.1099921E+005  0.1043930E+01  0.7957747E-01            NaN
         13   -1    0    0    0    0  0.00000000000E+00  0.00000000000E+00  0.74505805969E-08  0.10566000000E+00  0.10566000000E+00 0. -1.
     999900   -1    0    0    0    0 -0.00000000000E+00 -0.00000000000E+00 -0.74505805969E-08  0.93827000000E+00  0.93827000000E+00 0.  1.
     999902    2    1    2    0    0 -0.29184709790E-02 -0.16797942541E-01  0.17565574301E-01  0.10194506669E+01  0.10191567223E+01 0.  0.
     999903    2    3    3    0    0 -0.47736947040E-01 -0.12024266002E+00  0.18694106156E-01  0.13225802780E+00  0.20139585653E-01 0.  0.
         14    1    1    2    0    0  0.29184709790E-02  0.16797942541E-01 -0.17565574301E-01  0.24479333059E-01  0.00000000000E+00 0.  1.
     999901    1    3    3    0    0  0.44818476061E-01  0.10344471748E+00 -0.11285318547E-02  0.88719263915E+00  0.88000000000E+00 0. -1.
        -11    1    4    4    0    0 -0.33216394419E-01 -0.60629533747E-01  0.45064058333E-02  0.69280863412E-01  0.51100000000E-03 0.  1.
         11    1    4    4    0    0 -0.14520552621E-01 -0.59613126272E-01  0.14187700323E-01  0.62977164384E-01  0.51100000000E-03 0. -1.
</event>
<event>
 8    1  0.1099921E+005  0.1043930E+01  0.7957747E-01            NaN
         13   -1    0    0    0    0  0.00000000000E+00  0.00000000000E+00  0.74505805969E-08  0.10566000000E+00  0.10566000000E+00 0. -1.
     999900   -1    0    0    0    0 -0.00000000000E+00 -0.00000000000E+00 -0.74505805969E-08  0.93827000000E+00  0.93827000000E+00 0. -1.
     999902    2    1    2    0    0 -0.32560078408E-01 -0.17900226405E-01 -0.85597443114E-02  0.10058006670E+01  0.10050776765E+01 0.  0.
     999903    2    3    3    0    0 -0.70062325517E-01 -0.12147333101E-02  0.93934185404E-01  0.11890167060E+00  0.20094055072E-01 0.  0.
         14    1    1    2    0    0  0.32560078408E-01  0.17900226405E-01  0.85597443114E-02  0.38129332986E-01  0.00000000000E+00 0.  1.
     999901    1    3    3    0    0  0.37502247109E-01 -0.16685493094E-01 -0.10249392972E+00  0.88689899642E+00  0.88000000000E+00 0. -1.
        -11    1    4    4    0    0 -0.14856650792E-01  0.79207950699E-02  0.24348443431E-01  0.29606872273E-01  0.51100000000E-03 0.  1.
         11    1    4    4    0    0 -0.55205674725E-01 -0.91355283800E-02  0.69585741973E-01  0.89294798323E-01  0.51100000000E-03 0. -1.
</event>
<event>
 8    1  0.1099921E+005  0.1043930E+01  0.7957747E-01            NaN
         13   -1    0    0    0    0  0.00000000000E+00  0.00000000000E+00  0.74505805969E-08  0.10566000000E+00  0.10566000000E+00 0.  1.
     999900   -1    0    0    0    0 -0.00000000000E+00 -0.00000000000E+00 -0.74505805969E-08  0.93827000000E+00  0.93827000000E+00 0.  1.
     999902    2    1    2    0    0 -0.56362952243E-02  0.21610987807E-01  0.10526392083E-01  0.10192397682E+01  0.10189406742E+01 0.  0.
     999903    2    3    3    0    0 -0.29740814566E-01 -0.12145327023E+00 -0.79647024504E-02  0.12716895799E+00  0.21750735412E-01 0.  0.
         14    1    1    2    0    0  0.56362952243E-02 -0.21610987807E-01 -0.10526392083E-01  0.24690231837E-01  0.00000000000E+00 0.  1.
     999901    1    3    3    0    0  0.24104519341E-01  0.14306425804E+00  0.18491094534E-01  0.89207081017E+00  0.88000000000E+00 0.  1.
        -11    1    4    4    0    0 -0.24435834389E-01 -0.54403860424E-01 -0.27184411926E-02  0.59703777727E-01  0.51100000000E-03 0. -1.
         11    1    4    4    0    0 -0.53049801769E-02 -0.67049409807E-01 -0.52462612577E-02  0.67465180266E-01  0.51100000000E-03 0.  1.
</event>
<event>
 8    1  0.1099921E+005  0.1043930E+01  0.7957747E-01            NaN
         13   -1    0    0    0    0  0.00000000000E+00  0.00000000000E+00  0.74505805969E-08  0.10566000000E+00  0.10566000000E+00 0.  1.
     999900   -1    0    0    0    0 -0.00000000000E+00 -0.00000000000E+00 -0.74505805969E-08  0.93827000000E+00  0.93827000000E+00 0.  1.
     999902    2    1    2    0    0  0.97740606188E-02  0.29724723268E-02  0.19570404826E-01  0.10218535737E+01  0.10216150731E+01 0.  0.
     999903    2    3    3    0    0  0.11061906648E+00  0.70009407038E-01 -0.12311320949E-01  0.13298906758E+00  0.19915534842E-01 0.  0.
         14    1    1    2    0    0 -0.97740606188E-02 -0.29724723268E-02 -0.19570404826E-01  0.22076426291E-01  0.00000000000E+00 0. -1.
     999901    1    3    3    0    0 -0.10084500586E+00 -0.67036934711E-01  0.31881725775E-01  0.88886450613E+00  0.88000000000E+00 0.  1.
        -11    1    4    4    0    0  0.54983712202E-01  0.28257087777E-01  0.24832470912E-02  0.61871635297E-01  0.51100000000E-03 0.  1.
         11    1    4    4    0    0  0.55635354282E-01  0.41752319260E-01 -0.14794568040E-01  0.71117432280E-01  0.51100000000E-03 0. -1.
</event>
<event>
 8    1  0.1099921E+005  0.1043930E+01  0.7957747E-01            NaN
         13   -1    0    0    0    0  0.00000000000E+00  0.00000000000E+00  0.74505805969E-08  0.10566000000E+00  0.10566000000E+00 0.  1.
     999900   -1    0    0    0    0 -0.00000000000E+00 -0.00000000000E+00 -0.74505805969E-08  0.93827000000E+00  0.93827000000E+00 0. -1.
     999902    2    1    2    0    0  0.88586316535E-02 -0.21248593514E-01 -0.86924822659E-02  0.10193223319E+01  0.10190252593E+01 0.  0.
     999903    2    3    3    0    0  0.48386341196E-01 -0.45507908141E-01 -0.11245222507E+00  0.13201345762E+00  0.19231285757E-01 0.  0.
         14    1    1    2    0    0 -0.88586316535E-02  0.21248593514E-01  0.86924822659E-02  0.24607668094E-01  0.00000000000E+00 0. -1.
     999901    1    3    3    0    0 -0.39527709542E-01  0.24259314626E-01  0.10375974280E+00  0.88730887429E+00  0.88000000000E+00 0.  1.
        -11    1    4    4    0    0  0.28681734644E-01 -0.35189687212E-01 -0.87539149082E-01  0.98611965457E-01  0.51100000000E-03 0.  1.
         11    1    4    4    0    0  0.19704606552E-01 -0.10318220929E-01 -0.24913075983E-01  0.33401492159E-01  0.51100000000E-03 0. -1.
</event>
<event>
 8    1  0.1099921E+005  0.1043930E+01  0.7957747E-01            NaN
         13   -1    0    0    0    0  0.00000000000E+00  0.00000000000E+00  0.74505805969E-08  0.10566000000E+00  0.10566000000E+00 0. -1.
     999900   -1    0    0    0    0 -0.00000000000E+00 -0.00000000000E+00 -0.74505805969E-08  0.93827000000E+00  0.93827000000E+00 0.  1.
     999902    2    1    2    0    0 -0.20324825274E-01  0.62075990563E-02 -0.10754726897E-01  0.10201120035E+01  0.10198339093E+01 0.  0.
     999903    2    3    3    0    0  0.34236918032E-01 -0.10358826816E+00  0.64640597359E-01  0.12841891096E+00  0.20256209164E-01 0.  0.
         14    1    1    2    0    0  0.20324825274E-01 -0.62075990563E-02  0.10754726897E-01  0.23817996538E-01  0.00000000000E+00 0. -1.
     999901    1    3    3    0    0 -0.54561743306E-01  0.10979586721E+00 -0.75395324256E-01  0.89169309250E+00  0.88000000000E+00 0. -1.
        -11    1    4    4    0    0  0.17674768270E-01 -0.56390916357E-01  0.46539013942E-01  0.75222827790E-01  0.51100000000E-03 0.  1.
         11    1    4    4    0    0  0.16562149762E-01 -0.47197351801E-01  0.18101583416E-01  0.53196083173E-01  0.51100000000E-03 0. -1.
</event>
<event>
 8    1  0.1099921E+005  0.1043930E+01  0.7957747E-01            NaN
         13   -1    0    0    0    0  0.00000000000E+00  0.00000000000E+00  0.74505805969E-08  0.10566000000E+00  0.10566000000E+00 0. -1.
     999900   -1    0    0    0    0 -0.00000000000E+00 -0.00000000000E+00 -0.74505805969E-08  0.93827000000E+00  0.93827000000E+00 0. -1.
     999902    2    1    2    0    0  0.18157409113E-01  0.11101671204E-01  0.94615976501E-02  0.10206392199E+01  0.10203734398E+01 0.  0.
     999903    2    3    3    0    0  0.10558003707E+00  0.77675234854E-01  0.17903330085E-01  0.13376492319E+00  0.19797452149E-01 0.  0.
         14    1    1    2    0    0 -0.18157409113E-01 -0.11101671204E-01 -0.94615976501E-02  0.23290780135E-01  0.00000000000E+00 0.  1.
     999901    1    3    3    0    0 -0.87422627953E-01 -0.66573563650E-01 -0.84417324352E-02  0.88687429667E+00  0.88000000000E+00 0.  1.
        -11    1    4    4    0    0  0.36143215299E-01  0.24931463298E-01 -0.32691612097E-02  0.44032469955E-01  0.51100000000E-03 0.  1.
         11    1    4    4    0    0  0.69436821767E-01  0.52743771556E-01  0.21172491295E-01  0.89732453236E-01  0.51100000000E-03 0. -1.
</event>
<event>
 8    1  0.1099921E+005  0.1043930E+01  0.7957747E-01            NaN
         13   -1    0    0    0    0  0.00000000000E+00  0.00000000000E+00  0.74505805969E-08  0.10566000000E+00  0.10566000000E+00 0. -1.
     999900   -1    0    0    0    0 -0.00000000000E+00 -0.00000000000E+00 -0.74505805969E-08  0.93827000000E+00  0.93827000000E+00 0. -1.
     999902    2    1    2    0    0  0.50008314425E-02 -0.20542743643E-01 -0.83124154444E-02  0.10212119701E+01  0.10209592445E+01 0.  0.
     999903    2    3    3    0    0 -0.27102459967E-02 -0.13239739604E+00  0.96550580133E-03  0.13404963784E+00  0.20783582303E-01 0.  0.
         14    1    1    2    0    0 -0.50008314425E-02  0.20542743643E-01  0.83124154444E-02  0.22718029889E-01  0.00000000000E+00 0. -1.
     999901    1    3    3    0    0  0.77110774393E-02  0.11185465239E+00 -0.92779212457E-02  0.88716233227E+00  0.88000000000E+00 0. -1.
        -11    1    4    4    0    0 -0.60037746972E-02 -0.12431992304E+00  0.46823594472E-02  0.12455390073E+00  0.51100000000E-03 0. -1.
         11    1    4    4    0    0  0.32935287004E-02 -0.80774729913E-02 -0.37168536459E-02  0.94957371094E-02  0.51100000000E-03 0.  1.
</event>
<event>
 8    1  0.1099921E+005  0.1043930E+01  0.7957747E-01            NaN
         13   -1    0    0    0    0  0.00000000000E+00  0.00000000000E+00  0.74505805969E-08  0.10566000000E+00  0.10566000000E+00 0. -1.
     999900   -1    0    0    0    0 -0.00000000000E+00 -0.00000000000E+00 -0.74505805969E-08  0.93827000000E+00  0.93827000000E+00 0. -1.
     999902    2    1    2    0    0  0.53345056775E-02 -0.67755100835E-02  0.19797608627E-01  0.10223357926E+01  0.10221077061E+01 0.  0.
     999903    2    3    3    0    0  0.62303018088E-01 -0.21064992980E-01 -0.11109158339E+00  0.13071839630E+00  0.20507540994E-01 0.  0.
         14    1    1    2    0    0 -0.53345056775E-02  0.67755100835E-02 -0.19797608627E-01  0.21594207443E-01  0.00000000000E+00 0. -1.
     999901    1    3    3    0    0 -0.56968512410E-01  0.14289482897E-01  0.13088919202E+00  0.89161739626E+00  0.88000000000E+00 0.  1.
        -11    1    4    4    0    0  0.38609303801E-01 -0.25219920238E-02 -0.66042593121E-01  0.76543608557E-01  0.51100000000E-03 0. -1.
         11    1    4    4    0    0  0.23693714287E-01 -0.18543000957E-01 -0.45048990271E-01  0.54174787740E-01  0.51100000000E-03 0.  1.
</event>
<event>
 8    1  0.1099921E+005  0.1043930E+01  0.7957747E-01            NaN
         13   -1    0    0    0    0  0.00000000000E+00  0.00000000000E+00  0.74505805969E-08  0.10566000000E+00  0.10566000000E+00 0. -1.
     999900   -1    0    0    0    0 -0.00000000000E+00 -0.00000000000E+00 -0.74505805969E-08  0.93827000000E+00  0.93827000000E+00 0.  1.
     999902    2    1    2    0    0 -0.12578945690E-02 -0.15511682142E-01 -0.17127284352E-01  0.10207882963E+01  0.10205259465E+01 0.  0.
     999903    2    3    3    0    0  0.10204322649E+00  0.66993040751E-01  0.36974758383E-01  0.12926982651E+00  0.21039669848E-01 0.  0.
         14    1    1    2    0    0  0.12578945690E-02  0.15511682142E-01  0.17127284352E-01  0.23141703716E-01  0.00000000000E+00 0. -1.
     999901    1    3    3    0    0 -0.10330112106E+00 -0.82504722893E-01 -0.54102042735E-01  0.89151846977E+00  0.88000000000E+00 0.  1.
        -11    1    4    4    0    0  0.56016234671E-01  0.31340123769E-01  0.94944114306E-02  0.64887802197E-01  0.51100000000E-03 0. -1.
         11    1    4    4    0    0  0.46026991822E-01  0.35652916982E-01  0.27480346952E-01  0.64382024317E-01  0.51100000000E-03 0.  1.
</event>
<event>
 8    1  0.1099921E+005  0.1043930E+01  0.7957747E-01            NaN
         13   -1    0    0    0    0  0.00000000000E+00  0.00000000000E+00  0.74505805969E-08  0.10566000000E+00  0.10566000000E+00 0. -1.
     999900   -1    0    0    0    0 -0.00000000000E+00 -0.00000000000E+00 -0.74505805969E-08  0.93827000000E+00  0.93827000000E+00 0.  1.
     999902    2    1    2    0    0  0.19660262430E-01  0.12408378033E-01  0.79080656778E-02  0.10193733050E+01  0.10190774768E+01 0.  0.
     999903    2    3    3    0    0  0.81223301601E-01 -0.38372054683E-01 -0.92142557915E-01  0.13011586908E+00  0.19241858132E-01 0.  0.
         14    1    1    2    0    0 -0.19660262430E-01 -0.12408378033E-01 -0.79080656778E-02  0.24556694952E-01  0.00000000000E+00 0. -1.
     999901    1    3    3    0    0 -0.61563039171E-01  0.50780432715E-01  0.10005062359E+00  0.88925743597E+00  0.88000000000E+00 0. -1.
        -11    1    4    4    0    0  0.42017970014E-01 -0.11914286190E-01 -0.53303587260E-01  0.68912941857E-01  0.51100000000E-03 0. -1.
         11    1    4    4    0    0  0.39205331587E-01 -0.26457768493E-01 -0.38838970655E-01  0.61202927225E-01  0.51100000000E-03 0.  1.
</event>
<event>
 8    1  0.1099921E+005  0.1043930E+01  0.7957747E-01            NaN
         13   -1    0    0    0    0  0.00000000000E+00  0.00000000000E+00  0.74505805969E-08  0.10566000000E+00  0.10566000000E+00 0. -1.
     999900   -1    0    0    0    0 -0.00000000000E+00 -0.00000000000E+00 -0.74505805969E-08  0.93827000000E+00  0.93827000000E+00 0.  1.
     999902    2    1    2    0    0 -0.34531757273E-02 -0.23492105700E-03  0.22496102419E-01  0.10211691952E+01  0.10209155063E+01 0.  0.
     999903    2    3    3    0    0 -0.82373938604E-01 -0.70987123601E-01  0.74304246118E-01  0.13329620614E+00  0.20545561587E-01 0.  0.
         14    1    1    2    0    0  0.34531757273E-02  0.23492105700E-03 -0.22496102419E-01  0.22760804788E-01  0.00000000000E+00 0.  1.
     999901    1    3    3    0    0  0.78920762877E-01  0.70752202544E-01 -0.51808143698E-01  0.88787298908E+00  0.88000000000E+00 0. -1.
        -11    1    4    4    0    0 -0.24153351913E-01 -0.29034119883E-01  0.34902482564E-01  0.51427705919E-01  0.51100000000E-03 0. -1.
         11    1    4    4    0    0 -0.58220586691E-01 -0.41953003718E-01  0.39401763554E-01  0.81868500217E-01  0.51100000000E-03 0.  1.
</event>
<event>
 8    1  0.1099921E+005  0.1043930E+01  0.7957747E-01            NaN
         13   -1    0    0    0    0  0.00000000000E+00  0.00000000000E+00  0.74505805969E-08  0.10566000000E+00  0.10566000000E+00 0.  1.
     999900   -1    0    0    0    0 -0.00000000000E+00 -0.00000000000E+00 -0.74505805969E-08  0.93827000000E+00  0.93827000000E+00 0. -1.
     999902    2    1    2    0    0  0.18380437835E-01 -0.13922099329E-01 -0.68622580936E-02  0.10198726533E+01  0.10195888745E+01 0.  0.
     999903    2    3    3    0    0 -0.40966955583E-01 -0.59767544551E-01  0.10547495872E+00  0.12956733025E+00  0.20304563963E-01 0.  0.
         14    1    1    2    0    0 -0.18380437835E-01  0.13922099329E-01  0.68622580936E-02  0.24057346714E-01  0.00000000000E+00 0. -1.
     999901    1    3    3    0    0  0.59347393418E-01  0.45845445222E-01 -0.11233721682E+00  0.89030532304E+00  0.88000000000E+00 0. -1.
        -11    1    4    4    0    0 -0.18639132173E-01 -0.13731562187E-01  0.23940291604E-01  0.33307232418E-01  0.51100000000E-03 0. -1.
         11    1    4    4    0    0 -0.22327823410E-01 -0.46035982364E-01  0.81534667119E-01  0.96260097827E-01  0.51100000000E-03 0.  1.
</event>
<event>
 7    1  0.1099921E+005  0.1043930E+01  0.7957747E-01            NaN
         13   -1    0    0    0    0  0.00000000000E+00  0.00000000000E+00  0.74505805969E-08  0.10566000000E+00  0.10566000000E+00 0. -1.
     999900   -1    0    0    0    0 -0.00000000000E+00 -0.00000000000E+00 -0.74505805969E-08  0.93827000000E+00  0.93827000000E+00 0. -1.
     999903    2    1    2    0    0 -0.47437750385E-03  0.64711703588E-01 -0.53422013116E-01  0.86342630379E-01  0.20329995577E-01 0.  0.
         14    1    1    2    0    0 -0.56577221438E-01 -0.46421910800E-01  0.15050252482E-01  0.74716035011E-01  0.00000000000E+00 0. -1.
     999901    1    1    2    0    0  0.57051598942E-01 -0.18289792788E-01  0.38371760634E-01  0.88287133461E+00  0.88000000000E+00 0.  1.
        -11    1    3    3    0    0 -0.90279088151E-02  0.48711575481E-01 -0.41486283580E-01  0.64619606697E-01  0.51100000000E-03 0. -1.
         11    1    3    3    0    0  0.85535313113E-02  0.16000128106E-01 -0.11935729536E-01  0.21723023682E-01  0.51100000000E-03 0.  1.
</event>
<event>
 8    1  0.1099921E+005  0.1043930E+01  0.7957747E-01            NaN
         13   -1    0    0    0    0  0.00000000000E+00  0.00000000000E+00  0.74505805969E-08  0.10566000000E+00  0.10566000000E+00 0. -1.
     999900   -1    0    0    0    0 -0.00000000000E+00 -0.00000000000E+00 -0.74505805969E-08  0.93827000000E+00  0.93827000000E+00 0.  1.
     999902    2    1    2    0    0 -0.12984355127E-01 -0.17437109169E-01  0.13931368337E-01  0.10181088986E+01  0.10177814108E+01 0.  0.
     999903    2    3    3    0    0  0.11106684716E+00 -0.28765020321E-01 -0.50909632991E-01  0.12697401665E+00  0.19166096129E-01 0.  0.
         14    1    1    2    0    0  0.12984355127E-01  0.17437109169E-01 -0.13931368337E-01  0.25821101409E-01  0.00000000000E+00 0.  1.
     999901    1    3    3    0    0 -0.12405120229E+00  0.11327911152E-01  0.64841001328E-01  0.89113488194E+00  0.88000000000E+00 0. -1.
        -11    1    4    4    0    0  0.44284171915E-01 -0.84546315086E-02 -0.10416217711E-01  0.46274478803E-01  0.51100000000E-03 0. -1.
         11    1    4    4    0    0  0.66782675244E-01 -0.20310388812E-01 -0.40493415279E-01  0.80699537846E-01  0.51100000000E-03 0.  1.
</event>
<event>
 8    1  0.1099921E+005  0.1043930E+01  0.7957747E-01            NaN
         13   -1    0    0    0    0  0.00000000000E+00  0.00000000000E+00  0.74505805969E-08  0.10566000000E+00  0.10566000000E+00 0. -1.
     999900   -1    0    0    0    0 -0.00000000000E+00 -0.00000000000E+00 -0.74505805969E-08  0.93827000000E+00  0.93827000000E+00 0.  1.
     999902    2    1    2    0    0 -0.18717240822E-01 -0.60844733553E-02 -0.11409823729E-01  0.10211804946E+01  0.10209270603E+01 0.  0.
     999903    2    3    3    0    0  0.97181380674E-01  0.68449095696E-01 -0.48428339834E-01  0.12968842286E+00  0.18554877346E-01 0.  0.
         14    1    1    2    0    0  0.18717240822E-01  0.60844733553E-02  0.11409823729E-01  0.22749505434E-01  0.00000000000E+00 0. -1.
     999901    1    3    3    0    0 -0.11589862150E+00 -0.74533569051E-01  0.37018516105E-01  0.89149207171E+00  0.88000000000E+00 0.  1.
        -11    1    4    4    0    0  0.40936649707E-01  0.19028329662E-01 -0.22582587823E-01  0.50478916517E-01  0.51100000000E-03 0. -1.
         11    1    4    4    0    0  0.56244730968E-01  0.49420766034E-01 -0.25845752010E-01  0.79209506343E-01  0.51100000000E-03 0.  1.
</event>
<event>
 8    1  0.1099921E+005  0.1043930E+01  0.7957747E-01            NaN
         13   -1    0    0    0    0  0.00000000000E+00  0.00000000000E+00  0.74505805969E-08  0.10566000000E+00  0.10566000000E+00 0. -1.
     999900   -1    0    0    0    0 -0.00000000000E+00 -0.00000000000E+00 -0.74505805969E-08  0.93827000000E+00  0.93827000000E+00 0. -1.
     999902    2    1    2    0    0  0.21380557860E-01  0.12457613421E-01 -0.15360520820E-01  0.10148049938E+01  0.10143869624E+01 0.  0.
     999903    2    3    3    0    0  0.10602105168E+00  0.62114198881E-01  0.30753012374E-01  0.12815046828E+00  0.19446275941E-01 0.  0.
         14    1    1    2    0    0 -0.21380557860E-01 -0.12457613421E-01  0.15360520820E-01  0.29125006204E-01  0.00000000000E+00 0. -1.
     999901    1    3    3    0    0 -0.84640493821E-01 -0.49656585461E-01 -0.46113533194E-01  0.88665452552E+00  0.88000000000E+00 0. -1.
        -11    1    4    4    0    0  0.58356023121E-01  0.24411752446E-01  0.20630675062E-01  0.66537545540E-01  0.51100000000E-03 0. -1.
         11    1    4    4    0    0  0.47665028560E-01  0.37702446436E-01  0.10122337312E-01  0.61612922740E-01  0.51100000000E-03 0.  1.
</event>
<event>
 8    1  0.1099921E+005  0.1043930E+01  0.7957747E-01            NaN
         13   -1    0    0    0    0  0.00000000000E+00  0.00000000000E+00  0.74505805969E-08  0.10566000000E+00  0.10566000000E+00 0.  1.
     999900   -1    0    0    0    0 -0.00000000000E+00 -0.00000000000E+00 -0.74505805969E-08  0.93827000000E+00  0.93827000000E+00 0.  1.
     999902    2    1    2    0    0  0.24503869165E-02  0.20221847918E-01 -0.44779427341E-02  0.10230738378E+01  0.10228612311E+01 0.  0.
     999903    2    3    3    0    0  0.10776609768E+00 -0.10064931488E-01  0.74782870034E-01  0.13274189727E+00  0.17694603277E-01 0.  0.
         14    1    1    2    0    0 -0.24503869165E-02 -0.20221847918E-01  0.44779427341E-02  0.20856162168E-01  0.00000000000E+00 0.  1.
     999901    1    3    3    0    0 -0.10531571077E+00  0.30286779406E-01 -0.79260812768E-01  0.89033194056E+00  0.88000000000E+00 0. -1.
        -11    1    4    4    0    0  0.70509676101E-01 -0.34520656438E-02  0.57907179331E-01  0.91307358521E-01  0.51100000000E-03 0.  1.
         11    1    4    4    0    0  0.37256421582E-01 -0.66128658444E-02  0.16875690703E-01  0.41434538750E-01  0.51100000000E-03 0. -1.
</event>
<event>
 8    1  0.1099921E+005  0.1043930E+01  0.7957747E-01            NaN
         13   -1    0    0    0    0  0.00000000000E+00  0.00000000000E+00  0.74505805969E-08  0.10566000000E+00  0.10566000000E+00 0. -1.
     999900   -1    0    0    0    0 -0.00000000000E+00 -0.00000000000E+00 -0.74505805969E-08  0.93827000000E+00  0.93827000000E+00 0. -1.
     999902    2    1    2    0    0  0.92240665391E-02  0.49089465784E-02 -0.19212077916E-01  0.10220602698E+01  0.10218262622E+01 0.  0.
     999903    2    3    3    0    0 -0.23584715046E-02 -0.12834794413E+00 -0.23106759672E-01  0.13194414108E+00  0.19914237930E-01 0.  0.
         14    1    1    2    0    0 -0.92240665391E-02 -0.49089465784E-02  0.19212077916E-01  0.21869730174E-01  0.00000000000E+00 0. -1.
     999901    1    3    3    0    0  0.11582538044E-01  0.13325689071E+00  0.38946817560E-02  0.89011612875E+00  0.88000000000E+00 0. -1.
        -11    1    4    4    0    0  0.85491491115E-02 -0.51405763633E-01 -0.70425706932E-02  0.52588015823E-01  0.51100000000E-03 0.  1.
         11    1    4    4    0    0 -0.10907620616E-01 -0.76942180498E-01 -0.16064188979E-01  0.79356125257E-01  0.51100000000E-03 0. -1.
</event>
<event>
 8    1  0.1099921E+005  0.1043930E+01  0.7957747E-01            NaN
         13   -1    0    0    0    0  0.00000000000E+00  0.00000000000E+00  0.74505805969E-08  0.10566000000E+00  0.10566000000E+00 0. -1.
     999900   -1    0    0    0    0 -0.00000000000E+00 -0.00000000000E+00 -0.74505805969E-08  0.93827000000E+00  0.93827000000E+00 0.  1.
     999902    2    1    2    0    0 -0.12667177394E-01 -0.16976301296E-01 -0.73577497236E-02  0.10215070504E+01  0.10212609193E+01 0.  0.
     999903    2    3    3    0    0 -0.38866379479E-01  0.12238942372E+00  0.21470675675E-02  0.13010391764E+00  0.20800312383E-01 0.  0.
         14    1    1    2    0    0  0.12667177394E-01  0.16976301296E-01  0.73577497236E-02  0.22422949623E-01  0.00000000000E+00 0.  1.
     999901    1    3    3    0    0  0.26199202085E-01 -0.13936572501E+00 -0.95048172911E-02  0.89140313273E+00  0.88000000000E+00 0.  1.
        -11    1    4    4    0    0 -0.14612740902E-01  0.42246083177E-01 -0.90875725906E-02  0.45619171815E-01  0.51100000000E-03 0.  1.
         11    1    4    4    0    0 -0.24253638577E-01  0.80143340539E-01  0.11234640158E-01  0.84484745827E-01  0.51100000000E-03 0. -1.
</event>
<event>
 8    1  0.1099921E+005  0.1043930E+01  0.7957747E-01            NaN
         13   -1    0    0    0    0  0.00000000000E+00  0.00000000000E+00  0.74505805969E-08  0.10566000000E+00  0.10566000000E+00 0. -1.
     999900   -1    0    0    0    0 -0.00000000000E+00 -0.00000000000E+00 -0.74505805969E-08  0.93827000000E+00  0.93827000000E+00 0. -1.
     999902    2    1    2    0    0 -0.84388178475E-02 -0.30017366720E-02  0.24582436904E-01  0.10177666616E+01  0.10174303206E+01 0.  0.
     999903    2    3    3    0    0  0.11920504804E+00 -0.18932247296E-01  0.38383423460E-01  0.12830772224E+00  0.20525859850E-01 0.  0.
         14    1    1    2    0    0  0.84388178475E-02  0.30017366720E-02 -0.24582436904E-01  0.26163338354E-01  0.00000000000E+00 0.  1.
     999901    1    3    3    0    0 -0.12764386589E+00  0.15930510624E-01 -0.13800986557E-01  0.88945893941E+00  0.88000000000E+00 0.  1.
        -11    1    4    4    0    0  0.21724187672E-02 -0.37700236837E-02  0.78185041558E-03  0.44502688624E-02  0.51100000000E-03 0. -1.
         11    1    4    4    0    0  0.11703262927E+00 -0.15162223612E-01  0.37601573045E-01  0.12385745337E+00  0.51100000000E-03 0.  1.
</event>
<event>
 8    1  0.1099921E+005  0.1043930E+01  0.7957747E-01            NaN
         13   -1    0    0    0    0  0.00000000000E+00  0.00000000000E+00  0.74505805969E-08  0.10566000000E+00  0.10566000000E+00 0. -1.
     999900   -1    0    0    0    0 -0.00000000000E+00 -0.00000000000E+00 -0.74505805969E-08  0.93827000000E+00  0.93827000000E+00 0.  1.
     999902    2    1    2    0    0  0.11385671534E-01 -0.26391528719E-02 -0.22625968092E-01  0.10184636874E+01  0.10181452497E+01 0.  0.
     999903    2    3    3    0    0  0.19747819556E-01 -0.99786928770E-01 -0.82374566833E-01  0.13106439120E+00  0.67005857649E-02 0.  0.
         14    1    1    2    0    0 -0.11385671534E-01  0.26391528719E-02  0.22625968092E-01  0.25466312577E-01  0.00000000000E+00 0. -1.
     999901    1    3    3    0    0 -0.83621480219E-02  0.97147775898E-01  0.59748598741E-01  0.88739929622E+00  0.88000000000E+00 0. -1.
        -11    1    4    4    0    0  0.53810279106E-02 -0.42203183993E-01 -0.32510323339E-01  0.53546675388E-01  0.51100000000E-03 0. -1.
         11    1    4    4    0    0  0.14366791645E-01 -0.57583744778E-01 -0.49864243495E-01  0.77517715814E-01  0.51100000000E-03 0.  1.
</event>
<event>
 8    1  0.1099921E+005  0.1043930E+01  0.7957747E-01            NaN
         13   -1    0    0    0    0  0.00000000000E+00  0.00000000000E+00  0.74505805969E-08  0.10566000000E+00  0.10566000000E+00 0.  1.
     999900   -1    0    0    0    0 -0.00000000000E+00 -0.00000000000E+00 -0.74505805969E-08  0.93827000000E+00  0.93827000000E+00 0.  1.
     999902    2    1    2    0    0  0.21402280910E-01 -0.11618830412E-01 -0.60791977374E-02  0.10188299703E+01  0.10185207395E+01 0.  0.
     999903    2    3    3    0    0  0.85407518065E-01  0.90857024411E-01 -0.31934207978E-01  0.13019818331E+00  0.19553267538E-01 0.  0.
         14    1    1    2    0    0 -0.21402280910E-01  0.11618830412E-01  0.60791977374E-02  0.25100029750E-01  0.00000000000E+00 0.  1.
     999901    1    3    3    0    0 -0.64005237155E-01 -0.10247585482E+00  0.25855010241E-01  0.88863178694E+00  0.88000000000E+00 0.  1.
        -11    1    4    4    0    0  0.16293500993E-01  0.20088170926E-01  0.11389533721E-02  0.25895388036E-01  0.51100000000E-03 0.  1.
         11    1    4    4    0    0  0.69114017072E-01  0.70768853485E-01 -0.33073161351E-01  0.10430279527E+00  0.51100000000E-03 0. -1.
</event>
<event>
 8    1  0.1099921E+005  0.1043930E+01  0.7957747E-01            NaN
         13   -1    0    0    0    0  0.00000000000E+00  0.00000000000E+00  0.74505805969E-08  0.10566000000E+00  0.10566000000E+00 0.  1.
     999900   -1    0    0    0    0 -0.00000000000E+00 -0.00000000000E+00 -0.74505805969E-08  0.93827000000E+00  0.93827000000E+00 0. -1.
     999902    2    1    2    0    0 -0.54452408632E-02  0.27908746110E-01 -0.21202125724E-01  0.10084605922E+01  0.10078366371E+01 0.  0.
     999903    2    3    3    0    0  0.98336502653E-02  0.11971116955E+00 -0.18296888236E-01  0.12354841015E+00  0.22404658882E-01 0.  0.
         14    1    1    2    0    0  0.54452408632E-02 -0.27908746110E-01  0.21202125724E-01  0.35469407842E-01  0.00000000000E+00 0.  1.
     999901    1    3    3    0    0 -0.15278891128E-01 -0.91802423436E-01 -0.29052374876E-02  0.88491218201E+00  0.88000000000E+00 0.  1.
        -11    1    4    4    0    0  0.68880755258E-02  0.95064708968E-01 -0.51477898902E-02  0.95454205446E-01  0.51100000000E-03 0. -1.
         11    1    4    4    0    0  0.29455747396E-02  0.24646460578E-01 -0.13149098346E-01  0.28094204703E-01  0.51100000000E-03 0.  1.
</event>
<event>
 8    1  0.1099921E+005  0.1043930E+01  0.7957747E-01            NaN
         13   -1    0    0    0    0  0.00000000000E+00  0.00000000000E+00  0.74505805969E-08  0.10566000000E+00  0.10566000000E+00 0.  1.
     999900   -1    0    0    0    0 -0.00000000000E+00 -0.00000000000E+00 -0.74505805969E-08  0.93827000000E+00  0.93827000000E+00 0. -1.
     999902    2    1    2    0    0 -0.16450639405E-01 -0.21975518297E-02  0.16147897792E-01  0.10207738480E+01  0.10205111667E+01 0.  0.
     999903    2    3    3    0    0  0.10157147722E-02 -0.12733372748E+00 -0.22890193653E-01  0.13089289612E+00  0.19851434737E-01 0.  0.
         14    1    1    2    0    0  0.16450639405E-01  0.21975518297E-02 -0.16147897792E-01  0.23156151968E-01  0.00000000000E+00 0. -1.
     999901    1    3    3    0    0 -0.17466354178E-01  0.12513617565E+00  0.39038091445E-01  0.88988095191E+00  0.88000000000E+00 0.  1.
        -11    1    4    4    0    0  0.10066171470E-01 -0.73012066607E-01 -0.15630797406E-01  0.75343696663E-01  0.51100000000E-03 0.  1.
         11    1    4    4    0    0 -0.90504566981E-02 -0.54321660868E-01 -0.72593962463E-02  0.55549199461E-01  0.51100000000E-03 0. -1.
</event>
<event>
 8    1  0.1099921E+005  0.1043930E+01  0.7957747E-01            NaN
         13   -1    0    0    0    0  0.00000000000E+00  0.00000000000E+00  0.74505805969E-08  0.10566000000E+00  0.10566000000E+00 0. -1.
     999900   -1    0    0    0    0 -0.00000000000E+00 -0.00000000000E+00 -0.74505805969E-08  0.93827000000E+00  0.93827000000E+00 0.  1.
     999902    2    1    2    0    0 -0.45641084266E-02  0.22521691006E-03 -0.21616996523E-01  0.10218352869E+01  0.10215963866E+01 0.  0.
     999903    2    3    3    0    0 -0.11984341088E+00  0.52031001551E-01 -0.11564748587E-01  0.13274912426E+00  0.20467494430E-01 0.  0.
         14    1    1    2    0    0  0.45641084266E-02 -0.22521691006E-03  0.21616996523E-01  0.22094713102E-01  0.00000000000E+00 0. -1.
     999901    1    3    3    0    0  0.11527930246E+00 -0.51805784641E-01 -0.10052247936E-01  0.88908616263E+00  0.88000000000E+00 0.  1.
        -11    1    4    4    0    0 -0.56652055566E-01  0.22960219829E-01  0.47095440628E-02  0.61311238943E-01  0.51100000000E-03 0.  1.
         11    1    4    4    0    0 -0.63191355318E-01  0.29070781722E-01 -0.16274292650E-01  0.71437885321E-01  0.51100000000E-03 0. -1.
</event>
<event>
 8    1  0.1099921E+005  0.1043930E+01  0.7957747E-01            NaN
         13   -1    0    0    0    0  0.00000000000E+00  0.00000000000E+00  0.74505805969E-08  0.10566000000E+00  0.10566000000E+00 0.  1.
     999900   -1    0    0    0    0 -0.00000000000E+00 -0.00000000000E+00 -0.74505805969E-08  0.93827000000E+00  0.93827000000E+00 0. -1.
     999902    2    1    2    0    0  0.89121154074E-02  0.25689027138E-02  0.23046142555E-01  0.10190875012E+01  0.10187846609E+01 0.  0.
     999903    2    3    3    0    0 -0.12553457693E+00 -0.13322147468E-01 -0.39186063102E-02  0.12832628947E+00  0.22712804245E-01 0.  0.
         14    1    1    2    0    0 -0.89121154074E-02 -0.25689027138E-02 -0.23046142555E-01  0.24842498845E-01  0.00000000000E+00 0. -1.
     999901    1    3    3    0    0  0.13444669234E+00  0.15891050182E-01  0.26964748866E-01  0.89076121168E+00  0.88000000000E+00 0.  1.
        -11    1    4    4    0    0 -0.99437810903E-01 -0.33019796708E-02  0.29436246470E-02  0.99537467087E-01  0.51100000000E-03 0.  1.
         11    1    4    4    0    0 -0.26096766025E-01 -0.10020167798E-01 -0.68622309573E-02  0.28788822386E-01  0.51100000000E-03 0. -1.
</event>
<event>
 8    1  0.1099921E+005  0.1043930E+01  0.7957747E-01            NaN
         13   -1    0    0    0    0  0.00000000000E+00  0.00000000000E+00  0.74505805969E-08  0.10566000000E+00  0.10566000000E+00 0. -1.
     999900   -1    0    0    0    0 -0.00000000000E+00 -0.00000000000E+00 -0.74505805969E-08  0.93827000000E+00  0.93827000000E+00 0. -1.
     999902    2    1    2    0    0 -0.64566290639E-02 -0.18054262933E-02 -0.19594737974E-01  0.10232200657E+01  0.10230104601E+01 0.  0.
     999903    2    3    3    0    0 -0.63366459467E-02  0.55731387053E-01  0.11655122199E+00  0.13089376791E+00  0.20071137164E-01 0.  0.
         14    1    1    2    0    0  0.64566290639E-02  0.18054262933E-02  0.19594737974E-01  0.20709934313E-01  0.00000000000E+00 0. -1.
     999901    1    3    3    0    0 -0.11998311719E-03 -0.57536813346E-01 -0.13614595996E+00  0.89232629777E+00  0.88000000000E+00 0. -1.
        -11    1    4    4    0    0  0.42897470174E-02  0.37336351989E-01  0.64180958806E-01  0.74376486228E-01  0.51100000000E-03 0.  1.
         11    1    4    4    0    0 -0.10626392964E-01  0.18395035064E-01  0.52370263181E-01  0.56517281685E-01  0.51100000000E-03 0. -1.
</event>
<event>
 8    1  0.1099921E+005  0.1043930E+01  0.7957747E-01            NaN
         13   -1    0    0    0    0  0.00000000000E+00  0.00000000000E+00  0.74505805969E-08  0.10566000000E+00  0.10566000000E+00 0. -1.
     999900   -1    0    0    0    0 -0.00000000000E+00 -0.00000000000E+00 -0.74505805969E-08  0.93827000000E+00  0.93827000000E+00 0. -1.
     999902    2    1    2    0    0 -0.11255743896E-01  0.83137520100E-02 -0.16644932578E-01  0.10221845632E+01  0.10219532363E+01 0.  0.
     999903    2    3    3    0    0  0.16530824549E-01  0.77415689553E-01 -0.10646529601E+00  0.13448254736E+00  0.22005434330E-01 0.  0.
         14    1    1    2    0    0  0.11255743896E-01 -0.83137520100E-02  0.16644932578E-01  0.21745436847E-01  0.00000000000E+00 0. -1.
     999901    1    3    3    0    0 -0.27786568446E-01 -0.69101937543E-01  0.89820363433E-01  0.88770201579E+00  0.88000000000E+00 0. -1.
        -11    1    4    4    0    0  0.20458851059E-01  0.53479926474E-01 -0.82114499326E-01  0.10010853731E+00  0.51100000000E-03 0.  1.
         11    1    4    4    0    0 -0.39280265097E-02  0.23935763079E-01 -0.24350796685E-01  0.34374010046E-01  0.51100000000E-03 0. -1.
</event>
<event>
 8    1  0.1099921E+005  0.1043930E+01  0.7957747E-01            NaN
         13   -1    0    0    0    0  0.00000000000E+00  0.00000000000E+00  0.74505805969E-08  0.10566000000E+00  0.10566000000E+00 0. -1.
     999900   -1    0    0    0    0 -0.00000000000E+00 -0.00000000000E+00 -0.74505805969E-08  0.93827000000E+00  0.93827000000E+00 0.  1.
     999902    2    1    2    0    0  0.59676357985E-02 -0.21637785821E-01 -0.86481117683E-02  0.10198759715E+01  0.10195922719E+01 0.  0.
     999903    2    3    3    0    0 -0.91617371282E-01  0.73133136573E-01 -0.48654499921E-01  0.12852594344E+00  0.20235102902E-01 0.  0.
         14    1    1    2    0    0 -0.59676357985E-02  0.21637785821E-01  0.86481117683E-02  0.24054028549E-01  0.00000000000E+00 0. -1.
     999901    1    3    3    0    0  0.97585007080E-01 -0.94770922395E-01  0.40006388153E-01  0.89135002801E+00  0.88000000000E+00 0.  1.
        -11    1    4    4    0    0 -0.21667038789E-01  0.10965259342E-01 -0.17329861002E-01  0.29837605227E-01  0.51100000000E-03 0.  1.
         11    1    4    4    0    0 -0.69950332493E-01  0.62167877231E-01 -0.31324638919E-01  0.98688338215E-01  0.51100000000E-03 0. -1.
</event>
<event>
 8    1  0.1099921E+005  0.1043930E+01  0.7957747E-01            NaN
         13   -1    0    0    0    0  0.00000000000E+00  0.00000000000E+00  0.74505805969E-08  0.10566000000E+00  0.10566000000E+00 0. -1.
     999900   -1    0    0    0    0 -0.00000000000E+00 -0.00000000000E+00 -0.74505805969E-08  0.93827000000E+00  0.93827000000E+00 0.  1.
     999902    2    1    2    0    0  0.25659162102E-02 -0.24809537312E-01  0.76823812865E-02  0.10178317999E+01  0.10174971532E+01 0.  0.
     999903    2    3    3    0    0 -0.11974058038E+00 -0.24498878673E-01  0.35940022451E-01  0.12892377882E+00  0.19790247218E-01 0.  0.
         14    1    1    2    0    0 -0.25659162102E-02  0.24809537312E-01 -0.76823812865E-02  0.26098200126E-01  0.00000000000E+00 0.  1.
     999901    1    3    3    0    0  0.12230649659E+00 -0.31065863896E-03 -0.28257641164E-01  0.88890802106E+00  0.88000000000E+00 0.  1.
        -11    1    4    4    0    0 -0.40977693072E-02 -0.38198346370E-02  0.47835621642E-02  0.73842019155E-02  0.51100000000E-03 0.  1.
         11    1    4    4    0    0 -0.11564281107E+00 -0.20679044036E-01  0.31156460286E-01  0.12153957690E+00  0.51100000000E-03 0. -1.
</event>
<event>
 8    1  0.1099921E+005  0.1043930E+01  0.7957747E-01            NaN
         13   -1    0    0    0    0  0.00000000000E+00  0.00000000000E+00  0.74505805969E-08  0.10566000000E+00  0.10566000000E+00 0.  1.
     999900   -1    0    0    0    0 -0.00000000000E+00 -0.00000000000E+00 -0.74505805969E-08  0.93827000000E+00  0.93827000000E+00 0. -1.
     999902    2    1    2    0    0 -0.12474649954E-01 -0.11618294673E-01 -0.14728148973E-01  0.10214017947E+01  0.10211533216E+01 0.  0.
     999903    2    3    3    0    0 -0.33668306231E-01  0.70237008546E-01 -0.10562949310E+00  0.13268782715E+00  0.19536566921E-01 0.  0.
         14    1    1    2    0    0  0.12474649954E-01  0.11618294673E-01  0.14728148973E-01  0.22528205316E-01  0.00000000000E+00 0.  1.
     999901    1    3    3    0    0  0.21193656277E-01 -0.81855303218E-01  0.90901344125E-01  0.88871396754E+00  0.88000000000E+00 0.  1.
        -11    1    4    4    0    0 -0.61629553925E-02  0.14424799744E-01 -0.10043410121E-01  0.18632983516E-01  0.51100000000E-03 0. -1.
         11    1    4    4    0    0 -0.27505350839E-01  0.55812208801E-01 -0.95586082977E-01  0.11405484363E+00  0.51100000000E-03 0.  1.
</event>
<event>
 8    1  0.1099921E+005  0.1043930E+01  0.7957747E-01            NaN
         13   -1    0    0    0    0  0.00000000000E+00  0.00000000000E+00  0.74505805969E-08  0.10566000000E+00  0.10566000000E+00 0.  1.
     999900   -1    0    0    0    0 -0.00000000000E+00 -0.00000000000E+00 -0.74505805969E-08  0.93827000000E+00  0.93827000000E+00 0. -1.
     999902    2    1    2    0    0 -0.45895256039E-02  0.19127730777E-01 -0.11617690470E-01  0.10210847694E+01  0.10208291736E+01 0.  0.
     999903    2    3    3    0    0 -0.11725307581E+00  0.54620903098E-01  0.10431082259E-01  0.13291868739E+00  0.28754880255E-01 0.  0.
         14    1    1    2    0    0  0.45895256039E-02 -0.19127730777E-01  0.11617690470E-01  0.22845230614E-01  0.00000000000E+00 0.  1.
     999901    1    3    3    0    0  0.11266355021E+00 -0.35493172320E-01 -0.22048772729E-01  0.88816608199E+00  0.88000000000E+00 0. -1.
        -11    1    4    4    0    0 -0.67727816803E-01  0.41859473810E-01 -0.41684218379E-02  0.79730230014E-01  0.51100000000E-03 0.  1.
         11    1    4    4    0    0 -0.49525259008E-01  0.12761429288E-01  0.14599504097E-01  0.53188457377E-01  0.51100000000E-03 0. -1.
</event>
<event>
 8    1  0.1099921E+005  0.1043930E+01  0.7957747E-01            NaN
         13   -1    0    0    0    0  0.00000000000E+00  0.00000000000E+00  0.74505805969E-08  0.10566000000E+00  0.10566000000E+00 0. -1.
     999900   -1    0    0    0    0 -0.00000000000E+00 -0.00000000000E+00 -0.74505805969E-08  0.93827000000E+00  0.93827000000E+00 0.  1.
     999902    2    1    2    0    0  0.55372495178E-02 -0.16072884829E-01 -0.17686985551E-01  0.10193978126E+01  0.10191025818E+01 0.  0.
     999903    2    3    3    0    0  0.12444269601E+00 -0.11916630598E-02  0.28707080191E-01  0.13006527342E+00  0.24606386314E-01 0.  0.
         14    1    1    2    0    0 -0.55372495178E-02  0.16072884829E-01  0.17686985551E-01  0.24532187363E-01  0.00000000000E+00 0. -1.
     999901    1    3    3    0    0 -0.11890544649E+00 -0.14881221769E-01 -0.46394065742E-01  0.88933253921E+00  0.88000000000E+00 0. -1.
        -11    1    4    4    0    0  0.31656594317E-01  0.10024576543E-01  0.44571965674E-02  0.33507608402E-01  0.51100000000E-03 0.  1.
         11    1    4    4    0    0  0.92786101690E-01 -0.11216239603E-01  0.24249883624E-01  0.96557665022E-01  0.51100000000E-03 0. -1.
</event>
<event>
 8    1  0.1099921E+005  0.1043930E+01  0.7957747E-01            NaN
         13   -1    0    0    0    0  0.00000000000E+00  0.00000000000E+00  0.74505805969E-08  0.10566000000E+00  0.10566000000E+00 0.  1.
     999900   -1    0    0    0    0 -0.00000000000E+00 -0.00000000000E+00 -0.74505805969E-08  0.93827000000E+00  0.93827000000E+00 0. -1.
     999902    2    1    2    0    0 -0.93933531942E-03 -0.54768612573E-02  0.22881529959E-01  0.10203833915E+01  0.10201116717E+01 0.  0.
     999903    2    3    3    0    0 -0.83981852601E-01  0.96138848180E-01 -0.13710696733E-01  0.12989992552E+00  0.19757979357E-01 0.  0.
         14    1    1    2    0    0  0.93933531942E-03  0.54768612573E-02 -0.22881529959E-01  0.23546608532E-01  0.00000000000E+00 0. -1.
     999901    1    3    3    0    0  0.83042517281E-01 -0.10161570944E+00  0.36592226692E-01  0.89048346595E+00  0.88000000000E+00 0.  1.
        -11    1    4    4    0    0 -0.59170572393E-01  0.77315040552E-01 -0.46952611384E-02  0.97473477064E-01  0.51100000000E-03 0.  1.
         11    1    4    4    0    0 -0.24811280208E-01  0.18823807628E-01 -0.90154355944E-02  0.32426448451E-01  0.51100000000E-03 0. -1.
</event>
<event>
 8    1  0.1099921E+005  0.1043930E+01  0.7957747E-01            NaN
         13   -1    0    0    0    0  0.00000000000E+00  0.00000000000E+00  0.74505805969E-08  0.10566000000E+00  0.10566000000E+00 0.  1.
     999900   -1    0    0    0    0 -0.00000000000E+00 -0.00000000000E+00 -0.74505805969E-08  0.93827000000E+00  0.93827000000E+00 0.  1.
     999902    2    1    2    0    0  0.51979229425E-02  0.22863355539E-01  0.34124924698E-02  0.10202361921E+01  0.10199610243E+01 0.  0.
     999903    2    3    3    0    0  0.51130431030E-01  0.34657839938E-01 -0.11396393348E+00  0.13117706550E+00  0.20103669628E-01 0.  0.
         14    1    1    2    0    0 -0.51979229425E-02 -0.22863355539E-01 -0.34124924698E-02  0.23693807931E-01  0.00000000000E+00 0.  1.
     999901    1    3    3    0    0 -0.45932508087E-01 -0.11794484399E-01  0.11737642595E+00  0.88905912657E+00  0.88000000000E+00 0. -1.
        -11    1    4    4    0    0  0.16351589135E-01  0.79082192450E-02 -0.53263789609E-01  0.56277942423E-01  0.51100000000E-03 0. -1.
         11    1    4    4    0    0  0.34778841894E-01  0.26749620693E-01 -0.60700143874E-01  0.74899123079E-01  0.51100000000E-03 0.  1.
</event>
<event>
 8    1  0.1099921E+005  0.1043930E+01  0.7957747E-01            NaN
         13   -1    0    0    0    0  0.00000000000E+00  0.00000000000E+00  0.74505805969E-08  0.10566000000E+00  0.10566000000E+00 0.  1.
     999900   -1    0    0    0    0 -0.00000000000E+00 -0.00000000000E+00 -0.74505805969E-08  0.93827000000E+00  0.93827000000E+00 0.  1.
     999902    2    1    2    0    0  0.53096742007E-02 -0.22860326827E-01 -0.44989901559E-02  0.10200338058E+01  0.10197538610E+01 0.  0.
     999903    2    3    3    0    0 -0.46627870624E-01  0.11671790007E+00  0.74097986330E-02  0.12744128446E+00  0.19726868790E-01 0.  0.
         14    1    1    2    0    0 -0.53096742007E-02  0.22860326827E-01  0.44989901559E-02  0.23896194157E-01  0.00000000000E+00 0.  1.
     999901    1    3    3    0    0  0.51937544824E-01 -0.13957822690E+00 -0.11908788789E-01  0.89259252139E+00  0.88000000000E+00 0.  1.
        -11    1    4    4    0    0 -0.14771902705E-01  0.27731212642E-01 -0.59526252196E-02  0.31983185147E-01  0.51100000000E-03 0. -1.
         11    1    4    4    0    0 -0.31855967919E-01  0.88986687428E-01  0.13362423853E-01  0.95458099309E-01  0.51100000000E-03 0.  1.
</event>
<event>
 8    1  0.1099921E+005  0.1043930E+01  0.7957747E-01            NaN
         13   -1    0    0    0    0  0.00000000000E+00  0.00000000000E+00  0.74505805969E-08  0.10566000000E+00  0.10566000000E+00 0.  1.
     999900   -1    0    0    0    0 -0.00000000000E+00 -0.00000000000E+00 -0.74505805969E-08  0.93827000000E+00  0.93827000000E+00 0. -1.
     999902    2    1    2    0    0  0.20099956876E-02 -0.87053686870E-02  0.21547345063E-01  0.10206038000E+01  0.10203372016E+01 0.  0.
     999903    2    3    3    0    0 -0.14371206177E-01 -0.50986266934E-01 -0.11595972261E+00  0.12877185856E+00  0.18149471278E-01 0.  0.
         14    1    1    2    0    0 -0.20099956876E-02  0.87053686870E-02 -0.21547345063E-01  0.23326199988E-01  0.00000000000E+00 0. -1.
     999901    1    3    3    0    0  0.16381201865E-01  0.42280898247E-01  0.13750706767E+00  0.89183194145E+00  0.88000000000E+00 0.  1.
        -11    1    4    4    0    0 -0.16708094491E-01 -0.28636091675E-01 -0.61810816779E-01  0.70142885311E-01  0.51100000000E-03 0. -1.
         11    1    4    4    0    0  0.23368883132E-02 -0.22350175259E-01 -0.54148905828E-01  0.58628973251E-01  0.51100000000E-03 0.  1.
</event>
<event>
 8    1  0.1099921E+005  0.1043930E+01  0.7957747E-01            NaN
         13   -1    0    0    0    0  0.00000000000E+00  0.00000000000E+00  0.74505805969E-08  0.10566000000E+00  0.10566000000E+00 0. -1.
     999900   -1    0    0    0    0 -0.00000000000E+00 -0.00000000000E+00 -0.74505805969E-08  0.93827000000E+00  0.93827000000E+00 0.  1.
     999902    2    1    2    0    0  0.11135310791E-03 -0.10493376288E-01  0.20800411068E-01  0.10206323511E+01  0.10203664124E+01 0.  0.
     999903    2    3    3    0    0  0.12140904123E+00 -0.36004278450E-01 -0.25496398836E-01  0.13074059929E+00  0.20163694837E-01 0.  0.
         14    1    1    2    0    0 -0.11135310791E-03  0.10493376288E-01 -0.20800411068E-01  0.23297648938E-01  0.00000000000E+00 0.  1.
     999901    1    3    3    0    0 -0.12129768812E+00  0.25510902162E-01  0.46296809904E-01  0.88989175178E+00  0.88000000000E+00 0.  1.
        -11    1    4    4    0    0  0.15662552301E-01 -0.74268123080E-02 -0.10247742712E-01  0.20143247934E-01  0.51100000000E-03 0.  1.
         11    1    4    4    0    0  0.10574648893E+00 -0.28577466142E-01 -0.15248656123E-01  0.11059735135E+00  0.51100000000E-03 0. -1.
</event>
<event>
 8    1  0.1099921E+005  0.1043930E+01  0.7957747E-01            NaN
         13   -1    0    0    0    0  0.00000000000E+00  0.00000000000E+00  0.74505805969E-08  0.10566000000E+00  0.10566000000E+00 0.  1.
     999900   -1    0    0    0    0 -0.00000000000E+00 -0.00000000000E+00 -0.74505805969E-08  0.93827000000E+00  0.93827000000E+00 0.  1.
     999902    2    1    2    0    0 -0.65313963870E-02  0.13730598203E-01  0.17103896681E-01  0.10210448138E+01  0.10207883130E+01 0.  0.
     999903    2    3    3    0    0  0.94307870568E-01 -0.85593069000E-01  0.15666779598E-01  0.12973352478E+00  0.19109985792E-01 0.  0.
         14    1    1    2    0    0  0.65313963870E-02 -0.13730598203E-01 -0.17103896681E-01  0.22885186201E-01  0.00000000000E+00 0. -1.
     999901    1    3    3    0    0 -0.10083926696E+00  0.99323667203E-01  0.14371170828E-02  0.89131128902E+00  0.88000000000E+00 0. -1.
        -11    1    4    4    0    0  0.23630836174E-01 -0.11921459385E-01  0.62976319001E-02  0.27211374473E-01  0.51100000000E-03 0.  1.
         11    1    4    4    0    0  0.70677034394E-01 -0.73671609616E-01  0.93691476983E-02  0.10252215031E+00  0.51100000000E-03 0. -1.
</event>
<event>
 8    1  0.1099921E+005  0.1043930E+01  0.7957747E-01            NaN
         13   -1    0    0    0    0  0.00000000000E+00  0.00000000000E+00  0.74505805969E-08  0.10566000000E+00  0.10566000000E+00 0.  1.
     999900   -1    0    0    0    0 -0.00000000000E+00 -0.00000000000E+00 -0.74505805969E-08  0.93827000000E+00  0.93827000000E+00 0.  1.
     999902    2    1    2    0    0 -0.77518202427E-02  0.15635684940E-01 -0.15745937931E-01  0.10204246831E+01  0.10201539266E+01 0.  0.
     999903    2    3    3    0    0 -0.23123025665E-01  0.15482021150E-01  0.12474621084E+00  0.12914787906E+00  0.18525394813E-01 0.  0.
         14    1    1    2    0    0  0.77518202427E-02 -0.15635684940E-01  0.15745937931E-01  0.23505316887E-01  0.00000000000E+00 0.  1.
     999901    1    3    3    0    0  0.15371205422E-01  0.15366379037E-03 -0.14049214877E+00  0.89127680405E+00  0.88000000000E+00 0.  1.
        -11    1    4    4    0    0 -0.13325406350E-02 -0.27358413422E-02  0.32007414756E-01  0.32155811493E-01  0.51100000000E-03 0.  1.
         11    1    4    4    0    0 -0.21790485030E-01  0.18217862492E-01  0.92738796084E-01  0.96992067571E-01  0.51100000000E-03 0. -1.
</event>
<event>
 8    1  0.1099921E+005  0.1043930E+01  0.7957747E-01            NaN
         13   -1    0    0    0    0  0.00000000000E+00  0.00000000000E+00  0.74505805969E-08  0.10566000000E+00  0.10566000000E+00 0.  1.
     999900   -1    0    0    0    0 -0.00000000000E+00 -0.00000000000E+00 -0.74505805969E-08  0.93827000000E+00  0.93827000000E+00 0.  1.
     999902    2    1    2    0    0 -0.55125159519E-02 -0.24138662728E-01  0.63701765753E-02  0.10183635763E+01  0.10180425981E+01 0.  0.
     999903    2    3    3    0    0  0.67496962014E-01  0.10133634387E+00 -0.25724503672E-01  0.12589260779E+00  0.19034288453E-01 0.  0.
         14    1    1    2    0    0  0.55125159519E-02  0.24138662728E-01 -0.63701765753E-02  0.25566423685E-01  0.00000000000E+00 0.  1.
     999901    1    3    3    0    0 -0.73009477966E-01 -0.12547500660E+00  0.32094680247E-01  0.89247096852E+00  0.88000000000E+00 0. -1.
        -11    1    4    4    0    0  0.46855562203E-01  0.63369785251E-01 -0.24950439537E-01  0.82667762436E-01  0.51100000000E-03 0.  1.
         11    1    4    4    0    0  0.20641399811E-01  0.37966558624E-01 -0.77406413490E-03  0.43224845357E-01  0.51100000000E-03 0. -1.
</event>
<event>
 8    1  0.1099921E+005  0.1043930E+01  0.7957747E-01            NaN
         13   -1    0    0    0    0  0.00000000000E+00  0.00000000000E+00  0.74505805969E-08  0.10566000000E+00  0.10566000000E+00 0.  1.
     999900   -1    0    0    0    0 -0.00000000000E+00 -0.00000000000E+00 -0.74505805969E-08  0.93827000000E+00  0.93827000000E+00 0.  1.
     999902    2    1    2    0    0  0.13850472068E-01  0.18586006919E-01 -0.14226014866E-02  0.10207071874E+01  0.10204429741E+01 0.  0.
     999903    2    3    3    0    0 -0.21162528715E-02  0.70082401653E-01 -0.11045783190E+00  0.13234042956E+00  0.19925740158E-01 0.  0.
         14    1    1    2    0    0 -0.13850472068E-01 -0.18586006919E-01  0.14226014866E-02  0.23222812592E-01  0.00000000000E+00 0. -1.
     999901    1    3    3    0    0  0.15966724940E-01 -0.51496394734E-01  0.10903523041E+00  0.88836675785E+00  0.88000000000E+00 0. -1.
        -11    1    4    4    0    0  0.77502952332E-02  0.17014286023E-01 -0.24210501668E-01  0.30593504492E-01  0.51100000000E-03 0. -1.
         11    1    4    4    0    0 -0.98665481048E-02  0.53068115631E-01 -0.86247330231E-01  0.10174692507E+00  0.51100000000E-03 0.  1.
</event>
<event>
 8    1  0.1099921E+005  0.1043930E+01  0.7957747E-01            NaN
         13   -1    0    0    0    0  0.00000000000E+00  0.00000000000E+00  0.74505805969E-08  0.10566000000E+00  0.10566000000E+00 0.  1.
     999900   -1    0    0    0    0 -0.00000000000E+00 -0.00000000000E+00 -0.74505805969E-08  0.93827000000E+00  0.93827000000E+00 0.  1.
     999902    2    1    2    0    0 -0.16988012574E-01 -0.64609317048E-02  0.14166457141E-01  0.10208860264E+01  0.10206259130E+01 0.  0.
     999903    2    3    3    0    0  0.11240537223E+00 -0.60540997627E-01  0.12978061620E-01  0.12978069380E+00  0.19349891496E-01 0.  0.
         14    1    1    2    0    0  0.16988012574E-01  0.64609317048E-02 -0.14166457141E-01  0.23043973564E-01  0.00000000000E+00 0. -1.
     999901    1    3    3    0    0 -0.12939338480E+00  0.54080065923E-01  0.11883955214E-02  0.89110533263E+00  0.88000000000E+00 0. -1.
        -11    1    4    4    0    0  0.95023914433E-01 -0.42672325323E-01  0.11575749291E-01  0.10480806627E+00  0.51100000000E-03 0.  1.
         11    1    4    4    0    0  0.17381457797E-01 -0.17868672304E-01  0.14023123288E-02  0.24972627534E-01  0.51100000000E-03 0. -1.
</event>
<event>
 8    1  0.1099921E+005  0.1043930E+01  0.7957747E-01            NaN
         13   -1    0    0    0    0  0.00000000000E+00  0.00000000000E+00  0.74505805969E-08  0.10566000000E+00  0.10566000000E+00 0. -1.
     999900   -1    0    0    0    0 -0.00000000000E+00 -0.00000000000E+00 -0.74505805969E-08  0.93827000000E+00  0.93827000000E+00 0.  1.
     999902    2    1    2    0    0  0.15524222328E-01 -0.22564023208E-02  0.15535168659E-01  0.10218520858E+01  0.10216135526E+01 0.  0.
     999903    2    3    3    0    0 -0.79966066676E-03  0.63742759478E-01  0.11571115302E+00  0.13356295136E+00  0.19652282281E-01 0.  0.
         14    1    1    2    0    0 -0.15524222328E-01  0.22564023208E-02 -0.15535168659E-01  0.22077914204E-01  0.00000000000E+00 0.  1.
     999901    1    3    3    0    0  0.16323882995E-01 -0.65999161799E-01 -0.10017598436E+00  0.88828913444E+00  0.88000000000E+00 0.  1.
        -11    1    4    4    0    0  0.10082489781E-02  0.30030020120E-01  0.74193951256E-01  0.80048873811E-01  0.51100000000E-03 0.  1.
         11    1    4    4    0    0 -0.18079096448E-02  0.33712739358E-01  0.41517201767E-01  0.53514077549E-01  0.51100000000E-03 0. -1.
</event>
<event>
 8    1  0.1099921E+005  0.1043930E+01  0.7957747E-01            NaN
         13   -1    0    0    0    0  0.00000000000E+00  0.00000000000E+00  0.74505805969E-08  0.10566000000E+00  0.10566000000E+00 0. -1.
     999900   -1    0    0    0    0 -0.00000000000E+00 -0.00000000000E+00 -0.74505805969E-08  0.93827000000E+00  0.93827000000E+00 0.  1.
     999902    2    1    2    0    0 -0.17562718138E-01  0.16212408737E-01 -0.44812162761E-03  0.10200240995E+01  0.10197439245E+01 0.  0.
     999903    2    3    3    0    0  0.12426092177E+00 -0.21229285855E-01 -0.14663302612E-01  0.12776970938E+00  0.14786038480E-01 0.  0.
         14    1    1    2    0    0  0.17562718138E-01 -0.16212408737E-01  0.44812162761E-03  0.23905900495E-01  0.00000000000E+00 0.  1.
     999901    1    3    3    0    0 -0.14182363991E+00  0.37441694593E-01  0.14215180984E-01  0.89225439013E+00  0.88000000000E+00 0. -1.
        -11    1    4    4    0    0  0.60634336811E-01 -0.31827522098E-02 -0.49420611335E-02  0.60920750171E-01  0.51100000000E-03 0. -1.
         11    1    4    4    0    0  0.63626584959E-01 -0.18046533645E-01 -0.97212414783E-02  0.66848959207E-01  0.51100000000E-03 0.  1.
</event>
<event>
 8    1  0.1099921E+005  0.1043930E+01  0.7957747E-01            NaN
         13   -1    0    0    0    0  0.00000000000E+00  0.00000000000E+00  0.74505805969E-08  0.10566000000E+00  0.10566000000E+00 0. -1.
     999900   -1    0    0    0    0 -0.00000000000E+00 -0.00000000000E+00 -0.74505805969E-08  0.93827000000E+00  0.93827000000E+00 0. -1.
     999902    2    1    2    0    0  0.73158467823E-02 -0.18773266558E-01 -0.14357433726E-01  0.10191894856E+01  0.10188891571E+01 0.  0.
     999903    2    3    3    0    0  0.10328205522E+00  0.74457664916E-01 -0.87855592382E-03  0.12897423076E+00  0.20553674718E-01 0.  0.
         14    1    1    2    0    0 -0.73158467823E-02  0.18773266558E-01  0.14357433726E-01  0.24740514437E-01  0.00000000000E+00 0. -1.
     999901    1    3    3    0    0 -0.95966208433E-01 -0.93230931473E-01 -0.13478877803E-01  0.89021525481E+00  0.88000000000E+00 0. -1.
        -11    1    4    4    0    0  0.98793555066E-02  0.10324988895E-02  0.19309938826E-02  0.10132007578E-01  0.51100000000E-03 0. -1.
         11    1    4    4    0    0  0.93402699709E-01  0.73425166026E-01 -0.28095498064E-02  0.11884222318E+00  0.51100000000E-03 0.  1.
</event>
<event>
 8    1  0.1099921E+005  0.1043930E+01  0.7957747E-01            NaN
         13   -1    0    0    0    0  0.00000000000E+00  0.00000000000E+00  0.74505805969E-08  0.10566000000E+00  0.10566000000E+00 0.  1.
     999900   -1    0    0    0    0 -0.00000000000E+00 -0.00000000000E+00 -0.74505805969E-08  0.93827000000E+00  0.93827000000E+00 0.  1.
     999902    2    1    2    0    0 -0.11422369610E-01 -0.12472576514E-01  0.16731173621E-01  0.10201399209E+01  0.10198624860E+01 0.  0.
     999903    2    3    3    0    0  0.96423833736E-01 -0.83252975041E-01 -0.17636660260E-01  0.13007148736E+00  0.19466033848E-01 0.  0.
         14    1    1    2    0    0  0.11422369610E-01  0.12472576514E-01 -0.16731173621E-01  0.23790079091E-01  0.00000000000E+00 0. -1.
     999901    1    3    3    0    0 -0.10784620335E+00  0.70780398527E-01  0.34367833882E-01  0.89006843355E+00  0.88000000000E+00 0. -1.
        -11    1    4    4    0    0  0.69773887595E-01 -0.59831980437E-01 -0.38248781450E-02  0.91995391661E-01  0.51100000000E-03 0. -1.
         11    1    4    4    0    0  0.26649946141E-01 -0.23420994604E-01 -0.13811782115E-01  0.38076095700E-01  0.51100000000E-03 0.  1.
</event>
<event>
 8    1  0.1099921E+005  0.1043930E+01  0.7957747E-01            NaN
         13   -1    0    0    0    0  0.00000000000E+00  0.00000000000E+00  0.74505805969E-08  0.10566000000E+00  0.10566000000E+00 0.  1.
     999900   -1    0    0    0    0 -0.00000000000E+00 -0.00000000000E+00 -0.74505805969E-08  0.93827000000E+00  0.93827000000E+00 0. -1.
     999902    2    1    2    0    0 -0.16673240511E-01 -0.73119356291E-02 -0.14891176067E-01  0.10204096157E+01  0.10201385079E+01 0.  0.
     999903    2    3    3    0    0  0.66823161974E-01  0.44255611136E-02 -0.11113933714E+00  0.13115536268E+00  0.19101212831E-01 0.  0.
         14    1    1    2    0    0  0.16673240511E-01  0.73119356291E-02  0.14891176067E-01  0.23520384275E-01  0.00000000000E+00 0.  1.
     999901    1    3    3    0    0 -0.83496402485E-01 -0.11737496743E-01  0.96248161071E-01  0.88925425305E+00  0.88000000000E+00 0.  1.
        -11    1    4    4    0    0  0.41595629017E-01  0.11995808617E-01 -0.69649385792E-01  0.82008498584E-01  0.51100000000E-03 0.  1.
         11    1    4    4    0    0  0.25227532957E-01 -0.75702475039E-02 -0.41489951346E-01  0.49146864092E-01  0.51100000000E-03 0. -1.
</event>
<event>
 8    1  0.1723594E+005  0.1043930E+01  0.7957747E-01            NaN
         13   -1    0    0    0    0  0.00000000000E+00  0.00000000000E+00  0.74505805969E-08  0.10566000000E+00  0.10566000000E+00 0. -1.
     999900   -1    0    0    0    0 -0.00000000000E+00 -0.00000000000E+00 -0.74505805969E-08  0.93827000000E+00  0.93827000000E+00 0. -1.
     999902    2    1    2    0    0 -0.21994745381E-01  0.14448605187E-01 -0.23098609815E-01  0.10089146206E+01  0.10083068159E+01 0.  0.
     999903    2    3    3    0    0  0.46777982497E-01 -0.51001477687E-01  0.92474565260E-01  0.11629456695E+00  0.13548088806E-01 0.  0.
         14    1    1    2    0    0  0.21994745381E-01 -0.14448605187E-01  0.23098609815E-01  0.35015379358E-01  0.00000000000E+00 0.  1.
     999901    1    3    3    0    0 -0.68772727877E-01  0.65450082874E-01 -0.11557317508E+00  0.89262005369E+00  0.88000000000E+00 0. -1.
        -11    1    4    4    0    0  0.30227263093E-01 -0.37178337160E-01  0.72446417779E-01  0.86860006666E-01  0.51100000000E-03 0. -1.
         11    1    4    4    0    0  0.16550719404E-01 -0.13823140527E-01  0.20028147481E-01  0.29434560288E-01  0.51100000000E-03 0.  1.
</event>
<event>
 8    1  0.1099921E+005  0.1043930E+01  0.7957747E-01            NaN
         13   -1    0    0    0    0  0.00000000000E+00  0.00000000000E+00  0.74505805969E-08  0.10566000000E+00  0.10566000000E+00 0.  1.
     999900   -1    0    0    0    0 -0.00000000000E+00 -0.00000000000E+00 -0.74505805969E-08  0.93827000000E+00  0.93827000000E+00 0. -1.
     999902    2    1    2    0    0  0.15375601459E-01  0.12343168635E-01  0.13072227818E-01  0.10202731601E+01  0.10199988604E+01 0.  0.
     999903    2    3    3    0    0 -0.57578625279E-01 -0.11277449300E+00 -0.72211068932E-02  0.12820333782E+00  0.18723436762E-01 0.  0.
         14    1    1    2    0    0 -0.15375601459E-01 -0.12343168635E-01 -0.13072227818E-01  0.23656839863E-01  0.00000000000E+00 0. -1.
     999901    1    3    3    0    0  0.72954226737E-01  0.12511766163E+00  0.20293334712E-01  0.89206982231E+00  0.88000000000E+00 0. -1.
        -11    1    4    4    0    0 -0.43418964231E-01 -0.65806083032E-01 -0.69106792585E-02  0.79143323330E-01  0.51100000000E-03 0. -1.
         11    1    4    4    0    0 -0.14159661048E-01 -0.46968409965E-01 -0.31042763461E-03  0.49060014492E-01  0.51100000000E-03 0.  1.
</event>
<event>
 8    1  0.1099921E+005  0.1043930E+01  0.7957747E-01            NaN
         13   -1    0    0    0    0  0.00000000000E+00  0.00000000000E+00  0.74505805969E-08  0.10566000000E+00  0.10566000000E+00 0. -1.
     999900   -1    0    0    0    0 -0.00000000000E+00 -0.00000000000E+00 -0.74505805969E-08  0.93827000000E+00  0.93827000000E+00 0. -1.
     999902    2    1    2    0    0 -0.17424265197E-01 -0.76487658769E-02  0.14284217309E-01  0.10201361457E+01  0.10198586217E+01 0.  0.
     999903    2    3    3    0    0  0.74666783090E-01  0.10258043574E+00 -0.25962273569E-02  0.12833112921E+00  0.19085702354E-01 0.  0.
         14    1    1    2    0    0  0.17424265197E-01  0.76487658769E-02 -0.14284217309E-01  0.23793854274E-01  0.00000000000E+00 0.  1.
     999901    1    3    3    0    0 -0.92091048287E-01 -0.11022920162E+00  0.16880444666E-01  0.89180501651E+00  0.88000000000E+00 0.  1.
        -11    1    4    4    0    0  0.55627233043E-01  0.60925394248E-01 -0.17449863573E-02  0.82520293375E-01  0.51100000000E-03 0. -1.
         11    1    4    4    0    0  0.19039550047E-01  0.41655041495E-01 -0.85124099957E-03  0.45810835838E-01  0.51100000000E-03 0.  1.
</event>
<event>
 8    1  0.1099921E+005  0.1043930E+01  0.7957747E-01            NaN
         13   -1    0    0    0    0  0.00000000000E+00  0.00000000000E+00  0.74505805969E-08  0.10566000000E+00  0.10566000000E+00 0. -1.
     999900   -1    0    0    0    0 -0.00000000000E+00 -0.00000000000E+00 -0.74505805969E-08  0.93827000000E+00  0.93827000000E+00 0. -1.
     999902    2    1    2    0    0 -0.14563095317E-01 -0.10184873952E-01  0.15797931367E-01  0.10201520683E+01  0.10198749199E+01 0.  0.
     999903    2    3    3    0    0  0.70183154398E-02  0.12705368539E+00 -0.76697830335E-02  0.12894450933E+00  0.19389821837E-01 0.  0.
         14    1    1    2    0    0  0.14563095317E-01  0.10184873952E-01 -0.15797931367E-01  0.23777931746E-01  0.00000000000E+00 0.  1.
     999901    1    3    3    0    0 -0.21581410756E-01 -0.13723855935E+00  0.23467714401E-01  0.89120755892E+00  0.88000000000E+00 0.  1.
        -11    1    4    4    0    0 -0.74700032468E-03  0.45579229061E-01 -0.11477092712E-01  0.47010731854E-01  0.51100000000E-03 0. -1.
         11    1    4    4    0    0  0.77653157645E-02  0.81474456333E-01  0.38073096781E-02  0.81933777478E-01  0.51100000000E-03 0.  1.
</event>
<event>
 8    1  0.1099921E+005  0.1043930E+01  0.7957747E-01            NaN
         13   -1    0    0    0    0  0.00000000000E+00  0.00000000000E+00  0.74505805969E-08  0.10566000000E+00  0.10566000000E+00 0.  1.
     999900   -1    0    0    0    0 -0.00000000000E+00 -0.00000000000E+00 -0.74505805969E-08  0.93827000000E+00  0.93827000000E+00 0.  1.
     999902    2    1    2    0    0 -0.14447011594E-01  0.16805509863E-01  0.79463998633E-02  0.10203867085E+01  0.10201150662E+01 0.  0.
     999903    2    3    3    0    0 -0.94745017276E-01  0.65055064650E-01  0.67006702076E-01  0.13344595026E+00  0.10447190208E-01 0.  0.
         14    1    1    2    0    0  0.14447011594E-01 -0.16805509863E-01 -0.79463998633E-02  0.23543291540E-01  0.00000000000E+00 0.  1.
     999901    1    3    3    0    0  0.80298005682E-01 -0.48249554787E-01 -0.59060302213E-01  0.88694075820E+00  0.88000000000E+00 0.  1.
        -11    1    4    4    0    0 -0.35093735079E-01  0.19915785056E-01  0.27643811431E-01  0.48914723423E-01  0.51100000000E-03 0. -1.
         11    1    4    4    0    0 -0.59651282197E-01  0.45139279594E-01  0.39362890645E-01  0.84531226840E-01  0.51100000000E-03 0.  1.
</event>
<event>
 8    1  0.1099921E+005  0.1043930E+01  0.7957747E-01            NaN
         13   -1    0    0    0    0  0.00000000000E+00  0.00000000000E+00  0.74505805969E-08  0.10566000000E+00  0.10566000000E+00 0.  1.
     999900   -1    0    0    0    0 -0.00000000000E+00 -0.00000000000E+00 -0.74505805969E-08  0.93827000000E+00  0.93827000000E+00 0.  1.
     999902    2    1    2    0    0  0.90905783606E-02  0.15537606923E-01 -0.14187120203E-01  0.10210099166E+01  0.10207526241E+01 0.  0.
     999903    2    3    3    0    0 -0.10355017264E+00  0.16716959246E-01  0.73412892995E-01  0.12951505291E+00  0.19560191518E-01 0.  0.
         14    1    1    2    0    0 -0.90905783606E-02 -0.15537606923E-01  0.14187120203E-01  0.22920083409E-01  0.00000000000E+00 0.  1.
     999901    1    3    3    0    0  0.11264075100E+00 -0.11793523231E-02 -0.87600013198E-01  0.89149486368E+00  0.88000000000E+00 0.  1.
        -11    1    4    4    0    0 -0.48818563238E-01  0.49017346079E-02  0.23081247465E-01  0.54224387727E-01  0.51100000000E-03 0.  1.
         11    1    4    4    0    0 -0.54731609401E-01  0.11815224638E-01  0.50331645531E-01  0.75290665183E-01  0.51100000000E-03 0. -1.
</event>
<event>
 8    1  0.1099921E+005  0.1043930E+01  0.7957747E-01            NaN
         13   -1    0    0    0    0  0.00000000000E+00  0.00000000000E+00  0.74505805969E-08  0.10566000000E+00  0.10566000000E+00 0.  1.
     999900   -1    0    0    0    0 -0.00000000000E+00 -0.00000000000E+00 -0.74505805969E-08  0.93827000000E+00  0.93827000000E+00 0. -1.
     999902    2    1    2    0    0 -0.20500836762E-01 -0.91053908633E-02  0.33432818817E-02  0.10212502737E+01  0.10209984092E+01 0.  0.
     999903    2    3    3    0    0  0.56009981566E-01 -0.87102980097E-02  0.11607006290E+00  0.13076647904E+00  0.20362347923E-01 0.  0.
         14    1    1    2    0    0  0.20500836762E-01  0.91053908633E-02 -0.33432818817E-02  0.22679726287E-01  0.00000000000E+00 0.  1.
     999901    1    3    3    0    0 -0.76510818328E-01 -0.39509285364E-03 -0.11272678102E+00  0.89048379467E+00  0.88000000000E+00 0. -1.
        -11    1    4    4    0    0  0.16529497246E-01  0.65881862103E-02  0.31262138912E-01  0.35975143184E-01  0.51100000000E-03 0. -1.
         11    1    4    4    0    0  0.39480484320E-01 -0.15298484220E-01  0.84807923985E-01  0.94791335855E-01  0.51100000000E-03 0.  1.
</event>
<event>
 8    1  0.1099921E+005  0.1043930E+01  0.7957747E-01            NaN
         13   -1    0    0    0    0  0.00000000000E+00  0.00000000000E+00  0.74505805969E-08  0.10566000000E+00  0.10566000000E+00 0.  1.
     999900   -1    0    0    0    0 -0.00000000000E+00 -0.00000000000E+00 -0.74505805969E-08  0.93827000000E+00  0.93827000000E+00 0.  1.
     999902    2    1    2    0    0  0.75577579781E-03  0.18974709936E-01 -0.15023136715E-01  0.10197162549E+01  0.10194287298E+01 0.  0.
     999903    2    3    3    0    0  0.23787979666E-01  0.71573953116E-01 -0.10781987524E+00  0.13297593358E+00  0.19203506846E-01 0.  0.
         14    1    1    2    0    0 -0.75577579781E-03 -0.18974709936E-01  0.15023136715E-01  0.24213745083E-01  0.00000000000E+00 0.  1.
     999901    1    3    3    0    0 -0.23032203868E-01 -0.52599243181E-01  0.92796738521E-01  0.88674032133E+00  0.88000000000E+00 0. -1.
        -11    1    4    4    0    0  0.12758991313E-01  0.38732174188E-01 -0.41698667768E-01  0.58326779367E-01  0.51100000000E-03 0. -1.
         11    1    4    4    0    0  0.11028988352E-01  0.32841778928E-01 -0.66121207468E-01  0.74649154216E-01  0.51100000000E-03 0.  1.
</event>
<event>
 8    1  0.1099921E+005  0.1043930E+01  0.7957747E-01            NaN
         13   -1    0    0    0    0  0.00000000000E+00  0.00000000000E+00  0.74505805969E-08  0.10566000000E+00  0.10566000000E+00 0.  1.
     999900   -1    0    0    0    0 -0.00000000000E+00 -0.00000000000E+00 -0.74505805969E-08  0.93827000000E+00  0.93827000000E+00 0. -1.
     999902    2    1    2    0    0 -0.41331466535E-02  0.18176964673E-01  0.15144926373E-01  0.10199122203E+01  0.10196293853E+01 0.  0.
     999903    2    3    3    0    0  0.12687827457E+00  0.84423772352E-02  0.18946199506E-01  0.13015202546E+00  0.20278583882E-01 0.  0.
         14    1    1    2    0    0  0.41331466535E-02 -0.18176964673E-01 -0.15144926373E-01  0.24017779681E-01  0.00000000000E+00 0. -1.
     999901    1    3    3    0    0 -0.13101142122E+00  0.97345874380E-02 -0.38012731339E-02  0.88976019486E+00  0.88000000000E+00 0. -1.
        -11    1    4    4    0    0  0.40260201992E-01  0.68787264020E-02 -0.24335513078E-02  0.40919237949E-01  0.51100000000E-03 0.  1.
         11    1    4    4    0    0  0.86618072575E-01  0.15636508333E-02  0.21379750814E-01  0.89232787508E-01  0.51100000000E-03 0. -1.
</event>
<event>
 8    1  0.1099921E+005  0.1043930E+01  0.7957747E-01            NaN
         13   -1    0    0    0    0  0.00000000000E+00  0.00000000000E+00  0.74505805969E-08  0.10566000000E+00  0.10566000000E+00 0. -1.
     999900   -1    0    0    0    0 -0.00000000000E+00 -0.00000000000E+00 -0.74505805969E-08  0.93827000000E+00  0.93827000000E+00 0.  1.
     999902    2    1    2    0    0  0.18431758186E-02 -0.19497894364E-01  0.13495302935E-01  0.10201457955E+01  0.10198684992E+01 0.  0.
     999903    2    3    3    0    0 -0.27282194860E-01  0.12179279189E+00  0.65803667027E-02  0.12837275175E+00  0.29299485524E-01 0.  0.
         14    1    1    2    0    0 -0.18431758186E-02  0.19497894364E-01 -0.13495302935E-01  0.23784204486E-01  0.00000000000E+00 0.  1.
     999901    1    3    3    0    0  0.29125370679E-01 -0.14129068626E+00  0.69149362326E-02  0.89177304376E+00  0.88000000000E+00 0.  1.
        -11    1    4    4    0    0 -0.32252250002E-01  0.83977777623E-01  0.69454977438E-02  0.90227356299E-01  0.51100000000E-03 0.  1.
         11    1    4    4    0    0  0.49700551411E-02  0.37815014272E-01 -0.36513104109E-03  0.38145395451E-01  0.51100000000E-03 0. -1.
</event>
<event>
 8    1  0.1099921E+005  0.1043930E+01  0.7957747E-01            NaN
         13   -1    0    0    0    0  0.00000000000E+00  0.00000000000E+00  0.74505805969E-08  0.10566000000E+00  0.10566000000E+00 0. -1.
     999900   -1    0    0    0    0 -0.00000000000E+00 -0.00000000000E+00 -0.74505805969E-08  0.93827000000E+00  0.93827000000E+00 0. -1.
     999902    2    1    2    0    0  0.12880634986E-01  0.20617684398E-01  0.22218324034E-02  0.10195181953E+01  0.10192258898E+01 0.  0.
     999903    2    3    3    0    0 -0.10085391738E+00  0.55946224845E-01 -0.56005763248E-01  0.12958892452E+00  0.18845453423E-01 0.  0.
         14    1    1    2    0    0 -0.12880634986E-01 -0.20617684398E-01 -0.22218324034E-02  0.24411804661E-01  0.00000000000E+00 0.  1.
     999901    1    3    3    0    0  0.11373455237E+00 -0.35328540447E-01  0.58227595651E-01  0.88992927082E+00  0.88000000000E+00 0.  1.
        -11    1    4    4    0    0 -0.48247489566E-01  0.37496890854E-01 -0.29839289053E-01  0.68003539359E-01  0.51100000000E-03 0.  1.
         11    1    4    4    0    0 -0.52606427815E-01  0.18449333991E-01 -0.26166474195E-01  0.61585385157E-01  0.51100000000E-03 0. -1.
</event>
<event>
 8    1  0.1099921E+005  0.1043930E+01  0.7957747E-01            NaN
         13   -1    0    0    0    0  0.00000000000E+00  0.00000000000E+00  0.74505805969E-08  0.10566000000E+00  0.10566000000E+00 0.  1.
     999900   -1    0    0    0    0 -0.00000000000E+00 -0.00000000000E+00 -0.74505805969E-08  0.93827000000E+00  0.93827000000E+00 0. -1.
     999902    2    1    2    0    0 -0.20335684303E-01 -0.31407588734E-02  0.12383101938E-01  0.10199144709E+01  0.10196316896E+01 0.  0.
     999903    2    3    3    0    0  0.22282318225E-02  0.97528459247E-01 -0.81821825127E-01  0.12889371357E+00  0.20050260588E-01 0.  0.
         14    1    1    2    0    0  0.20335684303E-01  0.31407588734E-02 -0.12383101938E-01  0.24015529059E-01  0.00000000000E+00 0. -1.
     999901    1    3    3    0    0 -0.22563916126E-01 -0.10066921812E+00  0.94204927065E-01  0.89102075737E+00  0.88000000000E+00 0.  1.
        -11    1    4    4    0    0 -0.16415341203E-02  0.60899494066E-01 -0.62565557441E-01  0.87327848426E-01  0.51100000000E-03 0. -1.
         11    1    4    4    0    0  0.38697659427E-02  0.36628965182E-01 -0.19256267686E-01  0.41565865141E-01  0.51100000000E-03 0.  1.
</event>
<event>
 8    1  0.1099921E+005  0.1043930E+01  0.7957747E-01            NaN
         13   -1    0    0    0    0  0.00000000000E+00  0.00000000000E+00  0.74505805969E-08  0.10566000000E+00  0.10566000000E+00 0.  1.
     999900   -1    0    0    0    0 -0.00000000000E+00 -0.00000000000E+00 -0.74505805969E-08  0.93827000000E+00  0.93827000000E+00 0.  1.
     999902    2    1    2    0    0  0.22040651547E-01  0.11286539182E-01  0.30860454825E-02  0.10189760431E+01  0.10186704455E+01 0.  0.
     999903    2    3    3    0    0  0.11190403023E+00  0.33316378271E-01 -0.58246612862E-01  0.13200229175E+00  0.19986097026E-01 0.  0.
         14    1    1    2    0    0 -0.22040651547E-01 -0.11286539182E-01 -0.30860454825E-02  0.24953956882E-01  0.00000000000E+00 0. -1.
     999901    1    3    3    0    0 -0.89863378682E-01 -0.22029839089E-01  0.61332658345E-01  0.88697375137E+00  0.88000000000E+00 0. -1.
        -11    1    4    4    0    0  0.99251077273E-02  0.82895664634E-02 -0.10430413358E-01  0.16621652125E-01  0.51100000000E-03 0.  1.
         11    1    4    4    0    0  0.10197892250E+00  0.25026811808E-01 -0.47816199505E-01  0.11538063962E+00  0.51100000000E-03 0. -1.
</event>
<event>
 8    1  0.1099921E+005  0.1043930E+01  0.7957747E-01            NaN
         13   -1    0    0    0    0  0.00000000000E+00  0.00000000000E+00  0.74505805969E-08  0.10566000000E+00  0.10566000000E+00 0.  1.
     999900   -1    0    0    0    0 -0.00000000000E+00 -0.00000000000E+00 -0.74505805969E-08  0.93827000000E+00  0.93827000000E+00 0.  1.
     999902    2    1    2    0    0 -0.10841353867E-01 -0.40906256952E-02 -0.21698431549E-01  0.10193314207E+01  0.10190345701E+01 0.  0.
     999903    2    3    3    0    0  0.11821056382E+00  0.46727656366E-01 -0.69979055401E-02  0.12834713311E+00  0.16334155290E-01 0.  0.
         14    1    1    2    0    0  0.10841353867E-01  0.40906256952E-02  0.21698431549E-01  0.24598579307E-01  0.00000000000E+00 0.  1.
     999901    1    3    3    0    0 -0.12905191768E+00 -0.50818282061E-01 -0.14700526009E-01  0.89098428758E+00  0.88000000000E+00 0. -1.
        -11    1    4    4    0    0  0.70767627407E-01  0.26795927406E-01 -0.12094839925E-01  0.76633054801E-01  0.51100000000E-03 0.  1.
         11    1    4    4    0    0  0.47442936410E-01  0.19931728960E-01  0.50969343847E-02  0.51714078312E-01  0.51100000000E-03 0. -1.
</event>
<event>
 8    1  0.1099921E+005  0.1043930E+01  0.7957747E-01            NaN
         13   -1    0    0    0    0  0.00000000000E+00  0.00000000000E+00  0.74505805969E-08  0.10566000000E+00  0.10566000000E+00 0. -1.
     999900   -1    0    0    0    0 -0.00000000000E+00 -0.00000000000E+00 -0.74505805969E-08  0.93827000000E+00  0.93827000000E+00 0.  1.
     999902    2    1    2    0    0 -0.15795391393E-01  0.58988782142E-03 -0.18102756079E-01  0.10198976856E+01  0.10196145041E+01 0.  0.
     999903    2    3    3    0    0 -0.90037710251E-01 -0.78470777144E-01 -0.54622588703E-01  0.13248785424E+00  0.17462880383E-01 0.  0.
         14    1    1    2    0    0  0.15795391393E-01 -0.58988782142E-03  0.18102756079E-01  0.24032314382E-01  0.00000000000E+00 0. -1.
     999901    1    3    3    0    0  0.74242318858E-01  0.79060664966E-01  0.36519832623E-01  0.88740983138E+00  0.88000000000E+00 0. -1.
        -11    1    4    4    0    0 -0.51234186443E-01 -0.55157496235E-01 -0.37285194114E-01  0.84010345033E-01  0.51100000000E-03 0. -1.
         11    1    4    4    0    0 -0.38803523808E-01 -0.23313280909E-01 -0.17337394589E-01  0.48477509206E-01  0.51100000000E-03 0.  1.
</event>
<event>
 8    1  0.1099921E+005  0.1043930E+01  0.7957747E-01            NaN
         13   -1    0    0    0    0  0.00000000000E+00  0.00000000000E+00  0.74505805969E-08  0.10566000000E+00  0.10566000000E+00 0. -1.
     999900   -1    0    0    0    0 -0.00000000000E+00 -0.00000000000E+00 -0.74505805969E-08  0.93827000000E+00  0.93827000000E+00 0.  1.
     999902    2    1    2    0    0  0.13085794406E-01  0.10533293486E-01  0.16092361423E-01  0.10206673178E+01  0.10204021860E+01 0.  0.
     999903    2    3    3    0    0  0.90847974239E-01  0.75165427897E-01  0.60053156135E-01  0.13378693078E+00  0.19732341769E-01 0.  0.
         14    1    1    2    0    0 -0.13085794406E-01 -0.10533293486E-01 -0.16092361423E-01  0.23262682198E-01  0.00000000000E+00 0.  1.
     999901    1    3    3    0    0 -0.77762179833E-01 -0.64632134411E-01 -0.43960794712E-01  0.88688038702E+00  0.88000000000E+00 0. -1.
        -11    1    4    4    0    0  0.30718172574E-01  0.37446833880E-01  0.27455102928E-01  0.55676882920E-01  0.51100000000E-03 0.  1.
         11    1    4    4    0    0  0.60129801665E-01  0.37718594017E-01  0.32598053208E-01  0.78110047860E-01  0.51100000000E-03 0. -1.
</event>
<event>
 8    1  0.1099921E+005  0.1043930E+01  0.7957747E-01            NaN
         13   -1    0    0    0    0  0.00000000000E+00  0.00000000000E+00  0.74505805969E-08  0.10566000000E+00  0.10566000000E+00 0.  1.
     999900   -1    0    0    0    0 -0.00000000000E+00 -0.00000000000E+00 -0.74505805969E-08  0.93827000000E+00  0.93827000000E+00 0. -1.
     999902    2    1    2    0    0  0.10598737404E-01 -0.21169565170E-01  0.29722545112E-02  0.10200696140E+01  0.10197905174E+01 0.  0.
     999903    2    3    3    0    0 -0.83462096473E-01 -0.84494372978E-01 -0.51685342889E-01  0.13111240202E+00  0.20343713525E-01 0.  0.
         14    1    1    2    0    0 -0.10598737404E-01  0.21169565170E-01 -0.29722545112E-02  0.23860386018E-01  0.00000000000E+00 0. -1.
     999901    1    3    3    0    0  0.94060833877E-01  0.63324807808E-01  0.54657597401E-01  0.88895721197E+00  0.88000000000E+00 0.  1.
        -11    1    4    4    0    0 -0.44245546914E-01 -0.46023561310E-01 -0.16742042212E-01  0.66002982628E-01  0.51100000000E-03 0. -1.
         11    1    4    4    0    0 -0.39216549560E-01 -0.38470811668E-01 -0.34943300677E-01  0.65109419388E-01  0.51100000000E-03 0.  1.
</event>
<event>
 8    1  0.1099921E+005  0.1043930E+01  0.7957747E-01            NaN
         13   -1    0    0    0    0  0.00000000000E+00  0.00000000000E+00  0.74505805969E-08  0.10566000000E+00  0.10566000000E+00 0.  1.
     999900   -1    0    0    0    0 -0.00000000000E+00 -0.00000000000E+00 -0.74505805969E-08  0.93827000000E+00  0.93827000000E+00 0.  1.
     999902    2    1    2    0    0 -0.81374549665E-02  0.81472411725E-02  0.21234349113E-01  0.10197743941E+01  0.10194882646E+01 0.  0.
     999903    2    3    3    0    0  0.97047799725E-01 -0.81777546244E-01 -0.50200853930E-02  0.12857312590E+00  0.20000123599E-01 0.  0.
         14    1    1    2    0    0  0.81374549665E-02 -0.81472411725E-02 -0.21234349113E-01  0.24155605856E-01  0.00000000000E+00 0. -1.
     999901    1    3    3    0    0 -0.10518525469E+00  0.89924787417E-01  0.26254434506E-01  0.89120126825E+00  0.88000000000E+00 0. -1.
        -11    1    4    4    0    0  0.63933342749E-01 -0.43153597546E-01  0.23015957426E-02  0.77170355450E-01  0.51100000000E-03 0. -1.
         11    1    4    4    0    0  0.33114456975E-01 -0.38623948698E-01 -0.73216811356E-02  0.51402770445E-01  0.51100000000E-03 0.  1.
</event>
<event>
 8    1  0.1099921E+005  0.1043930E+01  0.7957747E-01            NaN
         13   -1    0    0    0    0  0.00000000000E+00  0.00000000000E+00  0.74505805969E-08  0.10566000000E+00  0.10566000000E+00 0.  1.
     999900   -1    0    0    0    0 -0.00000000000E+00 -0.00000000000E+00 -0.74505805969E-08  0.93827000000E+00  0.93827000000E+00 0.  1.
     999902    2    1    2    0    0 -0.13034594095E-01  0.20825221928E-01 -0.15076887642E-02  0.10193157026E+01  0.10190184679E+01 0.  0.
     999903    2    3    3    0    0 -0.10927529906E+00 -0.51330755138E-01 -0.43950208052E-01  0.13011936557E+00  0.20578899454E-01 0.  0.
         14    1    1    2    0    0  0.13034594095E-01 -0.20825221928E-01  0.15076887642E-02  0.24614297410E-01  0.00000000000E+00 0. -1.
     999901    1    3    3    0    0  0.96240704962E-01  0.72155977066E-01  0.42442519288E-01  0.88919633702E+00  0.88000000000E+00 0.  1.
        -11    1    4    4    0    0 -0.65177988095E-01 -0.25868524450E-01 -0.15612681940E-01  0.71842658969E-01  0.51100000000E-03 0. -1.
         11    1    4    4    0    0 -0.44097310962E-01 -0.25462230688E-01 -0.28337526113E-01  0.58276706606E-01  0.51100000000E-03 0.  1.
</event>
<event>
 8    1  0.1099921E+005  0.1043930E+01  0.7957747E-01            NaN
         13   -1    0    0    0    0  0.00000000000E+00  0.00000000000E+00  0.74505805969E-08  0.10566000000E+00  0.10566000000E+00 0. -1.
     999900   -1    0    0    0    0 -0.00000000000E+00 -0.00000000000E+00 -0.74505805969E-08  0.93827000000E+00  0.93827000000E+00 0. -1.
     999902    2    1    2    0    0 -0.22029457498E-01  0.30980980877E-02 -0.10592908984E-01  0.10192905006E+01  0.10189926495E+01 0.  0.
     999903    2    3    3    0    0 -0.10175003427E+00 -0.50853702348E-02 -0.82749092755E-01  0.13270781729E+00  0.19621976268E-01 0.  0.
         14    1    1    2    0    0  0.22029457498E-01 -0.30980980877E-02  0.10592908984E-01  0.24639499390E-01  0.00000000000E+00 0.  1.
     999901    1    3    3    0    0  0.79720576771E-01  0.81834683225E-02  0.72156183771E-01  0.88658268332E+00  0.88000000000E+00 0.  1.
        -11    1    4    4    0    0 -0.54542046656E-01 -0.10378272843E-01 -0.36769271837E-01  0.66594172966E-01  0.51100000000E-03 0.  1.
         11    1    4    4    0    0 -0.47207987614E-01  0.52929026081E-02 -0.45979820918E-01  0.66113644320E-01  0.51100000000E-03 0. -1.
</event>
<event>
 8    1  0.1099921E+005  0.1043930E+01  0.7957747E-01            NaN
         13   -1    0    0    0    0  0.00000000000E+00  0.00000000000E+00  0.74505805969E-08  0.10566000000E+00  0.10566000000E+00 0. -1.
     999900   -1    0    0    0    0 -0.00000000000E+00 -0.00000000000E+00 -0.74505805969E-08  0.93827000000E+00  0.93827000000E+00 0. -1.
     999902    2    1    2    0    0  0.84300368333E-02  0.39447325359E-02 -0.27037234588E-01  0.10153356214E+01  0.10149328970E+01 0.  0.
     999903    2    3    3    0    0  0.12037187476E-01 -0.11058869196E+00  0.52322063995E-01  0.12436490628E+00  0.18822296905E-01 0.  0.
         14    1    1    2    0    0 -0.84300368333E-02 -0.39447325359E-02  0.27037234588E-01  0.28594378642E-01  0.00000000000E+00 0. -1.
     999901    1    3    3    0    0 -0.36071506429E-02  0.11453342449E+00 -0.79359298582E-01  0.89097071508E+00  0.88000000000E+00 0. -1.
        -11    1    4    4    0    0 -0.17954014237E-02 -0.60441517316E-01  0.32854550132E-01  0.68819205656E-01  0.51100000000E-03 0.  1.
         11    1    4    4    0    0  0.13832588900E-01 -0.50147174643E-01  0.19467513862E-01  0.55545700619E-01  0.51100000000E-03 0. -1.
</event>
<event>
 8    1  0.1099921E+005  0.1043930E+01  0.7957747E-01            NaN
         13   -1    0    0    0    0  0.00000000000E+00  0.00000000000E+00  0.74505805969E-08  0.10566000000E+00  0.10566000000E+00 0. -1.
     999900   -1    0    0    0    0 -0.00000000000E+00 -0.00000000000E+00 -0.74505805969E-08  0.93827000000E+00  0.93827000000E+00 0.  1.
     999902    2    1    2    0    0  0.92719475684E-02  0.10253501418E-02 -0.22118533345E-01  0.10199247949E+01  0.10196422595E+01 0.  0.
     999903    2    3    3    0    0 -0.11970148731E+00 -0.10887110068E-01  0.39973363974E-01  0.12827942968E+00  0.20267388129E-01 0.  0.
         14    1    1    2    0    0 -0.92719475684E-02 -0.10253501418E-02  0.22118533345E-01  0.24005205101E-01  0.00000000000E+00 0. -1.
     999901    1    3    3    0    0  0.12897343487E+00  0.11912460210E-01 -0.62091897318E-01  0.89164536522E+00  0.88000000000E+00 0.  1.
        -11    1    4    4    0    0 -0.67127043144E-01 -0.30601516184E-02  0.12173211095E-01  0.68292405424E-01  0.51100000000E-03 0.  1.
         11    1    4    4    0    0 -0.52574444162E-01 -0.78269584493E-02  0.27800152878E-01  0.59987024252E-01  0.51100000000E-03 0. -1.
</event>
<event>
 8    1  0.1099921E+005  0.1043930E+01  0.7957747E-01            NaN
         13   -1    0    0    0    0  0.00000000000E+00  0.00000000000E+00  0.74505805969E-08  0.10566000000E+00  0.10566000000E+00 0. -1.
     999900   -1    0    0    0    0 -0.00000000000E+00 -0.00000000000E+00 -0.74505805969E-08  0.93827000000E+00  0.93827000000E+00 0.  1.
     999902    2    1    2    0    0 -0.53279155514E-02 -0.11624858166E-01  0.20229334863E-01  0.10199978041E+01  0.10197170050E+01 0.  0.
     999903    2    3    3    0    0  0.23120124475E-01  0.97047511463E-01  0.81977912457E-01  0.13071052671E+00  0.20300345426E-01 0.  0.
         14    1    1    2    0    0  0.53279155514E-02  0.11624858166E-01 -0.20229334863E-01  0.23932195898E-01  0.00000000000E+00 0.  1.
     999901    1    3    3    0    0 -0.28448040026E-01 -0.10867236963E+00 -0.61748577594E-01  0.88928727740E+00  0.88000000000E+00 0.  1.
        -11    1    4    4    0    0  0.10346689829E-01  0.30679299186E-01  0.38672265889E-01  0.50438860603E-01  0.51100000000E-03 0. -1.
         11    1    4    4    0    0  0.12773434646E-01  0.66368212276E-01  0.43305646568E-01  0.80271666104E-01  0.51100000000E-03 0.  1.
</event>
<event>
 8    1  0.1099921E+005  0.1043930E+01  0.7957747E-01            NaN
         13   -1    0    0    0    0  0.00000000000E+00  0.00000000000E+00  0.74505805969E-08  0.10566000000E+00  0.10566000000E+00 0. -1.
     999900   -1    0    0    0    0 -0.00000000000E+00 -0.00000000000E+00 -0.74505805969E-08  0.93827000000E+00  0.93827000000E+00 0.  1.
     999902    2    1    2    0    0  0.22750608276E-02 -0.11106550854E-01 -0.20066700992E-01  0.10208821397E+01  0.10206219375E+01 0.  0.
     999903    2    3    3    0    0  0.25034968881E-02  0.11399539300E+00 -0.60378610766E-01  0.13112059944E+00  0.23362744621E-01 0.  0.
         14    1    1    2    0    0 -0.22750608276E-02  0.11106550854E-01  0.20066700992E-01  0.23047860255E-01  0.00000000000E+00 0.  1.
     999901    1    3    3    0    0 -0.22843606052E-03 -0.12510194386E+00  0.40311909775E-01  0.88976154031E+00  0.88000000000E+00 0. -1.
        -11    1    4    4    0    0  0.79958756439E-02  0.88523382275E-01 -0.54948680405E-01  0.10449852552E+00  0.51100000000E-03 0. -1.
         11    1    4    4    0    0 -0.54923787558E-02  0.25472010728E-01 -0.54299303619E-02  0.26622073918E-01  0.51100000000E-03 0.  1.
</event>
<event>
 8    1  0.1099921E+005  0.1043930E+01  0.7957747E-01            NaN
         13   -1    0    0    0    0  0.00000000000E+00  0.00000000000E+00  0.74505805969E-08  0.10566000000E+00  0.10566000000E+00 0. -1.
     999900   -1    0    0    0    0 -0.00000000000E+00 -0.00000000000E+00 -0.74505805969E-08  0.93827000000E+00  0.93827000000E+00 0.  1.
     999902    2    1    2    0    0  0.67349887740E-02 -0.21538462359E-01  0.51061002617E-02  0.10207926342E+01  0.10205303839E+01 0.  0.
     999903    2    3    3    0    0  0.86482093268E-01 -0.46352899580E-01 -0.86240798069E-01  0.13213093662E+00  0.19833441605E-01 0.  0.
         14    1    1    2    0    0 -0.67349887740E-02  0.21538462359E-01 -0.51061002617E-02  0.23137365763E-01  0.00000000000E+00 0.  1.
     999901    1    3    3    0    0 -0.79747104494E-01  0.24814437222E-01  0.91346898331E-01  0.88866169761E+00  0.88000000000E+00 0. -1.
        -11    1    4    4    0    0  0.47096775361E-01 -0.15227048411E-01 -0.36895047915E-01  0.61737143879E-01  0.51100000000E-03 0. -1.
         11    1    4    4    0    0  0.39385317908E-01 -0.31125851170E-01 -0.49345750154E-01  0.70393792745E-01  0.51100000000E-03 0.  1.
</event>
<event>
 8    1  0.1099921E+005  0.1043930E+01  0.7957747E-01            NaN
         13   -1    0    0    0    0  0.00000000000E+00  0.00000000000E+00  0.74505805969E-08  0.10566000000E+00  0.10566000000E+00 0.  1.
     999900   -1    0    0    0    0 -0.00000000000E+00 -0.00000000000E+00 -0.74505805969E-08  0.93827000000E+00  0.93827000000E+00 0.  1.
     999902    2    1    2    0    0 -0.20508591019E-01  0.11647683464E-01  0.38713971518E-02  0.10200289843E+01  0.10197489251E+01 0.  0.
     999903    2    3    3    0    0  0.48724967303E-01  0.62580084223E-02  0.11849442943E+00  0.12988249426E+00  0.20377620135E-01 0.  0.
         14    1    1    2    0    0  0.20508591019E-01 -0.11647683464E-01 -0.38713971518E-02  0.23901015702E-01  0.00000000000E+00 0.  1.
     999901    1    3    3    0    0 -0.69233558322E-01  0.53896750413E-02 -0.11462303228E+00  0.89014649004E+00  0.88000000000E+00 0. -1.
        -11    1    4    4    0    0  0.18041307938E-01 -0.66792720954E-02  0.34118465903E-01  0.39171830497E-01  0.51100000000E-03 0.  1.
         11    1    4    4    0    0  0.30683659365E-01  0.12937280518E-01  0.84375963524E-01  0.90710663766E-01  0.51100000000E-03 0. -1.
</event>
<event>
 8    1  0.1099921E+005  0.1043930E+01  0.7957747E-01            NaN
         13   -1    0    0    0    0  0.00000000000E+00  0.00000000000E+00  0.74505805969E-08  0.10566000000E+00  0.10566000000E+00 0.  1.
     999900   -1    0    0    0    0 -0.00000000000E+00 -0.00000000000E+00 -0.74505805969E-08  0.93827000000E+00  0.93827000000E+00 0. -1.
     999902    2    1    2    0    0  0.16087426076E-01  0.34763955944E-02  0.15528554657E-01  0.10213019949E+01  0.10210512907E+01 0.  0.
     999903    2    3    3    0    0 -0.53830211445E-01  0.10684152605E+00  0.51947644598E-01  0.13175200962E+00  0.18634132856E-01 0.  0.
         14    1    1    2    0    0 -0.16087426076E-01 -0.34763955944E-02 -0.15528554657E-01  0.22628005078E-01  0.00000000000E+00 0.  1.
     999901    1    3    3    0    0  0.69917637521E-01 -0.10336513046E+00 -0.36419089941E-01  0.88954998530E+00  0.88000000000E+00 0.  1.
        -11    1    4    4    0    0 -0.37661213965E-01  0.54287807087E-01  0.29460196000E-01  0.72344296977E-01  0.51100000000E-03 0.  1.
         11    1    4    4    0    0 -0.16168997480E-01  0.52553718966E-01  0.22487448597E-01  0.59407712648E-01  0.51100000000E-03 0. -1.
</event>
<event>
 8    1  0.1099921E+005  0.1043930E+01  0.7957747E-01            NaN
         13   -1    0    0    0    0  0.00000000000E+00  0.00000000000E+00  0.74505805969E-08  0.10566000000E+00  0.10566000000E+00 0.  1.
     999900   -1    0    0    0    0 -0.00000000000E+00 -0.00000000000E+00 -0.74505805969E-08  0.93827000000E+00  0.93827000000E+00 0.  1.
     999902    2    1    2    0    0 -0.12502131321E-01 -0.72384944951E-03  0.19607800893E-01  0.10206642934E+01  0.10203990919E+01 0.  0.
     999903    2    3    3    0    0  0.99686673863E-01  0.19275307934E-01 -0.75692333250E-01  0.12821350496E+00  0.20010074936E-01 0.  0.
         14    1    1    2    0    0  0.12502131321E-01  0.72384944951E-03 -0.19607800893E-01  0.23265706554E-01  0.00000000000E+00 0. -1.
     999901    1    3    3    0    0 -0.11218880518E+00 -0.19999157384E-01  0.95300134143E-01  0.89245078849E+00  0.88000000000E+00 0. -1.
        -11    1    4    4    0    0  0.60201903386E-01  0.17217973342E-01 -0.56151639009E-01  0.84107047634E-01  0.51100000000E-03 0.  1.
         11    1    4    4    0    0  0.39484770477E-01  0.20573345920E-02 -0.19540694241E-01  0.44106457324E-01  0.51100000000E-03 0. -1.
</event>
<event>
 8    1  0.1099921E+005  0.1043930E+01  0.7957747E-01            NaN
         13   -1    0    0    0    0  0.00000000000E+00  0.00000000000E+00  0.74505805969E-08  0.10566000000E+00  0.10566000000E+00 0. -1.
     999900   -1    0    0    0    0 -0.00000000000E+00 -0.00000000000E+00 -0.74505805969E-08  0.93827000000E+00  0.93827000000E+00 0. -1.
     999902    2    1    2    0    0  0.10863119512E-01  0.20851006285E-01 -0.34749343922E-02  0.10201634900E+01  0.10198866110E+01 0.  0.
     999903    2    3    3    0    0  0.84339024112E-01 -0.75452154389E-01  0.59832836565E-01  0.12961260365E+00  0.20331259268E-01 0.  0.
         14    1    1    2    0    0 -0.10863119512E-01 -0.20851006285E-01  0.34749343922E-02  0.23766510001E-01  0.00000000000E+00 0. -1.
     999901    1    3    3    0    0 -0.73475904601E-01  0.96303160674E-01 -0.63307770957E-01  0.89055088635E+00  0.88000000000E+00 0. -1.
        -11    1    4    4    0    0  0.33957003059E-01 -0.17748893601E-01  0.21797110958E-01  0.44084877769E-01  0.51100000000E-03 0. -1.
         11    1    4    4    0    0  0.50382021054E-01 -0.57703260787E-01  0.38035725606E-01  0.85527725881E-01  0.51100000000E-03 0.  1.
</event>
<event>
 8    1  0.1099921E+005  0.1043930E+01  0.7957747E-01            NaN
         13   -1    0    0    0    0  0.00000000000E+00  0.00000000000E+00  0.74505805969E-08  0.10566000000E+00  0.10566000000E+00 0. -1.
     999900   -1    0    0    0    0 -0.00000000000E+00 -0.00000000000E+00 -0.74505805969E-08  0.93827000000E+00  0.93827000000E+00 0. -1.
     999902    2    1    2    0    0 -0.18130901621E-01  0.15471152481E-01 -0.21981452440E-02  0.10199942946E+01  0.10197134122E+01 0.  0.
     999903    2    3    3    0    0  0.88719185441E-01  0.56186101929E-02 -0.91398747419E-01  0.12900004029E+00  0.19611647570E-01 0.  0.
         14    1    1    2    0    0  0.18130901621E-01 -0.15471152481E-01  0.21981452440E-02  0.23935705446E-01  0.00000000000E+00 0.  1.
     999901    1    3    3    0    0 -0.10685008706E+00  0.98525422882E-02  0.89200602175E-01  0.89099425426E+00  0.88000000000E+00 0.  1.
        -11    1    4    4    0    0  0.50165149494E-01  0.11731232761E-01 -0.58447178220E-01  0.77913399417E-01  0.51100000000E-03 0. -1.
         11    1    4    4    0    0  0.38554035947E-01 -0.61126225681E-02 -0.32951569199E-01  0.51086640877E-01  0.51100000000E-03 0.  1.
</event>
<event>
 7    1  0.1099921E+005  0.1043930E+01  0.7957747E-01            NaN
         13   -1    0    0    0    0  0.00000000000E+00  0.00000000000E+00  0.74505805969E-08  0.10566000000E+00  0.10566000000E+00 0.  1.
     999900   -1    0    0    0    0 -0.00000000000E+00 -0.00000000000E+00 -0.74505805969E-08  0.93827000000E+00  0.93827000000E+00 0.  1.
     999902    2    1    2    0    0  0.52586832210E-02 -0.13579524009E-01 -0.20008819388E-01  0.10191830795E+01  0.10188825935E+01 0.  0.
         14    1    1    2    0    0 -0.52586832210E-02  0.13579524009E-01  0.20008819388E-01  0.24746920512E-01  0.00000000000E+00 0.  1.
     999901    1    3    3    0    0 -0.11013042257E+00  0.34217795563E-01 -0.24364419720E-01  0.88785876830E+00  0.88000000000E+00 0.  1.
        -11    1    3    3    0    0  0.34326633588E-01 -0.29193868806E-01 -0.11831664848E-01  0.46592372374E-01  0.51100000000E-03 0. -1.
         11    1    3    3    0    0  0.81062472198E-01 -0.18603450767E-01  0.16187265180E-01  0.84731938809E-01  0.51100000000E-03 0.  1.
</event>
<event>
 8    1  0.1199285E+005  0.1043930E+01  0.7957747E-01            NaN
         13   -1    0    0    0    0  0.00000000000E+00  0.00000000000E+00  0.74505805969E-08  0.10566000000E+00  0.10566000000E+00 0. -1.
     999900   -1    0    0    0    0 -0.00000000000E+00 -0.00000000000E+00 -0.74505805969E-08  0.93827000000E+00  0.93827000000E+00 0.  1.
     999902    2    1    2    0    0 -0.10029565828E-01  0.42228345429E-02  0.21260220682E-01  0.10200465014E+01  0.10197668574E+01 0.  0.
     999903    2    3    3    0    0 -0.50856195119E-01  0.18884871606E-01  0.12128181745E+00  0.13331874790E+00  0.11028070611E-01 0.  0.
         14    1    1    2    0    0  0.10029565828E-01 -0.42228345429E-02 -0.21260220682E-01  0.23883498607E-01  0.00000000000E+00 0.  1.
     999901    1    3    3    0    0  0.40826629292E-01 -0.14662037063E-01 -0.10002159677E+00  0.88672775349E+00  0.88000000000E+00 0.  1.
        -11    1    4    4    0    0 -0.20412142442E-01  0.10148178823E-01  0.62762012046E-01  0.66775537209E-01  0.51100000000E-03 0.  1.
         11    1    4    4    0    0 -0.30444052677E-01  0.87366927832E-02  0.58519805402E-01  0.66543210694E-01  0.51100000000E-03 0. -1.
</event>
<event>
 8    1  0.1099921E+005  0.1043930E+01  0.7957747E-01            NaN
         13   -1    0    0    0    0  0.00000000000E+00  0.00000000000E+00  0.74505805969E-08  0.10566000000E+00  0.10566000000E+00 0. -1.
     999900   -1    0    0    0    0 -0.00000000000E+00 -0.00000000000E+00 -0.74505805969E-08  0.93827000000E+00  0.93827000000E+00 0. -1.
     999902    2    1    2    0    0  0.69946404286E-02 -0.22668841711E-01 -0.46169131359E-02  0.10197614819E+01  0.10194750427E+01 0.  0.
     999903    2    3    3    0    0  0.93546911475E-01  0.86189229091E-01 -0.57170410284E-02  0.12883915900E+00  0.19678325014E-01 0.  0.
         14    1    1    2    0    0 -0.69946404286E-02  0.22668841711E-01  0.46169131359E-02  0.24168518079E-01  0.00000000000E+00 0.  1.
     999901    1    3    3    0    0 -0.86552271046E-01 -0.10885807080E+00  0.11001278924E-02  0.89092232292E+00  0.88000000000E+00 0.  1.
        -11    1    4    4    0    0  0.62903983191E-01  0.52903092412E-01  0.49821085567E-02  0.82345193027E-01  0.51100000000E-03 0.  1.
         11    1    4    4    0    0  0.30642928284E-01  0.33286136679E-01 -0.10699149585E-01  0.46493965971E-01  0.51100000000E-03 0. -1.
</event>
<event>
 8    1  0.1099921E+005  0.1043930E+01  0.7957747E-01            NaN
         13   -1    0    0    0    0  0.00000000000E+00  0.00000000000E+00  0.74505805969E-08  0.10566000000E+00  0.10566000000E+00 0.  1.
     999900   -1    0    0    0    0 -0.00000000000E+00 -0.00000000000E+00 -0.74505805969E-08  0.93827000000E+00  0.93827000000E+00 0. -1.
     999902    2    1    2    0    0  0.21136711802E-01 -0.43611080145E-02  0.95657918889E-02  0.10203231319E+01  0.10200500033E+01 0.  0.
     999903    2    3    3    0    0  0.25677040392E-01 -0.30537472324E-01 -0.12221277814E+00  0.13011450005E+00  0.20049248419E-01 0.  0.
         14    1    1    2    0    0 -0.21136711802E-01  0.43611080145E-02 -0.95657918889E-02  0.23606868140E-01  0.00000000000E+00 0.  1.
     999901    1    3    3    0    0 -0.45403285903E-02  0.26176364310E-01  0.13177857003E+00  0.89020863181E+00  0.88000000000E+00 0.  1.
        -11    1    4    4    0    0  0.17812204880E-01 -0.72945203350E-02 -0.41430049097E-01  0.45685826673E-01  0.51100000000E-03 0. -1.
         11    1    4    4    0    0  0.78648355119E-02 -0.23242951989E-01 -0.80782729047E-01  0.84428673376E-01  0.51100000000E-03 0.  1.
</event>
<event>
 8    1  0.1099921E+005  0.1043930E+01  0.7957747E-01            NaN
         13   -1    0    0    0    0  0.00000000000E+00  0.00000000000E+00  0.74505805969E-08  0.10566000000E+00  0.10566000000E+00 0. -1.
     999900   -1    0    0    0    0 -0.00000000000E+00 -0.00000000000E+00 -0.74505805969E-08  0.93827000000E+00  0.93827000000E+00 0. -1.
     999902    2    1    2    0    0 -0.19577088290E-01  0.30440875453E-02  0.14057630207E-01  0.10196370829E+01  0.10193476517E+01 0.  0.
     999903    2    3    3    0    0 -0.77088534032E-01 -0.94804188213E-01  0.44488953759E-01  0.13182633903E+00  0.21643485676E-01 0.  0.
         14    1    1    2    0    0  0.19577088290E-01 -0.30440875453E-02 -0.14057630207E-01  0.24292917114E-01  0.00000000000E+00 0.  1.
     999901    1    3    3    0    0  0.57511445742E-01  0.97848275759E-01 -0.30431323553E-01  0.88781074386E+00  0.88000000000E+00 0. -1.
        -11    1    4    4    0    0 -0.65531078819E-01 -0.79665441660E-01  0.45503498300E-01  0.11274632750E+00  0.51100000000E-03 0.  1.
         11    1    4    4    0    0 -0.11557455213E-01 -0.15138746553E-01 -0.10145445404E-02  0.19080011526E-01  0.51100000000E-03 0. -1.
</event>
<event>
 8    1  0.1099921E+005  0.1043930E+01  0.7957747E-01            NaN
         13   -1    0    0    0    0  0.00000000000E+00  0.00000000000E+00  0.74505805969E-08  0.10566000000E+00  0.10566000000E+00 0.  1.
     999900   -1    0    0    0    0 -0.00000000000E+00 -0.00000000000E+00 -0.74505805969E-08  0.93827000000E+00  0.93827000000E+00 0.  1.
     999902    2    1    2    0    0  0.22878920718E-01  0.51139433997E-02  0.46444932944E-02  0.10200308630E+01  0.10197508484E+01 0.  0.
     999903    2    3    3    0    0 -0.24455493797E-01  0.37908317838E-01  0.12037409273E+00  0.13058757760E+00  0.22980023646E-01 0.  0.
         14    1    1    2    0    0 -0.22878920718E-01 -0.51139433997E-02 -0.46444932944E-02  0.23899136978E-01  0.00000000000E+00 0. -1.
     999901    1    3    3    0    0  0.47334414515E-01 -0.32794374438E-01 -0.11572959943E+00  0.88944328542E+00  0.88000000000E+00 0.  1.
        -11    1    4    4    0    0 -0.73492044870E-02  0.61002768704E-02  0.55659855949E-01  0.56475701587E-01  0.51100000000E-03 0. -1.
         11    1    4    4    0    0 -0.17106289310E-01  0.31808040968E-01  0.64714236776E-01  0.74111876017E-01  0.51100000000E-03 0.  1.
</event>
<event>
 8    1  0.1099921E+005  0.1043930E+01  0.7957747E-01            NaN
         13   -1    0    0    0    0  0.00000000000E+00  0.00000000000E+00  0.74505805969E-08  0.10566000000E+00  0.10566000000E+00 0. -1.
     999900   -1    0    0    0    0 -0.00000000000E+00 -0.00000000000E+00 -0.74505805969E-08  0.93827000000E+00  0.93827000000E+00 0.  1.
     999902    2    1    2    0    0  0.17671676194E-02  0.21238977055E-01  0.58112979354E-02  0.10218395448E+01  0.10216007376E+01 0.  0.
     999903    2    3    3    0    0  0.92769582508E-01 -0.56975673747E-01 -0.69278230343E-01  0.13052736134E+00  0.19634052566E-01 0.  0.
         14    1    1    2    0    0 -0.17671676194E-02 -0.21238977055E-01 -0.58112979354E-02  0.22090455211E-01  0.00000000000E+00 0. -1.
     999901    1    3    3    0    0 -0.91002414889E-01  0.78214650801E-01  0.75089528278E-01  0.89131218345E+00  0.88000000000E+00 0.  1.
        -11    1    4    4    0    0  0.37643780682E-01 -0.15636138141E-01 -0.34173150290E-01  0.53194063219E-01  0.51100000000E-03 0.  1.
         11    1    4    4    0    0  0.55125801826E-01 -0.41339535606E-01 -0.35105080053E-01  0.77333298116E-01  0.51100000000E-03 0. -1.
</event>
<event>
 8    1  0.1099921E+005  0.1043930E+01  0.7957747E-01            NaN
         13   -1    0    0    0    0  0.00000000000E+00  0.00000000000E+00  0.74505805969E-08  0.10566000000E+00  0.10566000000E+00 0. -1.
     999900   -1    0    0    0    0 -0.00000000000E+00 -0.00000000000E+00 -0.74505805969E-08  0.93827000000E+00  0.93827000000E+00 0.  1.
     999902    2    1    2    0    0 -0.19163185116E-01 -0.12530846689E-01  0.69661419835E-02  0.10199972418E+01  0.10197164294E+01 0.  0.
     999903    2    3    3    0    0 -0.31703716805E-01 -0.12604279456E+00 -0.18758794930E-01  0.13224502430E+00  0.15650633985E-01 0.  0.
         14    1    1    2    0    0  0.19163185116E-01  0.12530846689E-01 -0.69661419835E-02  0.23932758233E-01  0.00000000000E+00 0.  1.
     999901    1    3    3    0    0  0.12540531689E-01  0.11351194787E+00  0.25724936913E-01  0.88775221747E+00  0.88000000000E+00 0.  1.
        -11    1    4    4    0    0 -0.18088733821E-01 -0.42064505987E-01 -0.81190254556E-02  0.46505963601E-01  0.51100000000E-03 0.  1.
         11    1    4    4    0    0 -0.13614982984E-01 -0.83978288573E-01 -0.10639769474E-01  0.85739060695E-01  0.51100000000E-03 0. -1.
</event>
<event>
 8    1  0.1099921E+005  0.1043930E+01  0.7957747E-01            NaN
         13   -1    0    0    0    0  0.00000000000E+00  0.00000000000E+00  0.74505805969E-08  0.10566000000E+00  0.10566000000E+00 0. -1.
     999900   -1    0    0    0    0 -0.00000000000E+00 -0.00000000000E+00 -0.74505805969E-08  0.93827000000E+00  0.93827000000E+00 0. -1.
     999902    2    1    2    0    0 -0.60672052874E-02 -0.60764887051E-02 -0.20086904530E-01  0.10220846703E+01  0.10218511902E+01 0.  0.
     999903    2    3    3    0    0  0.16943992737E-01 -0.10951490218E+00  0.67747695909E-01  0.13138610310E+00  0.19797603338E-01 0.  0.
         14    1    1    2    0    0  0.60672052874E-02  0.60764887051E-02  0.20086904530E-01  0.21845329674E-01  0.00000000000E+00 0. -1.
     999901    1    3    3    0    0 -0.23011198025E-01  0.10343841348E+00 -0.87834600438E-01  0.89069856722E+00  0.88000000000E+00 0.  1.
        -11    1    4    4    0    0 -0.45337363832E-02 -0.19312614366E-01  0.11590715239E-01  0.22981245397E-01  0.51100000000E-03 0.  1.
         11    1    4    4    0    0  0.21477729121E-01 -0.90202287817E-01  0.56156980669E-01  0.10840485771E+00  0.51100000000E-03 0. -1.
</event>
<event>
 8    1  0.1099921E+005  0.1043930E+01  0.7957747E-01            NaN
         13   -1    0    0    0    0  0.00000000000E+00  0.00000000000E+00  0.74505805969E-08  0.10566000000E+00  0.10566000000E+00 0. -1.
     999900   -1    0    0    0    0 -0.00000000000E+00 -0.00000000000E+00 -0.74505805969E-08  0.93827000000E+00  0.93827000000E+00 0.  1.
     999902    2    1    2    0    0 -0.14930843102E-01  0.16069700797E-01 -0.76392704463E-02  0.10207023481E+01  0.10204380234E+01 0.  0.
     999903    2    3    3    0    0  0.11525287731E+00 -0.39764862659E-01 -0.37748307501E-01  0.12886612231E+00  0.17806536107E-01 0.  0.
         14    1    1    2    0    0  0.14930843102E-01 -0.16069700797E-01  0.76392704463E-02  0.23227651891E-01  0.00000000000E+00 0. -1.
     999901    1    3    3    0    0 -0.13018372042E+00  0.55834563456E-01  0.30109037055E-01  0.89183622580E+00  0.88000000000E+00 0.  1.
        -11    1    4    4    0    0  0.43761617140E-01 -0.22943724248E-01 -0.10416652954E-01  0.50500112839E-01  0.51100000000E-03 0.  1.
         11    1    4    4    0    0  0.71491260174E-01 -0.16821138411E-01 -0.27331654548E-01  0.78366009469E-01  0.51100000000E-03 0. -1.
</event>
<event>
 8    1  0.1099921E+005  0.1043930E+01  0.7957747E-01            NaN
         13   -1    0    0    0    0  0.00000000000E+00  0.00000000000E+00  0.74505805969E-08  0.10566000000E+00  0.10566000000E+00 0. -1.
     999900   -1    0    0    0    0 -0.00000000000E+00 -0.00000000000E+00 -0.74505805969E-08  0.93827000000E+00  0.93827000000E+00 0. -1.
     999902    2    1    2    0    0  0.28326239755E-03  0.50391563981E-02  0.23102869003E-01  0.10202822540E+01  0.10200081676E+01 0.  0.
     999903    2    3    3    0    0 -0.17354411926E-01 -0.12308204666E+00  0.35467192719E-01  0.13074360575E+00  0.19636773194E-01 0.  0.
         14    1    1    2    0    0 -0.28326239755E-03 -0.50391563981E-02 -0.23102869003E-01  0.23647746002E-01  0.00000000000E+00 0.  1.
     999901    1    3    3    0    0  0.17637674324E-01  0.12812120306E+00 -0.12364323716E-01  0.88953864825E+00  0.88000000000E+00 0.  1.
        -11    1    4    4    0    0 -0.16196115220E-01 -0.10408530429E+00  0.22519770089E-01  0.10771938490E+00  0.51100000000E-03 0.  1.
         11    1    4    4    0    0 -0.11582967059E-02 -0.18996742371E-01  0.12947422630E-01  0.23024220849E-01  0.51100000000E-03 0. -1.
</event>
<event>
 8    1  0.1099921E+005  0.1043930E+01  0.7957747E-01            NaN
         13   -1    0    0    0    0  0.00000000000E+00  0.00000000000E+00  0.74505805969E-08  0.10566000000E+00  0.10566000000E+00 0.  1.
     999900   -1    0    0    0    0 -0.00000000000E+00 -0.00000000000E+00 -0.74505805969E-08  0.93827000000E+00  0.93827000000E+00 0.  1.
     999902    2    1    2    0    0  0.20932695638E-01  0.10137634294E-01 -0.38306871829E-02  0.10203583318E+01  0.10200860267E+01 0.  0.
     999903    2    3    3    0    0  0.85972843069E-01  0.60657226096E-01 -0.79280220034E-01  0.13329853569E+00  0.20310526945E-01 0.  0.
         14    1    1    2    0    0 -0.20932695638E-01 -0.10137634294E-01  0.38306871829E-02  0.23571668164E-01  0.00000000000E+00 0. -1.
     999901    1    3    3    0    0 -0.65040147431E-01 -0.50519591802E-01  0.75449532851E-01  0.88705979615E+00  0.88000000000E+00 0. -1.
        -11    1    4    4    0    0  0.10751208752E-01  0.14055907147E-01 -0.69840772370E-02  0.19031433766E-01  0.51100000000E-03 0.  1.
         11    1    4    4    0    0  0.75221634318E-01  0.46601318949E-01 -0.72296142797E-01  0.11426710192E+00  0.51100000000E-03 0. -1.
</event>
<event>
 8    1  0.1099921E+005  0.1043930E+01  0.7957747E-01            NaN
         13   -1    0    0    0    0  0.00000000000E+00  0.00000000000E+00  0.74505805969E-08  0.10566000000E+00  0.10566000000E+00 0. -1.
     999900   -1    0    0    0    0 -0.00000000000E+00 -0.00000000000E+00 -0.74505805969E-08  0.93827000000E+00  0.93827000000E+00 0.  1.
     999902    2    1    2    0    0 -0.19829835240E-01  0.13955651977E-01 -0.42067461681E-02  0.10193194474E+01  0.10190223042E+01 0.  0.
     999903    2    3    3    0    0  0.72547288681E-01  0.37372054572E-01  0.97209011782E-01  0.12838341324E+00  0.19311376603E-01 0.  0.
         14    1    1    2    0    0  0.19829835240E-01 -0.13955651977E-01  0.42067461681E-02  0.24610552636E-01  0.00000000000E+00 0. -1.
     999901    1    3    3    0    0 -0.92377123920E-01 -0.23416402595E-01 -0.10141575795E+00  0.89093603412E+00  0.88000000000E+00 0. -1.
        -11    1    4    4    0    0  0.59486956810E-01  0.21481242872E-01  0.74967723601E-01  0.98084466297E-01  0.51100000000E-03 0. -1.
         11    1    4    4    0    0  0.13060331871E-01  0.15890811700E-01  0.22241288182E-01  0.30298946946E-01  0.51100000000E-03 0.  1.
</event>
<event>
 8    1  0.1099921E+005  0.1043930E+01  0.7957747E-01            NaN
         13   -1    0    0    0    0  0.00000000000E+00  0.00000000000E+00  0.74505805969E-08  0.10566000000E+00  0.10566000000E+00 0. -1.
     999900   -1    0    0    0    0 -0.00000000000E+00 -0.00000000000E+00 -0.74505805969E-08  0.93827000000E+00  0.93827000000E+00 0.  1.
     999902    2    1    2    0    0 -0.12393782644E-01  0.40824764105E-02 -0.19758702928E-01  0.10202513429E+01  0.10199765310E+01 0.  0.
     999903    2    3    3    0    0  0.52168346201E-01 -0.25190712654E-01 -0.11718059232E+00  0.13204178843E+00  0.18644954430E-01 0.  0.
         14    1    1    2    0    0  0.12393782644E-01 -0.40824764105E-02  0.19758702928E-01  0.23678657126E-01  0.00000000000E+00 0. -1.
     999901    1    3    3    0    0 -0.64562128845E-01  0.29273189064E-01  0.97421889390E-01  0.88820955445E+00  0.88000000000E+00 0. -1.
        -11    1    4    4    0    0  0.38849433356E-01 -0.11981954725E-01 -0.65872840608E-01  0.77410192881E-01  0.51100000000E-03 0. -1.
         11    1    4    4    0    0  0.13318912846E-01 -0.13208757929E-01 -0.51307751710E-01  0.54631595546E-01  0.51100000000E-03 0.  1.
</event>
<event>
 8    1  0.1099921E+005  0.1043930E+01  0.7957747E-01            NaN
         13   -1    0    0    0    0  0.00000000000E+00  0.00000000000E+00  0.74505805969E-08  0.10566000000E+00  0.10566000000E+00 0.  1.
     999900   -1    0    0    0    0 -0.00000000000E+00 -0.00000000000E+00 -0.74505805969E-08  0.93827000000E+00  0.93827000000E+00 0.  1.
     999902    2    1    2    0    0  0.24167815303E-01 -0.94878009413E-02 -0.51274258648E-02  0.10174650768E+01  0.10171208337E+01 0.  0.
     999903    2    3    3    0    0 -0.96542295293E-01 -0.76626705113E-01  0.19650246142E-01  0.12634639994E+00  0.19626866439E-01 0.  0.
         14    1    1    2    0    0 -0.24167815303E-01  0.94878009413E-02  0.51274258648E-02  0.26464923185E-01  0.00000000000E+00 0. -1.
     999901    1    3    3    0    0  0.12071011060E+00  0.67138904172E-01 -0.24777672006E-01  0.89111867688E+00  0.88000000000E+00 0.  1.
        -11    1    4    4    0    0 -0.76173754102E-01 -0.51549737311E-01  0.19559599213E-01  0.94035393726E-01  0.51100000000E-03 0. -1.
         11    1    4    4    0    0 -0.20368541191E-01 -0.25076967801E-01  0.90646929115E-04  0.32311006209E-01  0.51100000000E-03 0.  1.
</event>
<event>
 8    1  0.1099921E+005  0.1043930E+01  0.7957747E-01            NaN
         13   -1    0    0    0    0  0.00000000000E+00  0.00000000000E+00  0.74505805969E-08  0.10566000000E+00  0.10566000000E+00 0.  1.
     999900   -1    0    0    0    0 -0.00000000000E+00 -0.00000000000E+00 -0.74505805969E-08  0.93827000000E+00  0.93827000000E+00 0.  1.
     999902    2    1    2    0    0  0.24134955199E-01  0.37994691745E-02 -0.26696687664E-02  0.10193523850E+01  0.10190560464E+01 0.  0.
     999903    2    3    3    0    0 -0.64827464904E-01 -0.89781099665E-01  0.59809279679E-01  0.12773853693E+00  0.21834326579E-01 0.  0.
         14    1    1    2    0    0 -0.24134955199E-01 -0.37994691745E-02  0.26696687664E-02  0.24577615014E-01  0.00000000000E+00 0.  1.
     999901    1    3    3    0    0  0.88962420102E-01  0.93580568840E-01 -0.62478948445E-01  0.89161384806E+00  0.88000000000E+00 0.  1.
        -11    1    4    4    0    0 -0.45098262766E-01 -0.63495373646E-01  0.52900937727E-01  0.94150337824E-01  0.51100000000E-03 0.  1.
         11    1    4    4    0    0 -0.19729202138E-01 -0.26285726019E-01  0.69083419517E-02  0.33588199101E-01  0.51100000000E-03 0. -1.
</event>
<event>
 8    1  0.1099921E+005  0.1043930E+01  0.7957747E-01            NaN
         13   -1    0    0    0    0  0.00000000000E+00  0.00000000000E+00  0.74505805969E-08  0.10566000000E+00  0.10566000000E+00 0. -1.
     999900   -1    0    0    0    0 -0.00000000000E+00 -0.00000000000E+00 -0.74505805969E-08  0.93827000000E+00  0.93827000000E+00 0.  1.
     999902    2    1    2    0    0 -0.14650498753E-01 -0.16214261317E-01  0.10136247757E-01  0.10198409381E+01  0.10195564017E+01 0.  0.
     999903    2    3    3    0    0  0.14016463459E-01 -0.99320118214E-01 -0.81628985918E-01  0.13071258052E+00  0.19014211379E-01 0.  0.
         14    1    1    2    0    0  0.14650498753E-01  0.16214261317E-01 -0.10136247757E-01  0.24089061882E-01  0.00000000000E+00 0.  1.
     999901    1    3    3    0    0 -0.28666962212E-01  0.83105856898E-01  0.91765233674E-01  0.88912835760E+00  0.88000000000E+00 0. -1.
        -11    1    4    4    0    0 -0.36484155374E-03 -0.61310886263E-01 -0.45785842153E-01  0.76522953069E-01  0.51100000000E-03 0. -1.
         11    1    4    4    0    0  0.14381305013E-01 -0.38009231951E-01 -0.35843143765E-01  0.54189627451E-01  0.51100000000E-03 0.  1.
</event>
<event>
 8    1  0.1099921E+005  0.1043930E+01  0.7957747E-01            NaN
         13   -1    0    0    0    0  0.00000000000E+00  0.00000000000E+00  0.74505805969E-08  0.10566000000E+00  0.10566000000E+00 0.  1.
     999900   -1    0    0    0    0 -0.00000000000E+00 -0.00000000000E+00 -0.74505805969E-08  0.93827000000E+00  0.93827000000E+00 0.  1.
     999902    2    1    2    0    0  0.20693905731E-01  0.61002786246E-02  0.11438722020E-01  0.10195108375E+01  0.10192183536E+01 0.  0.
     999903    2    3    3    0    0 -0.98819938211E-01 -0.66369539743E-01  0.42760674657E-01  0.12792993926E+00  0.19165021982E-01 0.  0.
         14    1    1    2    0    0 -0.20693905731E-01 -0.61002786246E-02 -0.11438722020E-01  0.24419162458E-01  0.00000000000E+00 0. -1.
     999901    1    3    3    0    0  0.11951384394E+00  0.72469818368E-01 -0.31321952637E-01  0.89158089828E+00  0.88000000000E+00 0.  1.
        -11    1    4    4    0    0 -0.16736277160E-01 -0.19761097342E-01  0.12824424832E-01  0.28902092219E-01  0.51100000000E-03 0.  1.
         11    1    4    4    0    0 -0.82083661051E-01 -0.46608442401E-01  0.29936249825E-01  0.99027847039E-01  0.51100000000E-03 0. -1.
</event>
<event>
 8    1  0.1099921E+005  0.1043930E+01  0.7957747E-01            NaN
         13   -1    0    0    0    0  0.00000000000E+00  0.00000000000E+00  0.74505805969E-08  0.10566000000E+00  0.10566000000E+00 0. -1.
     999900   -1    0    0    0    0 -0.00000000000E+00 -0.00000000000E+00 -0.74505805969E-08  0.93827000000E+00  0.93827000000E+00 0. -1.
     999902    2    1    2    0    0  0.72676037771E-02 -0.20893148125E-01  0.17009956730E-01  0.10160251558E+01  0.10156418841E+01 0.  0.
     999903    2    3    3    0    0  0.11689523245E+00  0.46263368231E-02 -0.44342377051E-01  0.12673691795E+00  0.20250965543E-01 0.  0.
         14    1    1    2    0    0 -0.72676037771E-02  0.20893148125E-01 -0.17009956730E-01  0.27904844224E-01  0.00000000000E+00 0.  1.
     999901    1    3    3    0    0 -0.10962762868E+00 -0.25519484948E-01  0.61352333780E-01  0.88928823783E+00  0.88000000000E+00 0.  1.
        -11    1    4    4    0    0  0.29288513950E-02  0.15987066823E-03 -0.54911451995E-02  0.62464010219E-02  0.51100000000E-03 0. -1.
         11    1    4    4    0    0  0.11396638106E+00  0.44664661549E-02 -0.38851231851E-01  0.12049051692E+00  0.51100000000E-03 0.  1.
</event>
<event>
 8    1  0.1099921E+005  0.1043930E+01  0.7957747E-01            NaN
         13   -1    0    0    0    0  0.00000000000E+00  0.00000000000E+00  0.74505805969E-08  0.10566000000E+00  0.10566000000E+00 0. -1.
     999900   -1    0    0    0    0 -0.00000000000E+00 -0.00000000000E+00 -0.74505805969E-08  0.93827000000E+00  0.93827000000E+00 0.  1.
     999902    2    1    2    0    0 -0.20123516344E-02  0.13446748273E-01 -0.19552725725E-01  0.10201145915E+01  0.10198365585E+01 0.  0.
     999903    2    3    3    0    0 -0.95054555183E-01 -0.63915036017E-01 -0.60099544386E-01  0.13090947355E+00  0.20120505433E-01 0.  0.
         14    1    1    2    0    0  0.20123516344E-02 -0.13446748273E-01  0.19552725725E-01  0.23815408489E-01  0.00000000000E+00 0. -1.
     999901    1    3    3    0    0  0.93042203549E-01  0.77361784290E-01  0.40546818661E-01  0.88920511796E+00  0.88000000000E+00 0. -1.
        -11    1    4    4    0    0 -0.70044328578E-01 -0.43518825455E-01 -0.52475261523E-01  0.97744617897E-01  0.51100000000E-03 0.  1.
         11    1    4    4    0    0 -0.25010226605E-01 -0.20396210561E-01 -0.76242828631E-02  0.33164855650E-01  0.51100000000E-03 0. -1.
</event>
<event>
 8    1  0.1099921E+005  0.1043930E+01  0.7957747E-01            NaN
         13   -1    0    0    0    0  0.00000000000E+00  0.00000000000E+00  0.74505805969E-08  0.10566000000E+00  0.10566000000E+00 0. -1.
     999900   -1    0    0    0    0 -0.00000000000E+00 -0.00000000000E+00 -0.74505805969E-08  0.93827000000E+00  0.93827000000E+00 0. -1.
     999902    2    1    2    0    0 -0.20953658005E-02 -0.21448426654E-01  0.10719823996E-01  0.10198605133E+01  0.10195764446E+01 0.  0.
     999903    2    3    3    0    0  0.90586156023E-01  0.58972884545E-01 -0.65964674108E-01  0.12804328761E+00  0.18976103302E-01 0.  0.
         14    1    1    2    0    0  0.20953658005E-02  0.21448426654E-01 -0.10719823996E-01  0.24069486706E-01  0.00000000000E+00 0.  1.
     999901    1    3    3    0    0 -0.92681521824E-01 -0.80421311199E-01  0.76684498104E-01  0.89181722569E+00  0.88000000000E+00 0. -1.
        -11    1    4    4    0    0  0.21978771685E-01  0.14605525004E-01 -0.26146501778E-01  0.37152233334E-01  0.51100000000E-03 0.  1.
         11    1    4    4    0    0  0.68607384338E-01  0.44367359540E-01 -0.39818172330E-01  0.90891054274E-01  0.51100000000E-03 0. -1.
</event>
<event>
 8    1  0.1099921E+005  0.1043930E+01  0.7957747E-01            NaN
         13   -1    0    0    0    0  0.00000000000E+00  0.00000000000E+00  0.74505805969E-08  0.10566000000E+00  0.10566000000E+00 0. -1.
     999900   -1    0    0    0    0 -0.00000000000E+00 -0.00000000000E+00 -0.74505805969E-08  0.93827000000E+00  0.93827000000E+00 0.  1.
     999902    2    1    2    0    0 -0.30615261406E-02  0.21597610761E-01  0.90450798953E-02  0.10203155298E+01  0.10200422232E+01 0.  0.
     999903    2    3    3    0    0  0.24650036502E-01 -0.45901798616E-01 -0.11561762801E+00  0.12853927326E+00  0.20983551836E-01 0.  0.
         14    1    1    2    0    0  0.30615261406E-02 -0.21597610761E-01 -0.90450798953E-02  0.23614470208E-01  0.00000000000E+00 0.  1.
     999901    1    3    3    0    0 -0.27711562642E-01  0.67499409377E-01  0.12466270791E+00  0.89177625653E+00  0.88000000000E+00 0. -1.
        -11    1    4    4    0    0  0.82427594429E-02 -0.16063376740E-01 -0.65507882549E-01  0.67952328529E-01  0.51100000000E-03 0.  1.
         11    1    4    4    0    0  0.16407277059E-01 -0.29838421876E-01 -0.50109745463E-01  0.60586944731E-01  0.51100000000E-03 0. -1.
</event>
<event>
 8    1  0.1099921E+005  0.1043930E+01  0.7957747E-01            NaN
         13   -1    0    0    0    0  0.00000000000E+00  0.00000000000E+00  0.74505805969E-08  0.10566000000E+00  0.10566000000E+00 0.  1.
     999900   -1    0    0    0    0 -0.00000000000E+00 -0.00000000000E+00 -0.74505805969E-08  0.93827000000E+00  0.93827000000E+00 0. -1.
     999902    2    1    2    0    0  0.44204259510E-02 -0.18138368423E-01 -0.16637895869E-01  0.10189227980E+01  0.10186158786E+01 0.  0.
     999903    2    3    3    0    0 -0.34884239668E-01  0.12033447828E+00 -0.11881639267E-01  0.12721533025E+00  0.18581443931E-01 0.  0.
         14    1    1    2    0    0 -0.44204259510E-02  0.18138368423E-01  0.16637895869E-01  0.25007202034E-01  0.00000000000E+00 0.  1.
     999901    1    3    3    0    0  0.39304665619E-01 -0.13847284670E+00 -0.47562566013E-02  0.89170746772E+00  0.88000000000E+00 0.  1.
        -11    1    4    4    0    0 -0.36710009279E-01  0.11556862624E+00 -0.13033507265E-01  0.12195845844E+00  0.51100000000E-03 0.  1.
         11    1    4    4    0    0  0.18257696111E-02  0.47658520403E-02  0.11518679975E-02  0.52568718100E-02  0.51100000000E-03 0. -1.
</event>
<event>
 8    1  0.1099921E+005  0.1043930E+01  0.7957747E-01            NaN
         13   -1    0    0    0    0  0.00000000000E+00  0.00000000000E+00  0.74505805969E-08  0.10566000000E+00  0.10566000000E+00 0.  1.
     999900   -1    0    0    0    0 -0.00000000000E+00 -0.00000000000E+00 -0.74505805969E-08  0.93827000000E+00  0.93827000000E+00 0. -1.
     999902    2    1    2    0    0 -0.20944634302E-01  0.83116922840E-02  0.18156962886E-02  0.10213233928E+01  0.10210731678E+01 0.  0.
     999903    2    3    3    0    0  0.10588609955E+00  0.70993379849E-01  0.14708139082E-01  0.12993052541E+00  0.20339272786E-01 0.  0.
         14    1    1    2    0    0  0.20944634302E-01 -0.83116922840E-02 -0.18156962886E-02  0.22606607169E-01  0.00000000000E+00 0. -1.
     999901    1    3    3    0    0 -0.12683073385E+00 -0.62681687565E-01 -0.12892442794E-01  0.89139286742E+00  0.88000000000E+00 0. -1.
        -11    1    4    4    0    0  0.74397978687E-01  0.54056217095E-01  0.20138161742E-02  0.91986142521E-01  0.51100000000E-03 0. -1.
         11    1    4    4    0    0  0.31488120866E-01  0.16937162754E-01  0.12694322908E-01  0.37944382890E-01  0.51100000000E-03 0.  1.
</event>
<event>
 8    1  0.1099921E+005  0.1043930E+01  0.7957747E-01            NaN
         13   -1    0    0    0    0  0.00000000000E+00  0.00000000000E+00  0.74505805969E-08  0.10566000000E+00  0.10566000000E+00 0. -1.
     999900   -1    0    0    0    0 -0.00000000000E+00 -0.00000000000E+00 -0.74505805969E-08  0.93827000000E+00  0.93827000000E+00 0. -1.
     999902    2    1    2    0    0 -0.15770179473E-01 -0.36145420453E-02 -0.16562552459E-01  0.10207765636E+01  0.10205139446E+01 0.  0.
     999903    2    3    3    0    0  0.64481771395E-01 -0.10752192898E+00 -0.30822530046E-01  0.13092238021E+00  0.21720433400E-01 0.  0.
         14    1    1    2    0    0  0.15770179473E-01  0.36145420453E-02  0.16562552459E-01  0.23153436435E-01  0.00000000000E+00 0. -1.
     999901    1    3    3    0    0 -0.80251950868E-01  0.10390738693E+00  0.14259977587E-01  0.88985418336E+00  0.88000000000E+00 0. -1.
        -11    1    4    4    0    0  0.42924612644E-01 -0.87027157419E-01 -0.28224641729E-01  0.10106008124E+00  0.51100000000E-03 0. -1.
         11    1    4    4    0    0  0.21557158752E-01 -0.20494771560E-01 -0.25978883166E-02  0.29862298965E-01  0.51100000000E-03 0.  1.
</event>
<event>
 8    1  0.1099921E+005  0.1043930E+01  0.7957747E-01            NaN
         13   -1    0    0    0    0  0.00000000000E+00  0.00000000000E+00  0.74505805969E-08  0.10566000000E+00  0.10566000000E+00 0.  1.
     999900   -1    0    0    0    0 -0.00000000000E+00 -0.00000000000E+00 -0.74505805969E-08  0.93827000000E+00  0.93827000000E+00 0.  1.
     999902    2    1    2    0    0 -0.80031309241E-02 -0.45319196911E-02 -0.21270927713E-01  0.10207558600E+01  0.10204927657E+01 0.  0.
     999903    2    3    3    0    0 -0.10002845829E+00 -0.51640959439E-01  0.62847217647E-01  0.13072002648E+00  0.21574786170E-01 0.  0.
         14    1    1    2    0    0  0.80031309241E-02  0.45319196911E-02  0.21270927713E-01  0.23174140037E-01  0.00000000000E+00 0.  1.
     999901    1    3    3    0    0  0.92025327363E-01  0.47109039748E-01 -0.84118145360E-01  0.89003583348E+00  0.88000000000E+00 0.  1.
        -11    1    4    4    0    0 -0.73741477307E-01 -0.48119053907E-01  0.46826875140E-01  0.99730969016E-01  0.51100000000E-03 0. -1.
         11    1    4    4    0    0 -0.26286980980E-01 -0.35219055325E-02  0.16020342507E-01  0.30989057466E-01  0.51100000000E-03 0.  1.
</event>
<event>
 8    1  0.1099921E+005  0.1043930E+01  0.7957747E-01            NaN
         13   -1    0    0    0    0  0.00000000000E+00  0.00000000000E+00  0.74505805969E-08  0.10566000000E+00  0.10566000000E+00 0.  1.
     999900   -1    0    0    0    0 -0.00000000000E+00 -0.00000000000E+00 -0.74505805969E-08  0.93827000000E+00  0.93827000000E+00 0.  1.
     999902    2    1    2    0    0 -0.20295984845E-01 -0.76125301596E-02 -0.31139752626E-03  0.10222511028E+01  0.10220212045E+01 0.  0.
     999903    2    3    3    0    0  0.96647278809E-01 -0.37885782812E-01  0.77474302423E-01  0.13059937040E+00  0.16670302101E-01 0.  0.
         14    1    1    2    0    0  0.20295984845E-01  0.76125301596E-02  0.31139752626E-03  0.21678897220E-01  0.00000000000E+00 0. -1.
     999901    1    3    3    0    0 -0.11694326365E+00  0.30273252652E-01 -0.77785699949E-01  0.89165173238E+00  0.88000000000E+00 0.  1.
        -11    1    4    4    0    0  0.13590625624E-01 -0.11727579273E-01  0.15432392465E-01  0.23678282849E-01  0.51100000000E-03 0. -1.
         11    1    4    4    0    0  0.83056653185E-01 -0.26158203539E-01  0.62041909958E-01  0.10692108755E+00  0.51100000000E-03 0.  1.
</event>
<event>
 8    1  0.1099921E+005  0.1043930E+01  0.7957747E-01            NaN
         13   -1    0    0    0    0  0.00000000000E+00  0.00000000000E+00  0.74505805969E-08  0.10566000000E+00  0.10566000000E+00 0.  1.
     999900   -1    0    0    0    0 -0.00000000000E+00 -0.00000000000E+00 -0.74505805969E-08  0.93827000000E+00  0.93827000000E+00 0.  1.
     999902    2    1    2    0    0 -0.22191904270E-01 -0.24246900884E-02  0.56776492369E-02  0.10208953427E+01  0.10206354419E+01 0.  0.
     999903    2    3    3    0    0 -0.22932145871E-01 -0.11042125653E+00  0.65958295290E-01  0.13224605156E+00  0.20488636501E-01 0.  0.
         14    1    1    2    0    0  0.22191904270E-01  0.24246900884E-02 -0.56776492369E-02  0.23034657323E-01  0.00000000000E+00 0. -1.
     999901    1    3    3    0    0  0.74024160177E-03  0.10799656645E+00 -0.60280646054E-01  0.88864929112E+00  0.88000000000E+00 0.  1.
        -11    1    4    4    0    0 -0.24695427836E-01 -0.85305092792E-01  0.45421701135E-01  0.99750764745E-01  0.51100000000E-03 0.  1.
         11    1    4    4    0    0  0.17632819649E-02 -0.25116163742E-01  0.20536594155E-01  0.32495286811E-01  0.51100000000E-03 0. -1.
</event>
<event>
 8    1  0.1099921E+005  0.1043930E+01  0.7957747E-01            NaN
         13   -1    0    0    0    0  0.00000000000E+00  0.00000000000E+00  0.74505805969E-08  0.10566000000E+00  0.10566000000E+00 0. -1.
     999900   -1    0    0    0    0 -0.00000000000E+00 -0.00000000000E+00 -0.74505805969E-08  0.93827000000E+00  0.93827000000E+00 0.  1.
     999902    2    1    2    0    0 -0.18913536537E-01  0.11996775448E-01 -0.60044542358E-02  0.10207416849E+01  0.10204782650E+01 0.  0.
     999903    2    3    3    0    0 -0.13110354194E+00  0.16085391156E-01  0.29919910066E-02  0.13356399690E+00  0.19583430289E-01 0.  0.
         14    1    1    2    0    0  0.18913536537E-01 -0.11996775448E-01  0.60044542358E-02  0.23188315078E-01  0.00000000000E+00 0. -1.
     999901    1    3    3    0    0  0.11219000540E+00 -0.40886157076E-02 -0.89964452424E-02  0.88717768802E+00  0.88000000000E+00 0. -1.
        -11    1    4    4    0    0 -0.81897128078E-01  0.16824845905E-01 -0.47512217206E-02  0.83743956534E-01  0.51100000000E-03 0.  1.
         11    1    4    4    0    0 -0.49206413858E-01 -0.73945474888E-03  0.77432127272E-02  0.49820040369E-01  0.51100000000E-03 0. -1.
</event>
<event>
 8    1  0.1099921E+005  0.1043930E+01  0.7957747E-01            NaN
         13   -1    0    0    0    0  0.00000000000E+00  0.00000000000E+00  0.74505805969E-08  0.10566000000E+00  0.10566000000E+00 0. -1.
     999900   -1    0    0    0    0 -0.00000000000E+00 -0.00000000000E+00 -0.74505805969E-08  0.93827000000E+00  0.93827000000E+00 0. -1.
     999902    2    1    2    0    0  0.45656964550E-02  0.17873276409E-01  0.14910418270E-01  0.10202103843E+01  0.10199346097E+01 0.  0.
     999903    2    3    3    0    0  0.45625366791E-01  0.19560467986E-01 -0.11782873911E+00  0.12930723190E+00  0.19299286502E-01 0.  0.
         14    1    1    2    0    0 -0.45656964550E-02 -0.17873276409E-01 -0.14910418270E-01  0.23719615652E-01  0.00000000000E+00 0. -1.
     999901    1    3    3    0    0 -0.41059670335E-01 -0.16871915767E-02  0.13273915738E+00  0.89090315245E+00  0.88000000000E+00 0.  1.
        -11    1    4    4    0    0  0.40619237670E-01  0.94716928641E-02 -0.97793217436E-01  0.10631749589E+00  0.51100000000E-03 0. -1.
         11    1    4    4    0    0  0.50061291210E-02  0.10088775122E-01 -0.20035521669E-01  0.22989736010E-01  0.51100000000E-03 0.  1.
</event>
<event>
 8    1  0.1099921E+005  0.1043930E+01  0.7957747E-01            NaN
         13   -1    0    0    0    0  0.00000000000E+00  0.00000000000E+00  0.74505805969E-08  0.10566000000E+00  0.10566000000E+00 0. -1.
     999900   -1    0    0    0    0 -0.00000000000E+00 -0.00000000000E+00 -0.74505805969E-08  0.93827000000E+00  0.93827000000E+00 0. -1.
     999902    2    1    2    0    0  0.83780719140E-02 -0.14059402440E-01 -0.19157194618E-01  0.10187336314E+01  0.10184219925E+01 0.  0.
     999903    2    3    3    0    0 -0.11279927734E+00  0.55115088208E-01  0.11493842379E-03  0.12753192849E+00  0.22428322607E-01 0.  0.
         14    1    1    2    0    0 -0.83780719140E-02  0.14059402440E-01  0.19157194618E-01  0.25196368620E-01  0.00000000000E+00 0. -1.
     999901    1    3    3    0    0  0.12117734926E+00 -0.69174490648E-01 -0.19272133042E-01  0.89120170289E+00  0.88000000000E+00 0.  1.
        -11    1    4    4    0    0 -0.14155388068E-01  0.10151012768E-01  0.72797263245E-02  0.18885804402E-01  0.51100000000E-03 0.  1.
         11    1    4    4    0    0 -0.98643889277E-01  0.44964075440E-01 -0.71647879007E-02  0.10864612408E+00  0.51100000000E-03 0. -1.
</event>
<event>
 8    1  0.1099921E+005  0.1043930E+01  0.7957747E-01            NaN
         13   -1    0    0    0    0  0.00000000000E+00  0.00000000000E+00  0.74505805969E-08  0.10566000000E+00  0.10566000000E+00 0.  1.
     999900   -1    0    0    0    0 -0.00000000000E+00 -0.00000000000E+00 -0.74505805969E-08  0.93827000000E+00  0.93827000000E+00 0. -1.
     999902    2    1    2    0    0  0.92505501076E-02 -0.18532011535E-01 -0.11153019020E-01  0.10204055880E+01  0.10201343862E+01 0.  0.
     999903    2    3    3    0    0  0.10916777851E+00  0.12755760076E-01  0.67825662628E-01  0.13068652592E+00  0.19958313222E-01 0.  0.
         14    1    1    2    0    0 -0.92505501076E-02  0.18532011535E-01  0.11153019020E-01  0.23524412046E-01  0.00000000000E+00 0.  1.
     999901    1    3    3    0    0 -0.99917228406E-01 -0.31287771612E-01 -0.78978681648E-01  0.88971906203E+00  0.88000000000E+00 0. -1.
        -11    1    4    4    0    0  0.75561755772E-01  0.11896288018E-01  0.36589906199E-01  0.84794946551E-01  0.51100000000E-03 0.  1.
         11    1    4    4    0    0  0.33606022741E-01  0.85947205820E-03  0.31235756429E-01  0.45891579374E-01  0.51100000000E-03 0. -1.
</event>
<event>
 8    1  0.1099921E+005  0.1043930E+01  0.7957747E-01            NaN
         13   -1    0    0    0    0  0.00000000000E+00  0.00000000000E+00  0.74505805969E-08  0.10566000000E+00  0.10566000000E+00 0.  1.
     999900   -1    0    0    0    0 -0.00000000000E+00 -0.00000000000E+00 -0.74505805969E-08  0.93827000000E+00  0.93827000000E+00 0.  1.
     999902    2    1    2    0    0  0.68782867553E-02 -0.81209107778E-02 -0.21214778821E-01  0.10201954922E+01  0.10199193671E+01 0.  0.
     999903    2    3    3    0    0  0.34658649805E-02  0.13340396384E-01  0.12542160828E+00  0.12779733982E+00  0.20287972972E-01 0.  0.
         14    1    1    2    0    0 -0.68782867553E-02  0.81209107778E-02  0.21214778821E-01  0.23734507810E-01  0.00000000000E+00 0.  1.
     999901    1    3    3    0    0  0.34124217747E-02 -0.21461307162E-01 -0.14663638710E+00  0.89239815237E+00  0.88000000000E+00 0.  1.
        -11    1    4    4    0    0  0.48653601629E-02  0.17952370457E-01  0.80875838915E-01  0.82988684625E-01  0.51100000000E-03 0. -1.
         11    1    4    4    0    0 -0.13994951823E-02 -0.46119740733E-02  0.44545769362E-01  0.44808655198E-01  0.51100000000E-03 0.  1.
</event>
<event>
 8    1  0.1099921E+005  0.1043930E+01  0.7957747E-01            NaN
         13   -1    0    0    0    0  0.00000000000E+00  0.00000000000E+00  0.74505805969E-08  0.10566000000E+00  0.10566000000E+00 0. -1.
     999900   -1    0    0    0    0 -0.00000000000E+00 -0.00000000000E+00 -0.74505805969E-08  0.93827000000E+00  0.93827000000E+00 0. -1.
     999902    2    1    2    0    0 -0.16689719656E-01  0.95588592832E-02  0.14166855890E-01  0.10200423811E+01  0.10197626394E+01 0.  0.
     999903    2    3    3    0    0  0.81640319385E-01 -0.83778208124E-01 -0.46518904574E-01  0.12759441829E+00  0.20794162380E-01 0.  0.
         14    1    1    2    0    0  0.16689719656E-01 -0.95588592832E-02 -0.14166855890E-01  0.23887618944E-01  0.00000000000E+00 0.  1.
     999901    1    3    3    0    0 -0.98330039041E-01  0.93337067407E-01  0.60685760464E-01  0.89244796277E+00  0.88000000000E+00 0. -1.
        -11    1    4    4    0    0  0.33321764090E-01 -0.46914355372E-01 -0.28407508745E-01  0.64175886251E-01  0.51100000000E-03 0.  1.
         11    1    4    4    0    0  0.48318555295E-01 -0.36863852753E-01 -0.18111395829E-01  0.63418532035E-01  0.51100000000E-03 0. -1.
</event>
<event>
 8    1  0.1099921E+005  0.1043930E+01  0.7957747E-01            NaN
         13   -1    0    0    0    0  0.00000000000E+00  0.00000000000E+00  0.74505805969E-08  0.10566000000E+00  0.10566000000E+00 0. -1.
     999900   -1    0    0    0    0 -0.00000000000E+00 -0.00000000000E+00 -0.74505805969E-08  0.93827000000E+00  0.93827000000E+00 0. -1.
     999902    2    1    2    0    0  0.18322890652E-01 -0.43130019607E-02 -0.13655361613E-01  0.10206749101E+01  0.10204099533E+01 0.  0.
     999903    2    3    3    0    0  0.99934398166E-01 -0.15222927778E-01  0.82040786653E-01  0.13166578893E+00  0.19661328376E-01 0.  0.
         14    1    1    2    0    0 -0.18322890652E-01  0.43130019607E-02  0.13655361613E-01  0.23255089949E-01  0.00000000000E+00 0. -1.
     999901    1    3    3    0    0 -0.81611507514E-01  0.10909925817E-01 -0.95696148266E-01  0.88900912112E+00  0.88000000000E+00 0. -1.
        -11    1    4    4    0    0  0.77776276945E-01 -0.11080444002E-01  0.73408461644E-01  0.10752203893E+00  0.51100000000E-03 0. -1.
         11    1    4    4    0    0  0.22158121221E-01 -0.41424837756E-02  0.86323250088E-02  0.24143749997E-01  0.51100000000E-03 0.  1.
</event>
<event>
 8    1  0.1099921E+005  0.1043930E+01  0.7957747E-01            NaN
         13   -1    0    0    0    0  0.00000000000E+00  0.00000000000E+00  0.74505805969E-08  0.10566000000E+00  0.10566000000E+00 0.  1.
     999900   -1    0    0    0    0 -0.00000000000E+00 -0.00000000000E+00 -0.74505805969E-08  0.93827000000E+00  0.93827000000E+00 0. -1.
     999902    2    1    2    0    0  0.14280501105E-01  0.18891446394E-01 -0.38285901658E-02  0.10199408866E+01  0.10196587344E+01 0.  0.
     999903    2    3    3    0    0 -0.20534136588E-01  0.90731112930E-01 -0.91603430954E-01  0.13197837650E+00  0.19321430634E-01 0.  0.
         14    1    1    2    0    0 -0.14280501105E-01 -0.18891446394E-01  0.38285901658E-02  0.23989113392E-01  0.00000000000E+00 0. -1.
     999901    1    3    3    0    0  0.34814637693E-01 -0.71839666536E-01  0.87774840788E-01  0.88796251011E+00  0.88000000000E+00 0. -1.
        -11    1    4    4    0    0 -0.14235444884E-01  0.72635381947E-01 -0.61226932671E-01  0.96060111425E-01  0.51100000000E-03 0.  1.
         11    1    4    4    0    0 -0.62986917034E-02  0.18095730983E-01 -0.30376498282E-01  0.35918265073E-01  0.51100000000E-03 0. -1.
</event>
<event>
 8    1  0.1099921E+005  0.1043930E+01  0.7957747E-01            NaN
         13   -1    0    0    0    0  0.00000000000E+00  0.00000000000E+00  0.74505805969E-08  0.10566000000E+00  0.10566000000E+00 0. -1.
     999900   -1    0    0    0    0 -0.00000000000E+00 -0.00000000000E+00 -0.74505805969E-08  0.93827000000E+00  0.93827000000E+00 0. -1.
     999902    2    1    2    0    0 -0.67925203236E-02  0.18401601570E-01 -0.14858591223E-01  0.10193223791E+01  0.10190253076E+01 0.  0.
     999903    2    3    3    0    0  0.52314542400E-01 -0.70316999652E-02 -0.11814068630E+00  0.13094875903E+00  0.20102228239E-01 0.  0.
         14    1    1    2    0    0  0.67925203236E-02 -0.18401601570E-01  0.14858591223E-01  0.24607620889E-01  0.00000000000E+00 0.  1.
     999901    1    3    3    0    0 -0.59107062724E-01  0.25433301535E-01  0.10328209508E+00  0.88837362008E+00  0.88000000000E+00 0.  1.
        -11    1    4    4    0    0  0.14730277838E-01 -0.37249797773E-02 -0.16044708804E-01  0.22103175363E-01  0.51100000000E-03 0.  1.
         11    1    4    4    0    0  0.37584264562E-01 -0.33067201878E-02 -0.10209597750E+00  0.10884558367E+00  0.51100000000E-03 0. -1.
</event>
<event>
 8    1  0.1099921E+005  0.1043930E+01  0.7957747E-01            NaN
         13   -1    0    0    0    0  0.00000000000E+00  0.00000000000E+00  0.74505805969E-08  0.10566000000E+00  0.10566000000E+00 0. -1.
     999900   -1    0    0    0    0 -0.00000000000E+00 -0.00000000000E+00 -0.74505805969E-08  0.93827000000E+00  0.93827000000E+00 0. -1.
     999902    2    1    2    0    0  0.68584673079E-02  0.11291334871E-01 -0.21961909900E-01  0.10183007530E+01  0.10179781752E+01 0.  0.
     999903    2    3    3    0    0 -0.60471440180E-01  0.59325342301E-01 -0.98334079543E-01  0.13112924159E+00  0.18681420788E-01 0.  0.
         14    1    1    2    0    0 -0.68584673079E-02 -0.11291334871E-01  0.21961909900E-01  0.25629247032E-01  0.00000000000E+00 0. -1.
     999901    1    3    3    0    0  0.67329907488E-01 -0.48034007430E-01  0.76372169643E-01  0.88717151138E+00  0.88000000000E+00 0.  1.
        -11    1    4    4    0    0 -0.42944024793E-01  0.51504551668E-01 -0.70351596352E-01  0.97193190802E-01  0.51100000000E-03 0.  1.
         11    1    4    4    0    0 -0.17527415388E-01  0.78207906335E-02 -0.27982483190E-01  0.33936050784E-01  0.51100000000E-03 0. -1.
</event>
<event>
 8    1  0.1099921E+005  0.1043930E+01  0.7957747E-01            NaN
         13   -1    0    0    0    0  0.00000000000E+00  0.00000000000E+00  0.74505805969E-08  0.10566000000E+00  0.10566000000E+00 0.  1.
     999900   -1    0    0    0    0 -0.00000000000E+00 -0.00000000000E+00 -0.74505805969E-08  0.93827000000E+00  0.93827000000E+00 0.  1.
     999902    2    1    2    0    0  0.97147633051E-02  0.42249619497E-02  0.24797505214E-01  0.10169644072E+01  0.10166068376E+01 0.  0.
     999903    2    3    3    0    0  0.91391068186E-01 -0.53699861712E-01  0.72936333086E-01  0.12997869666E+00  0.18405173440E-01 0.  0.
         14    1    1    2    0    0 -0.97147633051E-02 -0.42249619497E-02 -0.24797505214E-01  0.26965592788E-01  0.00000000000E+00 0. -1.
     999901    1    3    3    0    0 -0.81676304881E-01  0.57924823662E-01 -0.48138827872E-01  0.88698571055E+00  0.88000000000E+00 0. -1.
        -11    1    4    4    0    0  0.53595050874E-01 -0.26708368526E-01  0.31147817646E-01  0.67499734019E-01  0.51100000000E-03 0.  1.
         11    1    4    4    0    0  0.37796017312E-01 -0.26991493186E-01  0.41788515439E-01  0.62478962641E-01  0.51100000000E-03 0. -1.
</event>
<event>
 8    1  0.1099921E+005  0.1043930E+01  0.7957747E-01            NaN
         13   -1    0    0    0    0  0.00000000000E+00  0.00000000000E+00  0.74505805969E-08  0.10566000000E+00  0.10566000000E+00 0. -1.
     999900   -1    0    0    0    0 -0.00000000000E+00 -0.00000000000E+00 -0.74505805969E-08  0.93827000000E+00  0.93827000000E+00 0. -1.
     999902    2    1    2    0    0  0.90271517226E-03  0.15564138252E-01  0.18454675022E-01  0.10197715165E+01  0.10194853180E+01 0.  0.
     999903    2    3    3    0    0  0.59139386514E-01  0.57316967719E-01  0.10274061811E+00  0.13284484037E+00  0.17590201129E-01 0.  0.
         14    1    1    2    0    0 -0.90271517226E-03 -0.15564138252E-01 -0.18454675022E-01  0.24158483487E-01  0.00000000000E+00 0.  1.
     999901    1    3    3    0    0 -0.58236671342E-01 -0.41752829466E-01 -0.84285943092E-01  0.88692667615E+00  0.88000000000E+00 0. -1.
        -11    1    4    4    0    0  0.21040033231E-01  0.13041863599E-01  0.21547463465E-01  0.32822667583E-01  0.51100000000E-03 0. -1.
         11    1    4    4    0    0  0.38099353283E-01  0.44275104120E-01  0.81193154649E-01  0.10002217278E+00  0.51100000000E-03 0.  1.
</event>
<event>
 8    1  0.1099921E+005  0.1043930E+01  0.7957747E-01            NaN
         13   -1    0    0    0    0  0.00000000000E+00  0.00000000000E+00  0.74505805969E-08  0.10566000000E+00  0.10566000000E+00 0.  1.
     999900   -1    0    0    0    0 -0.00000000000E+00 -0.00000000000E+00 -0.74505805969E-08  0.93827000000E+00  0.93827000000E+00 0. -1.
     999902    2    1    2    0    0  0.22238497391E-01  0.37197281286E-02 -0.73123443507E-02  0.10202264660E+01  0.10199510696E+01 0.  0.
     999903    2    3    3    0    0  0.81474746316E-01  0.10287344040E+00 -0.52628237814E-02  0.13267669706E+00  0.18823644736E-01 0.  0.
         14    1    1    2    0    0 -0.22238497391E-01 -0.37197281286E-02  0.73123443507E-02  0.23703533987E-01  0.00000000000E+00 0.  1.
     999901    1    3    3    0    0 -0.59236248925E-01 -0.99153712267E-01 -0.20495205693E-02  0.88754976896E+00  0.88000000000E+00 0. -1.
        -11    1    4    4    0    0  0.48928092550E-01  0.56290548741E-01  0.56931194324E-02  0.74801449505E-01  0.51100000000E-03 0.  1.
         11    1    4    4    0    0  0.32546653766E-01  0.46582891655E-01 -0.10955943214E-01  0.57875247550E-01  0.51100000000E-03 0. -1.
</event>
<event>
 8    1  0.1099921E+005  0.1043930E+01  0.7957747E-01            NaN
         13   -1    0    0    0    0  0.00000000000E+00  0.00000000000E+00  0.74505805969E-08  0.10566000000E+00  0.10566000000E+00 0.  1.
     999900   -1    0    0    0    0 -0.00000000000E+00 -0.00000000000E+00 -0.74505805969E-08  0.93827000000E+00  0.93827000000E+00 0.  1.
     999902    2    1    2    0    0  0.42464629144E-02 -0.20515682465E-01 -0.10763652189E-01  0.10203761918E+01  0.10201043039E+01 0.  0.
     999903    2    3    3    0    0  0.47207793791E-01 -0.68523810663E-01  0.99403688734E-01  0.13117019800E+00  0.20010974180E-01 0.  0.
         14    1    1    2    0    0 -0.42464629144E-02  0.20515682465E-01  0.10763652189E-01  0.23553808243E-01  0.00000000000E+00 0.  1.
     999901    1    3    3    0    0 -0.42961330877E-01  0.48008128198E-01 -0.11016734092E+00  0.88920599375E+00  0.88000000000E+00 0.  1.
        -11    1    4    4    0    0  0.82319676352E-02 -0.28364240184E-02  0.63833616419E-02  0.10808284749E-01  0.51100000000E-03 0.  1.
         11    1    4    4    0    0  0.38975826156E-01 -0.65687386645E-01  0.93020327092E-01  0.12036191325E+00  0.51100000000E-03 0. -1.
</event>
<event>
 8    1  0.1099921E+005  0.1043930E+01  0.7957747E-01            NaN
         13   -1    0    0    0    0  0.00000000000E+00  0.00000000000E+00  0.74505805969E-08  0.10566000000E+00  0.10566000000E+00 0.  1.
     999900   -1    0    0    0    0 -0.00000000000E+00 -0.00000000000E+00 -0.74505805969E-08  0.93827000000E+00  0.93827000000E+00 0.  1.
     999902    2    1    2    0    0 -0.19800715771E-02 -0.14401688637E-01 -0.17709447669E-01  0.10210181285E+01  0.10207610224E+01 0.  0.
     999903    2    3    3    0    0  0.63996336219E-01 -0.51323404009E-01  0.98857652242E-01  0.13011746724E+00  0.20690505664E-01 0.  0.
         14    1    1    2    0    0  0.19800715771E-02  0.14401688637E-01  0.17709447669E-01  0.22911871504E-01  0.00000000000E+00 0.  1.
     999901    1    3    3    0    0 -0.65976407796E-01  0.36921715372E-01 -0.11656709991E+00  0.89090066126E+00  0.88000000000E+00 0.  1.
        -11    1    4    4    0    0  0.18514328165E-01 -0.68753605737E-02  0.33726023360E-01  0.39086528409E-01  0.51100000000E-03 0.  1.
         11    1    4    4    0    0  0.45482008054E-01 -0.44448043435E-01  0.65131628882E-01  0.91030938827E-01  0.51100000000E-03 0. -1.
</event>
<event>
 8    1  0.1099921E+005  0.1043930E+01  0.7957747E-01            NaN
         13   -1    0    0    0    0  0.00000000000E+00  0.00000000000E+00  0.74505805969E-08  0.10566000000E+00  0.10566000000E+00 0. -1.
     999900   -1    0    0    0    0 -0.00000000000E+00 -0.00000000000E+00 -0.74505805969E-08  0.93827000000E+00  0.93827000000E+00 0. -1.
     999902    2    1    2    0    0  0.21699588225E-01  0.90059908868E-02 -0.55612879771E-02  0.10197865138E+01  0.10195006748E+01 0.  0.
     999903    2    3    3    0    0 -0.38758340048E-01 -0.59693146081E-01  0.10476468183E+00  0.12818876140E+00  0.19779771940E-01 0.  0.
         14    1    1    2    0    0 -0.21699588225E-01 -0.90059908868E-02  0.55612879771E-02  0.24143486181E-01  0.00000000000E+00 0.  1.
     999901    1    3    3    0    0  0.60457928273E-01  0.68699136968E-01 -0.11032596980E+00  0.89159775242E+00  0.88000000000E+00 0. -1.
        -11    1    4    4    0    0 -0.34896051235E-01 -0.57067406290E-01  0.86603132332E-01  0.10942936947E+00  0.51100000000E-03 0. -1.
         11    1    4    4    0    0 -0.38622888134E-02 -0.26257397903E-02  0.18161549495E-01  0.18759391925E-01  0.51100000000E-03 0.  1.
</event>
<event>
 8    1  0.1099921E+005  0.1043930E+01  0.7957747E-01            NaN
         13   -1    0    0    0    0  0.00000000000E+00  0.00000000000E+00  0.74505805969E-08  0.10566000000E+00  0.10566000000E+00 0.  1.
     999900   -1    0    0    0    0 -0.00000000000E+00 -0.00000000000E+00 -0.74505805969E-08  0.93827000000E+00  0.93827000000E+00 0.  1.
     999902    2    1    2    0    0 -0.13814428569E-01 -0.18279424146E-01 -0.56162119603E-02  0.10203393743E+01  0.10200666258E+01 0.  0.
     999903    2    3    3    0    0  0.88695490411E-01 -0.92409684002E-01 -0.19463689653E-01  0.13118509548E+00  0.20597435401E-01 0.  0.
         14    1    1    2    0    0  0.13814428569E-01  0.18279424146E-01  0.56162119603E-02  0.23590625692E-01  0.00000000000E+00 0.  1.
     999901    1    3    3    0    0 -0.10250991898E+00  0.74130259857E-01  0.13847477692E-01  0.88915427883E+00  0.88000000000E+00 0.  1.
        -11    1    4    4    0    0  0.35625296955E-01 -0.23312611841E-01 -0.51108177461E-02  0.42883810849E-01  0.51100000000E-03 0. -1.
         11    1    4    4    0    0  0.53070193456E-01 -0.69097072162E-01 -0.14352871907E-01  0.88301284633E-01  0.51100000000E-03 0.  1.
</event>
<event>
 8    1  0.1099921E+005  0.1043930E+01  0.7957747E-01            NaN
         13   -1    0    0    0    0  0.00000000000E+00  0.00000000000E+00  0.74505805969E-08  0.10566000000E+00  0.10566000000E+00 0. -1.
     999900   -1    0    0    0    0 -0.00000000000E+00 -0.00000000000E+00 -0.74505805969E-08  0.93827000000E+00  0.93827000000E+00 0.  1.
     999902    2    1    2    0    0  0.11160285849E-01 -0.20013824452E-01 -0.48955165277E-02  0.10204977310E+01  0.10202286742E+01 0.  0.
     999903    2    3    3    0    0  0.53102105740E-01 -0.10221338909E+00  0.63819265334E-01  0.13300823474E+00  0.18731826899E-01 0.  0.
         14    1    1    2    0    0 -0.11160285849E-01  0.20013824452E-01  0.48955165277E-02  0.23432269022E-01  0.00000000000E+00 0.  1.
     999901    1    3    3    0    0 -0.41941819890E-01  0.82199564636E-01 -0.68714781861E-01  0.88748949624E+00  0.88000000000E+00 0.  1.
        -11    1    4    4    0    0  0.33142451625E-02 -0.15466944577E-01  0.35045402339E-02  0.16209673618E-01  0.51100000000E-03 0.  1.
         11    1    4    4    0    0  0.49787860577E-01 -0.86746444511E-01  0.60314725100E-01  0.11679856113E+00  0.51100000000E-03 0. -1.
</event>
<event>
 8    1  0.1099921E+005  0.1043930E+01  0.7957747E-01            NaN
         13   -1    0    0    0    0  0.00000000000E+00  0.00000000000E+00  0.74505805969E-08  0.10566000000E+00  0.10566000000E+00 0.  1.
     999900   -1    0    0    0    0 -0.00000000000E+00 -0.00000000000E+00 -0.74505805969E-08  0.93827000000E+00  0.93827000000E+00 0. -1.
     999902    2    1    2    0    0 -0.18006832738E-01  0.14201928958E-01 -0.62359128159E-02  0.10201639019E+01  0.10198870326E+01 0.  0.
     999903    2    3    3    0    0  0.10830457124E+00  0.62934769384E-01 -0.26450295758E-01  0.12958090081E+00  0.20023145602E-01 0.  0.
         14    1    1    2    0    0  0.18006832738E-01 -0.14201928958E-01  0.62359128159E-02  0.23766098124E-01  0.00000000000E+00 0.  1.
     999901    1    3    3    0    0 -0.12631140398E+00 -0.48732840426E-01  0.20214382942E-01  0.89058300107E+00  0.88000000000E+00 0.  1.
        -11    1    4    4    0    0  0.47152574468E-01  0.16125456745E-01 -0.99056777366E-02  0.50811211426E-01  0.51100000000E-03 0.  1.
         11    1    4    4    0    0  0.61151996773E-01  0.46809312639E-01 -0.16544618021E-01  0.78769689383E-01  0.51100000000E-03 0. -1.
</event>
<event>
 8    1  0.1099921E+005  0.1043930E+01  0.7957747E-01            NaN
         13   -1    0    0    0    0  0.00000000000E+00  0.00000000000E+00  0.74505805969E-08  0.10566000000E+00  0.10566000000E+00 0. -1.
     999900   -1    0    0    0    0 -0.00000000000E+00 -0.00000000000E+00 -0.74505805969E-08  0.93827000000E+00  0.93827000000E+00 0.  1.
     999902    2    1    2    0    0 -0.55177462456E-02  0.24678309397E-03 -0.21956448093E-01  0.10212895045E+01  0.10210385203E+01 0.  0.
     999903    2    3    3    0    0  0.14426938518E-02  0.49622730110E-01  0.11754393860E+00  0.12890685685E+00  0.18327671214E-01 0.  0.
         14    1    1    2    0    0  0.55177462456E-02 -0.24678309397E-03  0.21956448093E-01  0.22640495542E-01  0.00000000000E+00 0. -1.
     999901    1    3    3    0    0 -0.69604400974E-02 -0.49375947016E-01 -0.13950038669E+00  0.89238264761E+00  0.88000000000E+00 0.  1.
        -11    1    4    4    0    0  0.51541563115E-02  0.48305756150E-01  0.10391136516E+00  0.11470764724E+00  0.51100000000E-03 0. -1.
         11    1    4    4    0    0 -0.37114624597E-02  0.13169739602E-02  0.13632573435E-01  0.14199209607E-01  0.51100000000E-03 0.  1.
</event>
<event>
 8    1  0.1099921E+005  0.1043930E+01  0.7957747E-01            NaN
         13   -1    0    0    0    0  0.00000000000E+00  0.00000000000E+00  0.74505805969E-08  0.10566000000E+00  0.10566000000E+00 0. -1.
     999900   -1    0    0    0    0 -0.00000000000E+00 -0.00000000000E+00 -0.74505805969E-08  0.93827000000E+00  0.93827000000E+00 0.  1.
     999902    2    1    2    0    0  0.10923251084E-01 -0.16050750957E-01 -0.22271665379E-02  0.10243876283E+01  0.10242012052E+01 0.  0.
     999903    2    3    3    0    0  0.11957228754E+00 -0.17762361472E-01  0.58547907735E-01  0.13562379444E+00  0.18786236664E-01 0.  0.
         14    1    1    2    0    0 -0.10923251084E-01  0.16050750957E-01  0.22271665379E-02  0.19542371691E-01  0.00000000000E+00 0. -1.
     999901    1    3    3    0    0 -0.10864903645E+00  0.17116105150E-02 -0.60775074273E-01  0.88876383386E+00  0.88000000000E+00 0.  1.
        -11    1    4    4    0    0  0.23493635235E-01 -0.87159991037E-02  0.18440001223E-01  0.31116142162E-01  0.51100000000E-03 0.  1.
         11    1    4    4    0    0  0.96078652300E-01 -0.90463623681E-02  0.40107906512E-01  0.10450765228E+00  0.51100000000E-03 0. -1.
</event>
<event>
 8    1  0.1099921E+005  0.1043930E+01  0.7957747E-01            NaN
         13   -1    0    0    0    0  0.00000000000E+00  0.00000000000E+00  0.74505805969E-08  0.10566000000E+00  0.10566000000E+00 0. -1.
     999900   -1    0    0    0    0 -0.00000000000E+00 -0.00000000000E+00 -0.74505805969E-08  0.93827000000E+00  0.93827000000E+00 0. -1.
     999902    2    1    2    0    0  0.21930501633E-01 -0.10014623688E-01  0.19488597549E-02  0.10197424486E+01  0.10194555526E+01 0.  0.
     999903    2    3    3    0    0  0.75667606180E-01 -0.84935852473E-02 -0.10542531806E+00  0.13158750487E+00  0.20076008949E-01 0.  0.
         14    1    1    2    0    0 -0.21930501633E-01  0.10014623688E-01 -0.19488597549E-02  0.24187551422E-01  0.00000000000E+00 0.  1.
     999901    1    3    3    0    0 -0.53737104548E-01 -0.15210384404E-02  0.10737417782E+00  0.88815494370E+00  0.88000000000E+00 0.  1.
        -11    1    4    4    0    0  0.16069481804E-01 -0.93810921459E-02 -0.31922434480E-01  0.36953160615E-01  0.51100000000E-03 0.  1.
         11    1    4    4    0    0  0.59598124376E-01  0.88750689861E-03 -0.73502883581E-01  0.94634344259E-01  0.51100000000E-03 0. -1.
</event>
<event>
 8    1  0.1099921E+005  0.1043930E+01  0.7957747E-01            NaN
         13   -1    0    0    0    0  0.00000000000E+00  0.00000000000E+00  0.74505805969E-08  0.10566000000E+00  0.10566000000E+00 0. -1.
     999900   -1    0    0    0    0 -0.00000000000E+00 -0.00000000000E+00 -0.74505805969E-08  0.93827000000E+00  0.93827000000E+00 0.  1.
     999902    2    1    2    0    0  0.10075645979E-01 -0.22574120371E-01 -0.21807495924E-02  0.10191133681E+01  0.10188111659E+01 0.  0.
     999903    2    3    3    0    0  0.41557224153E-01 -0.12273302316E+00  0.19558686759E-01  0.13260589563E+00  0.20282590414E-01 0.  0.
         14    1    1    2    0    0 -0.10075645979E-01  0.22574120371E-01  0.21807495924E-02  0.24816631947E-01  0.00000000000E+00 0.  1.
     999901    1    3    3    0    0 -0.31481578174E-01  0.10015890279E+00 -0.21739436352E-01  0.88650747243E+00  0.88000000000E+00 0.  1.
        -11    1    4    4    0    0  0.18675860126E-01 -0.37657897607E-01  0.14091028883E-01  0.44336477303E-01  0.51100000000E-03 0.  1.
         11    1    4    4    0    0  0.22881364027E-01 -0.85075125554E-01  0.54676578759E-02  0.88269418325E-01  0.51100000000E-03 0. -1.
</event>
<event>
 8    1  0.1099921E+005  0.1043930E+01  0.7957747E-01            NaN
         13   -1    0    0    0    0  0.00000000000E+00  0.00000000000E+00  0.74505805969E-08  0.10566000000E+00  0.10566000000E+00 0.  1.
     999900   -1    0    0    0    0 -0.00000000000E+00 -0.00000000000E+00 -0.74505805969E-08  0.93827000000E+00  0.93827000000E+00 0.  1.
     999902    2    1    2    0    0  0.45194829294E-02  0.23138531995E-01 -0.25870888252E-02  0.10202126979E+01  0.10199369778E+01 0.  0.
     999903    2    3    3    0    0 -0.12400101639E+00  0.32836890736E-01 -0.15326781558E-01  0.13073314410E+00  0.20043235115E-01 0.  0.
         14    1    1    2    0    0 -0.45194829294E-02 -0.23138531995E-01  0.25870888252E-02  0.23717302069E-01  0.00000000000E+00 0. -1.
     999901    1    3    3    0    0  0.12852049932E+00 -0.96983587411E-02  0.12739692733E-01  0.88947955383E+00  0.88000000000E+00 0.  1.
        -11    1    4    4    0    0 -0.80205430806E-01  0.27092614663E-01 -0.23459221823E-02  0.84691707811E-01  0.51100000000E-03 0.  1.
         11    1    4    4    0    0 -0.43795585588E-01  0.57442760734E-02 -0.12980859376E-01  0.46041436292E-01  0.51100000000E-03 0. -1.
</event>
<event>
 8    1  0.1099921E+005  0.1043930E+01  0.7957747E-01            NaN
         13   -1    0    0    0    0  0.00000000000E+00  0.00000000000E+00  0.74505805969E-08  0.10566000000E+00  0.10566000000E+00 0. -1.
     999900   -1    0    0    0    0 -0.00000000000E+00 -0.00000000000E+00 -0.74505805969E-08  0.93827000000E+00  0.93827000000E+00 0.  1.
     999902    2    1    2    0    0 -0.14181922949E-01 -0.45151926841E-03 -0.19409279418E-01  0.10198873101E+01  0.10196038811E+01 0.  0.
     999903    2    3    3    0    0 -0.97416012319E-02 -0.86401244518E-02 -0.13076796797E+00  0.13282049911E+00  0.19273634678E-01 0.  0.
         14    1    1    2    0    0  0.14181922949E-01  0.45151926841E-03  0.19409279418E-01  0.24042689860E-01  0.00000000000E+00 0. -1.
     999901    1    3    3    0    0 -0.44403217171E-02  0.81886051834E-02  0.11135868855E+00  0.88706681103E+00  0.88000000000E+00 0. -1.
        -11    1    4    4    0    0 -0.13101986007E-01 -0.37286683814E-02 -0.49784859720E-01  0.51617423256E-01  0.51100000000E-03 0.  1.
         11    1    4    4    0    0  0.33603847755E-02 -0.49114560704E-02 -0.80983108245E-01  0.81203075857E-01  0.51100000000E-03 0. -1.
</event>
<event>
 8    1  0.1099921E+005  0.1043930E+01  0.7957747E-01            NaN
         13   -1    0    0    0    0  0.00000000000E+00  0.00000000000E+00  0.74505805969E-08  0.10566000000E+00  0.10566000000E+00 0. -1.
     999900   -1    0    0    0    0 -0.00000000000E+00 -0.00000000000E+00 -0.74505805969E-08  0.93827000000E+00  0.93827000000E+00 0. -1.
     999902    2    1    2    0    0 -0.10019785861E-01  0.69014372487E-02 -0.20061406955E-01  0.10204675621E+01  0.10201978040E+01 0.  0.
     999903    2    3    3    0    0  0.10799165461E+00  0.34869730101E-01 -0.62315743482E-01  0.13114514897E+00  0.20921344843E-01 0.  0.
         14    1    1    2    0    0  0.10019785861E-01 -0.69014372487E-02  0.20061406955E-01  0.23462437934E-01  0.00000000000E+00 0. -1.
     999901    1    3    3    0    0 -0.11801144047E+00 -0.27968292852E-01  0.42254336527E-01  0.88932241310E+00  0.88000000000E+00 0.  1.
        -11    1    4    4    0    0  0.47522135373E-01  0.15767849336E-01 -0.15828564127E-01  0.52514597841E-01  0.51100000000E-03 0. -1.
         11    1    4    4    0    0  0.60469519232E-01  0.19101880765E-01 -0.46487179355E-01  0.78630551126E-01  0.51100000000E-03 0.  1.
</event>
<event>
 8    1  0.1099921E+005  0.1043930E+01  0.7957747E-01            NaN
         13   -1    0    0    0    0  0.00000000000E+00  0.00000000000E+00  0.74505805969E-08  0.10566000000E+00  0.10566000000E+00 0.  1.
     999900   -1    0    0    0    0 -0.00000000000E+00 -0.00000000000E+00 -0.74505805969E-08  0.93827000000E+00  0.93827000000E+00 0.  1.
     999902    2    1    2    0    0  0.64708421608E-02 -0.17443264193E-01  0.13603325096E-01  0.10208824466E+01  0.10206222514E+01 0.  0.
     999903    2    3    3    0    0  0.10627998797E+00  0.23310337102E-01 -0.68740550327E-01  0.13048745817E+00  0.21515246249E-01 0.  0.
         14    1    1    2    0    0 -0.64708421608E-02  0.17443264193E-01 -0.13603325096E-01  0.23047553399E-01  0.00000000000E+00 0. -1.
     999901    1    3    3    0    0 -0.99809145811E-01 -0.40753601295E-01  0.82343875423E-01  0.89039498843E+00  0.88000000000E+00 0. -1.
        -11    1    4    4    0    0  0.55981108534E-01  0.84146640663E-02 -0.47462478898E-01  0.73875835753E-01  0.51100000000E-03 0.  1.
         11    1    4    4    0    0  0.50298879438E-01  0.14895673035E-01 -0.21278071429E-01  0.56611622416E-01  0.51100000000E-03 0. -1.
</event>
<event>
 8    1  0.1099921E+005  0.1043930E+01  0.7957747E-01            NaN
         13   -1    0    0    0    0  0.00000000000E+00  0.00000000000E+00  0.74505805969E-08  0.10566000000E+00  0.10566000000E+00 0.  1.
     999900   -1    0    0    0    0 -0.00000000000E+00 -0.00000000000E+00 -0.74505805969E-08  0.93827000000E+00  0.93827000000E+00 0.  1.
     999902    2    1    2    0    0  0.19982926415E-01  0.13585005062E-01 -0.10254936991E-02  0.10197448527E+01  0.10194580145E+01 0.  0.
     999903    2    3    3    0    0 -0.78709501100E-01 -0.74210519505E-01 -0.65972367057E-01  0.12751935112E+00  0.14368191480E-01 0.  0.
         14    1    1    2    0    0 -0.19982926415E-01 -0.13585005062E-01  0.10254936991E-02  0.24185147260E-01  0.00000000000E+00 0.  1.
     999901    1    3    3    0    0  0.98692427516E-01  0.87795524566E-01  0.64946873358E-01  0.89222550162E+00  0.88000000000E+00 0. -1.
        -11    1    4    4    0    0 -0.38039698634E-01 -0.45238344531E-01 -0.38227203358E-01  0.70392518677E-01  0.51100000000E-03 0. -1.
         11    1    4    4    0    0 -0.40669802466E-01 -0.28972174974E-01 -0.27745163699E-01  0.57126832443E-01  0.51100000000E-03 0.  1.
</event>
<event>
 8    1  0.1099921E+005  0.1043930E+01  0.7957747E-01            NaN
         13   -1    0    0    0    0  0.00000000000E+00  0.00000000000E+00  0.74505805969E-08  0.10566000000E+00  0.10566000000E+00 0. -1.
     999900   -1    0    0    0    0 -0.00000000000E+00 -0.00000000000E+00 -0.74505805969E-08  0.93827000000E+00  0.93827000000E+00 0.  1.
     999902    2    1    2    0    0 -0.12308902862E-01  0.18215663375E-01  0.82670814027E-02  0.10204424689E+01  0.10201721268E+01 0.  0.
     999903    2    3    3    0    0 -0.53073155772E-01 -0.76128730377E-01 -0.87865894182E-01  0.12926115293E+00  0.19382642882E-01 0.  0.
         14    1    1    2    0    0  0.12308902862E-01 -0.18215663375E-01 -0.82670814027E-02  0.23487531092E-01  0.00000000000E+00 0.  1.
     999901    1    3    3    0    0  0.40764252909E-01  0.94344393752E-01  0.96132975584E-01  0.89118131597E+00  0.88000000000E+00 0. -1.
        -11    1    4    4    0    0 -0.41289933807E-02 -0.12873223763E-01 -0.21151535349E-01  0.25108107157E-01  0.51100000000E-03 0. -1.
         11    1    4    4    0    0 -0.48944162391E-01 -0.63255506614E-01 -0.66714358832E-01  0.10415304578E+00  0.51100000000E-03 0.  1.
</event>
<event>
 8    1  0.1099921E+005  0.1043930E+01  0.7957747E-01            NaN
         13   -1    0    0    0    0  0.00000000000E+00  0.00000000000E+00  0.74505805969E-08  0.10566000000E+00  0.10566000000E+00 0.  1.
     999900   -1    0    0    0    0 -0.00000000000E+00 -0.00000000000E+00 -0.74505805969E-08  0.93827000000E+00  0.93827000000E+00 0. -1.
     999902    2    1    2    0    0  0.58314413048E-02  0.65516780884E-02 -0.22184788156E-01  0.10200742875E+01  0.10197953015E+01 0.  0.
     999903    2    3    3    0    0  0.16982033051E-01  0.12003573135E+00  0.43459808786E-01  0.13029219106E+00  0.19756867726E-01 0.  0.
         14    1    1    2    0    0 -0.58314413048E-02 -0.65516780884E-02  0.22184788156E-01  0.23855712503E-01  0.00000000000E+00 0.  1.
     999901    1    3    3    0    0 -0.11150591747E-01 -0.11348405326E+00 -0.65644596942E-01  0.88978209644E+00  0.88000000000E+00 0. -1.
        -11    1    4    4    0    0  0.18205384785E-01  0.64264009315E-01  0.27794187352E-01  0.72346920459E-01  0.51100000000E-03 0.  1.
         11    1    4    4    0    0 -0.12233517333E-02  0.55771722038E-01  0.15665621434E-01  0.57945270596E-01  0.51100000000E-03 0. -1.
</event>
<event>
 8    1  0.1099921E+005  0.1043930E+01  0.7957747E-01            NaN
         13   -1    0    0    0    0  0.00000000000E+00  0.00000000000E+00  0.74505805969E-08  0.10566000000E+00  0.10566000000E+00 0. -1.
     999900   -1    0    0    0    0 -0.00000000000E+00 -0.00000000000E+00 -0.74505805969E-08  0.93827000000E+00  0.93827000000E+00 0.  1.
     999902    2    1    2    0    0 -0.18487644753E-01 -0.13087536240E-01  0.76445779255E-02  0.10200235953E+01  0.10197434083E+01 0.  0.
     999903    2    3    3    0    0 -0.15240308143E-01 -0.75674600345E-01 -0.10372424658E+00  0.13079319724E+00  0.19728887101E-01 0.  0.
         14    1    1    2    0    0  0.18487644753E-01  0.13087536240E-01 -0.76445779255E-02  0.23906404686E-01  0.00000000000E+00 0. -1.
     999901    1    3    3    0    0 -0.32473366098E-02  0.62587064105E-01  0.11136882450E+00  0.88923039807E+00  0.88000000000E+00 0. -1.
        -11    1    4    4    0    0 -0.92772386881E-02 -0.35345167977E-01 -0.33422863902E-01  0.49524711099E-01  0.51100000000E-03 0. -1.
         11    1    4    4    0    0 -0.59630694550E-02 -0.40329432369E-01 -0.70301382676E-01  0.81268486141E-01  0.51100000000E-03 0.  1.
</event>
<event>
 8    1  0.1099921E+005  0.1043930E+01  0.7957747E-01            NaN
         13   -1    0    0    0    0  0.00000000000E+00  0.00000000000E+00  0.74505805969E-08  0.10566000000E+00  0.10566000000E+00 0. -1.
     999900   -1    0    0    0    0 -0.00000000000E+00 -0.00000000000E+00 -0.74505805969E-08  0.93827000000E+00  0.93827000000E+00 0.  1.
     999902    2    1    2    0    0 -0.18014522721E-01 -0.14412596309E-01 -0.53253068315E-02  0.10202529044E+01  0.10199781293E+01 0.  0.
     999903    2    3    3    0    0 -0.10956118092E+00 -0.11404350908E-01 -0.71936765402E-01  0.13299480976E+00  0.19468169440E-01 0.  0.
         14    1    1    2    0    0  0.18014522721E-01  0.14412596309E-01  0.53253068315E-02  0.23677095558E-01  0.00000000000E+00 0. -1.
     999901    1    3    3    0    0  0.91546658201E-01 -0.30082454006E-02  0.66611458571E-01  0.88725809468E+00  0.88000000000E+00 0. -1.
        -11    1    4    4    0    0 -0.13028095153E-01 -0.16528460931E-02 -0.17026746223E-01  0.21508937013E-01  0.51100000000E-03 0.  1.
         11    1    4    4    0    0 -0.96533085770E-01 -0.97515048154E-02 -0.54910019180E-01  0.11148587274E+00  0.51100000000E-03 0. -1.
</event>
<event>
 8    1  0.1099921E+005  0.1043930E+01  0.7957747E-01            NaN
         13   -1    0    0    0    0  0.00000000000E+00  0.00000000000E+00  0.74505805969E-08  0.10566000000E+00  0.10566000000E+00 0. -1.
     999900   -1    0    0    0    0 -0.00000000000E+00 -0.00000000000E+00 -0.74505805969E-08  0.93827000000E+00  0.93827000000E+00 0. -1.
     999902    2    1    2    0    0  0.12149365495E-01  0.20227447610E-01 -0.23575406522E-02  0.10202168240E+01  0.10199412009E+01 0.  0.
     999903    2    3    3    0    0 -0.73606864711E-01 -0.10015305807E+00 -0.21336165388E-01  0.12768907351E+00  0.20016542349E-01 0.  0.
         14    1    1    2    0    0 -0.12149365495E-01 -0.20227447610E-01  0.23575406522E-02  0.23713176014E-01  0.00000000000E+00 0. -1.
     999901    1    3    3    0    0  0.85756230206E-01  0.12038050568E+00  0.18978624736E-01  0.89252775047E+00  0.88000000000E+00 0. -1.
        -11    1    4    4    0    0 -0.46936566150E-01 -0.78730916307E-01 -0.16548687631E-01  0.93143537660E-01  0.51100000000E-03 0.  1.
         11    1    4    4    0    0 -0.26670298561E-01 -0.21422141763E-01 -0.47874777566E-02  0.34545535853E-01  0.51100000000E-03 0. -1.
</event>
<event>
 7    1  0.1099921E+005  0.1043930E+01  0.7957747E-01            NaN
         13   -1    0    0    0    0  0.00000000000E+00  0.00000000000E+00  0.74505805969E-08  0.10566000000E+00  0.10566000000E+00 0. -1.
     999900   -1    0    0    0    0 -0.00000000000E+00 -0.00000000000E+00 -0.74505805969E-08  0.93827000000E+00  0.93827000000E+00 0.  1.
     999903    2    1    2    0    0 -0.10696337023E+00 -0.22121781116E-01 -0.24191604710E-01  0.11366943739E+00  0.20123903384E-01 0.  0.
         14    1    1    2    0    0  0.66149092308E-02  0.43362120618E-01  0.43736647570E-02  0.44081282559E-01  0.00000000000E+00 0. -1.
     999901    1    1    2    0    0  0.10034846100E+00 -0.21240339502E-01  0.19817939953E-01  0.88617928005E+00  0.88000000000E+00 0. -1.
        -11    1    3    3    0    0 -0.18676155717E-01 -0.11676234073E-01 -0.26331913104E-02  0.22188466643E-01  0.51100000000E-03 0. -1.
         11    1    3    3    0    0 -0.88287214513E-01 -0.10445547043E-01 -0.21558413399E-01  0.91480970747E-01  0.51100000000E-03 0.  1.
</event>
<event>
 8    1  0.1099921E+005  0.1043930E+01  0.7957747E-01            NaN
         13   -1    0    0    0    0  0.00000000000E+00  0.00000000000E+00  0.74505805969E-08  0.10566000000E+00  0.10566000000E+00 0.  1.
     999900   -1    0    0    0    0 -0.00000000000E+00 -0.00000000000E+00 -0.74505805969E-08  0.93827000000E+00  0.93827000000E+00 0.  1.
     999902    2    1    2    0    0 -0.22649879572E-01 -0.11862522172E-01  0.42580670149E-02  0.10180095908E+01  0.10176795465E+01 0.  0.
     999903    2    3    3    0    0  0.98643268815E-01 -0.71719958029E-01 -0.29433820208E-01  0.12703816382E+00  0.19952404205E-01 0.  0.
         14    1    1    2    0    0  0.22649879572E-01  0.11862522172E-01 -0.42580670149E-02  0.25920409172E-01  0.00000000000E+00 0.  1.
     999901    1    3    3    0    0 -0.12129314839E+00  0.59857435856E-01  0.33691887223E-01  0.89097142700E+00  0.88000000000E+00 0.  1.
        -11    1    4    4    0    0  0.56362523685E-01 -0.38445765326E-01 -0.64618218446E-02  0.68533402150E-01  0.51100000000E-03 0.  1.
         11    1    4    4    0    0  0.42280745130E-01 -0.33274192702E-01 -0.22971998364E-01  0.58504761674E-01  0.51100000000E-03 0. -1.
</event>
<event>
 8    1  0.1099921E+005  0.1043930E+01  0.7957747E-01            NaN
         13   -1    0    0    0    0  0.00000000000E+00  0.00000000000E+00  0.74505805969E-08  0.10566000000E+00  0.10566000000E+00 0. -1.
     999900   -1    0    0    0    0 -0.00000000000E+00 -0.00000000000E+00 -0.74505805969E-08  0.93827000000E+00  0.93827000000E+00 0. -1.
     999902    2    1    2    0    0 -0.17024573887E-01 -0.14912741087E-01 -0.69429132709E-02  0.10202565970E+01  0.10199819086E+01 0.  0.
     999903    2    3    3    0    0 -0.16129685360E-01  0.81504097507E-01  0.96745472134E-01  0.12893830998E+00  0.19034619556E-01 0.  0.
         14    1    1    2    0    0  0.17024573887E-01  0.14912741087E-01  0.69429132709E-02  0.23673402955E-01  0.00000000000E+00 0. -1.
     999901    1    3    3    0    0 -0.89488852726E-03 -0.96416838594E-01 -0.10368838541E+00  0.89131828707E+00  0.88000000000E+00 0. -1.
        -11    1    4    4    0    0 -0.16922397883E-01  0.50349841610E-01  0.69960462231E-01  0.87841911960E-01  0.51100000000E-03 0.  1.
         11    1    4    4    0    0  0.79271252251E-03  0.31154255897E-01  0.26785009903E-01  0.41096398019E-01  0.51100000000E-03 0. -1.
</event>
<event>
 8    1  0.1099921E+005  0.1043930E+01  0.7957747E-01            NaN
         13   -1    0    0    0    0  0.00000000000E+00  0.00000000000E+00  0.74505805969E-08  0.10566000000E+00  0.10566000000E+00 0. -1.
     999900   -1    0    0    0    0 -0.00000000000E+00 -0.00000000000E+00 -0.74505805969E-08  0.93827000000E+00  0.93827000000E+00 0. -1.
     999902    2    1    2    0    0 -0.20101638704E-01 -0.41959786028E-02 -0.12731590575E-01  0.10197685532E+01  0.10194822836E+01 0.  0.
     999903    2    3    3    0    0  0.83080658978E-01 -0.38827775190E-01  0.86267438380E-01  0.12755402984E+00  0.20444255438E-01 0.  0.
         14    1    1    2    0    0  0.20101638704E-01  0.41959786028E-02  0.12731590575E-01  0.24161446844E-01  0.00000000000E+00 0. -1.
     999901    1    3    3    0    0 -0.10318229768E+00  0.34631796588E-01 -0.98999028955E-01  0.89221452332E+00  0.88000000000E+00 0. -1.
        -11    1    4    4    0    0  0.47563651123E-01 -0.23436430681E-01  0.35933252289E-01  0.64054874383E-01  0.51100000000E-03 0.  1.
         11    1    4    4    0    0  0.35517007854E-01 -0.15391344510E-01  0.50334186091E-01  0.63499155453E-01  0.51100000000E-03 0. -1.
</event>
<event>
 8    1  0.1099921E+005  0.1043930E+01  0.7957747E-01            NaN
         13   -1    0    0    0    0  0.00000000000E+00  0.00000000000E+00  0.74505805969E-08  0.10566000000E+00  0.10566000000E+00 0.  1.
     999900   -1    0    0    0    0 -0.00000000000E+00 -0.00000000000E+00 -0.74505805969E-08  0.93827000000E+00  0.93827000000E+00 0.  1.
     999902    2    1    2    0    0 -0.28122402062E-02 -0.92332800947E-02 -0.20422999633E-01  0.10213410410E+01  0.10210912109E+01 0.  0.
     999903    2    3    3    0    0  0.83219579926E-01  0.59099405894E-02  0.96709069779E-01  0.12929243641E+00  0.20086414664E-01 0.  0.
         14    1    1    2    0    0  0.28122402062E-02  0.92332800947E-02  0.20422999633E-01  0.22588959035E-01  0.00000000000E+00 0.  1.
     999901    1    3    3    0    0 -0.86031820132E-01 -0.15143220684E-01 -0.11713206941E+00  0.89204860456E+00  0.88000000000E+00 0. -1.
        -11    1    4    4    0    0  0.46740483080E-01 -0.38644503714E-02  0.63879912418E-01  0.79249675500E-01  0.51100000000E-03 0. -1.
         11    1    4    4    0    0  0.36479096845E-01  0.97743909608E-02  0.32829157361E-01  0.50042760908E-01  0.51100000000E-03 0.  1.
</event>
<event>
 8    1  0.1099921E+005  0.1043930E+01  0.7957747E-01            NaN
         13   -1    0    0    0    0  0.00000000000E+00  0.00000000000E+00  0.74505805969E-08  0.10566000000E+00  0.10566000000E+00 0.  1.
     999900   -1    0    0    0    0 -0.00000000000E+00 -0.00000000000E+00 -0.74505805969E-08  0.93827000000E+00  0.93827000000E+00 0. -1.
     999902    2    1    2    0    0 -0.10021857298E-01 -0.21481118882E-01  0.23221212580E-02  0.10201126043E+01  0.10198345243E+01 0.  0.
     999903    2    3    3    0    0  0.92997736149E-02  0.12162748352E+00  0.32515528470E-01  0.12783179682E+00  0.20099207742E-01 0.  0.
         14    1    1    2    0    0  0.10021857298E-01  0.21481118882E-01 -0.23221212580E-02  0.23817395728E-01  0.00000000000E+00 0. -1.
     999901    1    3    3    0    0 -0.19321630913E-01 -0.14310860240E+00 -0.30193407212E-01  0.89228080745E+00  0.88000000000E+00 0. -1.
        -11    1    4    4    0    0  0.31531018120E-02  0.10671073687E+00  0.23395659091E-01  0.10929200062E+00  0.51100000000E-03 0. -1.
         11    1    4    4    0    0  0.61466718029E-02  0.14916746643E-01  0.91198693786E-02  0.18539796200E-01  0.51100000000E-03 0.  1.
</event>
<event>
 8    1  0.1099921E+005  0.1043930E+01  0.7957747E-01            NaN
         13   -1    0    0    0    0  0.00000000000E+00  0.00000000000E+00  0.74505805969E-08  0.10566000000E+00  0.10566000000E+00 0. -1.
     999900   -1    0    0    0    0 -0.00000000000E+00 -0.00000000000E+00 -0.74505805969E-08  0.93827000000E+00  0.93827000000E+00 0. -1.
     999902    2    1    2    0    0  0.41995275153E-02  0.80008825651E-02  0.22318782920E-01  0.10198514157E+01  0.10195671296E+01 0.  0.
     999903    2    3    3    0    0  0.31210008138E-01 -0.11985581815E+00  0.34321010030E-01  0.13012058251E+00  0.20345822958E-01 0.  0.
         14    1    1    2    0    0 -0.41995275153E-02 -0.80008825651E-02 -0.22318782920E-01  0.24078584348E-01  0.00000000000E+00 0.  1.
     999901    1    3    3    0    0 -0.27010480623E-01  0.12785670072E+00 -0.12002227111E-01  0.88973083314E+00  0.88000000000E+00 0. -1.
        -11    1    4    4    0    0  0.28015156388E-01 -0.68328112012E-01  0.21674405049E-01  0.76965062424E-01  0.51100000000E-03 0.  1.
         11    1    4    4    0    0  0.31948517501E-02 -0.51527706138E-01  0.12646604982E-01  0.53155520091E-01  0.51100000000E-03 0. -1.
</event>
<event>
 8    1  0.1099921E+005  0.1043930E+01  0.7957747E-01            NaN
         13   -1    0    0    0    0  0.00000000000E+00  0.00000000000E+00  0.74505805969E-08  0.10566000000E+00  0.10566000000E+00 0. -1.
     999900   -1    0    0    0    0 -0.00000000000E+00 -0.00000000000E+00 -0.74505805969E-08  0.93827000000E+00  0.93827000000E+00 0.  1.
     999902    2    1    2    0    0 -0.19993814668E-02  0.24103907058E-01  0.32502653450E-02  0.10195259002E+01  0.10192337814E+01 0.  0.
     999903    2    3    3    0    0 -0.22247010714E-02  0.73530540483E-01  0.10753683804E+00  0.13199069972E+00  0.21111219730E-01 0.  0.
         14    1    1    2    0    0  0.19993814668E-02 -0.24103907058E-01 -0.32502653450E-02  0.24404099789E-01  0.00000000000E+00 0.  1.
     999901    1    3    3    0    0  0.22531960459E-03 -0.49426633425E-01 -0.10428657270E+00  0.88753520049E+00  0.88000000000E+00 0.  1.
        -11    1    4    4    0    0  0.41694782593E-02  0.32617774217E-01  0.32224160665E-01  0.46043038511E-01  0.51100000000E-03 0. -1.
         11    1    4    4    0    0 -0.63941793306E-02  0.40912766266E-01  0.75312677378E-01  0.85947661211E-01  0.51100000000E-03 0.  1.
</event>
<event>
 8    1  0.1099921E+005  0.1043930E+01  0.7957747E-01            NaN
         13   -1    0    0    0    0  0.00000000000E+00  0.00000000000E+00  0.74505805969E-08  0.10566000000E+00  0.10566000000E+00 0.  1.
     999900   -1    0    0    0    0 -0.00000000000E+00 -0.00000000000E+00 -0.74505805969E-08  0.93827000000E+00  0.93827000000E+00 0. -1.
     999902    2    1    2    0    0  0.17320604777E-01 -0.13407140555E-01  0.81098782825E-02  0.10205735257E+01  0.10203062268E+01 0.  0.
     999903    2    3    3    0    0  0.70761871888E-01 -0.90927386222E-01  0.65007188564E-01  0.13372367285E+00  0.19520605447E-01 0.  0.
         14    1    1    2    0    0 -0.17320604777E-01  0.13407140555E-01 -0.81098782825E-02  0.23356474337E-01  0.00000000000E+00 0. -1.
     999901    1    3    3    0    0 -0.53441267111E-01  0.77520245666E-01 -0.56897310282E-01  0.88684985281E+00  0.88000000000E+00 0. -1.
        -11    1    4    4    0    0  0.42598732885E-01 -0.47217863783E-01  0.25935607149E-01  0.68681114892E-01  0.51100000000E-03 0. -1.
         11    1    4    4    0    0  0.28163139003E-01 -0.43709522438E-01  0.39071581415E-01  0.65042557957E-01  0.51100000000E-03 0.  1.
</event>
<event>
 8    1  0.1099921E+005  0.1043930E+01  0.7957747E-01            NaN
         13   -1    0    0    0    0  0.00000000000E+00  0.00000000000E+00  0.74505805969E-08  0.10566000000E+00  0.10566000000E+00 0.  1.
     999900   -1    0    0    0    0 -0.00000000000E+00 -0.00000000000E+00 -0.74505805969E-08  0.93827000000E+00  0.93827000000E+00 0.  1.
     999902    2    1    2    0    0  0.44591429904E-02 -0.11147674480E-01 -0.20616083340E-01  0.10200725589E+01  0.10197935320E+01 0.  0.
     999903    2    3    3    0    0 -0.98700622348E-01 -0.83532387429E-01  0.32265122213E-02  0.13077510969E+00  0.19293686297E-01 0.  0.
         14    1    1    2    0    0 -0.44591429904E-02  0.11147674480E-01  0.20616083340E-01  0.23857441078E-01  0.00000000000E+00 0.  1.
     999901    1    3    3    0    0  0.10315976534E+00  0.72384712950E-01 -0.23842595561E-01  0.88929744924E+00  0.88000000000E+00 0.  1.
        -11    1    4    4    0    0 -0.25879148096E-01 -0.33613011432E-01 -0.41483506591E-04  0.42424376078E-01  0.51100000000E-03 0.  1.
         11    1    4    4    0    0 -0.72821474252E-01 -0.49919375998E-01  0.32679957279E-02  0.88350733609E-01  0.51100000000E-03 0. -1.
</event>
<event>
 8    1  0.1099921E+005  0.1043930E+01  0.7957747E-01            NaN
         13   -1    0    0    0    0  0.00000000000E+00  0.00000000000E+00  0.74505805969E-08  0.10566000000E+00  0.10566000000E+00 0.  1.
     999900   -1    0    0    0    0 -0.00000000000E+00 -0.00000000000E+00 -0.74505805969E-08  0.93827000000E+00  0.93827000000E+00 0.  1.
     999902    2    1    2    0    0  0.11933310020E-02 -0.27250193142E-01 -0.14522606054E-02  0.10166150567E+01  0.10162480344E+01 0.  0.
     999903    2    3    3    0    0  0.55388204645E-01  0.57666143067E-01  0.94779231658E-01  0.12565581603E+00  0.20323485865E-01 0.  0.
         14    1    1    2    0    0 -0.11933310020E-02  0.27250193142E-01  0.14522606054E-02  0.27314943273E-01  0.00000000000E+00 0. -1.
     999901    1    3    3    0    0 -0.54194873643E-01 -0.84916336209E-01 -0.96231492264E-01  0.89095924070E+00  0.88000000000E+00 0. -1.
        -11    1    4    4    0    0  0.90378405995E-02  0.18375766517E-01  0.34115126121E-01  0.39792641393E-01  0.51100000000E-03 0. -1.
         11    1    4    4    0    0  0.46350364045E-01  0.39290376550E-01  0.60664105537E-01  0.85863174634E-01  0.51100000000E-03 0.  1.
</event>
<event>
 8    1  0.1099921E+005  0.1043930E+01  0.7957747E-01            NaN
         13   -1    0    0    0    0  0.00000000000E+00  0.00000000000E+00  0.74505805969E-08  0.10566000000E+00  0.10566000000E+00 0. -1.
     999900   -1    0    0    0    0 -0.00000000000E+00 -0.00000000000E+00 -0.74505805969E-08  0.93827000000E+00  0.93827000000E+00 0. -1.
     999902    2    1    2    0    0  0.16122072473E-01 -0.17817160267E-02 -0.17271865661E-01  0.10202358430E+01  0.10199606670E+01 0.  0.
     999903    2    3    3    0    0 -0.97367215330E-01 -0.36089242070E-01  0.71685705354E-01  0.12784003718E+00  0.20528680919E-01 0.  0.
         14    1    1    2    0    0 -0.16122072473E-01  0.17817160267E-02  0.17271865661E-01  0.23694157006E-01  0.00000000000E+00 0. -1.
     999901    1    3    3    0    0  0.11348928780E+00  0.34307526043E-01 -0.88957571015E-01  0.89239580581E+00  0.88000000000E+00 0. -1.
        -11    1    4    4    0    0 -0.36567709398E-01 -0.22367567061E-01  0.22340415168E-01  0.48341087056E-01  0.51100000000E-03 0. -1.
         11    1    4    4    0    0 -0.60799505932E-01 -0.13721675009E-01  0.49345290187E-01  0.79498950126E-01  0.51100000000E-03 0.  1.
</event>
<event>
 8    1  0.1099921E+005  0.1043930E+01  0.7957747E-01            NaN
         13   -1    0    0    0    0  0.00000000000E+00  0.00000000000E+00  0.74505805969E-08  0.10566000000E+00  0.10566000000E+00 0. -1.
     999900   -1    0    0    0    0 -0.00000000000E+00 -0.00000000000E+00 -0.74505805969E-08  0.93827000000E+00  0.93827000000E+00 0.  1.
     999902    2    1    2    0    0  0.61043271678E-02  0.12109398412E-01 -0.20135606688E-01  0.10196536124E+01  0.10193645796E+01 0.  0.
     999903    2    3    3    0    0  0.10348336664E-01  0.69989573922E-01 -0.11105001404E+00  0.13306827761E+00  0.19220623271E-01 0.  0.
         14    1    1    2    0    0 -0.61043271678E-02 -0.12109398412E-01  0.20135606688E-01  0.24276387639E-01  0.00000000000E+00 0. -1.
     999901    1    3    3    0    0 -0.42440094961E-02 -0.57880175510E-01  0.90914407348E-01  0.88658533475E+00  0.88000000000E+00 0. -1.
        -11    1    4    4    0    0  0.10536681038E-01  0.17305033030E-01 -0.37003185690E-01  0.42189841049E-01  0.51100000000E-03 0.  1.
         11    1    4    4    0    0 -0.18834437439E-03  0.52684540892E-01 -0.74046828346E-01  0.90878436561E-01  0.51100000000E-03 0. -1.
</event>
<event>
 8    1  0.1099921E+005  0.1043930E+01  0.7957747E-01            NaN
         13   -1    0    0    0    0  0.00000000000E+00  0.00000000000E+00  0.74505805969E-08  0.10566000000E+00  0.10566000000E+00 0.  1.
     999900   -1    0    0    0    0 -0.00000000000E+00 -0.00000000000E+00 -0.74505805969E-08  0.93827000000E+00  0.93827000000E+00 0.  1.
     999902    2    1    2    0    0 -0.20173294888E-02 -0.19435902989E-01  0.12987366196E-01  0.10204673568E+01  0.10201975940E+01 0.  0.
     999903    2    3    3    0    0  0.35774945293E-01 -0.12647038518E+00 -0.52148912496E-02  0.13299005652E+00  0.19610074036E-01 0.  0.
         14    1    1    2    0    0  0.20173294888E-02  0.19435902989E-01 -0.12987366196E-01  0.23462643158E-01  0.00000000000E+00 0. -1.
     999901    1    3    3    0    0 -0.37792274782E-01  0.10703448219E+00  0.18202257445E-01  0.88747730032E+00  0.88000000000E+00 0. -1.
        -11    1    4    4    0    0  0.73729834092E-02 -0.28925109399E-01  0.69914876914E-02  0.30662107873E-01  0.51100000000E-03 0. -1.
         11    1    4    4    0    0  0.28401961884E-01 -0.97545275783E-01 -0.12206378941E-01  0.10232794865E+00  0.51100000000E-03 0.  1.
</event>
<event>
 8    1  0.1099921E+005  0.1043930E+01  0.7957747E-01            NaN
         13   -1    0    0    0    0  0.00000000000E+00  0.00000000000E+00  0.74505805969E-08  0.10566000000E+00  0.10566000000E+00 0.  1.
     999900   -1    0    0    0    0 -0.00000000000E+00 -0.00000000000E+00 -0.74505805969E-08  0.93827000000E+00  0.93827000000E+00 0.  1.
     999902    2    1    2    0    0  0.10680561867E-01 -0.21656866056E-01  0.31738141917E-02  0.10195749729E+01  0.10192840419E+01 0.  0.
     999903    2    3    3    0    0 -0.31886250026E-01  0.11692149925E+00  0.32520323495E-01  0.12723136507E+00  0.21044687934E-01 0.  0.
         14    1    1    2    0    0 -0.10680561867E-01  0.21656866056E-01 -0.31738141917E-02  0.24355027113E-01  0.00000000000E+00 0. -1.
     999901    1    3    3    0    0  0.42566811893E-01 -0.13857836530E+00 -0.29346509303E-01  0.89234360782E+00  0.88000000000E+00 0.  1.
        -11    1    4    4    0    0 -0.97443126410E-02  0.69653999227E-01  0.13142288987E-01  0.71551464821E-01  0.51100000000E-03 0.  1.
         11    1    4    4    0    0 -0.22141937385E-01  0.47267500020E-01  0.19378034507E-01  0.55679900248E-01  0.51100000000E-03 0. -1.
</event>
<event>
 8    1  0.1099921E+005  0.1043930E+01  0.7957747E-01            NaN
         13   -1    0    0    0    0  0.00000000000E+00  0.00000000000E+00  0.74505805969E-08  0.10566000000E+00  0.10566000000E+00 0.  1.
     999900   -1    0    0    0    0 -0.00000000000E+00 -0.00000000000E+00 -0.74505805969E-08  0.93827000000E+00  0.93827000000E+00 0.  1.
     999902    2    1    2    0    0  0.91568025337E-02 -0.18206316475E-01  0.12207748499E-01  0.10201740299E+01  0.10198973993E+01 0.  0.
     999903    2    3    3    0    0 -0.89177370672E-01  0.21774848906E-01  0.90235087025E-01  0.13036710209E+00  0.20650978017E-01 0.  0.
         14    1    1    2    0    0 -0.91568025337E-02  0.18206316475E-01 -0.12207748499E-01  0.23755970106E-01  0.00000000000E+00 0. -1.
     999901    1    3    3    0    0  0.98334173205E-01 -0.39981165381E-01 -0.78027338526E-01  0.88980692780E+00  0.88000000000E+00 0. -1.
        -11    1    4    4    0    0 -0.69090947995E-01  0.13814738692E-01  0.56559305004E-01  0.90352765334E-01  0.51100000000E-03 0.  1.
         11    1    4    4    0    0 -0.20086422677E-01  0.79601102140E-02  0.33675782021E-01  0.40014336760E-01  0.51100000000E-03 0. -1.
</event>
<event>
 8    1  0.1099921E+005  0.1043930E+01  0.7957747E-01            NaN
         13   -1    0    0    0    0  0.00000000000E+00  0.00000000000E+00  0.74505805969E-08  0.10566000000E+00  0.10566000000E+00 0.  1.
     999900   -1    0    0    0    0 -0.00000000000E+00 -0.00000000000E+00 -0.74505805969E-08  0.93827000000E+00  0.93827000000E+00 0.  1.
     999902    2    1    2    0    0 -0.14023298564E-01  0.10171422255E-01  0.87571339265E-02  0.10245187113E+01  0.10243348045E+01 0.  0.
     999903    2    3    3    0    0 -0.84938588523E-01 -0.96948811896E-01 -0.31680763598E-01  0.13427214634E+00  0.20290454716E-01 0.  0.
         14    1    1    2    0    0  0.14023298564E-01 -0.10171422255E-01 -0.87571339265E-02  0.19411288672E-01  0.00000000000E+00 0. -1.
     999901    1    3    3    0    0  0.70915289959E-01  0.10712023415E+00  0.40437897525E-01  0.89024656499E+00  0.88000000000E+00 0. -1.
        -11    1    4    4    0    0 -0.33294373041E-01 -0.33783049753E-01 -0.20938444644E-02  0.47481101846E-01  0.51100000000E-03 0. -1.
         11    1    4    4    0    0 -0.51644215482E-01 -0.63165762142E-01 -0.29586919134E-01  0.86791044495E-01  0.51100000000E-03 0.  1.
</event>
<event>
 8    1  0.1099921E+005  0.1043930E+01  0.7957747E-01            NaN
         13   -1    0    0    0    0  0.00000000000E+00  0.00000000000E+00  0.74505805969E-08  0.10566000000E+00  0.10566000000E+00 0. -1.
     999900   -1    0    0    0    0 -0.00000000000E+00 -0.00000000000E+00 -0.74505805969E-08  0.93827000000E+00  0.93827000000E+00 0.  1.
     999902    2    1    2    0    0  0.82673131007E-02 -0.15652665127E-01 -0.16014372134E-01  0.10200592123E+01  0.10197798694E+01 0.  0.
     999903    2    3    3    0    0 -0.28673794662E-01 -0.58119299836E-01  0.11009873972E+00  0.12928843510E+00  0.19842566579E-01 0.  0.
         14    1    1    2    0    0 -0.82673131007E-02  0.15652665127E-01  0.16014372134E-01  0.23870787719E-01  0.00000000000E+00 0. -1.
     999901    1    3    3    0    0  0.36941107762E-01  0.42466634709E-01 -0.12611311185E+00  0.89077077719E+00  0.88000000000E+00 0.  1.
        -11    1    4    4    0    0 -0.31692334147E-01 -0.52667817677E-01  0.98351448520E-01  0.11598091054E+00  0.51100000000E-03 0. -1.
         11    1    4    4    0    0  0.30185394848E-02 -0.54514821594E-02  0.11747291198E-01  0.13307524558E-01  0.51100000000E-03 0.  1.
</event>
<event>
 8    1  0.1099921E+005  0.1043930E+01  0.7957747E-01            NaN
         13   -1    0    0    0    0  0.00000000000E+00  0.00000000000E+00  0.74505805969E-08  0.10566000000E+00  0.10566000000E+00 0. -1.
     999900   -1    0    0    0    0 -0.00000000000E+00 -0.00000000000E+00 -0.74505805969E-08  0.93827000000E+00  0.93827000000E+00 0.  1.
     999902    2    1    2    0    0 -0.20449134060E-01  0.70131345535E-02  0.10564629985E-01  0.10198683594E+01  0.10195844781E+01 0.  0.
     999903    2    3    3    0    0 -0.24958898364E-02 -0.35872713757E-01 -0.12275665310E+00  0.12861302033E+00  0.13380286159E-01 0.  0.
         14    1    1    2    0    0  0.20449134060E-01 -0.70131345535E-02 -0.10564629985E-01  0.24061640567E-01  0.00000000000E+00 0.  1.
     999901    1    3    3    0    0 -0.17953244223E-01  0.42885848311E-01  0.13332128309E+00  0.89125533911E+00  0.88000000000E+00 0. -1.
        -11    1    4    4    0    0 -0.21721654326E-02 -0.19629691422E-01 -0.44533703974E-01  0.48719144067E-01  0.51100000000E-03 0.  1.
         11    1    4    4    0    0 -0.32372440379E-03 -0.16243022335E-01 -0.78222949129E-01  0.79893876258E-01  0.51100000000E-03 0. -1.
</event>
<event>
 8    1  0.1099921E+005  0.1043930E+01  0.7957747E-01            NaN
         13   -1    0    0    0    0  0.00000000000E+00  0.00000000000E+00  0.74505805969E-08  0.10566000000E+00  0.10566000000E+00 0.  1.
     999900   -1    0    0    0    0 -0.00000000000E+00 -0.00000000000E+00 -0.74505805969E-08  0.93827000000E+00  0.93827000000E+00 0.  1.
     999902    2    1    2    0    0  0.20586401907E-01 -0.73679876316E-02 -0.59620220864E-02  0.10212665296E+01  0.10210150300E+01 0.  0.
     999903    2    3    3    0    0  0.21067195662E-01  0.11637336762E+00 -0.53652460724E-01  0.13133027785E+00  0.19556786936E-01 0.  0.
         14    1    1    2    0    0 -0.20586401907E-01  0.73679876316E-02  0.59620220864E-02  0.22663470444E-01  0.00000000000E+00 0.  1.
     999901    1    3    3    0    0 -0.48079375523E-03 -0.12374135525E+00  0.47690438637E-01  0.88993625170E+00  0.88000000000E+00 0.  1.
        -11    1    4    4    0    0  0.10058234915E-01  0.47364856337E-01 -0.11683629372E-01  0.49813311692E-01  0.51100000000E-03 0. -1.
         11    1    4    4    0    0  0.11008960747E-01  0.69008511279E-01 -0.41968831351E-01  0.81516966159E-01  0.51100000000E-03 0.  1.
</event>
<event>
 8    1  0.1099921E+005  0.1043930E+01  0.7957747E-01            NaN
         13   -1    0    0    0    0  0.00000000000E+00  0.00000000000E+00  0.74505805969E-08  0.10566000000E+00  0.10566000000E+00 0. -1.
     999900   -1    0    0    0    0 -0.00000000000E+00 -0.00000000000E+00 -0.74505805969E-08  0.93827000000E+00  0.93827000000E+00 0.  1.
     999902    2    1    2    0    0  0.74111804372E-02  0.22829101597E-01 -0.63974457339E-02  0.10190900969E+01  0.10187873207E+01 0.  0.
     999903    2    3    3    0    0 -0.19094799843E-01 -0.88341418444E-02  0.12388314058E+00  0.12854073882E+00  0.27074629680E-01 0.  0.
         14    1    1    2    0    0 -0.74111804372E-02 -0.22829101597E-01  0.63974457339E-02  0.24839903122E-01  0.00000000000E+00 0. -1.
     999901    1    3    3    0    0  0.26505980281E-01  0.31663243441E-01 -0.13028058631E+00  0.89054935806E+00  0.88000000000E+00 0.  1.
        -11    1    4    4    0    0 -0.25151865074E-01 -0.10719703351E-01  0.89908731427E-01  0.93975366264E-01  0.51100000000E-03 0. -1.
         11    1    4    4    0    0  0.60570652303E-02  0.18855615062E-02  0.33974409152E-01  0.34565372551E-01  0.51100000000E-03 0.  1.
</event>
<event>
 8    1  0.1099921E+005  0.1043930E+01  0.7957747E-01            NaN
         13   -1    0    0    0    0  0.00000000000E+00  0.00000000000E+00  0.74505805969E-08  0.10566000000E+00  0.10566000000E+00 0. -1.
     999900   -1    0    0    0    0 -0.00000000000E+00 -0.00000000000E+00 -0.74505805969E-08  0.93827000000E+00  0.93827000000E+00 0. -1.
     999902    2    1    2    0    0 -0.16687173729E-01  0.15096332604E-01  0.75932641398E-02  0.10201809224E+01  0.10199044543E+01 0.  0.
     999903    2    3    3    0    0 -0.45305181332E-01  0.11770957748E+00  0.38831266581E-01  0.13320613069E+00  0.18108061851E-01 0.  0.
         14    1    1    2    0    0  0.16687173729E-01 -0.15096332604E-01 -0.75932641398E-02  0.23749077570E-01  0.00000000000E+00 0.  1.
     999901    1    3    3    0    0  0.28618007604E-01 -0.10261324487E+00 -0.31238002442E-01  0.88697479174E+00  0.88000000000E+00 0. -1.
        -11    1    4    4    0    0 -0.27248677483E-01  0.87654128895E-01  0.33612963938E-01  0.97753921674E-01  0.51100000000E-03 0. -1.
         11    1    4    4    0    0 -0.18056503849E-01  0.30055448582E-01  0.52183026429E-02  0.35452209017E-01  0.51100000000E-03 0.  1.
</event>
<event>
 8    1  0.1099921E+005  0.1043930E+01  0.7957747E-01            NaN
         13   -1    0    0    0    0  0.00000000000E+00  0.00000000000E+00  0.74505805969E-08  0.10566000000E+00  0.10566000000E+00 0. -1.
     999900   -1    0    0    0    0 -0.00000000000E+00 -0.00000000000E+00 -0.74505805969E-08  0.93827000000E+00  0.93827000000E+00 0. -1.
     999902    2    1    2    0    0  0.10067903094E-02 -0.20568330425E-01  0.12043104804E-01  0.10200740528E+01  0.10197950613E+01 0.  0.
     999903    2    3    3    0    0 -0.59715582738E-01  0.10259934752E+00  0.46019853678E-01  0.12877617727E+00  0.19310617945E-01 0.  0.
         14    1    1    2    0    0 -0.10067903094E-02  0.20568330425E-01 -0.12043104804E-01  0.23855947194E-01  0.00000000000E+00 0.  1.
     999901    1    3    3    0    0  0.60722373047E-01 -0.12316767794E+00 -0.33976748874E-01  0.89129787554E+00  0.88000000000E+00 0.  1.
        -11    1    4    4    0    0 -0.21157831157E-01  0.55331086360E-01  0.24108552546E-01  0.63958317394E-01  0.51100000000E-03 0. -1.
         11    1    4    4    0    0 -0.38557751580E-01  0.47268261161E-01  0.21911301132E-01  0.64817859872E-01  0.51100000000E-03 0.  1.
</event>
<event>
 8    1  0.1099921E+005  0.1043930E+01  0.7957747E-01            NaN
         13   -1    0    0    0    0  0.00000000000E+00  0.00000000000E+00  0.74505805969E-08  0.10566000000E+00  0.10566000000E+00 0.  1.
     999900   -1    0    0    0    0 -0.00000000000E+00 -0.00000000000E+00 -0.74505805969E-08  0.93827000000E+00  0.93827000000E+00 0.  1.
     999902    2    1    2    0    0  0.20268970310E-01  0.92383356180E-02 -0.83146524363E-02  0.10201537209E+01  0.10198766116E+01 0.  0.
     999903    2    3    3    0    0  0.58313915684E-01 -0.10276283852E+00 -0.53287554199E-01  0.13110127995E+00  0.19679136905E-01 0.  0.
         14    1    1    2    0    0 -0.20268970310E-01 -0.92383356180E-02  0.83146524363E-02  0.23776279094E-01  0.00000000000E+00 0.  1.
     999901    1    3    3    0    0 -0.38044945375E-01  0.11200117414E+00  0.44972901763E-01  0.88905244096E+00  0.88000000000E+00 0. -1.
        -11    1    4    4    0    0  0.19419656526E-01 -0.29471566434E-01 -0.25695076646E-01  0.43659985942E-01  0.51100000000E-03 0.  1.
         11    1    4    4    0    0  0.38894259158E-01 -0.73291272085E-01 -0.27592477553E-01  0.87441294008E-01  0.51100000000E-03 0. -1.
</event>
<event>
 8    1  0.1099921E+005  0.1043930E+01  0.7957747E-01            NaN
         13   -1    0    0    0    0  0.00000000000E+00  0.00000000000E+00  0.74505805969E-08  0.10566000000E+00  0.10566000000E+00 0.  1.
     999900   -1    0    0    0    0 -0.00000000000E+00 -0.00000000000E+00 -0.74505805969E-08  0.93827000000E+00  0.93827000000E+00 0.  1.
     999902    2    1    2    0    0  0.10285212944E-01 -0.20281705545E-01 -0.81237093640E-02  0.10197819599E+01  0.10194960117E+01 0.  0.
     999903    2    3    3    0    0 -0.43933528122E-01  0.98295632492E-02  0.11873276429E+00  0.12852502431E+00  0.19860446903E-01 0.  0.
         14    1    1    2    0    0 -0.10285212944E-01  0.20281705545E-01  0.81237093640E-02  0.24148040065E-01  0.00000000000E+00 0. -1.
     999901    1    3    3    0    0  0.54218741066E-01 -0.30111268795E-01 -0.12685647365E+00  0.89125693562E+00  0.88000000000E+00 0.  1.
        -11    1    4    4    0    0 -0.52672465041E-02 -0.45337166248E-02  0.28017581084E-01  0.28871169754E-01  0.51100000000E-03 0.  1.
         11    1    4    4    0    0 -0.38666281618E-01  0.14363279874E-01  0.90715183206E-01  0.99653854557E-01  0.51100000000E-03 0. -1.
</event>
<event>
 8    1  0.1099921E+005  0.1043930E+01  0.7957747E-01            NaN
         13   -1    0    0    0    0  0.00000000000E+00  0.00000000000E+00  0.74505805969E-08  0.10566000000E+00  0.10566000000E+00 0. -1.
     999900   -1    0    0    0    0 -0.00000000000E+00 -0.00000000000E+00 -0.74505805969E-08  0.93827000000E+00  0.93827000000E+00 0. -1.
     999902    2    1    2    0    0 -0.15775051421E-01 -0.14455565860E-01 -0.21056839572E-02  0.10224300108E+01  0.10222039314E+01 0.  0.
     999903    2    3    3    0    0 -0.12885945322E+00  0.30690628874E-01 -0.64359602916E-02  0.13403538443E+00  0.19426510502E-01 0.  0.
         14    1    1    2    0    0  0.15775051421E-01  0.14455565860E-01  0.21056839572E-02  0.21499989223E-01  0.00000000000E+00 0. -1.
     999901    1    3    3    0    0  0.11308440180E+00 -0.45146194734E-01  0.43302763344E-02  0.88839462635E+00  0.88000000000E+00 0.  1.
        -11    1    4    4    0    0 -0.72860899098E-01  0.22593696068E-01 -0.11824071844E-01  0.77196214385E-01  0.51100000000E-03 0. -1.
         11    1    4    4    0    0 -0.55998554120E-01  0.80969328052E-02  0.53881115519E-02  0.56839170046E-01  0.51100000000E-03 0.  1.
</event>
<event>
 8    1  0.1099921E+005  0.1043930E+01  0.7957747E-01            NaN
         13   -1    0    0    0    0  0.00000000000E+00  0.00000000000E+00  0.74505805969E-08  0.10566000000E+00  0.10566000000E+00 0.  1.
     999900   -1    0    0    0    0 -0.00000000000E+00 -0.00000000000E+00 -0.74505805969E-08  0.93827000000E+00  0.93827000000E+00 0. -1.
     999902    2    1    2    0    0 -0.20313309144E-01 -0.11087229331E-01  0.40156463264E-03  0.10207844078E+01  0.10205219688E+01 0.  0.
     999903    2    3    3    0    0 -0.80725820083E-01 -0.70978060099E-01 -0.76323149467E-01  0.13335933221E+00  0.20123252716E-01 0.  0.
         14    1    1    2    0    0  0.20313309144E-01  0.11087229331E-01 -0.40156463264E-03  0.23145592168E-01  0.00000000000E+00 0. -1.
     999901    1    3    3    0    0  0.60412510938E-01  0.59890830768E-01  0.76724714100E-01  0.88742507562E+00  0.88000000000E+00 0.  1.
        -11    1    4    4    0    0 -0.27830267161E-01 -0.31470120124E-01 -0.19798633418E-01  0.46445013049E-01  0.51100000000E-03 0.  1.
         11    1    4    4    0    0 -0.52895552922E-01 -0.39507939975E-01 -0.56524516049E-01  0.86914319162E-01  0.51100000000E-03 0. -1.
</event>
<event>
 8    1  0.1099921E+005  0.1043930E+01  0.7957747E-01            NaN
         13   -1    0    0    0    0  0.00000000000E+00  0.00000000000E+00  0.74505805969E-08  0.10566000000E+00  0.10566000000E+00 0.  1.
     999900   -1    0    0    0    0 -0.00000000000E+00 -0.00000000000E+00 -0.74505805969E-08  0.93827000000E+00  0.93827000000E+00 0. -1.
     999902    2    1    2    0    0 -0.33277625498E-02  0.17034071427E-01 -0.15860893333E-01  0.10204182682E+01  0.10201473622E+01 0.  0.
     999903    2    3    3    0    0 -0.10579537984E+00 -0.72531143819E-01 -0.44201718178E-02  0.12988335568E+00  0.19917804756E-01 0.  0.
         14    1    1    2    0    0  0.33277625498E-02 -0.17034071427E-01  0.15860893333E-01  0.23511731758E-01  0.00000000000E+00 0.  1.
     999901    1    3    3    0    0  0.10246761729E+00  0.89565215246E-01 -0.11440721515E-01  0.89053491256E+00  0.88000000000E+00 0.  1.
        -11    1    4    4    0    0 -0.47079800426E-01 -0.20557275924E-01 -0.27883479167E-02  0.51450415029E-01  0.51100000000E-03 0. -1.
         11    1    4    4    0    0 -0.58715579412E-01 -0.51973867895E-01 -0.16318239011E-02  0.78432940656E-01  0.51100000000E-03 0.  1.
</event>
<event>
 8    1  0.1099921E+005  0.1043930E+01  0.7957747E-01            NaN
         13   -1    0    0    0    0  0.00000000000E+00  0.00000000000E+00  0.74505805969E-08  0.10566000000E+00  0.10566000000E+00 0. -1.
     999900   -1    0    0    0    0 -0.00000000000E+00 -0.00000000000E+00 -0.74505805969E-08  0.93827000000E+00  0.93827000000E+00 0. -1.
     999902    2    1    2    0    0  0.11040237839E-01 -0.90657823616E-02  0.20325010346E-01  0.10190868660E+01  0.10187840101E+01 0.  0.
     999903    2    3    3    0    0 -0.11181770012E-01 -0.12823424446E+00  0.13351068501E-01  0.13074933113E+00  0.18656986028E-01 0.  0.
         14    1    1    2    0    0 -0.11040237839E-01  0.90657823616E-02 -0.20325010346E-01  0.24843134000E-01  0.00000000000E+00 0.  1.
     999901    1    3    3    0    0  0.22222007852E-01  0.11916846210E+00  0.69739418442E-02  0.88833753487E+00  0.88000000000E+00 0. -1.
        -11    1    4    4    0    0  0.27605674142E-02 -0.70412566639E-01  0.44845982957E-02  0.70611068651E-01  0.51100000000E-03 0.  1.
         11    1    4    4    0    0 -0.13942337426E-01 -0.57821677823E-01  0.88664702057E-02  0.60138262480E-01  0.51100000000E-03 0. -1.
</event>
<event>
 8    1  0.1099921E+005  0.1043930E+01  0.7957747E-01            NaN
         13   -1    0    0    0    0  0.00000000000E+00  0.00000000000E+00  0.74505805969E-08  0.10566000000E+00  0.10566000000E+00 0.  1.
     999900   -1    0    0    0    0 -0.00000000000E+00 -0.00000000000E+00 -0.74505805969E-08  0.93827000000E+00  0.93827000000E+00 0. -1.
     999902    2    1    2    0    0  0.18385742602E-01  0.16935623039E-01  0.12323396760E-02  0.10189026246E+01  0.10185952036E+01 0.  0.
     999903    2    3    3    0    0 -0.10229339718E+00  0.67472897682E-01  0.30328945182E-01  0.12875427552E+00  0.25323655322E-01 0.  0.
         14    1    1    2    0    0 -0.18385742602E-01 -0.16935623039E-01 -0.12323396760E-02  0.25027375408E-01  0.00000000000E+00 0. -1.
     999901    1    3    3    0    0  0.12067913979E+00 -0.50537274643E-01 -0.29096605506E-01  0.89014834907E+00  0.88000000000E+00 0.  1.
        -11    1    4    4    0    0 -0.70920804373E-01  0.51706774290E-01  0.32446006369E-01  0.93575399815E-01  0.51100000000E-03 0.  1.
         11    1    4    4    0    0 -0.31372592812E-01  0.15766123393E-01 -0.21170611867E-02  0.35178875702E-01  0.51100000000E-03 0. -1.
</event>
<event>
 8    1  0.1099921E+005  0.1043930E+01  0.7957747E-01            NaN
         13   -1    0    0    0    0  0.00000000000E+00  0.00000000000E+00  0.74505805969E-08  0.10566000000E+00  0.10566000000E+00 0.  1.
     999900   -1    0    0    0    0 -0.00000000000E+00 -0.00000000000E+00 -0.74505805969E-08  0.93827000000E+00  0.93827000000E+00 0.  1.
     999902    2    1    2    0    0  0.51587867287E-02 -0.10341323857E-01 -0.22465662240E-01  0.10186661515E+01  0.10183528201E+01 0.  0.
     999903    2    3    3    0    0  0.78807636003E-01 -0.25516584378E-01 -0.10083580280E+00  0.13198902852E+00  0.19786484122E-01 0.  0.
         14    1    1    2    0    0 -0.51587867287E-02  0.10341323857E-01  0.22465662240E-01  0.25263848470E-01  0.00000000000E+00 0.  1.
     999901    1    3    3    0    0 -0.73648849274E-01  0.15175260521E-01  0.78370140559E-01  0.88667712301E+00  0.88000000000E+00 0. -1.
        -11    1    4    4    0    0  0.45332897485E-01 -0.60583608359E-02 -0.46094527213E-01  0.64936445009E-01  0.51100000000E-03 0.  1.
         11    1    4    4    0    0  0.33474738517E-01 -0.19458223542E-01 -0.54741275586E-01  0.67052583515E-01  0.51100000000E-03 0. -1.
</event>
<event>
 8    1  0.1099921E+005  0.1043930E+01  0.7957747E-01            NaN
         13   -1    0    0    0    0  0.00000000000E+00  0.00000000000E+00  0.74505805969E-08  0.10566000000E+00  0.10566000000E+00 0. -1.
     999900   -1    0    0    0    0 -0.00000000000E+00 -0.00000000000E+00 -0.74505805969E-08  0.93827000000E+00  0.93827000000E+00 0. -1.
     999902    2    1    2    0    0 -0.21717026661E-01  0.92088870146E-02  0.69411540505E-02  0.10193411312E+01  0.10190445179E+01 0.  0.
     999903    2    3    3    0    0  0.56066704600E-02  0.87263079983E-01 -0.94019111518E-01  0.12971648192E+00  0.18452438033E-01 0.  0.
         14    1    1    2    0    0  0.21717026661E-01 -0.92088870146E-02 -0.69411540505E-02  0.24588868753E-01  0.00000000000E+00 0.  1.
     999901    1    3    3    0    0 -0.27323697121E-01 -0.78054192969E-01  0.10096026557E+00  0.88962464933E+00  0.88000000000E+00 0.  1.
        -11    1    4    4    0    0 -0.23987982254E-02  0.42809360655E-01 -0.34729582099E-01  0.55179711728E-01  0.51100000000E-03 0.  1.
         11    1    4    4    0    0  0.80054686855E-02  0.44453719329E-01 -0.59289529419E-01  0.74536770193E-01  0.51100000000E-03 0. -1.
</event>
<event>
 8    1  0.1099921E+005  0.1043930E+01  0.7957747E-01            NaN
         13   -1    0    0    0    0  0.00000000000E+00  0.00000000000E+00  0.74505805969E-08  0.10566000000E+00  0.10566000000E+00 0.  1.
     999900   -1    0    0    0    0 -0.00000000000E+00 -0.00000000000E+00 -0.74505805969E-08  0.93827000000E+00  0.93827000000E+00 0.  1.
     999902    2    1    2    0    0  0.23541595917E-02 -0.67406032428E-02 -0.21672840820E-01  0.10211113710E+01  0.10208563769E+01 0.  0.
     999903    2    3    3    0    0 -0.60800892085E-01  0.74713623674E-01  0.83099635444E-01  0.12892270071E+00  0.20895916045E-01 0.  0.
         14    1    1    2    0    0 -0.23541595917E-02  0.67406032428E-02  0.21672840820E-01  0.22818628984E-01  0.00000000000E+00 0.  1.
     999901    1    3    3    0    0  0.63155051677E-01 -0.81454226916E-01 -0.10477247626E+00  0.89218867030E+00  0.88000000000E+00 0. -1.
        -11    1    4    4    0    0 -0.18707557451E-01  0.36845890190E-01  0.28017467094E-01  0.49928267674E-01  0.51100000000E-03 0.  1.
         11    1    4    4    0    0 -0.42093334635E-01  0.37867733484E-01  0.55082168351E-01  0.78994433039E-01  0.51100000000E-03 0. -1.
</event>
<event>
 8    1  0.1099921E+005  0.1043930E+01  0.7957747E-01            NaN
         13   -1    0    0    0    0  0.00000000000E+00  0.00000000000E+00  0.74505805969E-08  0.10566000000E+00  0.10566000000E+00 0. -1.
     999900   -1    0    0    0    0 -0.00000000000E+00 -0.00000000000E+00 -0.74505805969E-08  0.93827000000E+00  0.93827000000E+00 0.  1.
     999902    2    1    2    0    0  0.11445467465E-01  0.91153945794E-03 -0.21054906658E-01  0.10199479500E+01  0.10196659658E+01 0.  0.
     999903    2    3    3    0    0 -0.67437950386E-01  0.10658674060E+00 -0.24497675955E-01  0.13011555315E+00  0.20525852519E-01 0.  0.
         14    1    1    2    0    0 -0.11445467465E-01 -0.91153945794E-03  0.21054906658E-01  0.23982050038E-01  0.00000000000E+00 0. -1.
     999901    1    3    3    0    0  0.78883417851E-01 -0.10567520114E+00  0.34427692967E-02  0.88983239681E+00  0.88000000000E+00 0. -1.
        -11    1    4    4    0    0 -0.29533411872E-01  0.29143093009E-01 -0.59437939605E-02  0.41918159485E-01  0.51100000000E-03 0.  1.
         11    1    4    4    0    0 -0.37904538514E-01  0.77443647590E-01 -0.18553881994E-01  0.88197393669E-01  0.51100000000E-03 0. -1.
</event>
<event>
 8    1  0.1099921E+005  0.1043930E+01  0.7957747E-01            NaN
         13   -1    0    0    0    0  0.00000000000E+00  0.00000000000E+00  0.74505805969E-08  0.10566000000E+00  0.10566000000E+00 0.  1.
     999900   -1    0    0    0    0 -0.00000000000E+00 -0.00000000000E+00 -0.74505805969E-08  0.93827000000E+00  0.93827000000E+00 0.  1.
     999902    2    1    2    0    0 -0.23055832952E-01  0.74708356880E-02 -0.62409599737E-02  0.10189033262E+01  0.10185959227E+01 0.  0.
     999903    2    3    3    0    0 -0.44169847226E-01 -0.10350706458E-01  0.11918901671E+00  0.12957993846E+00  0.22952695264E-01 0.  0.
         14    1    1    2    0    0  0.23055832952E-01 -0.74708356880E-02  0.62409599737E-02  0.25026673778E-01  0.00000000000E+00 0.  1.
     999901    1    3    3    0    0  0.21114014274E-01  0.17821542146E-01 -0.12542997668E+00  0.88932338776E+00  0.88000000000E+00 0.  1.
        -11    1    4    4    0    0 -0.15063811919E-02 -0.74267966870E-02  0.25174957700E-01  0.26295743183E-01  0.51100000000E-03 0.  1.
         11    1    4    4    0    0 -0.42663466034E-01 -0.29239097705E-02  0.94014059010E-01  0.10328419528E+00  0.51100000000E-03 0. -1.
</event>
<event>
 8    1  0.1099921E+005  0.1043930E+01  0.7957747E-01            NaN
         13   -1    0    0    0    0  0.00000000000E+00  0.00000000000E+00  0.74505805969E-08  0.10566000000E+00  0.10566000000E+00 0. -1.
     999900   -1    0    0    0    0 -0.00000000000E+00 -0.00000000000E+00 -0.74505805969E-08  0.93827000000E+00  0.93827000000E+00 0.  1.
     999902    2    1    2    0    0  0.70237531233E-02  0.22353282929E-01 -0.93333075365E-02  0.10187087194E+01  0.10183964562E+01 0.  0.
     999903    2    3    3    0    0  0.15721542481E-01  0.48440004436E-02 -0.12791705296E+00  0.13053963010E+00  0.20178982880E-01 0.  0.
         14    1    1    2    0    0 -0.70237531233E-02 -0.22353282929E-01  0.93333075365E-02  0.25221280602E-01  0.00000000000E+00 0. -1.
     999901    1    3    3    0    0 -0.86977893574E-02  0.17509282485E-01  0.11858374542E+00  0.88816908930E+00  0.88000000000E+00 0. -1.
        -11    1    4    4    0    0  0.11444705727E-01 -0.69553857658E-02 -0.70861881443E-01  0.72118139486E-01  0.51100000000E-03 0.  1.
         11    1    4    4    0    0  0.42768367542E-02  0.11799386209E-01 -0.57055171515E-01  0.58421490610E-01  0.51100000000E-03 0. -1.
</event>
<event>
 8    1  0.1099921E+005  0.1043930E+01  0.7957747E-01            NaN
         13   -1    0    0    0    0  0.00000000000E+00  0.00000000000E+00  0.74505805969E-08  0.10566000000E+00  0.10566000000E+00 0.  1.
     999900   -1    0    0    0    0 -0.00000000000E+00 -0.00000000000E+00 -0.74505805969E-08  0.93827000000E+00  0.93827000000E+00 0. -1.
     999902    2    1    2    0    0 -0.11293662685E-02  0.23208937315E-01  0.27927534376E-02  0.10205263740E+01  0.10202579822E+01 0.  0.
     999903    2    3    3    0    0 -0.52177706167E-01  0.53373533603E-01 -0.10657218695E+00  0.13177639447E+00  0.20883965123E-01 0.  0.
         14    1    1    2    0    0  0.11293662685E-02 -0.23208937315E-01 -0.27927534376E-02  0.23403626028E-01  0.00000000000E+00 0. -1.
     999901    1    3    3    0    0  0.51048339899E-01 -0.30164596288E-01  0.10936494038E+00  0.88874997950E+00  0.88000000000E+00 0.  1.
        -11    1    4    4    0    0 -0.31728547353E-02  0.14596565186E-01 -0.18446378914E-01  0.23741456114E-01  0.51100000000E-03 0. -1.
         11    1    4    4    0    0 -0.49004851432E-01  0.38776968418E-01 -0.88125808034E-01  0.10803493836E+00  0.51100000000E-03 0.  1.
</event>
<event>
 8    1  0.1099921E+005  0.1043930E+01  0.7957747E-01            NaN
         13   -1    0    0    0    0  0.00000000000E+00  0.00000000000E+00  0.74505805969E-08  0.10566000000E+00  0.10566000000E+00 0. -1.
     999900   -1    0    0    0    0 -0.00000000000E+00 -0.00000000000E+00 -0.74505805969E-08  0.93827000000E+00  0.93827000000E+00 0. -1.
     999902    2    1    2    0    0 -0.16090137807E-01  0.93395362585E-02 -0.15351114952E-01  0.10198099626E+01  0.10195246852E+01 0.  0.
     999903    2    3    3    0    0 -0.53552085899E-01  0.11390902033E+00  0.32564948636E-01  0.13153403495E+00  0.19940803758E-01 0.  0.
         14    1    1    2    0    0  0.16090137807E-01 -0.93395362585E-02  0.15351114952E-01  0.24120037364E-01  0.00000000000E+00 0.  1.
     999901    1    3    3    0    0  0.37461948091E-01 -0.10456948407E+00 -0.47916063588E-01  0.88827592768E+00  0.88000000000E+00 0.  1.
        -11    1    4    4    0    0 -0.19252722239E-01  0.21566418669E-01  0.82806041846E-02  0.30076689553E-01  0.51100000000E-03 0.  1.
         11    1    4    4    0    0 -0.34299363659E-01  0.92342601660E-01  0.24284344451E-01  0.10145734540E+00  0.51100000000E-03 0. -1.
</event>
<event>
 8    1  0.1099921E+005  0.1043930E+01  0.7957747E-01            NaN
         13   -1    0    0    0    0  0.00000000000E+00  0.00000000000E+00  0.74505805969E-08  0.10566000000E+00  0.10566000000E+00 0. -1.
     999900   -1    0    0    0    0 -0.00000000000E+00 -0.00000000000E+00 -0.74505805969E-08  0.93827000000E+00  0.93827000000E+00 0.  1.
     999902    2    1    2    0    0  0.17977136144E-01 -0.14154139178E-01 -0.56917748746E-02  0.10203521846E+01  0.10200797357E+01 0.  0.
     999903    2    3    3    0    0  0.13368390749E-01 -0.38662605036E-01  0.12260508466E+00  0.13069944916E+00  0.19412066566E-01 0.  0.
         14    1    1    2    0    0 -0.17977136144E-01  0.14154139178E-01  0.56917748746E-02  0.23577815443E-01  0.00000000000E+00 0.  1.
     999901    1    3    3    0    0  0.46087453956E-02  0.24508465858E-01 -0.12829685953E+00  0.88965273540E+00  0.88000000000E+00 0.  1.
        -11    1    4    4    0    0  0.42247357438E-02 -0.46933881721E-02  0.53891801671E-02  0.83174917200E-02  0.51100000000E-03 0. -1.
         11    1    4    4    0    0  0.91436550050E-02 -0.33969216863E-01  0.11721590449E+00  0.12238195744E+00  0.51100000000E-03 0.  1.
</event>
<event>
 8    1  0.1099921E+005  0.1043930E+01  0.7957747E-01            NaN
         13   -1    0    0    0    0  0.00000000000E+00  0.00000000000E+00  0.74505805969E-08  0.10566000000E+00  0.10566000000E+00 0.  1.
     999900   -1    0    0    0    0 -0.00000000000E+00 -0.00000000000E+00 -0.74505805969E-08  0.93827000000E+00  0.93827000000E+00 0.  1.
     999902    2    1    2    0    0  0.16856527752E-01 -0.21050982474E-02 -0.16011012644E-01  0.10205863394E+01  0.10203193371E+01 0.  0.
     999903    2    3    3    0    0  0.12512910340E+00  0.11964795575E-01 -0.40194530512E-01  0.13350925415E+00  0.20215632843E-01 0.  0.
         14    1    1    2    0    0 -0.16856527752E-01  0.21050982474E-02  0.16011012644E-01  0.23343660646E-01  0.00000000000E+00 0.  1.
     999901    1    3    3    0    0 -0.10827257565E+00 -0.14069893823E-01  0.24183517868E-01  0.88707708520E+00  0.88000000000E+00 0.  1.
        -11    1    4    4    0    0  0.52901781253E-02  0.48945478898E-02 -0.15043274252E-02  0.73801562074E-02  0.51100000000E-03 0. -1.
         11    1    4    4    0    0  0.11983892527E+00  0.70702476856E-02 -0.38690203087E-01  0.12612909795E+00  0.51100000000E-03 0.  1.
</event>
<event>
 8    1  0.1099921E+005  0.1043930E+01  0.7957747E-01            NaN
         13   -1    0    0    0    0  0.00000000000E+00  0.00000000000E+00  0.74505805969E-08  0.10566000000E+00  0.10566000000E+00 0.  1.
     999900   -1    0    0    0    0 -0.00000000000E+00 -0.00000000000E+00 -0.74505805969E-08  0.93827000000E+00  0.93827000000E+00 0.  1.
     999902    2    1    2    0    0  0.13547248268E-01  0.50196529186E-02  0.17005606856E-01  0.10216159794E+01  0.10213722602E+01 0.  0.
     999903    2    3    3    0    0 -0.11251846979E+00  0.43784217753E-01 -0.45559251590E-01  0.12959040898E+00  0.11856008089E-01 0.  0.
         14    1    1    2    0    0 -0.13547248268E-01 -0.50196529186E-02 -0.17005606856E-01  0.22314020606E-01  0.00000000000E+00 0. -1.
     999901    1    3    3    0    0  0.12606571805E+00 -0.38764564834E-01  0.62564858446E-01  0.89202557041E+00  0.88000000000E+00 0. -1.
        -11    1    4    4    0    0 -0.67040566858E-01  0.22823930438E-01 -0.31959095314E-01  0.77698225846E-01  0.51100000000E-03 0. -1.
         11    1    4    4    0    0 -0.45477902928E-01  0.20960287315E-01 -0.13600156276E-01  0.51892183137E-01  0.51100000000E-03 0.  1.
</event>
<event>
 8    1  0.1099921E+005  0.1043930E+01  0.7957747E-01            NaN
         13   -1    0    0    0    0  0.00000000000E+00  0.00000000000E+00  0.74505805969E-08  0.10566000000E+00  0.10566000000E+00 0. -1.
     999900   -1    0    0    0    0 -0.00000000000E+00 -0.00000000000E+00 -0.74505805969E-08  0.93827000000E+00  0.93827000000E+00 0. -1.
     999902    2    1    2    0    0  0.19596936055E-01 -0.26410628831E-02  0.71156067684E-03  0.10241430994E+01  0.10239519357E+01 0.  0.
     999903    2    3    3    0    0 -0.69826926071E-01  0.74731862529E-01 -0.81679639628E-01  0.13241920348E+00  0.20065668169E-01 0.  0.
         14    1    1    2    0    0 -0.19596936055E-01  0.26410628831E-02 -0.71156067684E-03  0.19786900578E-01  0.00000000000E+00 0.  1.
     999901    1    3    3    0    0  0.89423862126E-01 -0.77372925412E-01  0.82391200305E-01  0.89172389594E+00  0.88000000000E+00 0.  1.
        -11    1    4    4    0    0 -0.44581460081E-01  0.58292797163E-01 -0.50662308923E-01  0.89176720339E-01  0.51100000000E-03 0. -1.
         11    1    4    4    0    0 -0.25245465990E-01  0.16439065366E-01 -0.31017330706E-01  0.43242483142E-01  0.51100000000E-03 0.  1.
</event>
<event>
 8    1  0.1099921E+005  0.1043930E+01  0.7957747E-01            NaN
         13   -1    0    0    0    0  0.00000000000E+00  0.00000000000E+00  0.74505805969E-08  0.10566000000E+00  0.10566000000E+00 0. -1.
     999900   -1    0    0    0    0 -0.00000000000E+00 -0.00000000000E+00 -0.74505805969E-08  0.93827000000E+00  0.93827000000E+00 0. -1.
     999902    2    1    2    0    0  0.31521745278E-02 -0.67392720784E-02  0.27595371034E-01  0.10153492636E+01  0.10149469289E+01 0.  0.
     999903    2    3    3    0    0 -0.12167048954E+00  0.22244583783E-01  0.31803915104E-02  0.12573313703E+00  0.22364644529E-01 0.  0.
         14    1    1    2    0    0 -0.31521745278E-02  0.67392720784E-02 -0.27595371034E-01  0.28580736430E-01  0.00000000000E+00 0.  1.
     999901    1    3    3    0    0  0.12482266407E+00 -0.28983855861E-01  0.24414979523E-01  0.88961612654E+00  0.88000000000E+00 0.  1.
        -11    1    4    4    0    0 -0.16133498551E-01 -0.45081784034E-02  0.17176941072E-02  0.16847107824E-01  0.51100000000E-03 0. -1.
         11    1    4    4    0    0 -0.10553699099E+00  0.26752762186E-01  0.14626974031E-02  0.10888602921E+00  0.51100000000E-03 0.  1.
</event>
<event>
 8    1  0.1099921E+005  0.1043930E+01  0.7957747E-01            NaN
         13   -1    0    0    0    0  0.00000000000E+00  0.00000000000E+00  0.74505805969E-08  0.10566000000E+00  0.10566000000E+00 0.  1.
     999900   -1    0    0    0    0 -0.00000000000E+00 -0.00000000000E+00 -0.74505805969E-08  0.93827000000E+00  0.93827000000E+00 0.  1.
     999902    2    1    2    0    0  0.60498835876E-02 -0.15391936417E-01  0.16734743841E-01  0.10204020496E+01  0.10201307653E+01 0.  0.
     999903    2    3    3    0    0  0.77005287732E-01 -0.49391429085E-01  0.95071642730E-01  0.13342555353E+00  0.19860349354E-01 0.  0.
         14    1    1    2    0    0 -0.60498835876E-02  0.15391936417E-01 -0.16734743841E-01  0.23527950390E-01  0.00000000000E+00 0. -1.
     999901    1    3    3    0    0 -0.70955404145E-01  0.33999492668E-01 -0.78336898889E-01  0.88697649608E+00  0.88000000000E+00 0. -1.
        -11    1    4    4    0    0  0.13396136888E-01 -0.16395274851E-01  0.29337491428E-01  0.36183021505E-01  0.51100000000E-03 0. -1.
         11    1    4    4    0    0  0.63609150845E-01 -0.32996154234E-01  0.65734151303E-01  0.97242532021E-01  0.51100000000E-03 0.  1.
</event>
<event>
 8    1  0.1099921E+005  0.1043930E+01  0.7957747E-01            NaN
         13   -1    0    0    0    0  0.00000000000E+00  0.00000000000E+00  0.74505805969E-08  0.10566000000E+00  0.10566000000E+00 0. -1.
     999900   -1    0    0    0    0 -0.00000000000E+00 -0.00000000000E+00 -0.74505805969E-08  0.93827000000E+00  0.93827000000E+00 0. -1.
     999902    2    1    2    0    0  0.59801812924E-02  0.24043371350E-01  0.73833398205E-02  0.10180773409E+01  0.10177490418E+01 0.  0.
     999903    2    3    3    0    0 -0.12101643966E+00  0.31597233484E-01 -0.21590715235E-01  0.12845680473E+00  0.19789589803E-01 0.  0.
         14    1    1    2    0    0 -0.59801812924E-02 -0.24043371350E-01 -0.73833398205E-02  0.25852659072E-01  0.00000000000E+00 0. -1.
     999901    1    3    3    0    0  0.12699662095E+00 -0.75538621338E-02  0.28974055056E-01  0.88962053620E+00  0.88000000000E+00 0.  1.
        -11    1    4    4    0    0 -0.39589846277E-01  0.17121433599E-01 -0.64746967146E-03  0.43141392591E-01  0.51100000000E-03 0.  1.
         11    1    4    4    0    0 -0.81426593381E-01  0.14475799886E-01 -0.20943245564E-01  0.85315412135E-01  0.51100000000E-03 0. -1.
</event>
<event>
 8    1  0.1099921E+005  0.1043930E+01  0.7957747E-01            NaN
         13   -1    0    0    0    0  0.00000000000E+00  0.00000000000E+00  0.74505805969E-08  0.10566000000E+00  0.10566000000E+00 0. -1.
     999900   -1    0    0    0    0 -0.00000000000E+00 -0.00000000000E+00 -0.74505805969E-08  0.93827000000E+00  0.93827000000E+00 0.  1.
     999902    2    1    2    0    0  0.56213535287E-02  0.22113992462E-02 -0.22595535374E-01  0.10205409401E+01  0.10202728862E+01 0.  0.
     999903    2    3    3    0    0  0.10997713678E+00  0.66942112212E-01 -0.21041896403E-01  0.13201260154E+00  0.20207636172E-01 0.  0.
         14    1    1    2    0    0 -0.56213535287E-02 -0.22113992462E-02  0.22595535374E-01  0.23389059856E-01  0.00000000000E+00 0. -1.
     999901    1    3    3    0    0 -0.10435578326E+00 -0.64730712965E-01 -0.15536389706E-02  0.88852833860E+00  0.88000000000E+00 0.  1.
        -11    1    4    4    0    0  0.67206628165E-01  0.31445692909E-01 -0.60784842187E-02  0.74449792231E-01  0.51100000000E-03 0.  1.
         11    1    4    4    0    0  0.42770508620E-01  0.35496419302E-01 -0.14963412185E-01  0.57562809314E-01  0.51100000000E-03 0. -1.
</event>
<event>
 8    1  0.1099921E+005  0.1043930E+01  0.7957747E-01            NaN
         13   -1    0    0    0    0  0.00000000000E+00  0.00000000000E+00  0.74505805969E-08  0.10566000000E+00  0.10566000000E+00 0. -1.
     999900   -1    0    0    0    0 -0.00000000000E+00 -0.00000000000E+00 -0.74505805969E-08  0.93827000000E+00  0.93827000000E+00 0. -1.
     999902    2    1    2    0    0  0.11101140158E-01 -0.19750294553E-01 -0.48246696763E-02  0.10207656549E+01  0.10205027855E+01 0.  0.
     999903    2    3    3    0    0 -0.32358764125E-01 -0.12668178784E+00 -0.15516974436E-01  0.13316358586E+00  0.19909774372E-01 0.  0.
         14    1    1    2    0    0 -0.11101140158E-01  0.19750294553E-01  0.48246696763E-02  0.23164345128E-01  0.00000000000E+00 0. -1.
     999901    1    3    3    0    0  0.43459904283E-01  0.10693149329E+00  0.10692304760E-01  0.88760206901E+00  0.88000000000E+00 0. -1.
        -11    1    4    4    0    0 -0.13576713018E-02 -0.19578868996E-02 -0.32464217340E-02  0.40591831137E-02  0.51100000000E-03 0.  1.
         11    1    4    4    0    0 -0.31001092823E-01 -0.12472390095E+00 -0.12270552702E-01  0.12910440274E+00  0.51100000000E-03 0. -1.
</event>
<event>
 8    1  0.1099921E+005  0.1043930E+01  0.7957747E-01            NaN
         13   -1    0    0    0    0  0.00000000000E+00  0.00000000000E+00  0.74505805969E-08  0.10566000000E+00  0.10566000000E+00 0. -1.
     999900   -1    0    0    0    0 -0.00000000000E+00 -0.00000000000E+00 -0.74505805969E-08  0.93827000000E+00  0.93827000000E+00 0. -1.
     999902    2    1    2    0    0 -0.14141251872E-01 -0.18133790817E-01  0.75264505331E-02  0.10197337848E+01  0.10194466808E+01 0.  0.
     999903    2    3    3    0    0  0.34853221748E-01  0.11735055338E+00 -0.27854599980E-01  0.12731668234E+00  0.21160326513E-01 0.  0.
         14    1    1    2    0    0  0.14141251872E-01  0.18133790817E-01 -0.75264505331E-02  0.24196215232E-01  0.00000000000E+00 0.  1.
     999901    1    3    3    0    0 -0.48994473620E-01 -0.13548434420E+00  0.35381050513E-01  0.89241710243E+00  0.88000000000E+00 0. -1.
        -11    1    4    4    0    0  0.32775519131E-01  0.80579868632E-01 -0.24244579784E-01  0.90307312290E-01  0.51100000000E-03 0. -1.
         11    1    4    4    0    0  0.20777026169E-02  0.36770684746E-01 -0.36100201962E-02  0.37009370052E-01  0.51100000000E-03 0.  1.
</event>
<event>
 8    1  0.1099921E+005  0.1043930E+01  0.7957747E-01            NaN
         13   -1    0    0    0    0  0.00000000000E+00  0.00000000000E+00  0.74505805969E-08  0.10566000000E+00  0.10566000000E+00 0.  1.
     999900   -1    0    0    0    0 -0.00000000000E+00 -0.00000000000E+00 -0.74505805969E-08  0.93827000000E+00  0.93827000000E+00 0.  1.
     999902    2    1    2    0    0  0.21355949728E-01  0.10176246120E-01  0.45161942670E-02  0.10198462174E+01  0.10195618071E+01 0.  0.
     999903    2    3    3    0    0 -0.79467591351E-01 -0.83119627375E-01 -0.51118056324E-01  0.12745354806E+00  0.20183674106E-01 0.  0.
         14    1    1    2    0    0 -0.21355949728E-01 -0.10176246120E-01 -0.45161942670E-02  0.24083782604E-01  0.00000000000E+00 0. -1.
     999901    1    3    3    0    0  0.10082354108E+00  0.93295873494E-01  0.55634250591E-01  0.89239266934E+00  0.88000000000E+00 0. -1.
        -11    1    4    4    0    0 -0.54098078684E-01 -0.68735832931E-01 -0.40736262039E-01  0.96493113805E-01  0.51100000000E-03 0. -1.
         11    1    4    4    0    0 -0.25369512668E-01 -0.14383794444E-01 -0.10381794285E-01  0.30960434254E-01  0.51100000000E-03 0.  1.
</event>
<event>
 8    1  0.1099921E+005  0.1043930E+01  0.7957747E-01            NaN
         13   -1    0    0    0    0  0.00000000000E+00  0.00000000000E+00  0.74505805969E-08  0.10566000000E+00  0.10566000000E+00 0.  1.
     999900   -1    0    0    0    0 -0.00000000000E+00 -0.00000000000E+00 -0.74505805969E-08  0.93827000000E+00  0.93827000000E+00 0.  1.
     999902    2    1    2    0    0 -0.18311786275E-01  0.11501759651E-02  0.10950509091E-01  0.10225627805E+01  0.10223395140E+01 0.  0.
     999903    2    3    3    0    0 -0.48736257110E-01  0.12227487153E+00 -0.89831921310E-02  0.13352161564E+00  0.20517240007E-01 0.  0.
         14    1    1    2    0    0  0.18311786275E-01 -0.11501759651E-02 -0.10950509091E-01  0.21367219536E-01  0.00000000000E+00 0. -1.
     999901    1    3    3    0    0  0.30424470834E-01 -0.12112469557E+00  0.19933701222E-01  0.88904116482E+00  0.88000000000E+00 0. -1.
        -11    1    4    4    0    0 -0.12505189447E-01  0.57755254548E-01 -0.11150110025E-02  0.59106290372E-01  0.51100000000E-03 0. -1.
         11    1    4    4    0    0 -0.36231067663E-01  0.64519616986E-01 -0.78681811285E-02  0.74415325271E-01  0.51100000000E-03 0.  1.
</event>
<event>
 8    1  0.1099921E+005  0.1043930E+01  0.7957747E-01            NaN
         13   -1    0    0    0    0  0.00000000000E+00  0.00000000000E+00  0.74505805969E-08  0.10566000000E+00  0.10566000000E+00 0. -1.
     999900   -1    0    0    0    0 -0.00000000000E+00 -0.00000000000E+00 -0.74505805969E-08  0.93827000000E+00  0.93827000000E+00 0.  1.
     999902    2    1    2    0    0  0.96810247758E-02 -0.79062522843E-02 -0.19994758285E-01  0.10203498935E+01  0.10200773910E+01 0.  0.
     999903    2    3    3    0    0  0.89763655354E-01  0.14293470785E-01 -0.95269954401E-01  0.13323523876E+00  0.20333408610E-01 0.  0.
         14    1    1    2    0    0 -0.96810247758E-02  0.79062522843E-02  0.19994758285E-01  0.23580106547E-01  0.00000000000E+00 0. -1.
     999901    1    3    3    0    0 -0.80082630578E-01 -0.22199723070E-01  0.75275196115E-01  0.88711465470E+00  0.88000000000E+00 0. -1.
        -11    1    4    4    0    0  0.23032247638E-01  0.71673615170E-02 -0.37979574281E-01  0.44995162917E-01  0.51100000000E-03 0. -1.
         11    1    4    4    0    0  0.66731407716E-01  0.71261092684E-02 -0.57290380120E-01  0.88240075841E-01  0.51100000000E-03 0.  1.
</event>
<event>
 8    1  0.1099921E+005  0.1043930E+01  0.7957747E-01            NaN
         13   -1    0    0    0    0  0.00000000000E+00  0.00000000000E+00  0.74505805969E-08  0.10566000000E+00  0.10566000000E+00 0. -1.
     999900   -1    0    0    0    0 -0.00000000000E+00 -0.00000000000E+00 -0.74505805969E-08  0.93827000000E+00  0.93827000000E+00 0.  1.
     999902    2    1    2    0    0 -0.23656128437E-01  0.67325778990E-02 -0.56345065708E-02  0.10186973291E+01  0.10183847802E+01 0.  0.
     999903    2    3    3    0    0  0.21417017047E-01  0.14142658284E-01  0.12401638958E+00  0.12802575514E+00  0.18757017143E-01 0.  0.
         14    1    1    2    0    0  0.23656128437E-01 -0.67325778990E-02  0.56345065708E-02  0.25232670927E-01  0.00000000000E+00 0.  1.
     999901    1    3    3    0    0 -0.45073145484E-01 -0.74100803847E-02 -0.12965089615E+00  0.89067157393E+00  0.88000000000E+00 0.  1.
        -11    1    4    4    0    0  0.70555163505E-02 -0.13686394917E-02  0.63782640667E-01  0.64188315576E-01  0.51100000000E-03 0.  1.
         11    1    4    4    0    0  0.14361500696E-01  0.15511297775E-01  0.60233748915E-01  0.63837439566E-01  0.51100000000E-03 0. -1.
</event>
<event>
 8    1  0.1099921E+005  0.1043930E+01  0.7957747E-01            NaN
         13   -1    0    0    0    0  0.00000000000E+00  0.00000000000E+00  0.74505805969E-08  0.10566000000E+00  0.10566000000E+00 0.  1.
     999900   -1    0    0    0    0 -0.00000000000E+00 -0.00000000000E+00 -0.74505805969E-08  0.93827000000E+00  0.93827000000E+00 0.  1.
     999902    2    1    2    0    0  0.15024774167E-01  0.79938496078E-02 -0.10536222137E-01  0.10239135706E+01  0.10237179018E+01 0.  0.
     999903    2    3    3    0    0 -0.91879015683E-01 -0.57079302794E-01  0.71481291408E-01  0.13128273535E+00  0.20634467520E-01 0.  0.
         14    1    1    2    0    0 -0.15024774167E-01 -0.79938496078E-02  0.10536222137E-01  0.20016429433E-01  0.00000000000E+00 0.  1.
     999901    1    3    3    0    0  0.10690378985E+00  0.65073152402E-01 -0.82017513546E-01  0.89263083521E+00  0.88000000000E+00 0.  1.
        -11    1    4    4    0    0 -0.28295736825E-01 -0.23503300487E-01  0.34458930613E-01  0.50405682976E-01  0.51100000000E-03 0. -1.
         11    1    4    4    0    0 -0.63583278858E-01 -0.33576002307E-01  0.37022360795E-01  0.80877052376E-01  0.51100000000E-03 0.  1.
</event>
<event>
 8    1  0.1099921E+005  0.1043930E+01  0.7957747E-01            NaN
         13   -1    0    0    0    0  0.00000000000E+00  0.00000000000E+00  0.74505805969E-08  0.10566000000E+00  0.10566000000E+00 0. -1.
     999900   -1    0    0    0    0 -0.00000000000E+00 -0.00000000000E+00 -0.74505805969E-08  0.93827000000E+00  0.93827000000E+00 0.  1.
     999902    2    1    2    0    0  0.98544234779E-03  0.20888287235E-01  0.10282558522E-01  0.10206271536E+01  0.10203610949E+01 0.  0.
     999903    2    3    3    0    0 -0.65046014853E-01  0.44665999192E-01 -0.10229455490E+00  0.13068381867E+00  0.19698958588E-01 0.  0.
         14    1    1    2    0    0 -0.98544234779E-03 -0.20888287235E-01 -0.10282558522E-01  0.23302846392E-01  0.00000000000E+00 0.  1.
     999901    1    3    3    0    0  0.66031457201E-01 -0.23777711957E-01  0.11257711342E+00  0.88994333493E+00  0.88000000000E+00 0. -1.
        -11    1    4    4    0    0 -0.34555881513E-01  0.34766107257E-01 -0.56825279521E-01  0.75047749297E-01  0.51100000000E-03 0.  1.
         11    1    4    4    0    0 -0.30490133340E-01  0.98998919351E-02 -0.45469275378E-01  0.55636069378E-01  0.51100000000E-03 0. -1.
</event>
<event>
 8    1  0.1099921E+005  0.1043930E+01  0.7957747E-01            NaN
         13   -1    0    0    0    0  0.00000000000E+00  0.00000000000E+00  0.74505805969E-08  0.10566000000E+00  0.10566000000E+00 0. -1.
     999900   -1    0    0    0    0 -0.00000000000E+00 -0.00000000000E+00 -0.74505805969E-08  0.93827000000E+00  0.93827000000E+00 0.  1.
     999902    2    1    2    0    0 -0.42801896829E-02 -0.11842288683E-01  0.20526885455E-01  0.10198486202E+01  0.10195642674E+01 0.  0.
     999903    2    3    3    0    0  0.54507351788E-01  0.91952437258E-01 -0.66736922552E-01  0.12752340354E+00  0.19547365581E-01 0.  0.
         14    1    1    2    0    0  0.42801896829E-02  0.11842288683E-01 -0.20526885455E-01  0.24081379767E-01  0.00000000000E+00 0.  1.
     999901    1    3    3    0    0 -0.58787541471E-01 -0.10379472594E+00  0.87263808008E-01  0.89232521670E+00  0.88000000000E+00 0. -1.
        -11    1    4    4    0    0  0.47175708959E-02  0.97239757064E-02 -0.59238127245E-03  0.10836199300E-01  0.51100000000E-03 0.  1.
         11    1    4    4    0    0  0.49789780892E-01  0.82228461551E-01 -0.66144541280E-01  0.11668720424E+00  0.51100000000E-03 0. -1.
</event>
<event>
 8    1  0.1099921E+005  0.1043930E+01  0.7957747E-01            NaN
         13   -1    0    0    0    0  0.00000000000E+00  0.00000000000E+00  0.74505805969E-08  0.10566000000E+00  0.10566000000E+00 0.  1.
     999900   -1    0    0    0    0 -0.00000000000E+00 -0.00000000000E+00 -0.74505805969E-08  0.93827000000E+00  0.93827000000E+00 0.  1.
     999902    2    1    2    0    0  0.20943508513E-01  0.66545534538E-02 -0.70528917582E-02  0.10208506388E+01  0.10205897167E+01 0.  0.
     999903    2    3    3    0    0 -0.98350064155E-01  0.24993905909E-01 -0.78326884146E-01  0.12975733825E+00  0.20110584209E-01 0.  0.
         14    1    1    2    0    0 -0.20943508513E-01 -0.66545534538E-02  0.70528917582E-02  0.23079361184E-01  0.00000000000E+00 0.  1.
     999901    1    3    3    0    0  0.11929357267E+00 -0.18339352455E-01  0.71273992387E-01  0.89109330057E+00  0.88000000000E+00 0. -1.
        -11    1    4    4    0    0 -0.49808728697E-01  0.20406866206E-01 -0.49405285323E-01  0.73064991491E-01  0.51100000000E-03 0.  1.
         11    1    4    4    0    0 -0.48541335458E-01  0.45870397032E-02 -0.28921598823E-01  0.56692346756E-01  0.51100000000E-03 0. -1.
</event>
<event>
 8    1  0.1180814E+005  0.1043930E+01  0.7957747E-01            NaN
         13   -1    0    0    0    0  0.00000000000E+00  0.00000000000E+00  0.74505805969E-08  0.10566000000E+00  0.10566000000E+00 0.  1.
     999900   -1    0    0    0    0 -0.00000000000E+00 -0.00000000000E+00 -0.74505805969E-08  0.93827000000E+00  0.93827000000E+00 0.  1.
     999902    2    1    2    0    0  0.28020702940E-03 -0.17171055962E-01  0.17215928683E-01  0.10196130948E+01  0.10193230848E+01 0.  0.
     999903    2    3    3    0    0  0.69183159504E-01 -0.88730931955E-01 -0.63235093891E-01  0.13037701829E+00  0.18439141887E-01 0.  0.
         14    1    1    2    0    0 -0.28020702940E-03  0.17171055962E-01 -0.17215928683E-01  0.24316905216E-01  0.00000000000E+00 0. -1.
     999901    1    3    3    0    0 -0.68902952474E-01  0.71559875992E-01  0.80451022574E-01  0.88923607650E+00  0.88000000000E+00 0. -1.
        -11    1    4    4    0    0  0.46544546908E-01 -0.45023808912E-01 -0.34419436273E-01  0.73338236481E-01  0.51100000000E-03 0.  1.
         11    1    4    4    0    0  0.22638612595E-01 -0.43707123043E-01 -0.28815657617E-01  0.57038781805E-01  0.51100000000E-03 0. -1.
</event>
<event>
 8    1  0.1099921E+005  0.1043930E+01  0.7957747E-01            NaN
         13   -1    0    0    0    0  0.00000000000E+00  0.00000000000E+00  0.74505805969E-08  0.10566000000E+00  0.10566000000E+00 0. -1.
     999900   -1    0    0    0    0 -0.00000000000E+00 -0.00000000000E+00 -0.74505805969E-08  0.93827000000E+00  0.93827000000E+00 0.  1.
     999902    2    1    2    0    0  0.16756465343E-01  0.43184874039E-03 -0.20639838378E-01  0.10173411198E+01  0.10169936015E+01 0.  0.
     999903    2    3    3    0    0 -0.36310858462E-01 -0.52467092916E-01 -0.11082321879E+00  0.12956441304E+00  0.20829714924E-01 0.  0.
         14    1    1    2    0    0 -0.16756465343E-01 -0.43184874039E-03  0.20639838378E-01  0.26588880240E-01  0.00000000000E+00 0. -1.
     999901    1    3    3    0    0  0.53067323805E-01  0.52898941656E-01  0.90183380410E-01  0.88777670672E+00  0.88000000000E+00 0.  1.
        -11    1    4    4    0    0 -0.16969606864E-01 -0.36516505646E-01 -0.82039854765E-01  0.91390489836E-01  0.51100000000E-03 0.  1.
         11    1    4    4    0    0 -0.19341251598E-01 -0.15950587270E-01 -0.28783364024E-01  0.38173923209E-01  0.51100000000E-03 0. -1.
</event>
<event>
 8    1  0.1099921E+005  0.1043930E+01  0.7957747E-01            NaN
         13   -1    0    0    0    0  0.00000000000E+00  0.00000000000E+00  0.74505805969E-08  0.10566000000E+00  0.10566000000E+00 0.  1.
     999900   -1    0    0    0    0 -0.00000000000E+00 -0.00000000000E+00 -0.74505805969E-08  0.93827000000E+00  0.93827000000E+00 0. -1.
     999902    2    1    2    0    0  0.18460466490E-01  0.84789856031E-02  0.12506446791E-01  0.10200743250E+01  0.10197953399E+01 0.  0.
     999903    2    3    3    0    0 -0.39378235421E-01  0.12266359955E+00  0.82291062430E-02  0.13080398523E+00  0.21094081676E-01 0.  0.
         14    1    1    2    0    0 -0.18460466490E-01 -0.84789856031E-02 -0.12506446791E-01  0.23855675032E-01  0.00000000000E+00 0.  1.
     999901    1    3    3    0    0  0.57838701910E-01 -0.11418461395E+00  0.42773405482E-02  0.88927033974E+00  0.88000000000E+00 0. -1.
        -11    1    4    4    0    0 -0.17334022510E-01  0.44082347107E-01  0.12769051096E-01  0.49061506803E-01  0.51100000000E-03 0. -1.
         11    1    4    4    0    0 -0.22044212910E-01  0.78581252445E-01 -0.45399448532E-02  0.81742478424E-01  0.51100000000E-03 0.  1.
</event>
<event>
 8    1  0.1099921E+005  0.1043930E+01  0.7957747E-01            NaN
         13   -1    0    0    0    0  0.00000000000E+00  0.00000000000E+00  0.74505805969E-08  0.10566000000E+00  0.10566000000E+00 0. -1.
     999900   -1    0    0    0    0 -0.00000000000E+00 -0.00000000000E+00 -0.74505805969E-08  0.93827000000E+00  0.93827000000E+00 0. -1.
     999902    2    1    2    0    0 -0.18619380652E-01  0.70749862015E-02  0.12261082726E-01  0.10205404529E+01  0.10202723877E+01 0.  0.
     999903    2    3    3    0    0 -0.32345338238E-01 -0.52389127796E-01  0.11613968736E+00  0.13233149813E+00  0.15243254276E-01 0.  0.
         14    1    1    2    0    0  0.18619380652E-01 -0.70749862015E-02 -0.12261082726E-01  0.23389547136E-01  0.00000000000E+00 0. -1.
     999901    1    3    3    0    0  0.13725957587E-01  0.59464113998E-01 -0.10387860463E+00  0.88820895473E+00  0.88000000000E+00 0. -1.
        -11    1    4    4    0    0 -0.25646623601E-01 -0.27568595999E-01  0.66211433171E-01  0.76170806685E-01  0.51100000000E-03 0.  1.
         11    1    4    4    0    0 -0.66987146369E-02 -0.24820531798E-01  0.49928254189E-01  0.56160691448E-01  0.51100000000E-03 0. -1.
</event>
<event>
 8    1  0.1099921E+005  0.1043930E+01  0.7957747E-01            NaN
         13   -1    0    0    0    0  0.00000000000E+00  0.00000000000E+00  0.74505805969E-08  0.10566000000E+00  0.10566000000E+00 0.  1.
     999900   -1    0    0    0    0 -0.00000000000E+00 -0.00000000000E+00 -0.74505805969E-08  0.93827000000E+00  0.93827000000E+00 0. -1.
     999902    2    1    2    0    0  0.20448974619E-01 -0.10600965277E-01 -0.59912742367E-02  0.10201300757E+01  0.10198524085E+01 0.  0.
     999903    2    3    3    0    0  0.12350904232E+00 -0.46846798222E-01  0.29284192672E-02  0.13332981701E+00  0.17865005600E-01 0.  0.
         14    1    1    2    0    0 -0.20448974619E-01  0.10600965277E-01  0.59912742367E-02  0.23799924260E-01  0.00000000000E+00 0.  1.
     999901    1    3    3    0    0 -0.10306006770E+00  0.36245832944E-01 -0.89196935039E-02  0.88680025873E+00  0.88000000000E+00 0.  1.
        -11    1    4    4    0    0  0.70813926881E-01 -0.29115552688E-01  0.10244664185E-01  0.77249866756E-01  0.51100000000E-03 0.  1.
         11    1    4    4    0    0  0.52695115439E-01 -0.17731245534E-01 -0.73162449180E-02  0.56079950249E-01  0.51100000000E-03 0. -1.
</event>
<event>
 8    1  0.1099921E+005  0.1043930E+01  0.7957747E-01            NaN
         13   -1    0    0    0    0  0.00000000000E+00  0.00000000000E+00  0.74505805969E-08  0.10566000000E+00  0.10566000000E+00 0.  1.
     999900   -1    0    0    0    0 -0.00000000000E+00 -0.00000000000E+00 -0.74505805969E-08  0.93827000000E+00  0.93827000000E+00 0. -1.
     999902    2    1    2    0    0 -0.17409014407E-01  0.14117387432E-01  0.60035433997E-02  0.10207261869E+01  0.10204624107E+01 0.  0.
     999903    2    3    3    0    0 -0.11761109334E+00 -0.44681364822E-01  0.35420340148E-01  0.13260282955E+00  0.22363279493E-01 0.  0.
         14    1    1    2    0    0  0.17409014407E-01 -0.14117387432E-01 -0.60035433997E-02  0.23203813132E-01  0.00000000000E+00 0. -1.
     999901    1    3    3    0    0  0.10020207893E+00  0.58798752254E-01 -0.29416796748E-01  0.88812335732E+00  0.88000000000E+00 0. -1.
        -11    1    4    4    0    0 -0.21996879318E-01 -0.49556572184E-02  0.14950162109E-01  0.27059004163E-01  0.51100000000E-03 0.  1.
         11    1    4    4    0    0 -0.95614214017E-01 -0.39725707604E-01  0.20470178039E-01  0.10554382538E+00  0.51100000000E-03 0. -1.
</event>
<event>
 8    1  0.1099921E+005  0.1043930E+01  0.7957747E-01            NaN
         13   -1    0    0    0    0  0.00000000000E+00  0.00000000000E+00  0.74505805969E-08  0.10566000000E+00  0.10566000000E+00 0. -1.
     999900   -1    0    0    0    0 -0.00000000000E+00 -0.00000000000E+00 -0.74505805969E-08  0.93827000000E+00  0.93827000000E+00 0.  1.
     999902    2    1    2    0    0 -0.20449072846E-01  0.59210103013E-02  0.22231721293E-02  0.10225252006E+01  0.10223011398E+01 0.  0.
     999903    2    3    3    0    0  0.90695637633E-01  0.92548963733E-01 -0.72695723119E-02  0.13126336411E+00  0.19652345951E-01 0.  0.
         14    1    1    2    0    0  0.20449072846E-01 -0.59210103013E-02 -0.22231721293E-02  0.21404799405E-01  0.00000000000E+00 0. -1.
     999901    1    3    3    0    0 -0.11114471048E+00 -0.86627953432E-01  0.94927444413E-02  0.89126183649E+00  0.88000000000E+00 0.  1.
        -11    1    4    4    0    0  0.48751520056E-01  0.36995652490E-01 -0.74361104792E-02  0.61651811579E-01  0.51100000000E-03 0.  1.
         11    1    4    4    0    0  0.41944117577E-01  0.55553311243E-01  0.16653816722E-03  0.69611552528E-01  0.51100000000E-03 0. -1.
</event>
<event>
 8    1  0.1099921E+005  0.1043930E+01  0.7957747E-01            NaN
         13   -1    0    0    0    0  0.00000000000E+00  0.00000000000E+00  0.74505805969E-08  0.10566000000E+00  0.10566000000E+00 0.  1.
     999900   -1    0    0    0    0 -0.00000000000E+00 -0.00000000000E+00 -0.74505805969E-08  0.93827000000E+00  0.93827000000E+00 0.  1.
     999902    2    1    2    0    0  0.14722278775E-01 -0.17863136542E-01  0.73299832585E-02  0.10196490240E+01  0.10193598807E+01 0.  0.
     999903    2    3    3    0    0 -0.79327227421E-01  0.35259835553E-01  0.93079442920E-01  0.12890757467E+00  0.20428291637E-01 0.  0.
         14    1    1    2    0    0 -0.14722278775E-01  0.17863136542E-01 -0.73299832585E-02  0.24280975969E-01  0.00000000000E+00 0. -1.
     999901    1    3    3    0    0  0.94049506196E-01 -0.53122972095E-01 -0.85749459661E-01  0.89074144936E+00  0.88000000000E+00 0.  1.
        -11    1    4    4    0    0 -0.43855703674E-01  0.84261953080E-02  0.48569476310E-01  0.65981653982E-01  0.51100000000E-03 0. -1.
         11    1    4    4    0    0 -0.35471523746E-01  0.26833640245E-01  0.44509966610E-01  0.62925920687E-01  0.51100000000E-03 0.  1.
</event>
<event>
 8    1  0.1099921E+005  0.1043930E+01  0.7957747E-01            NaN
         13   -1    0    0    0    0  0.00000000000E+00  0.00000000000E+00  0.74505805969E-08  0.10566000000E+00  0.10566000000E+00 0. -1.
     999900   -1    0    0    0    0 -0.00000000000E+00 -0.00000000000E+00 -0.74505805969E-08  0.93827000000E+00  0.93827000000E+00 0.  1.
     999902    2    1    2    0    0 -0.88947845628E-02 -0.21062946766E-01  0.64795898033E-02  0.10201655307E+01  0.10198886998E+01 0.  0.
     999903    2    3    3    0    0  0.27133167027E-01 -0.55103000299E-01  0.11519873662E+00  0.13209087647E+00  0.20117189990E-01 0.  0.
         14    1    1    2    0    0  0.88947845628E-02  0.21062946766E-01 -0.64795898033E-02  0.23764469338E-01  0.00000000000E+00 0. -1.
     999901    1    3    3    0    0 -0.36027951590E-01  0.34040053533E-01 -0.10871914681E+00  0.88807465420E+00  0.88000000000E+00 0.  1.
        -11    1    4    4    0    0  0.78070799583E-02 -0.85176520190E-02  0.94710682266E-02  0.14948683813E-01  0.51100000000E-03 0.  1.
         11    1    4    4    0    0  0.19326087069E-01 -0.46585348280E-01  0.10572766839E+00  0.11714219265E+00  0.51100000000E-03 0. -1.
</event>
<event>
 8    1  0.1099921E+005  0.1043930E+01  0.7957747E-01            NaN
         13   -1    0    0    0    0  0.00000000000E+00  0.00000000000E+00  0.74505805969E-08  0.10566000000E+00  0.10566000000E+00 0. -1.
     999900   -1    0    0    0    0 -0.00000000000E+00 -0.00000000000E+00 -0.74505805969E-08  0.93827000000E+00  0.93827000000E+00 0.  1.
     999902    2    1    2    0    0 -0.28775528448E-02 -0.12062574373E-01 -0.19188396702E-01  0.10210831057E+01  0.10208274723E+01 0.  0.
     999903    2    3    3    0    0 -0.12143041692E+00  0.41958573566E-01  0.13350875068E-01  0.13089668129E+00  0.21209131511E-01 0.  0.
         14    1    1    2    0    0  0.28775528448E-02  0.12062574373E-01  0.19188396702E-01  0.22846894294E-01  0.00000000000E+00 0. -1.
     999901    1    3    3    0    0  0.11855286407E+00 -0.54021147939E-01 -0.32539271770E-01  0.89018642441E+00  0.88000000000E+00 0. -1.
        -11    1    4    4    0    0 -0.80172520585E-01  0.32528461682E-01  0.18900326959E-04  0.86521646740E-01  0.51100000000E-03 0. -1.
         11    1    4    4    0    0 -0.41257896333E-01  0.94301118844E-02  0.13331974741E-01  0.44375034552E-01  0.51100000000E-03 0.  1.
</event>
<event>
 8    1  0.1099921E+005  0.1043930E+01  0.7957747E-01            NaN
         13   -1    0    0    0    0  0.00000000000E+00  0.00000000000E+00  0.74505805969E-08  0.10566000000E+00  0.10566000000E+00 0. -1.
     999900   -1    0    0    0    0 -0.00000000000E+00 -0.00000000000E+00 -0.74505805969E-08  0.93827000000E+00  0.93827000000E+00 0.  1.
     999902    2    1    2    0    0 -0.13425369041E-01 -0.21975628282E-01  0.67970799761E-02  0.10172960167E+01  0.10169473027E+01 0.  0.
     999903    2    3    3    0    0  0.17707778830E-01 -0.10416382386E+00 -0.68817817569E-01  0.12969149599E+00  0.30336850282E-01 0.  0.
         14    1    1    2    0    0  0.13425369041E-01  0.21975628282E-01 -0.67970799761E-02  0.26633983338E-01  0.00000000000E+00 0. -1.
     999901    1    3    3    0    0 -0.31133147871E-01  0.82188195577E-01  0.75614897545E-01  0.88760452067E+00  0.88000000000E+00 0. -1.
        -11    1    4    4    0    0  0.39238563427E-02 -0.26634011698E-01 -0.34570395709E-01  0.43819409035E-01  0.51100000000E-03 0.  1.
         11    1    4    4    0    0  0.13783922488E-01 -0.77529812161E-01 -0.34247421860E-01  0.85872086954E-01  0.51100000000E-03 0. -1.
</event>
<event>
 8    1  0.1099921E+005  0.1043930E+01  0.7957747E-01            NaN
         13   -1    0    0    0    0  0.00000000000E+00  0.00000000000E+00  0.74505805969E-08  0.10566000000E+00  0.10566000000E+00 0.  1.
     999900   -1    0    0    0    0 -0.00000000000E+00 -0.00000000000E+00 -0.74505805969E-08  0.93827000000E+00  0.93827000000E+00 0. -1.
     999902    2    1    2    0    0 -0.14961382708E-02  0.50751187889E-02  0.23790083277E-01  0.10195586372E+01  0.10192673111E+01 0.  0.
     999903    2    3    3    0    0 -0.11811756884E+00  0.50288281972E-01 -0.87810427473E-02  0.13011742702E+00  0.19307167852E-01 0.  0.
         14    1    1    2    0    0  0.14961382708E-02 -0.50751187889E-02 -0.23790083277E-01  0.24371362760E-01  0.00000000000E+00 0. -1.
     999901    1    3    3    0    0  0.11662143056E+00 -0.45213163183E-01  0.32571126025E-01  0.88944121022E+00  0.88000000000E+00 0.  1.
        -11    1    4    4    0    0 -0.94578512952E-01  0.31756918565E-01 -0.87820020957E-02  0.10015478856E+00  0.51100000000E-03 0. -1.
         11    1    4    4    0    0 -0.23539055884E-01  0.18531363407E-01  0.95934840286E-06  0.29962638461E-01  0.51100000000E-03 0.  1.
</event>
<event>
 8    1  0.1099921E+005  0.1043930E+01  0.7957747E-01            NaN
         13   -1    0    0    0    0  0.00000000000E+00  0.00000000000E+00  0.74505805969E-08  0.10566000000E+00  0.10566000000E+00 0.  1.
     999900   -1    0    0    0    0 -0.00000000000E+00 -0.00000000000E+00 -0.74505805969E-08  0.93827000000E+00  0.93827000000E+00 0. -1.
     999902    2    1    2    0    0  0.44639691095E-02 -0.73891046990E-02  0.21809215081E-01  0.10204743450E+01  0.10202047447E+01 0.  0.
     999903    2    3    3    0    0  0.17812148391E-01 -0.12500684614E+00  0.34769120160E-01  0.13245403774E+00  0.19778680040E-01 0.  0.
         14    1    1    2    0    0 -0.44639691095E-02  0.73891046990E-02 -0.21809215081E-01  0.23455654988E-01  0.00000000000E+00 0. -1.
     999901    1    3    3    0    0 -0.13348179281E-01  0.11761774144E+00 -0.12959905079E-01  0.88802030727E+00  0.88000000000E+00 0. -1.
        -11    1    4    4    0    0  0.13866693020E-01 -0.10568860508E+00  0.21667571216E-01  0.10877550819E+00  0.51100000000E-03 0. -1.
         11    1    4    4    0    0  0.39454553711E-02 -0.19318241065E-01  0.13101548944E-01  0.23678529551E-01  0.51100000000E-03 0.  1.
</event>
<event>
 8    1  0.1099921E+005  0.1043930E+01  0.7957747E-01            NaN
         13   -1    0    0    0    0  0.00000000000E+00  0.00000000000E+00  0.74505805969E-08  0.10566000000E+00  0.10566000000E+00 0.  1.
     999900   -1    0    0    0    0 -0.00000000000E+00 -0.00000000000E+00 -0.74505805969E-08  0.93827000000E+00  0.93827000000E+00 0. -1.
     999902    2    1    2    0    0  0.16963648347E-01  0.38320893869E-02  0.15690763460E-01  0.10205067139E+01  0.10202378658E+01 0.  0.
     999903    2    3    3    0    0  0.88841886263E-02 -0.11342963697E+00 -0.58498282676E-01  0.12959728824E+00  0.20692914109E-01 0.  0.
         14    1    1    2    0    0 -0.16963648347E-01 -0.38320893869E-02 -0.15690763460E-01  0.23423286112E-01  0.00000000000E+00 0. -1.
     999901    1    3    3    0    0  0.80794597207E-02  0.11726172635E+00  0.74189046136E-01  0.89090942564E+00  0.88000000000E+00 0. -1.
        -11    1    4    4    0    0  0.43707838783E-02 -0.95988433405E-01 -0.56486430670E-01  0.11146237513E+00  0.51100000000E-03 0.  1.
         11    1    4    4    0    0  0.45134047480E-02 -0.17441203560E-01 -0.20118520058E-02  0.18134913111E-01  0.51100000000E-03 0. -1.
</event>
<event>
 8    1  0.1099921E+005  0.1043930E+01  0.7957747E-01            NaN
         13   -1    0    0    0    0  0.00000000000E+00  0.00000000000E+00  0.74505805969E-08  0.10566000000E+00  0.10566000000E+00 0.  1.
     999900   -1    0    0    0    0 -0.00000000000E+00 -0.00000000000E+00 -0.74505805969E-08  0.93827000000E+00  0.93827000000E+00 0.  1.
     999902    2    1    2    0    0 -0.18339777807E-01  0.59771019591E-02 -0.14655534543E-01  0.10197048500E+01  0.10194170507E+01 0.  0.
     999903    2    3    3    0    0 -0.69508269099E-01 -0.96039486794E-01 -0.53319609374E-01  0.13149287671E+00  0.19809426678E-01 0.  0.
         14    1    1    2    0    0  0.18339777807E-01 -0.59771019591E-02  0.14655534543E-01  0.24225149960E-01  0.00000000000E+00 0.  1.
     999901    1    3    3    0    0  0.51168491292E-01  0.10201658875E+00  0.38664074830E-01  0.88821197333E+00  0.88000000000E+00 0. -1.
        -11    1    4    4    0    0 -0.20210182876E-01 -0.20012661712E-01 -0.20726584649E-01  0.35196740657E-01  0.51100000000E-03 0. -1.
         11    1    4    4    0    0 -0.49298086223E-01 -0.76026825082E-01 -0.32593024725E-01  0.96296136054E-01  0.51100000000E-03 0.  1.
</event>
<event>
 8    1  0.1099921E+005  0.1043930E+01  0.7957747E-01            NaN
         13   -1    0    0    0    0  0.00000000000E+00  0.00000000000E+00  0.74505805969E-08  0.10566000000E+00  0.10566000000E+00 0.  1.
     999900   -1    0    0    0    0 -0.00000000000E+00 -0.00000000000E+00 -0.74505805969E-08  0.93827000000E+00  0.93827000000E+00 0. -1.
     999902    2    1    2    0    0 -0.12461896165E-01  0.68804911194E-02 -0.18906896690E-01  0.10202633408E+01  0.10199888107E+01 0.  0.
     999903    2    3    3    0    0 -0.12830386916E+00  0.25515143287E-01 -0.77589039141E-03  0.13229073632E+00  0.19680740106E-01 0.  0.
         14    1    1    2    0    0  0.12461896165E-01 -0.68804911194E-02  0.18906896690E-01  0.23666659175E-01  0.00000000000E+00 0.  1.
     999901    1    3    3    0    0  0.11584197299E+00 -0.18634652168E-01 -0.18131006299E-01  0.88797260451E+00  0.88000000000E+00 0.  1.
        -11    1    4    4    0    0 -0.26666959319E-01 -0.13853848807E-02 -0.45134846468E-02  0.27086503562E-01  0.51100000000E-03 0. -1.
         11    1    4    4    0    0 -0.10163690984E+00  0.26900528168E-01  0.37375942553E-02  0.10520423275E+00  0.51100000000E-03 0.  1.
</event>
<event>
 8    1  0.1099921E+005  0.1043930E+01  0.7957747E-01            NaN
         13   -1    0    0    0    0  0.00000000000E+00  0.00000000000E+00  0.74505805969E-08  0.10566000000E+00  0.10566000000E+00 0. -1.
     999900   -1    0    0    0    0 -0.00000000000E+00 -0.00000000000E+00 -0.74505805969E-08  0.93827000000E+00  0.93827000000E+00 0. -1.
     999902    2    1    2    0    0  0.11714198953E-02 -0.98225160950E-02  0.22052412576E-01  0.10197605369E+01  0.10194740750E+01 0.  0.
     999903    2    3    3    0    0 -0.56215246432E-01  0.12871666916E-01  0.11749214263E+00  0.13245168564E+00  0.20327609539E-01 0.  0.
         14    1    1    2    0    0 -0.11714198953E-02  0.98225160950E-02 -0.22052412576E-01  0.24169463119E-01  0.00000000000E+00 0.  1.
     999901    1    3    3    0    0  0.57386666328E-01 -0.22694183011E-01 -0.95439730052E-01  0.88730885124E+00  0.88000000000E+00 0. -1.
        -11    1    4    4    0    0 -0.45249316025E-01  0.14603588111E-02  0.89046091367E-01  0.99895449133E-01  0.51100000000E-03 0. -1.
         11    1    4    4    0    0 -0.10965930407E-01  0.11411308105E-01  0.28446051260E-01  0.32556236510E-01  0.51100000000E-03 0.  1.
</event>
<event>
 8    1  0.1099921E+005  0.1043930E+01  0.7957747E-01            NaN
         13   -1    0    0    0    0  0.00000000000E+00  0.00000000000E+00  0.74505805969E-08  0.10566000000E+00  0.10566000000E+00 0.  1.
     999900   -1    0    0    0    0 -0.00000000000E+00 -0.00000000000E+00 -0.74505805969E-08  0.93827000000E+00  0.93827000000E+00 0.  1.
     999902    2    1    2    0    0 -0.14624256803E-01 -0.13765831234E-01 -0.10939336998E-01  0.10210600177E+01  0.10208038615E+01 0.  0.
     999903    2    3    3    0    0  0.86151642504E-01  0.77697728359E-01  0.51331123228E-01  0.12842404776E+00  0.19970211111E-01 0.  0.
         14    1    1    2    0    0  0.14624256803E-01  0.13765831234E-01  0.10939336998E-01  0.22869982303E-01  0.00000000000E+00 0.  1.
     999901    1    3    3    0    0 -0.10077589931E+00 -0.91463559593E-01 -0.62270460227E-01  0.89263596994E+00  0.88000000000E+00 0.  1.
        -11    1    4    4    0    0  0.49380458494E-01  0.42960761578E-01  0.18145063438E-01  0.67923200489E-01  0.51100000000E-03 0. -1.
         11    1    4    4    0    0  0.36771184010E-01  0.34736966781E-01  0.33186059791E-01  0.60500847268E-01  0.51100000000E-03 0.  1.
</event>
<event>
 7    1  0.1099921E+005  0.1043930E+01  0.7957747E-01            NaN
         13   -1    0    0    0    0  0.00000000000E+00  0.00000000000E+00  0.74505805969E-08  0.10566000000E+00  0.10566000000E+00 0. -1.
     999900   -1    0    0    0    0 -0.00000000000E+00 -0.00000000000E+00 -0.74505805969E-08  0.93827000000E+00  0.93827000000E+00 0.  1.
     999903    2    1    2    0    0  0.86442023429E-01 -0.31351740973E-01  0.67085408495E-01  0.11550881586E+00  0.19664166160E-01 0.  0.
         14    1    1    2    0    0  0.30981814912E-01  0.61581516313E-02 -0.23178251649E-01  0.39179421081E-01  0.00000000000E+00 0.  1.
     999901    1    1    2    0    0 -0.11742383834E+00  0.25193589342E-01 -0.43907156846E-01  0.88924176306E+00  0.88000000000E+00 0.  1.
        -11    1    3    3    0    0  0.19063160584E-01 -0.24000240334E-02  0.62128599517E-02  0.20199627635E-01  0.51100000000E-03 0. -1.
         11    1    3    3    0    0  0.67378862845E-01 -0.28951716940E-01  0.60872548543E-01  0.95309188220E-01  0.51100000000E-03 0.  1.
</event>
<event>
 8    1  0.1099921E+005  0.1043930E+01  0.7957747E-01            NaN
         13   -1    0    0    0    0  0.00000000000E+00  0.00000000000E+00  0.74505805969E-08  0.10566000000E+00  0.10566000000E+00 0.  1.
     999900   -1    0    0    0    0 -0.00000000000E+00 -0.00000000000E+00 -0.74505805969E-08  0.93827000000E+00  0.93827000000E+00 0. -1.
     999902    2    1    2    0    0 -0.10835463444E-01  0.14537548222E-01 -0.13082161411E-01  0.10215717683E+01  0.10213270717E+01 0.  0.
     999903    2    3    3    0    0 -0.69379177627E-01 -0.10252746758E+00 -0.38475222660E-01  0.13152885253E+00  0.22229358841E-01 0.  0.
         14    1    1    2    0    0  0.10835463444E-01 -0.14537548222E-01  0.13082161411E-01  0.22358231673E-01  0.00000000000E+00 0.  1.
     999901    1    3    3    0    0  0.58543714183E-01  0.11706501580E+00  0.25393061249E-01  0.89004291579E+00  0.88000000000E+00 0.  1.
        -11    1    4    4    0    0 -0.19890477466E-01 -0.46592220859E-01 -0.20882332053E-01  0.54797801519E-01  0.51100000000E-03 0.  1.
         11    1    4    4    0    0 -0.49488700161E-01 -0.55935246717E-01 -0.17592890607E-01  0.76731051015E-01  0.51100000000E-03 0. -1.
</event>
<event>
 8    1  0.1099921E+005  0.1043930E+01  0.7957747E-01            NaN
         13   -1    0    0    0    0  0.00000000000E+00  0.00000000000E+00  0.74505805969E-08  0.10566000000E+00  0.10566000000E+00 0. -1.
     999900   -1    0    0    0    0 -0.00000000000E+00 -0.00000000000E+00 -0.74505805969E-08  0.93827000000E+00  0.93827000000E+00 0. -1.
     999902    2    1    2    0    0 -0.86850833728E-02  0.15268542106E-01  0.15600489597E-01  0.10204367174E+01  0.10201662413E+01 0.  0.
     999903    2    3    3    0    0  0.85437044458E-01  0.54641555555E-01 -0.78095519490E-01  0.12960106969E+00  0.20306130597E-01 0.  0.
         14    1    1    2    0    0  0.86850833728E-02 -0.15268542106E-01 -0.15600489597E-01  0.23493282591E-01  0.00000000000E+00 0.  1.
     999901    1    3    3    0    0 -0.94122127831E-01 -0.39373013449E-01  0.93696009088E-01  0.89083564772E+00  0.88000000000E+00 0.  1.
        -11    1    4    4    0    0  0.41473422505E-01  0.34583685689E-01 -0.50579645754E-01  0.73990795209E-01  0.51100000000E-03 0. -1.
         11    1    4    4    0    0  0.43963621953E-01  0.20057869867E-01 -0.27515873736E-01  0.55610274476E-01  0.51100000000E-03 0.  1.
</event>
<event>
 8    1  0.1099921E+005  0.1043930E+01  0.7957747E-01            NaN
         13   -1    0    0    0    0  0.00000000000E+00  0.00000000000E+00  0.74505805969E-08  0.10566000000E+00  0.10566000000E+00 0.  1.
     999900   -1    0    0    0    0 -0.00000000000E+00 -0.00000000000E+00 -0.74505805969E-08  0.93827000000E+00  0.93827000000E+00 0.  1.
     999902    2    1    2    0    0  0.56399530149E-02 -0.12958134603E-01 -0.18699815169E-01  0.10204906013E+01  0.10202213789E+01 0.  0.
     999903    2    3    3    0    0 -0.11033160531E-01 -0.14386162102E-01  0.12573415227E+00  0.12855943643E+00  0.19742324013E-01 0.  0.
         14    1    1    2    0    0 -0.56399530149E-02  0.12958134603E-01  0.18699815169E-01  0.23439398665E-01  0.00000000000E+00 0.  1.
     999901    1    3    3    0    0  0.16673113546E-01  0.14280274989E-02 -0.14443396744E+00  0.89193116490E+00  0.88000000000E+00 0.  1.
        -11    1    4    4    0    0 -0.86531151985E-02 -0.15090008753E-02  0.18044761517E-01  0.20075557913E-01  0.51100000000E-03 0.  1.
         11    1    4    4    0    0 -0.23800453328E-02 -0.12877161226E-01  0.10768939075E+00  0.10848387852E+00  0.51100000000E-03 0. -1.
</event>
<event>
 8    1  0.1099921E+005  0.1043930E+01  0.7957747E-01            NaN
         13   -1    0    0    0    0  0.00000000000E+00  0.00000000000E+00  0.74505805969E-08  0.10566000000E+00  0.10566000000E+00 0. -1.
     999900   -1    0    0    0    0 -0.00000000000E+00 -0.00000000000E+00 -0.74505805969E-08  0.93827000000E+00  0.93827000000E+00 0.  1.
     999902    2    1    2    0    0  0.19425557718E-01  0.46171633088E-02  0.85661158852E-02  0.10222033152E+01  0.10219723914E+01 0.  0.
     999903    2    3    3    0    0 -0.65161399451E-01 -0.10064138247E+00  0.49267903927E-01  0.13097329423E+00  0.18761172716E-01 0.  0.
         14    1    1    2    0    0 -0.19425557718E-01 -0.46171633088E-02 -0.85661158852E-02  0.21726684769E-01  0.00000000000E+00 0.  1.
     999901    1    3    3    0    0  0.84586957169E-01  0.10525854577E+00 -0.40701788042E-01  0.89123002100E+00  0.88000000000E+00 0.  1.
        -11    1    4    4    0    0 -0.53143070490E-01 -0.77364122510E-01  0.46133648773E-01  0.10458474106E+00  0.51100000000E-03 0. -1.
         11    1    4    4    0    0 -0.12018328961E-01 -0.23277259955E-01  0.31342551535E-02  0.26388553169E-01  0.51100000000E-03 0.  1.
</event>
<event>
 8    1  0.1099921E+005  0.1043930E+01  0.7957747E-01            NaN
         13   -1    0    0    0    0  0.00000000000E+00  0.00000000000E+00  0.74505805969E-08  0.10566000000E+00  0.10566000000E+00 0.  1.
     999900   -1    0    0    0    0 -0.00000000000E+00 -0.00000000000E+00 -0.74505805969E-08  0.93827000000E+00  0.93827000000E+00 0.  1.
     999902    2    1    2    0    0 -0.78832391492E-02  0.20803043741E-01  0.93484465458E-02  0.10197989921E+01  0.10195134520E+01 0.  0.
     999903    2    3    3    0    0  0.88965350894E-01 -0.71074399815E-01 -0.53890986810E-01  0.12748719686E+00  0.19553591379E-01 0.  0.
         14    1    1    2    0    0  0.78832391492E-02 -0.20803043741E-01 -0.93484465458E-02  0.24131007878E-01  0.00000000000E+00 0. -1.
     999901    1    3    3    0    0 -0.96848590043E-01  0.91877443557E-01  0.63239433355E-01  0.89231179526E+00  0.88000000000E+00 0.  1.
        -11    1    4    4    0    0  0.66251191584E-01 -0.45612163586E-01 -0.30081349957E-01  0.85876880413E-01  0.51100000000E-03 0.  1.
         11    1    4    4    0    0  0.22714159310E-01 -0.25462236229E-01 -0.23809636853E-01  0.41610316450E-01  0.51100000000E-03 0. -1.
</event>
<event>
 8    1  0.1099921E+005  0.1043930E+01  0.7957747E-01            NaN
         13   -1    0    0    0    0  0.00000000000E+00  0.00000000000E+00  0.74505805969E-08  0.10566000000E+00  0.10566000000E+00 0. -1.
     999900   -1    0    0    0    0 -0.00000000000E+00 -0.00000000000E+00 -0.74505805969E-08  0.93827000000E+00  0.93827000000E+00 0.  1.
     999902    2    1    2    0    0 -0.14261643211E-02  0.18756063582E-01 -0.11078002502E-01  0.10221000663E+01  0.10218669187E+01 0.  0.
     999903    2    3    3    0    0 -0.59059104157E-01  0.10034817621E+00  0.62136419442E-01  0.13342735930E+00  0.19600799353E-01 0.  0.
         14    1    1    2    0    0  0.14261643211E-02 -0.18756063582E-01  0.11078002502E-01  0.21829933697E-01  0.00000000000E+00 0. -1.
     999901    1    3    3    0    0  0.57632939836E-01 -0.81592112628E-01 -0.73214421943E-01  0.88867270701E+00  0.88000000000E+00 0.  1.
        -11    1    4    4    0    0 -0.12368575971E-01  0.20296682696E-01  0.22154225070E-01  0.32496273779E-01  0.51100000000E-03 0. -1.
         11    1    4    4    0    0 -0.46690528186E-01  0.80051493514E-01  0.39982194372E-01  0.10093108552E+00  0.51100000000E-03 0.  1.
</event>
<event>
 8    1  0.1099921E+005  0.1043930E+01  0.7957747E-01            NaN
         13   -1    0    0    0    0  0.00000000000E+00  0.00000000000E+00  0.74505805969E-08  0.10566000000E+00  0.10566000000E+00 0. -1.
     999900   -1    0    0    0    0 -0.00000000000E+00 -0.00000000000E+00 -0.74505805969E-08  0.93827000000E+00  0.93827000000E+00 0. -1.
     999902    2    1    2    0    0 -0.42828826470E-02  0.22691823855E-01 -0.13866481033E-03  0.10208371184E+01  0.10205758870E+01 0.  0.
     999903    2    3    3    0    0 -0.67915590092E-01  0.44101398081E-01 -0.10279329436E+00  0.13232968212E+00  0.19677975365E-01 0.  0.
         14    1    1    2    0    0  0.42828826470E-02 -0.22691823855E-01  0.13866481033E-03  0.23092881621E-01  0.00000000000E+00 0.  1.
     999901    1    3    3    0    0  0.63632707445E-01 -0.21409574226E-01  0.10265462955E+00  0.88850743626E+00  0.88000000000E+00 0.  1.
        -11    1    4    4    0    0 -0.25356624625E-01  0.70567388675E-02 -0.25670444392E-01  0.36769400486E-01  0.51100000000E-03 0. -1.
         11    1    4    4    0    0 -0.42558965467E-01  0.37044659214E-01 -0.77122849964E-01  0.95560281631E-01  0.51100000000E-03 0.  1.
</event>
<event>
 8    1  0.1099921E+005  0.1043930E+01  0.7957747E-01            NaN
         13   -1    0    0    0    0  0.00000000000E+00  0.00000000000E+00  0.74505805969E-08  0.10566000000E+00  0.10566000000E+00 0.  1.
     999900   -1    0    0    0    0 -0.00000000000E+00 -0.00000000000E+00 -0.74505805969E-08  0.93827000000E+00  0.93827000000E+00 0. -1.
     999902    2    1    2    0    0 -0.61906531079E-02  0.32586886020E-02  0.22672247514E-01  0.10202029259E+01  0.10199269758E+01 0.  0.
     999903    2    3    3    0    0  0.28218417328E-01  0.11961537732E+00  0.42694703179E-01  0.13165142945E+00  0.20128179956E-01 0.  0.
         14    1    1    2    0    0  0.61906531079E-02 -0.32586886020E-02 -0.22672247514E-01  0.23727074085E-01  0.00000000000E+00 0. -1.
     999901    1    3    3    0    0 -0.34409070435E-01 -0.11635668872E+00 -0.20022455665E-01  0.88855149646E+00  0.88000000000E+00 0.  1.
        -11    1    4    4    0    0  0.11219735812E-01  0.38275549490E-01  0.23737074539E-01  0.46417776649E-01  0.51100000000E-03 0. -1.
         11    1    4    4    0    0  0.16998681516E-01  0.81339827833E-01  0.18957628641E-01  0.85233652801E-01  0.51100000000E-03 0.  1.
</event>
<event>
 8    1  0.1099921E+005  0.1043930E+01  0.7957747E-01            NaN
         13   -1    0    0    0    0  0.00000000000E+00  0.00000000000E+00  0.74505805969E-08  0.10566000000E+00  0.10566000000E+00 0.  1.
     999900   -1    0    0    0    0 -0.00000000000E+00 -0.00000000000E+00 -0.74505805969E-08  0.93827000000E+00  0.93827000000E+00 0.  1.
     999902    2    1    2    0    0  0.13674762372E-01 -0.51876621171E-02 -0.18167680992E-01  0.10206067156E+01  0.10203401846E+01 0.  0.
     999903    2    3    3    0    0 -0.35677507471E-02 -0.23347806491E-02 -0.13211602436E+00  0.13308788864E+00  0.15477795800E-01 0.  0.
         14    1    1    2    0    0 -0.13674762372E-01  0.51876621171E-02  0.18167680992E-01  0.23323284434E-01  0.00000000000E+00 0.  1.
     999901    1    3    3    0    0  0.17242513119E-01 -0.28528814680E-02  0.11394834337E+00  0.88751882693E+00  0.88000000000E+00 0. -1.
        -11    1    4    4    0    0  0.48143884344E-02  0.94460669205E-03 -0.83330405410E-01  0.83476273303E-01  0.51100000000E-03 0. -1.
         11    1    4    4    0    0 -0.83821391815E-02 -0.32793873412E-02 -0.48785618954E-01  0.49611615336E-01  0.51100000000E-03 0.  1.
</event>
<event>
 8    1  0.1099921E+005  0.1043930E+01  0.7957747E-01            NaN
         13   -1    0    0    0    0  0.00000000000E+00  0.00000000000E+00  0.74505805969E-08  0.10566000000E+00  0.10566000000E+00 0.  1.
     999900   -1    0    0    0    0 -0.00000000000E+00 -0.00000000000E+00 -0.74505805969E-08  0.93827000000E+00  0.93827000000E+00 0.  1.
     999902    2    1    2    0    0  0.83268965484E-02 -0.18852856206E-01  0.12554383373E-01  0.10197974507E+01  0.10195118737E+01 0.  0.
     999903    2    3    3    0    0  0.35137907905E-01  0.18533683396E-01  0.12387841337E+00  0.13159160558E+00  0.19807053511E-01 0.  0.
         14    1    1    2    0    0 -0.83268965484E-02  0.18852856206E-01 -0.12554383373E-01  0.24132549288E-01  0.00000000000E+00 0.  1.
     999901    1    3    3    0    0 -0.26811011356E-01 -0.37386539602E-01 -0.11132402999E+00  0.88820584513E+00  0.88000000000E+00 0.  1.
        -11    1    4    4    0    0  0.21195655495E-01  0.10640331710E-01  0.10039015381E+00  0.10315481847E+00  0.51100000000E-03 0.  1.
         11    1    4    4    0    0  0.13942252409E-01  0.78933516863E-02  0.23488259556E-01  0.28436787109E-01  0.51100000000E-03 0. -1.
</event>
<event>
 8    1  0.1099921E+005  0.1043930E+01  0.7957747E-01            NaN
         13   -1    0    0    0    0  0.00000000000E+00  0.00000000000E+00  0.74505805969E-08  0.10566000000E+00  0.10566000000E+00 0. -1.
     999900   -1    0    0    0    0 -0.00000000000E+00 -0.00000000000E+00 -0.74505805969E-08  0.93827000000E+00  0.93827000000E+00 0.  1.
     999902    2    1    2    0    0  0.24301120551E-01 -0.14711658737E-03  0.13041422465E-02  0.10195934659E+01  0.10193029819E+01 0.  0.
     999903    2    3    3    0    0 -0.57640491937E-02  0.98414796780E-01 -0.81964038886E-01  0.12967664106E+00  0.19473856285E-01 0.  0.
         14    1    1    2    0    0 -0.24301120551E-01  0.14711658737E-03 -0.13041422465E-02  0.24336534066E-01  0.00000000000E+00 0.  1.
     999901    1    3    3    0    0  0.30065169745E-01 -0.98561913368E-01  0.83268181133E-01  0.88991682487E+00  0.88000000000E+00 0. -1.
        -11    1    4    4    0    0 -0.66576636522E-02  0.43374227957E-01 -0.25213974047E-01  0.50612782421E-01  0.51100000000E-03 0. -1.
         11    1    4    4    0    0  0.89361445847E-03  0.55040568823E-01 -0.56750064839E-01  0.79063858642E-01  0.51100000000E-03 0.  1.
</event>
<event>
 8    1  0.1099921E+005  0.1043930E+01  0.7957747E-01            NaN
         13   -1    0    0    0    0  0.00000000000E+00  0.00000000000E+00  0.74505805969E-08  0.10566000000E+00  0.10566000000E+00 0. -1.
     999900   -1    0    0    0    0 -0.00000000000E+00 -0.00000000000E+00 -0.74505805969E-08  0.93827000000E+00  0.93827000000E+00 0. -1.
     999902    2    1    2    0    0  0.21340453220E-01 -0.95230190541E-02 -0.93583044955E-02  0.10187569847E+01  0.10184459304E+01 0.  0.
     999903    2    3    3    0    0  0.16907378926E-02 -0.50474774785E-01 -0.11903044220E+00  0.13078675132E+00  0.19656211880E-01 0.  0.
         14    1    1    2    0    0 -0.21340453220E-01  0.95230190541E-02  0.93583044955E-02  0.25173015286E-01  0.00000000000E+00 0. -1.
     999901    1    3    3    0    0  0.19649715327E-01  0.40951755731E-01  0.10967213771E+00  0.88797023340E+00  0.88000000000E+00 0.  1.
        -11    1    4    4    0    0  0.98859634279E-02 -0.16513602211E-01 -0.42509297575E-01  0.46666185104E-01  0.51100000000E-03 0.  1.
         11    1    4    4    0    0 -0.81952255353E-02 -0.33961172574E-01 -0.76521144626E-01  0.84120566213E-01  0.51100000000E-03 0. -1.
</event>
<event>
 8    1  0.1099921E+005  0.1043930E+01  0.7957747E-01            NaN
         13   -1    0    0    0    0  0.00000000000E+00  0.00000000000E+00  0.74505805969E-08  0.10566000000E+00  0.10566000000E+00 0.  1.
     999900   -1    0    0    0    0 -0.00000000000E+00 -0.00000000000E+00 -0.74505805969E-08  0.93827000000E+00  0.93827000000E+00 0. -1.
     999902    2    1    2    0    0  0.34678972276E-02  0.22610172015E-01  0.19429887122E-02  0.10209730535E+01  0.10207149232E+01 0.  0.
     999903    2    3    3    0    0  0.11342479132E+00  0.59259611224E-01  0.30079905836E-01  0.13292722915E+00  0.19696768944E-01 0.  0.
         14    1    1    2    0    0 -0.34678972276E-02 -0.22610172015E-01 -0.19429887122E-02  0.22956946550E-01  0.00000000000E+00 0.  1.
     999901    1    3    3    0    0 -0.10995689409E+00 -0.36649439209E-01 -0.28136917124E-01  0.88804582430E+00  0.88000000000E+00 0. -1.
        -11    1    4    4    0    0  0.26514752444E-01  0.58048802735E-02  0.10032487792E-01  0.28942022467E-01  0.51100000000E-03 0.  1.
         11    1    4    4    0    0  0.86910038872E-01  0.53454730951E-01  0.20047418044E-01  0.10398520668E+00  0.51100000000E-03 0. -1.
</event>
<event>
 8    1  0.1099921E+005  0.1043930E+01  0.7957747E-01            NaN
         13   -1    0    0    0    0  0.00000000000E+00  0.00000000000E+00  0.74505805969E-08  0.10566000000E+00  0.10566000000E+00 0.  1.
     999900   -1    0    0    0    0 -0.00000000000E+00 -0.00000000000E+00 -0.74505805969E-08  0.93827000000E+00  0.93827000000E+00 0.  1.
     999902    2    1    2    0    0 -0.21487302756E-01 -0.40742810970E-02  0.11636535484E-01  0.10191567704E+01  0.10188556374E+01 0.  0.
     999903    2    3    3    0    0  0.11435365925E-01 -0.53057232086E-01 -0.11444967544E+00  0.12821290900E+00  0.19849039189E-01 0.  0.
         14    1    1    2    0    0  0.21487302756E-01  0.40742810970E-02 -0.11636535484E-01  0.24773229589E-01  0.00000000000E+00 0. -1.
     999901    1    3    3    0    0 -0.32922668681E-01  0.48982950989E-01  0.12608621092E+00  0.89094386141E+00  0.88000000000E+00 0. -1.
        -11    1    4    4    0    0 -0.11913692922E-03 -0.28115202234E-01 -0.75254543230E-01  0.80336705111E-01  0.51100000000E-03 0.  1.
         11    1    4    4    0    0  0.11554502854E-01 -0.24942029852E-01 -0.39195132205E-01  0.47876203890E-01  0.51100000000E-03 0. -1.
</event>
<event>
 8    1  0.1099921E+005  0.1043930E+01  0.7957747E-01            NaN
         13   -1    0    0    0    0  0.00000000000E+00  0.00000000000E+00  0.74505805969E-08  0.10566000000E+00  0.10566000000E+00 0.  1.
     999900   -1    0    0    0    0 -0.00000000000E+00 -0.00000000000E+00 -0.74505805969E-08  0.93827000000E+00  0.93827000000E+00 0.  1.
     999902    2    1    2    0    0 -0.13287139881E-01 -0.11555588314E-01  0.16999384543E-01  0.10194543226E+01  0.10191604668E+01 0.  0.
     999903    2    3    3    0    0 -0.52783368588E-01 -0.10894108686E+00 -0.45818188862E-01  0.13097813560E+00  0.20042983016E-01 0.  0.
         14    1    1    2    0    0  0.13287139881E-01  0.11555588314E-01 -0.16999384543E-01  0.24475677363E-01  0.00000000000E+00 0. -1.
     999901    1    3    3    0    0  0.39496228707E-01  0.97385498546E-01  0.62817573405E-01  0.88847618704E+00  0.88000000000E+00 0. -1.
        -11    1    4    4    0    0 -0.24054096019E-01 -0.63333962167E-01 -0.33961852718E-01  0.75785611168E-01  0.51100000000E-03 0.  1.
         11    1    4    4    0    0 -0.28729272569E-01 -0.45607124693E-01 -0.11856336144E-01  0.55192524429E-01  0.51100000000E-03 0. -1.
</event>
<event>
 8    1  0.1099921E+005  0.1043930E+01  0.7957747E-01            NaN
         13   -1    0    0    0    0  0.00000000000E+00  0.00000000000E+00  0.74505805969E-08  0.10566000000E+00  0.10566000000E+00 0.  1.
     999900   -1    0    0    0    0 -0.00000000000E+00 -0.00000000000E+00 -0.74505805969E-08  0.93827000000E+00  0.93827000000E+00 0. -1.
     999902    2    1    2    0    0 -0.19404343179E-01  0.17163001482E-01  0.51424150500E-02  0.10175189874E+01  0.10171761638E+01 0.  0.
     999903    2    3    3    0    0  0.71237871647E-01 -0.10074031476E+00  0.56965888536E-02  0.12504069063E+00  0.19475056216E-01 0.  0.
         14    1    1    2    0    0  0.19404343179E-01 -0.17163001482E-01 -0.51424150500E-02  0.26411012601E-01  0.00000000000E+00 0. -1.
     999901    1    3    3    0    0 -0.90642214825E-01  0.11790331624E+00 -0.55417380363E-03  0.89247829677E+00  0.88000000000E+00 0. -1.
        -11    1    4    4    0    0  0.67846434483E-01 -0.93287865260E-01  0.99860395804E-02  0.11578318783E+00  0.51100000000E-03 0.  1.
         11    1    4    4    0    0  0.33914371642E-02 -0.74524495010E-02 -0.42894507267E-02  0.92575028026E-02  0.51100000000E-03 0. -1.
</event>
<event>
 8    1  0.1099921E+005  0.1043930E+01  0.7957747E-01            NaN
         13   -1    0    0    0    0  0.00000000000E+00  0.00000000000E+00  0.74505805969E-08  0.10566000000E+00  0.10566000000E+00 0. -1.
     999900   -1    0    0    0    0 -0.00000000000E+00 -0.00000000000E+00 -0.74505805969E-08  0.93827000000E+00  0.93827000000E+00 0.  1.
     999902    2    1    2    0    0  0.12485395676E-01 -0.19141379241E-01 -0.31027600875E-02  0.10208669424E+01  0.10206063930E+01 0.  0.
     999903    2    3    3    0    0  0.88800366218E-01 -0.45892698829E-02 -0.96291885650E-01  0.13254270447E+00  0.19719909436E-01 0.  0.
         14    1    1    2    0    0 -0.12485395676E-01  0.19141379241E-01  0.31027600875E-02  0.23063057573E-01  0.00000000000E+00 0. -1.
     999901    1    3    3    0    0 -0.76314970542E-01 -0.14552109358E-01  0.93189125563E-01  0.88832423796E+00  0.88000000000E+00 0. -1.
        -11    1    4    4    0    0  0.61627645009E-01 -0.95462178228E-02 -0.56846086298E-01  0.84385043417E-01  0.51100000000E-03 0.  1.
         11    1    4    4    0    0  0.27172721210E-01  0.49569479399E-02 -0.39445799352E-01  0.48157661055E-01  0.51100000000E-03 0. -1.
</event>
<event>
 8    1  0.1099921E+005  0.1043930E+01  0.7957747E-01            NaN
         13   -1    0    0    0    0  0.00000000000E+00  0.00000000000E+00  0.74505805969E-08  0.10566000000E+00  0.10566000000E+00 0. -1.
     999900   -1    0    0    0    0 -0.00000000000E+00 -0.00000000000E+00 -0.74505805969E-08  0.93827000000E+00  0.93827000000E+00 0.  1.
     999902    2    1    2    0    0 -0.22597195004E-02  0.17214340240E-01  0.14835760363E-01  0.10210927579E+01  0.10208373429E+01 0.  0.
     999903    2    3    3    0    0 -0.11242031242E+00 -0.33509594634E-01  0.56560709617E-01  0.13179570673E+00  0.20242896564E-01 0.  0.
         14    1    1    2    0    0  0.22597195004E-02 -0.17214340240E-01 -0.14835760363E-01  0.22837242120E-01  0.00000000000E+00 0.  1.
     999901    1    3    3    0    0  0.11016059292E+00  0.50723934873E-01 -0.41724949254E-01  0.88929705115E+00  0.88000000000E+00 0. -1.
        -11    1    4    4    0    0 -0.34912039513E-01 -0.18966738990E-01  0.24394705782E-01  0.46625641894E-01  0.51100000000E-03 0. -1.
         11    1    4    4    0    0 -0.77508272909E-01 -0.14542855644E-01  0.32166003835E-01  0.85170064831E-01  0.51100000000E-03 0.  1.
</event>
<event>
 8    1  0.1099921E+005  0.1043930E+01  0.7957747E-01            NaN
         13   -1    0    0    0    0  0.00000000000E+00  0.00000000000E+00  0.74505805969E-08  0.10566000000E+00  0.10566000000E+00 0.  1.
     999900   -1    0    0    0    0 -0.00000000000E+00 -0.00000000000E+00 -0.74505805969E-08  0.93827000000E+00  0.93827000000E+00 0.  1.
     999902    2    1    2    0    0  0.30622650836E-02 -0.17421758352E-01 -0.14673654557E-01  0.10209471527E+01  0.10206884330E+01 0.  0.
     999903    2    3    3    0    0 -0.96079608942E-01 -0.75892707757E-01  0.43782049975E-01  0.13152878518E+00  0.19797956597E-01 0.  0.
         14    1    1    2    0    0 -0.30622650836E-02  0.17421758352E-01  0.14673654557E-01  0.22982847290E-01  0.00000000000E+00 0.  1.
     999901    1    3    3    0    0  0.99141874026E-01  0.58470949405E-01 -0.58455704532E-01  0.88941836753E+00  0.88000000000E+00 0.  1.
        -11    1    4    4    0    0 -0.84908170512E-01 -0.61336769899E-01  0.31271349926E-01  0.10931493589E+00  0.51100000000E-03 0. -1.
         11    1    4    4    0    0 -0.11171438430E-01 -0.14555937858E-01  0.12510700048E-01  0.22213849289E-01  0.51100000000E-03 0.  1.
</event>
<event>
 8    1  0.1099921E+005  0.1043930E+01  0.7957747E-01            NaN
         13   -1    0    0    0    0  0.00000000000E+00  0.00000000000E+00  0.74505805969E-08  0.10566000000E+00  0.10566000000E+00 0. -1.
     999900   -1    0    0    0    0 -0.00000000000E+00 -0.00000000000E+00 -0.74505805969E-08  0.93827000000E+00  0.93827000000E+00 0.  1.
     999902    2    1    2    0    0 -0.17676020102E-01  0.88583094018E-02  0.12114023752E-01  0.10207424839E+01  0.10204790823E+01 0.  0.
     999903    2    3    3    0    0 -0.52058409572E-01 -0.31172496805E-01  0.11552336539E+00  0.13311750334E+00  0.26321458533E-01 0.  0.
         14    1    1    2    0    0  0.17676020102E-01 -0.88583094018E-02 -0.12114023752E-01  0.23187516114E-01  0.00000000000E+00 0.  1.
     999901    1    3    3    0    0  0.34382389471E-01  0.40030806207E-01 -0.10340934164E+00  0.88762498055E+00  0.88000000000E+00 0.  1.
        -11    1    4    4    0    0 -0.20438230362E-01 -0.70323747609E-02  0.66815139221E-01  0.70226060015E-01  0.51100000000E-03 0.  1.
         11    1    4    4    0    0 -0.31620179210E-01 -0.24140122044E-01  0.48708226172E-01  0.62891443324E-01  0.51100000000E-03 0. -1.
</event>
<event>
 8    1  0.1099921E+005  0.1043930E+01  0.7957747E-01            NaN
         13   -1    0    0    0    0  0.00000000000E+00  0.00000000000E+00  0.74505805969E-08  0.10566000000E+00  0.10566000000E+00 0. -1.
     999900   -1    0    0    0    0 -0.00000000000E+00 -0.00000000000E+00 -0.74505805969E-08  0.93827000000E+00  0.93827000000E+00 0.  1.
     999902    2    1    2    0    0  0.14025462888E-01  0.17085059020E-01 -0.12427491152E-01  0.10185714632E+01  0.10182557490E+01 0.  0.
     999903    2    3    3    0    0  0.44927090514E-02  0.10515488845E+00 -0.76284606517E-01  0.13182183710E+00  0.21907088944E-01 0.  0.
         14    1    1    2    0    0 -0.14025462888E-01 -0.17085059020E-01  0.12427491152E-01  0.25358536773E-01  0.00000000000E+00 0.  1.
     999901    1    3    3    0    0  0.95327538371E-02 -0.88069829429E-01  0.63857115365E-01  0.88674962613E+00  0.88000000000E+00 0. -1.
        -11    1    4    4    0    0  0.94325488102E-02  0.66989426765E-01 -0.58443200961E-01  0.89400364289E-01  0.51100000000E-03 0. -1.
         11    1    4    4    0    0 -0.49398397588E-02  0.38165461683E-01 -0.17841405556E-01  0.42421472812E-01  0.51100000000E-03 0.  1.
</event>
<event>
 8    1  0.1099921E+005  0.1043930E+01  0.7957747E-01            NaN
         13   -1    0    0    0    0  0.00000000000E+00  0.00000000000E+00  0.74505805969E-08  0.10566000000E+00  0.10566000000E+00 0. -1.
     999900   -1    0    0    0    0 -0.00000000000E+00 -0.00000000000E+00 -0.74505805969E-08  0.93827000000E+00  0.93827000000E+00 0. -1.
     999902    2    1    2    0    0 -0.22907176483E-01  0.59737099705E-02  0.34205995903E-02  0.10200108770E+01  0.10197303882E+01 0.  0.
     999903    2    3    3    0    0 -0.30972700271E-01  0.12630945997E+00  0.11075999178E-01  0.13175170840E+00  0.17956811212E-01 0.  0.
         14    1    1    2    0    0  0.22907176483E-01 -0.59737099705E-02 -0.34205995903E-02  0.23919123036E-01  0.00000000000E+00 0.  1.
     999901    1    3    3    0    0  0.80655237880E-02 -0.12033574999E+00 -0.76553995877E-02  0.88825916857E+00  0.88000000000E+00 0. -1.
        -11    1    4    4    0    0 -0.26465763655E-01  0.72456666620E-01  0.39647649816E-02  0.77242382576E-01  0.51100000000E-03 0.  1.
         11    1    4    4    0    0 -0.45069366160E-02  0.53852793345E-01  0.71112341964E-02  0.54509325821E-01  0.51100000000E-03 0. -1.
</event>
<event>
 8    1  0.1099921E+005  0.1043930E+01  0.7957747E-01            NaN
         13   -1    0    0    0    0  0.00000000000E+00  0.00000000000E+00  0.74505805969E-08  0.10566000000E+00  0.10566000000E+00 0.  1.
     999900   -1    0    0    0    0 -0.00000000000E+00 -0.00000000000E+00 -0.74505805969E-08  0.93827000000E+00  0.93827000000E+00 0. -1.
     999902    2    1    2    0    0 -0.16692054724E-01  0.96890683794E-02 -0.10523754626E-01  0.10219470032E+01  0.10217105388E+01 0.  0.
     999903    2    3    3    0    0  0.12549670251E+00  0.16437875411E-01  0.18961304167E-01  0.13002068462E+00  0.22939513581E-01 0.  0.
         14    1    1    2    0    0  0.16692054724E-01 -0.96890683794E-02  0.10523754626E-01  0.21982996802E-01  0.00000000000E+00 0.  1.
     999901    1    3    3    0    0 -0.14218875724E+00 -0.67488070312E-02 -0.29485058793E-01  0.89192631858E+00  0.88000000000E+00 0.  1.
        -11    1    4    4    0    0  0.84610691034E-01  0.32449130909E-02  0.20151506784E-01  0.87039317811E-01  0.51100000000E-03 0.  1.
         11    1    4    4    0    0  0.40886011479E-01  0.13192962320E-01 -0.11902026173E-02  0.42981366808E-01  0.51100000000E-03 0. -1.
</event>
<event>
 8    1  0.1099921E+005  0.1043930E+01  0.7957747E-01            NaN
         13   -1    0    0    0    0  0.00000000000E+00  0.00000000000E+00  0.74505805969E-08  0.10566000000E+00  0.10566000000E+00 0. -1.
     999900   -1    0    0    0    0 -0.00000000000E+00 -0.00000000000E+00 -0.74505805969E-08  0.93827000000E+00  0.93827000000E+00 0. -1.
     999902    2    1    2    0    0  0.84808648758E-02 -0.62698035384E-03  0.22354875723E-01  0.10200122526E+01  0.10197317965E+01 0.  0.
     999903    2    3    3    0    0  0.37027054217E-01  0.12289858976E+00 -0.11594650124E-01  0.13027857236E+00  0.19052674226E-01 0.  0.
         14    1    1    2    0    0 -0.84808648758E-02  0.62698035384E-03 -0.22354875723E-01  0.23917747427E-01  0.00000000000E+00 0.  1.
     999901    1    3    3    0    0 -0.28546189341E-01 -0.12352557012E+00  0.33949525847E-01  0.88973368021E+00  0.88000000000E+00 0.  1.
        -11    1    4    4    0    0  0.32580520381E-02  0.15831494961E-01 -0.77822290503E-02  0.17946457750E-01  0.51100000000E-03 0. -1.
         11    1    4    4    0    0  0.33769002179E-01  0.10706709480E+00 -0.38124210741E-02  0.11233211461E+00  0.51100000000E-03 0.  1.
</event>
<event>
 8    1  0.1099921E+005  0.1043930E+01  0.7957747E-01            NaN
         13   -1    0    0    0    0  0.00000000000E+00  0.00000000000E+00  0.74505805969E-08  0.10566000000E+00  0.10566000000E+00 0. -1.
     999900   -1    0    0    0    0 -0.00000000000E+00 -0.00000000000E+00 -0.74505805969E-08  0.93827000000E+00  0.93827000000E+00 0. -1.
     999902    2    1    2    0    0 -0.17412238159E-01  0.55752165640E-02 -0.15687736271E-01  0.10198390443E+01  0.10195544626E+01 0.  0.
     999903    2    3    3    0    0  0.11315164830E+00 -0.55779315920E-01 -0.99993471013E-02  0.12807468928E+00  0.19710694917E-01 0.  0.
         14    1    1    2    0    0  0.17412238159E-01 -0.55752165640E-02  0.15687736271E-01  0.24090955704E-01  0.00000000000E+00 0. -1.
     999901    1    3    3    0    0 -0.13056388646E+00  0.61354532484E-01 -0.56883891700E-02  0.89176435501E+00  0.88000000000E+00 0. -1.
        -11    1    4    4    0    0  0.88896798116E-01 -0.40229981077E-01 -0.15317656259E-01  0.98772383828E-01  0.51100000000E-03 0.  1.
         11    1    4    4    0    0  0.24254850185E-01 -0.15549334843E-01  0.53183091577E-02  0.29302305453E-01  0.51100000000E-03 0. -1.
</event>
<event>
 8    1  0.1099921E+005  0.1043930E+01  0.7957747E-01            NaN
         13   -1    0    0    0    0  0.00000000000E+00  0.00000000000E+00  0.74505805969E-08  0.10566000000E+00  0.10566000000E+00 0.  1.
     999900   -1    0    0    0    0 -0.00000000000E+00 -0.00000000000E+00 -0.74505805969E-08  0.93827000000E+00  0.93827000000E+00 0.  1.
     999902    2    1    2    0    0 -0.17502818299E-01  0.12885737639E-01 -0.10269866980E-01  0.10198912594E+01  0.10196079246E+01 0.  0.
     999903    2    3    3    0    0  0.14275061086E-01 -0.14662929094E-01  0.12528370579E+00  0.12851954469E+00  0.20062092912E-01 0.  0.
         14    1    1    2    0    0  0.17502818299E-01 -0.12885737639E-01  0.10269866980E-01  0.24038740622E-01  0.00000000000E+00 0.  1.
     999901    1    3    3    0    0 -0.31777879385E-01  0.27548666733E-01 -0.13555357277E+00  0.89137171469E+00  0.88000000000E+00 0.  1.
        -11    1    4    4    0    0  0.17566070774E-01 -0.11940273727E-01  0.72181456441E-01  0.75243343586E-01  0.51100000000E-03 0. -1.
         11    1    4    4    0    0 -0.32910096881E-02 -0.27226553670E-02  0.53102249349E-01  0.53276201103E-01  0.51100000000E-03 0.  1.
</event>
<event>
 8    1  0.1099921E+005  0.1043930E+01  0.7957747E-01            NaN
         13   -1    0    0    0    0  0.00000000000E+00  0.00000000000E+00  0.74505805969E-08  0.10566000000E+00  0.10566000000E+00 0. -1.
     999900   -1    0    0    0    0 -0.00000000000E+00 -0.00000000000E+00 -0.74505805969E-08  0.93827000000E+00  0.93827000000E+00 0. -1.
     999902    2    1    2    0    0 -0.40192684733E-02 -0.20032547306E-01  0.10023949301E-01  0.10211717701E+01  0.10209181392E+01 0.  0.
     999903    2    3    3    0    0  0.50410421079E-01  0.59388334667E-01  0.10280381891E+00  0.13107156682E+00  0.23301193056E-01 0.  0.
         14    1    1    2    0    0  0.40192684733E-02  0.20032547306E-01 -0.10023949301E-01  0.22758229945E-01  0.00000000000E+00 0.  1.
     999901    1    3    3    0    0 -0.54429689552E-01 -0.79420881974E-01 -0.92779869608E-01  0.89010020324E+00  0.88000000000E+00 0. -1.
        -11    1    4    4    0    0  0.19839456674E-01  0.21836617681E-01  0.21763280389E-01  0.36665288860E-01  0.51100000000E-03 0. -1.
         11    1    4    4    0    0  0.30570964405E-01  0.37551716986E-01  0.81040538520E-01  0.94406277958E-01  0.51100000000E-03 0.  1.
</event>
<event>
 8    1  0.1099921E+005  0.1043930E+01  0.7957747E-01            NaN
         13   -1    0    0    0    0  0.00000000000E+00  0.00000000000E+00  0.74505805969E-08  0.10566000000E+00  0.10566000000E+00 0. -1.
     999900   -1    0    0    0    0 -0.00000000000E+00 -0.00000000000E+00 -0.74505805969E-08  0.93827000000E+00  0.93827000000E+00 0.  1.
     999902    2    1    2    0    0 -0.18245197999E-02 -0.86894899586E-02 -0.22088242682E-01  0.10201239803E+01  0.10198461691E+01 0.  0.
     999903    2    3    3    0    0  0.24242609941E-01 -0.75510499046E-02 -0.12978292780E+00  0.13317475037E+00  0.15722064055E-01 0.  0.
         14    1    1    2    0    0  0.18245197999E-02  0.86894899586E-02  0.22088242682E-01  0.23806019681E-01  0.00000000000E+00 0. -1.
     999901    1    3    3    0    0 -0.26067129741E-01 -0.11384400540E-02  0.10769468512E+00  0.88694922995E+00  0.88000000000E+00 0. -1.
        -11    1    4    4    0    0  0.80276496463E-02 -0.10117324111E-01 -0.45194445839E-01  0.47006408730E-01  0.51100000000E-03 0.  1.
         11    1    4    4    0    0  0.16214960295E-01  0.25662742064E-02 -0.84588481959E-01  0.86168341644E-01  0.51100000000E-03 0. -1.
</event>
<event>
 8    1  0.1099921E+005  0.1043930E+01  0.7957747E-01            NaN
         13   -1    0    0    0    0  0.00000000000E+00  0.00000000000E+00  0.74505805969E-08  0.10566000000E+00  0.10566000000E+00 0.  1.
     999900   -1    0    0    0    0 -0.00000000000E+00 -0.00000000000E+00 -0.74505805969E-08  0.93827000000E+00  0.93827000000E+00 0.  1.
     999902    2    1    2    0    0 -0.62779286373E-02 -0.21845218595E-01 -0.70112454309E-02  0.10201437955E+01  0.10198664520E+01 0.  0.
     999903    2    3    3    0    0 -0.12605256309E+00  0.26384850507E-01 -0.89443056705E-02  0.13071935273E+00  0.20546035560E-01 0.  0.
         14    1    1    2    0    0  0.62779286373E-02  0.21845218595E-01  0.70112454309E-02  0.23786204530E-01  0.00000000000E+00 0.  1.
     999901    1    3    3    0    0  0.11977463445E+00 -0.48230069102E-01  0.19330602396E-02  0.88942444274E+00  0.88000000000E+00 0.  1.
        -11    1    4    4    0    0 -0.98925261337E-01  0.12207568059E-01 -0.92475313837E-02  0.10010499491E+00  0.51100000000E-03 0.  1.
         11    1    4    4    0    0 -0.27127301749E-01  0.14177282447E-01  0.30322571321E-03  0.30614357818E-01  0.51100000000E-03 0. -1.
</event>
<event>
 8    1  0.1099921E+005  0.1043930E+01  0.7957747E-01            NaN
         13   -1    0    0    0    0  0.00000000000E+00  0.00000000000E+00  0.74505805969E-08  0.10566000000E+00  0.10566000000E+00 0.  1.
     999900   -1    0    0    0    0 -0.00000000000E+00 -0.00000000000E+00 -0.74505805969E-08  0.93827000000E+00  0.93827000000E+00 0. -1.
     999902    2    1    2    0    0  0.24688953630E-01 -0.26979941442E-02 -0.35625080203E-02  0.10188398612E+01  0.10185308771E+01 0.  0.
     999903    2    3    3    0    0  0.88782043664E-01  0.93589000290E-01 -0.13291797173E-01  0.13121732395E+00  0.20004049107E-01 0.  0.
         14    1    1    2    0    0 -0.24688953630E-01  0.26979941442E-02  0.35625080203E-02  0.25090138842E-01  0.00000000000E+00 0.  1.
     999901    1    3    3    0    0 -0.64093090034E-01 -0.96286994434E-01  0.97292891523E-02  0.88762253721E+00  0.88000000000E+00 0.  1.
        -11    1    4    4    0    0  0.44576424719E-01  0.48032798524E-01  0.32642800162E-02  0.65613443895E-01  0.51100000000E-03 0.  1.
         11    1    4    4    0    0  0.44205618945E-01  0.45556201766E-01 -0.16556077189E-01  0.65603880057E-01  0.51100000000E-03 0. -1.
</event>
<event>
 8    1  0.1099921E+005  0.1043930E+01  0.7957747E-01            NaN
         13   -1    0    0    0    0  0.00000000000E+00  0.00000000000E+00  0.74505805969E-08  0.10566000000E+00  0.10566000000E+00 0.  1.
     999900   -1    0    0    0    0 -0.00000000000E+00 -0.00000000000E+00 -0.74505805969E-08  0.93827000000E+00  0.93827000000E+00 0.  1.
     999902    2    1    2    0    0 -0.19645152125E-01 -0.48392239839E-02  0.12133786523E-01  0.10203380763E+01  0.10200652974E+01 0.  0.
     999903    2    3    3    0    0  0.67655238704E-01  0.88547228447E-01 -0.60154525010E-01  0.12816769582E+00  0.19762296995E-01 0.  0.
         14    1    1    2    0    0  0.19645152125E-01  0.48392239839E-02 -0.12133786523E-01  0.23591923749E-01  0.00000000000E+00 0. -1.
     999901    1    3    3    0    0 -0.87300390829E-01 -0.93386452431E-01  0.72288311533E-01  0.89217038043E+00  0.88000000000E+00 0. -1.
        -11    1    4    4    0    0  0.39959109815E-01  0.63025100091E-01 -0.47368796224E-01  0.88390936614E-01  0.51100000000E-03 0.  1.
         11    1    4    4    0    0  0.27696128890E-01  0.25522128356E-01 -0.12785728786E-01  0.39776759205E-01  0.51100000000E-03 0. -1.
</event>
<event>
 8    1  0.1099921E+005  0.1043930E+01  0.7957747E-01            NaN
         13   -1    0    0    0    0  0.00000000000E+00  0.00000000000E+00  0.74505805969E-08  0.10566000000E+00  0.10566000000E+00 0. -1.
     999900   -1    0    0    0    0 -0.00000000000E+00 -0.00000000000E+00 -0.74505805969E-08  0.93827000000E+00  0.93827000000E+00 0.  1.
     999902    2    1    2    0    0 -0.13353558581E-01 -0.10075739530E-01 -0.16070830448E-01  0.10207328095E+01  0.10204691856E+01 0.  0.
     999903    2    3    3    0    0 -0.11205303319E+00 -0.30675169277E-01 -0.63124530326E-01  0.13372662384E+00  0.20031358862E-01 0.  0.
         14    1    1    2    0    0  0.13353558581E-01  0.10075739530E-01  0.16070830448E-01  0.23197190458E-01  0.00000000000E+00 0. -1.
     999901    1    3    3    0    0  0.98699474612E-01  0.20599429747E-01  0.47053699878E-01  0.88700618570E+00  0.88000000000E+00 0.  1.
        -11    1    4    4    0    0 -0.32515446030E-01 -0.11104492074E-02 -0.12125506703E-01  0.34724290659E-01  0.51100000000E-03 0.  1.
         11    1    4    4    0    0 -0.79537587163E-01 -0.29564720070E-01 -0.50999023624E-01  0.99002333185E-01  0.51100000000E-03 0. -1.
</event>
<event>
 8    1  0.1099921E+005  0.1043930E+01  0.7957747E-01            NaN
         13   -1    0    0    0    0  0.00000000000E+00  0.00000000000E+00  0.74505805969E-08  0.10566000000E+00  0.10566000000E+00 0.  1.
     999900   -1    0    0    0    0 -0.00000000000E+00 -0.00000000000E+00 -0.74505805969E-08  0.93827000000E+00  0.93827000000E+00 0. -1.
     999902    2    1    2    0    0 -0.15795529320E-03  0.16064955988E-01 -0.17726088906E-01  0.10200067479E+01  0.10197261612E+01 0.  0.
     999903    2    3    3    0    0  0.77134182262E-01 -0.32039898850E-02 -0.10528876358E+00  0.13208074383E+00  0.19991286314E-01 0.  0.
         14    1    1    2    0    0  0.15795529320E-03 -0.16064955988E-01  0.17726088906E-01  0.23923252051E-01  0.00000000000E+00 0.  1.
     999901    1    3    3    0    0 -0.77292137555E-01  0.19268945873E-01  0.87562674676E-01  0.88792600412E+00  0.88000000000E+00 0.  1.
        -11    1    4    4    0    0  0.61074812850E-01 -0.95464020481E-02 -0.88812852787E-01  0.10820929026E+00  0.51100000000E-03 0.  1.
         11    1    4    4    0    0  0.16059369413E-01  0.63424121631E-02 -0.16475910795E-01  0.23871453569E-01  0.51100000000E-03 0. -1.
</event>
<event>
 8    1  0.1099921E+005  0.1043930E+01  0.7957747E-01            NaN
         13   -1    0    0    0    0  0.00000000000E+00  0.00000000000E+00  0.74505805969E-08  0.10566000000E+00  0.10566000000E+00 0.  1.
     999900   -1    0    0    0    0 -0.00000000000E+00 -0.00000000000E+00 -0.74505805969E-08  0.93827000000E+00  0.93827000000E+00 0.  1.
     999902    2    1    2    0    0 -0.13674252271E-01 -0.16385837855E-01 -0.82602278113E-02  0.10210452404E+01  0.10207887493E+01 0.  0.
     999903    2    3    3    0    0  0.68810380851E-01 -0.73655980277E-01 -0.83317177101E-01  0.13215991061E+00  0.19089736249E-01 0.  0.
         14    1    1    2    0    0  0.13674252271E-01  0.16385837855E-01  0.82602278113E-02  0.22884759576E-01  0.00000000000E+00 0.  1.
     999901    1    3    3    0    0 -0.82484633121E-01  0.57270142423E-01  0.75056949289E-01  0.88888532981E+00  0.88000000000E+00 0. -1.
        -11    1    4    4    0    0  0.41685065276E-01 -0.44933412906E-01 -0.38355960683E-01  0.72305581412E-01  0.51100000000E-03 0. -1.
         11    1    4    4    0    0  0.27125315575E-01 -0.28722567371E-01 -0.44961216418E-01  0.59854329202E-01  0.51100000000E-03 0.  1.
</event>
<event>
 8    1  0.1099921E+005  0.1043930E+01  0.7957747E-01            NaN
         13   -1    0    0    0    0  0.00000000000E+00  0.00000000000E+00  0.74505805969E-08  0.10566000000E+00  0.10566000000E+00 0. -1.
     999900   -1    0    0    0    0 -0.00000000000E+00 -0.00000000000E+00 -0.74505805969E-08  0.93827000000E+00  0.93827000000E+00 0.  1.
     999902    2    1    2    0    0 -0.96155114639E-04 -0.47668901815E-02 -0.21998391230E-01  0.10214208529E+01  0.10211728047E+01 0.  0.
     999903    2    3    3    0    0  0.83658689921E-01 -0.72121889029E-01 -0.72167467522E-01  0.13346336168E+00  0.20099310116E-01 0.  0.
         14    1    1    2    0    0  0.96155114639E-04  0.47668901815E-02  0.21998391230E-01  0.22509147129E-01  0.00000000000E+00 0. -1.
     999901    1    3    3    0    0 -0.83754845036E-01  0.67354998848E-01  0.50169076293E-01  0.88795749119E+00  0.88000000000E+00 0. -1.
        -11    1    4    4    0    0  0.48212862526E-01 -0.51860770906E-01 -0.52448940956E-01  0.88120214482E-01  0.51100000000E-03 0. -1.
         11    1    4    4    0    0  0.35445827395E-01 -0.20261118124E-01 -0.19718526566E-01  0.45343147203E-01  0.51100000000E-03 0.  1.
</event>
<event>
 8    1  0.1099921E+005  0.1043930E+01  0.7957747E-01            NaN
         13   -1    0    0    0    0  0.00000000000E+00  0.00000000000E+00  0.74505805969E-08  0.10566000000E+00  0.10566000000E+00 0. -1.
     999900   -1    0    0    0    0 -0.00000000000E+00 -0.00000000000E+00 -0.74505805969E-08  0.93827000000E+00  0.93827000000E+00 0. -1.
     999902    2    1    2    0    0 -0.20200437889E-02 -0.18629447844E-02  0.23178407316E-01  0.10205892694E+01  0.10203223349E+01 0.  0.
     999903    2    3    3    0    0 -0.30141171484E-01 -0.12438678737E+00 -0.18116336692E-01  0.13069705922E+00  0.19312082812E-01 0.  0.
         14    1    1    2    0    0  0.20200437889E-02  0.18629447844E-02 -0.23178407316E-01  0.23340730620E-01  0.00000000000E+00 0.  1.
     999901    1    3    3    0    0  0.28121127695E-01  0.12252384259E+00  0.41294744007E-01  0.88989221016E+00  0.88000000000E+00 0.  1.
        -11    1    4    4    0    0 -0.15380296923E-01 -0.95826818371E-01 -0.10239306366E-01  0.97593222964E-01  0.51100000000E-03 0.  1.
         11    1    4    4    0    0 -0.14760874561E-01 -0.28559968999E-01 -0.78770303263E-02  0.33103836255E-01  0.51100000000E-03 0. -1.
</event>
<event>
 8    1  0.1099921E+005  0.1043930E+01  0.7957747E-01            NaN
         13   -1    0    0    0    0  0.00000000000E+00  0.00000000000E+00  0.74505805969E-08  0.10566000000E+00  0.10566000000E+00 0.  1.
     999900   -1    0    0    0    0 -0.00000000000E+00 -0.00000000000E+00 -0.74505805969E-08  0.93827000000E+00  0.93827000000E+00 0. -1.
     999902    2    1    2    0    0  0.45642399581E-02 -0.10200604866E-01  0.19981949707E-01  0.10210353950E+01  0.10207786806E+01 0.  0.
     999903    2    3    3    0    0  0.38681225244E-03 -0.10798751357E+00  0.76460495470E-01  0.13380963082E+00  0.19933821034E-01 0.  0.
         14    1    1    2    0    0 -0.45642399581E-02  0.10200604866E-01 -0.19981949707E-01  0.22894605044E-01  0.00000000000E+00 0. -1.
     999901    1    3    3    0    0  0.41774277057E-02  0.97786908707E-01 -0.56478545763E-01  0.88722576414E+00  0.88000000000E+00 0. -1.
        -11    1    4    4    0    0 -0.65130030547E-02 -0.48435865737E-01  0.25508609009E-01  0.55130776822E-01  0.51100000000E-03 0. -1.
         11    1    4    4    0    0  0.68998153072E-02 -0.59551647836E-01  0.50951886462E-01  0.78678853997E-01  0.51100000000E-03 0.  1.
</event>
<event>
 8    1  0.1099921E+005  0.1043930E+01  0.7957747E-01            NaN
         13   -1    0    0    0    0  0.00000000000E+00  0.00000000000E+00  0.74505805969E-08  0.10566000000E+00  0.10566000000E+00 0. -1.
     999900   -1    0    0    0    0 -0.00000000000E+00 -0.00000000000E+00 -0.74505805969E-08  0.93827000000E+00  0.93827000000E+00 0. -1.
     999902    2    1    2    0    0 -0.23879982178E-01 -0.79324721726E-02 -0.69149339437E-02  0.10178341387E+01  0.10174995528E+01 0.  0.
     999903    2    3    3    0    0 -0.10588920510E+00  0.65308771178E-01 -0.34387236980E-01  0.13056612973E+00  0.19679248378E-01 0.  0.
         14    1    1    2    0    0  0.23879982178E-01  0.79324721726E-02  0.69149339437E-02  0.26095861263E-01  0.00000000000E+00 0.  1.
     999901    1    3    3    0    0  0.82009222920E-01 -0.73241243351E-01  0.27472303036E-01  0.88726800901E+00  0.88000000000E+00 0.  1.
        -11    1    4    4    0    0 -0.17651676999E-01  0.66690249022E-02  0.89844077460E-03  0.18897775288E-01  0.51100000000E-03 0.  1.
         11    1    4    4    0    0 -0.88237528100E-01  0.58639746276E-01 -0.35285677754E-01  0.11166835444E+00  0.51100000000E-03 0. -1.
</event>
<event>
 8    1  0.1099921E+005  0.1043930E+01  0.7957747E-01            NaN
         13   -1    0    0    0    0  0.00000000000E+00  0.00000000000E+00  0.74505805969E-08  0.10566000000E+00  0.10566000000E+00 0.  1.
     999900   -1    0    0    0    0 -0.00000000000E+00 -0.00000000000E+00 -0.74505805969E-08  0.93827000000E+00  0.93827000000E+00 0. -1.
     999902    2    1    2    0    0  0.17344384624E-01  0.85031942959E-02  0.13328694595E-01  0.10204611677E+01  0.10201912608E+01 0.  0.
     999903    2    3    3    0    0  0.19464099793E-01  0.79729303081E-01 -0.99251488800E-01  0.13043198306E+00  0.20640523875E-01 0.  0.
         14    1    1    2    0    0 -0.17344384624E-01 -0.85031942959E-02 -0.13328694595E-01  0.23468832328E-01  0.00000000000E+00 0.  1.
     999901    1    3    3    0    0 -0.21197151694E-02 -0.71226108785E-01  0.11258018340E+00  0.89002918461E+00  0.88000000000E+00 0.  1.
        -11    1    4    4    0    0  0.75570951160E-02  0.52420284435E-01 -0.76009934221E-01  0.92643224944E-01  0.51100000000E-03 0.  1.
         11    1    4    4    0    0  0.11907004677E-01  0.27309018646E-01 -0.23241554580E-01  0.37788758117E-01  0.51100000000E-03 0. -1.
</event>
<event>
 8    1  0.1099921E+005  0.1043930E+01  0.7957747E-01            NaN
         13   -1    0    0    0    0  0.00000000000E+00  0.00000000000E+00  0.74505805969E-08  0.10566000000E+00  0.10566000000E+00 0.  1.
     999900   -1    0    0    0    0 -0.00000000000E+00 -0.00000000000E+00 -0.74505805969E-08  0.93827000000E+00  0.93827000000E+00 0. -1.
     999902    2    1    2    0    0  0.17552879942E-01 -0.15303150801E-01 -0.42245206972E-02  0.10202627950E+01  0.10199882520E+01 0.  0.
     999903    2    3    3    0    0 -0.88038966593E-01 -0.22704045658E-01  0.89574807458E-01  0.12897006794E+00  0.18528328717E-01 0.  0.
         14    1    1    2    0    0 -0.17552879942E-01  0.15303150801E-01  0.42245206972E-02  0.23667205028E-01  0.00000000000E+00 0.  1.
     999901    1    3    3    0    0  0.10559184654E+00  0.74008948577E-02 -0.93799328156E-01  0.89129272703E+00  0.88000000000E+00 0. -1.
        -11    1    4    4    0    0 -0.73056020763E-01 -0.11258827654E-01  0.70737869257E-01  0.10231349196E+00  0.51100000000E-03 0.  1.
         11    1    4    4    0    0 -0.14982945830E-01 -0.11445218005E-01  0.18836938201E-01  0.26656575975E-01  0.51100000000E-03 0. -1.
</event>
<event>
 8    1  0.1099921E+005  0.1043930E+01  0.7957747E-01            NaN
         13   -1    0    0    0    0  0.00000000000E+00  0.00000000000E+00  0.74505805969E-08  0.10566000000E+00  0.10566000000E+00 0.  1.
     999900   -1    0    0    0    0 -0.00000000000E+00 -0.00000000000E+00 -0.74505805969E-08  0.93827000000E+00  0.93827000000E+00 0. -1.
     999902    2    1    2    0    0  0.67872674465E-02 -0.67838854477E-02  0.21735941279E-01  0.10201699654E+01  0.10198932390E+01 0.  0.
     999903    2    3    3    0    0 -0.87726122431E-01 -0.74643899747E-01  0.60862495805E-01  0.13164948185E+00  0.18967296851E-01 0.  0.
         14    1    1    2    0    0 -0.67872674465E-02  0.67838854477E-02 -0.21735941279E-01  0.23760034605E-01  0.00000000000E+00 0. -1.
     999901    1    3    3    0    0  0.94513389878E-01  0.67860014299E-01 -0.39126554527E-01  0.88852048354E+00  0.88000000000E+00 0. -1.
        -11    1    4    4    0    0 -0.43325368218E-01 -0.38007124304E-01  0.19814528224E-01  0.60946744612E-01  0.51100000000E-03 0.  1.
         11    1    4    4    0    0 -0.44400754213E-01 -0.36636775443E-01  0.41047967581E-01  0.70702737239E-01  0.51100000000E-03 0. -1.
</event>
<event>
 8    1  0.1099921E+005  0.1043930E+01  0.7957747E-01            NaN
         13   -1    0    0    0    0  0.00000000000E+00  0.00000000000E+00  0.74505805969E-08  0.10566000000E+00  0.10566000000E+00 0.  1.
     999900   -1    0    0    0    0 -0.00000000000E+00 -0.00000000000E+00 -0.74505805969E-08  0.93827000000E+00  0.93827000000E+00 0.  1.
     999902    2    1    2    0    0  0.30857329986E-02 -0.40537479408E-02  0.23011380710E-01  0.10203614136E+01  0.10200891805E+01 0.  0.
     999903    2    3    3    0    0  0.11961275340E+00  0.36638911338E-01  0.35940979701E-01  0.13165358003E+00  0.19781064529E-01 0.  0.
         14    1    1    2    0    0 -0.30857329986E-02  0.40537479408E-02 -0.23011380710E-01  0.23568586353E-01  0.00000000000E+00 0. -1.
     999901    1    3    3    0    0 -0.11652702040E+00 -0.40692659279E-01 -0.12929598991E-01  0.88870783362E+00  0.88000000000E+00 0.  1.
        -11    1    4    4    0    0  0.30876943541E-01  0.15740514123E-02  0.48345649068E-02  0.31296923477E-01  0.51100000000E-03 0. -1.
         11    1    4    4    0    0  0.88735809855E-01  0.35064859925E-01  0.31106414794E-01  0.10035665655E+00  0.51100000000E-03 0.  1.
</event>
<event>
 8    1  0.1099921E+005  0.1043930E+01  0.7957747E-01            NaN
         13   -1    0    0    0    0  0.00000000000E+00  0.00000000000E+00  0.74505805969E-08  0.10566000000E+00  0.10566000000E+00 0. -1.
     999900   -1    0    0    0    0 -0.00000000000E+00 -0.00000000000E+00 -0.74505805969E-08  0.93827000000E+00  0.93827000000E+00 0.  1.
     999902    2    1    2    0    0 -0.12920582199E-01 -0.20852231300E-01 -0.77075387523E-02  0.10182169071E+01  0.10178921881E+01 0.  0.
     999903    2    3    3    0    0  0.37496547325E-01  0.11804825009E+00 -0.10626498633E-01  0.12589199371E+00  0.19861802443E-01 0.  0.
         14    1    1    2    0    0  0.12920582199E-01  0.20852231300E-01  0.77075387523E-02  0.25713092933E-01  0.00000000000E+00 0. -1.
     999901    1    3    3    0    0 -0.50417129524E-01 -0.13890048139E+00  0.29189598810E-02  0.89232491336E+00  0.88000000000E+00 0.  1.
        -11    1    4    4    0    0  0.16380682873E-01  0.71497128550E-01 -0.13945985363E-01  0.74665372101E-01  0.51100000000E-03 0.  1.
         11    1    4    4    0    0  0.21115864452E-01  0.46551121537E-01  0.33194867300E-02  0.51226621605E-01  0.51100000000E-03 0. -1.
</event>
<event>
 8    1  0.1099921E+005  0.1043930E+01  0.7957747E-01            NaN
         13   -1    0    0    0    0  0.00000000000E+00  0.00000000000E+00  0.74505805969E-08  0.10566000000E+00  0.10566000000E+00 0.  1.
     999900   -1    0    0    0    0 -0.00000000000E+00 -0.00000000000E+00 -0.74505805969E-08  0.93827000000E+00  0.93827000000E+00 0. -1.
     999902    2    1    2    0    0  0.28296122813E-02 -0.21720696859E-01 -0.88719186629E-02  0.10202972617E+01  0.10200235272E+01 0.  0.
     999903    2    3    3    0    0 -0.66224336068E-01 -0.91613843010E-01 -0.66988880083E-01  0.13292412664E+00  0.20063760113E-01 0.  0.
         14    1    1    2    0    0 -0.28296122813E-02  0.21720696859E-01  0.88719186629E-02  0.23632738277E-01  0.00000000000E+00 0.  1.
     999901    1    3    3    0    0  0.69053948349E-01  0.69893146151E-01  0.58116961420E-01  0.88737313508E+00  0.88000000000E+00 0.  1.
        -11    1    4    4    0    0 -0.37629093379E-01 -0.47462034122E-01 -0.24641092685E-01  0.65391420853E-01  0.51100000000E-03 0.  1.
         11    1    4    4    0    0 -0.28595242689E-01 -0.44151808888E-01 -0.42347787398E-01  0.67532705788E-01  0.51100000000E-03 0. -1.
</event>
<event>
 8    1  0.1099921E+005  0.1043930E+01  0.7957747E-01            NaN
         13   -1    0    0    0    0  0.00000000000E+00  0.00000000000E+00  0.74505805969E-08  0.10566000000E+00  0.10566000000E+00 0. -1.
     999900   -1    0    0    0    0 -0.00000000000E+00 -0.00000000000E+00 -0.74505805969E-08  0.93827000000E+00  0.93827000000E+00 0. -1.
     999902    2    1    2    0    0 -0.16889833152E-01 -0.12764743485E-01 -0.11865953410E-01  0.10196605544E+01  0.10193716889E+01 0.  0.
     999903    2    3    3    0    0 -0.41105755216E-01  0.34721270959E-01  0.11536472418E+00  0.12891425057E+00  0.20362088440E-01 0.  0.
         14    1    1    2    0    0  0.16889833152E-01  0.12764743485E-01  0.11865953410E-01  0.24269445615E-01  0.00000000000E+00 0.  1.
     999901    1    3    3    0    0  0.24215922064E-01 -0.47486014444E-01 -0.12723067759E+00  0.89074630382E+00  0.88000000000E+00 0. -1.
        -11    1    4    4    0    0 -0.73763664195E-02  0.13823155730E-01  0.50469803892E-01  0.52848392991E-01  0.51100000000E-03 0. -1.
         11    1    4    4    0    0 -0.33729388797E-01  0.20898115229E-01  0.64894920285E-01  0.76065857574E-01  0.51100000000E-03 0.  1.
</event>
<event>
 8    1  0.1099921E+005  0.1043930E+01  0.7957747E-01            NaN
         13   -1    0    0    0    0  0.00000000000E+00  0.00000000000E+00  0.74505805969E-08  0.10566000000E+00  0.10566000000E+00 0.  1.
     999900   -1    0    0    0    0 -0.00000000000E+00 -0.00000000000E+00 -0.74505805969E-08  0.93827000000E+00  0.93827000000E+00 0. -1.
     999902    2    1    2    0    0 -0.68396350447E-02 -0.17377553566E-01 -0.14286385423E-01  0.10204170082E+01  0.10201460728E+01 0.  0.
     999903    2    3    3    0    0 -0.11828751854E+00 -0.28961469635E-01  0.45066961984E-01  0.13132891486E+00  0.19635402964E-01 0.  0.
         14    1    1    2    0    0  0.68396350447E-02  0.17377553566E-01  0.14286385423E-01  0.23512991812E-01  0.00000000000E+00 0.  1.
     999901    1    3    3    0    0  0.11144788350E+00  0.11583916069E-01 -0.59353347407E-01  0.88908809333E+00  0.88000000000E+00 0.  1.
        -11    1    4    4    0    0 -0.33782331287E-01 -0.40613843477E-02  0.21054854694E-01  0.40016356371E-01  0.51100000000E-03 0.  1.
         11    1    4    4    0    0 -0.84505187256E-01 -0.24900085287E-01  0.24012107290E-01  0.91312558490E-01  0.51100000000E-03 0. -1.
</event>
<event>
 8    1  0.1099921E+005  0.1043930E+01  0.7957747E-01            NaN
         13   -1    0    0    0    0  0.00000000000E+00  0.00000000000E+00  0.74505805969E-08  0.10566000000E+00  0.10566000000E+00 0.  1.
     999900   -1    0    0    0    0 -0.00000000000E+00 -0.00000000000E+00 -0.74505805969E-08  0.93827000000E+00  0.93827000000E+00 0.  1.
     999902    2    1    2    0    0  0.72711647892E-02  0.50329459667E-02  0.25012539279E-01  0.10174002525E+01  0.10170542986E+01 0.  0.
     999903    2    3    3    0    0  0.53352889950E-01 -0.11435211764E+00  0.10974174899E-02  0.12782268314E+00  0.20359182830E-01 0.  0.
         14    1    1    2    0    0 -0.72711647892E-02 -0.50329459667E-02 -0.25012539279E-01  0.26529747524E-01  0.00000000000E+00 0. -1.
     999901    1    3    3    0    0 -0.46081725160E-01  0.11938506361E+00  0.23915121789E-01  0.88957756933E+00  0.88000000000E+00 0. -1.
        -11    1    4    4    0    0  0.17658239381E-01 -0.19377597314E-01  0.25959229788E-02  0.26349660962E-01  0.51100000000E-03 0. -1.
         11    1    4    4    0    0  0.35694650568E-01 -0.94974520330E-01 -0.14985054889E-02  0.10147302218E+00  0.51100000000E-03 0.  1.
</event>
<event>
 8    1  0.1099921E+005  0.1043930E+01  0.7957747E-01            NaN
         13   -1    0    0    0    0  0.00000000000E+00  0.00000000000E+00  0.74505805969E-08  0.10566000000E+00  0.10566000000E+00 0. -1.
     999900   -1    0    0    0    0 -0.00000000000E+00 -0.00000000000E+00 -0.74505805969E-08  0.93827000000E+00  0.93827000000E+00 0. -1.
     999902    2    1    2    0    0 -0.23001624428E-01 -0.35373516476E-02 -0.79644498208E-02  0.10193328448E+01  0.10190360290E+01 0.  0.
     999903    2    3    3    0    0 -0.71546539324E-01 -0.41841526022E-01  0.99094440682E-01  0.13069038319E+00  0.19764804469E-01 0.  0.
         14    1    1    2    0    0  0.23001624428E-01  0.35373516476E-02  0.79644498208E-02  0.24597155200E-01  0.00000000000E+00 0. -1.
     999901    1    3    3    0    0  0.48544914896E-01  0.38304174374E-01 -0.10705889050E+00  0.88864246161E+00  0.88000000000E+00 0. -1.
        -11    1    4    4    0    0 -0.41426656374E-01 -0.30879261945E-01  0.72550775677E-01  0.89070605976E-01  0.51100000000E-03 0.  1.
         11    1    4    4    0    0 -0.30119882950E-01 -0.10962264077E-01  0.26543665005E-01  0.41619777216E-01  0.51100000000E-03 0. -1.
</event>
<event>
 8    1  0.1099921E+005  0.1043930E+01  0.7957747E-01            NaN
         13   -1    0    0    0    0  0.00000000000E+00  0.00000000000E+00  0.74505805969E-08  0.10566000000E+00  0.10566000000E+00 0.  1.
     999900   -1    0    0    0    0 -0.00000000000E+00 -0.00000000000E+00 -0.74505805969E-08  0.93827000000E+00  0.93827000000E+00 0. -1.
     999902    2    1    2    0    0 -0.12864498241E-02 -0.20435011901E-01  0.10498616347E-01  0.10209198803E+01  0.10206605392E+01 0.  0.
     999903    2    3    3    0    0 -0.12331273330E+00  0.38019527236E-01  0.11866317820E-01  0.13057768897E+00  0.16068874072E-01 0.  0.
         14    1    1    2    0    0  0.12864498241E-02  0.20435011901E-01 -0.10498616347E-01  0.23010119725E-01  0.00000000000E+00 0. -1.
     999901    1    3    3    0    0  0.12202628348E+00 -0.58454539137E-01 -0.13677014728E-02  0.89034219130E+00  0.88000000000E+00 0.  1.
        -11    1    4    4    0    0 -0.74185519101E-01  0.17035291343E-01  0.13564915046E-02  0.76130109586E-01  0.51100000000E-03 0.  1.
         11    1    4    4    0    0 -0.49127214198E-01  0.20984235893E-01  0.10509826315E-01  0.54447579387E-01  0.51100000000E-03 0. -1.
</event>
<event>
 8    1  0.1099921E+005  0.1043930E+01  0.7957747E-01            NaN
         13   -1    0    0    0    0  0.00000000000E+00  0.00000000000E+00  0.74505805969E-08  0.10566000000E+00  0.10566000000E+00 0. -1.
     999900   -1    0    0    0    0 -0.00000000000E+00 -0.00000000000E+00 -0.74505805969E-08  0.93827000000E+00  0.93827000000E+00 0.  1.
     999902    2    1    2    0    0 -0.17590812826E-01 -0.86370620045E-02 -0.13872471023E-01  0.10199199815E+01  0.10196373314E+01 0.  0.
     999903    2    3    3    0    0 -0.96097861625E-02 -0.82905352783E-01  0.98023744123E-01  0.12969515666E+00  0.15701392899E-01 0.  0.
         14    1    1    2    0    0  0.17590812826E-01  0.86370620045E-02  0.13872471023E-01  0.24010018497E-01  0.00000000000E+00 0.  1.
     999901    1    3    3    0    0 -0.79810266638E-02  0.74268290779E-01 -0.11189621515E+00  0.89022482484E+00  0.88000000000E+00 0. -1.
        -11    1    4    4    0    0 -0.12818204590E-02 -0.29250317325E-01  0.45774511528E-01  0.54339591036E-01  0.51100000000E-03 0.  1.
         11    1    4    4    0    0 -0.83279657035E-02 -0.53655035458E-01  0.52249232595E-01  0.75355565624E-01  0.51100000000E-03 0. -1.
</event>
<event>
 8    1  0.1099921E+005  0.1043930E+01  0.7957747E-01            NaN
         13   -1    0    0    0    0  0.00000000000E+00  0.00000000000E+00  0.74505805969E-08  0.10566000000E+00  0.10566000000E+00 0. -1.
     999900   -1    0    0    0    0 -0.00000000000E+00 -0.00000000000E+00 -0.74505805969E-08  0.93827000000E+00  0.93827000000E+00 0. -1.
     999902    2    1    2    0    0 -0.21688075972E-01  0.14203995252E-02 -0.11845766712E-01  0.10191769726E+01  0.10188763366E+01 0.  0.
     999903    2    3    3    0    0  0.11138879595E+00 -0.59449265744E-01  0.48653352728E-02  0.12693606856E+00  0.12141456063E-01 0.  0.
         14    1    1    2    0    0  0.21688075972E-01 -0.14203995252E-02  0.11845766712E-01  0.24753027354E-01  0.00000000000E+00 0. -1.
     999901    1    3    3    0    0 -0.13307687192E+00  0.60869665269E-01 -0.16711101984E-01  0.89224090408E+00  0.88000000000E+00 0. -1.
        -11    1    4    4    0    0  0.35373661172E-01 -0.18229899137E-01  0.71379108965E-02  0.40433105498E-01  0.51100000000E-03 0. -1.
         11    1    4    4    0    0  0.76015134774E-01 -0.41219366607E-01 -0.22725756237E-02  0.86502963065E-01  0.51100000000E-03 0.  1.
</event>
<event>
 8    1  0.1099921E+005  0.1043930E+01  0.7957747E-01            NaN
         13   -1    0    0    0    0  0.00000000000E+00  0.00000000000E+00  0.74505805969E-08  0.10566000000E+00  0.10566000000E+00 0. -1.
     999900   -1    0    0    0    0 -0.00000000000E+00 -0.00000000000E+00 -0.74505805969E-08  0.93827000000E+00  0.93827000000E+00 0. -1.
     999902    2    1    2    0    0 -0.15929564811E-02  0.13288953718E-01 -0.19207178081E-01  0.10205195431E+01  0.10202509928E+01 0.  0.
     999903    2    3    3    0    0  0.11393922138E+00 -0.57191190739E-01  0.38107138289E-02  0.12987654044E+00  0.24503382425E-01 0.  0.
         14    1    1    2    0    0  0.15929564811E-02 -0.13288953718E-01  0.19207178081E-01  0.23410456875E-01  0.00000000000E+00 0. -1.
     999901    1    3    3    0    0 -0.11553217786E+00  0.70480144457E-01 -0.23017891910E-01  0.89064300268E+00  0.88000000000E+00 0. -1.
        -11    1    4    4    0    0  0.78235963838E-01 -0.27571489065E-01  0.77594013022E-02  0.83315799681E-01  0.51100000000E-03 0.  1.
         11    1    4    4    0    0  0.35703257541E-01 -0.29619701674E-01 -0.39486874734E-02  0.46560740759E-01  0.51100000000E-03 0. -1.
</event>
<event>
 8    1  0.1099921E+005  0.1043930E+01  0.7957747E-01            NaN
         13   -1    0    0    0    0  0.00000000000E+00  0.00000000000E+00  0.74505805969E-08  0.10566000000E+00  0.10566000000E+00 0. -1.
     999900   -1    0    0    0    0 -0.00000000000E+00 -0.00000000000E+00 -0.74505805969E-08  0.93827000000E+00  0.93827000000E+00 0.  1.
     999902    2    1    2    0    0  0.41281183951E-02  0.19958806816E-01  0.10563369343E-01  0.10209739528E+01  0.10207158430E+01 0.  0.
     999903    2    3    3    0    0  0.87749925214E-02  0.11465906423E+00 -0.59193535063E-01  0.13313626612E+00  0.31586219440E-01 0.  0.
         14    1    1    2    0    0 -0.41281183951E-02 -0.19958806816E-01 -0.10563369343E-01  0.22956047196E-01  0.00000000000E+00 0.  1.
     999901    1    3    3    0    0 -0.46468741263E-02 -0.94700257412E-01  0.69756904406E-01  0.88783768669E+00  0.88000000000E+00 0. -1.
        -11    1    4    4    0    0  0.18725344828E-01  0.76441427877E-01 -0.47586332417E-01  0.91970922518E-01  0.51100000000E-03 0.  1.
         11    1    4    4    0    0 -0.99503523066E-02  0.38217636350E-01 -0.11607202646E-01  0.41165343597E-01  0.51100000000E-03 0. -1.
</event>
<event>
 8    1  0.1099921E+005  0.1043930E+01  0.7957747E-01            NaN
         13   -1    0    0    0    0  0.00000000000E+00  0.00000000000E+00  0.74505805969E-08  0.10566000000E+00  0.10566000000E+00 0. -1.
     999900   -1    0    0    0    0 -0.00000000000E+00 -0.00000000000E+00 -0.74505805969E-08  0.93827000000E+00  0.93827000000E+00 0. -1.
     999902    2    1    2    0    0  0.92063597509E-02 -0.21118237712E-01  0.40366517988E-02  0.10205412937E+01  0.10202732480E+01 0.  0.
     999903    2    3    3    0    0  0.11192972455E+00  0.62810102502E-01 -0.11784776389E-01  0.13045906518E+00  0.20182034567E-01 0.  0.
         14    1    1    2    0    0 -0.92063597509E-02  0.21118237712E-01 -0.40366517988E-02  0.23388706285E-01  0.00000000000E+00 0.  1.
     999901    1    3    3    0    0 -0.10272336480E+00 -0.83928340214E-01  0.15821428188E-01  0.89008222854E+00  0.88000000000E+00 0.  1.
        -11    1    4    4    0    0  0.55932561115E-01  0.41527732197E-01 -0.11125506068E-01  0.70548153346E-01  0.51100000000E-03 0.  1.
         11    1    4    4    0    0  0.55997163432E-01  0.21282370305E-01 -0.65927032177E-03  0.59910911833E-01  0.51100000000E-03 0. -1.
</event>
<event>
 8    1  0.1099921E+005  0.1043930E+01  0.7957747E-01            NaN
         13   -1    0    0    0    0  0.00000000000E+00  0.00000000000E+00  0.74505805969E-08  0.10566000000E+00  0.10566000000E+00 0.  1.
     999900   -1    0    0    0    0 -0.00000000000E+00 -0.00000000000E+00 -0.74505805969E-08  0.93827000000E+00  0.93827000000E+00 0.  1.
     999902    2    1    2    0    0 -0.67783845331E-02  0.10266474184E-02  0.22003087764E-01  0.10208836039E+01  0.10206234351E+01 0.  0.
     999903    2    3    3    0    0 -0.85372436355E-01  0.49690377984E-01  0.87718050688E-01  0.13360482020E+00  0.19955074839E-01 0.  0.
         14    1    1    2    0    0  0.67783845331E-02 -0.10266474184E-02 -0.22003087764E-01  0.23046396095E-01  0.00000000000E+00 0. -1.
     999901    1    3    3    0    0  0.78594051822E-01 -0.48663730565E-01 -0.65714962924E-01  0.88727878370E+00  0.88000000000E+00 0.  1.
        -11    1    4    4    0    0 -0.25122782371E-01  0.24136667032E-01  0.36852373463E-01  0.50715790838E-01  0.51100000000E-03 0. -1.
         11    1    4    4    0    0 -0.60249653985E-01  0.25553710952E-01  0.50865677224E-01  0.82889029366E-01  0.51100000000E-03 0.  1.
</event>
<event>
 8    1  0.1099921E+005  0.1043930E+01  0.7957747E-01            NaN
         13   -1    0    0    0    0  0.00000000000E+00  0.00000000000E+00  0.74505805969E-08  0.10566000000E+00  0.10566000000E+00 0.  1.
     999900   -1    0    0    0    0 -0.00000000000E+00 -0.00000000000E+00 -0.74505805969E-08  0.93827000000E+00  0.93827000000E+00 0. -1.
     999902    2    1    2    0    0 -0.97383263897E-02 -0.24144920607E-02  0.21183841347E-01  0.10204902921E+01  0.10202210625E+01 0.  0.
     999903    2    3    3    0    0 -0.12963360378E+00 -0.68399910822E-02  0.24986086659E-01  0.13234113814E+00  0.61818776377E-02 0.  0.
         14    1    1    2    0    0  0.97383263897E-02  0.24144920607E-02 -0.21183841347E-01  0.23439707912E-01  0.00000000000E+00 0. -1.
     999901    1    3    3    0    0  0.11989527739E+00  0.44254990215E-02 -0.38022453125E-02  0.88814915394E+00  0.88000000000E+00 0. -1.
        -11    1    4    4    0    0 -0.93426331332E-01 -0.25546773517E-02  0.16594248899E-01  0.94924369790E-01  0.51100000000E-03 0. -1.
         11    1    4    4    0    0 -0.36207272451E-01 -0.42853137304E-02  0.83918377600E-02  0.37416768354E-01  0.51100000000E-03 0.  1.
</event>
<event>
 8    1  0.1099921E+005  0.1043930E+01  0.7957747E-01            NaN
         13   -1    0    0    0    0  0.00000000000E+00  0.00000000000E+00  0.74505805969E-08  0.10566000000E+00  0.10566000000E+00 0. -1.
     999900   -1    0    0    0    0 -0.00000000000E+00 -0.00000000000E+00 -0.74505805969E-08  0.93827000000E+00  0.93827000000E+00 0.  1.
     999902    2    1    2    0    0  0.14216417182E-02  0.11723267302E-01 -0.19431820170E-01  0.10211912292E+01  0.10209380368E+01 0.  0.
     999903    2    3    3    0    0 -0.10424701768E+00 -0.29184457572E-01 -0.73571944971E-01  0.13227590106E+00  0.19102608570E-01 0.  0.
         14    1    1    2    0    0 -0.14216417182E-02 -0.11723267302E-01  0.19431820170E-01  0.22738770779E-01  0.00000000000E+00 0. -1.
     999901    1    3    3    0    0  0.10566865940E+00  0.40907724874E-01  0.54140124800E-01  0.88891532817E+00  0.88000000000E+00 0. -1.
        -11    1    4    4    0    0 -0.79155081324E-01 -0.14521733680E-01 -0.58808126245E-01  0.99674793614E-01  0.51100000000E-03 0. -1.
         11    1    4    4    0    0 -0.25091936357E-01 -0.14662723892E-01 -0.14763818726E-01  0.32601107442E-01  0.51100000000E-03 0.  1.
</event>
<event>
 8    1  0.1099921E+005  0.1043930E+01  0.7957747E-01            NaN
         13   -1    0    0    0    0  0.00000000000E+00  0.00000000000E+00  0.74505805969E-08  0.10566000000E+00  0.10566000000E+00 0. -1.
     999900   -1    0    0    0    0 -0.00000000000E+00 -0.00000000000E+00 -0.74505805969E-08  0.93827000000E+00  0.93827000000E+00 0. -1.
     999902    2    1    2    0    0 -0.12067434269E-01 -0.20054519276E-01 -0.18958283712E-02  0.10204480734E+01  0.10201778617E+01 0.  0.
     999903    2    3    3    0    0 -0.64289838234E-01  0.59396335992E-01 -0.94728235099E-01  0.13047196491E+00  0.19707538505E-01 0.  0.
         14    1    1    2    0    0  0.12067434269E-01  0.20054519276E-01  0.18958283712E-02  0.23481926633E-01  0.00000000000E+00 0.  1.
     999901    1    3    3    0    0  0.52222403965E-01 -0.79450855267E-01  0.92832406728E-01  0.88997610845E+00  0.88000000000E+00 0. -1.
        -11    1    4    4    0    0 -0.23536621998E-01  0.33636184791E-01 -0.37115335731E-01  0.55345955315E-01  0.51100000000E-03 0. -1.
         11    1    4    4    0    0 -0.40753216236E-01  0.25760151201E-01 -0.57612899369E-01  0.75126009598E-01  0.51100000000E-03 0.  1.
</event>
<event>
 8    1  0.1099921E+005  0.1043930E+01  0.7957747E-01            NaN
         13   -1    0    0    0    0  0.00000000000E+00  0.00000000000E+00  0.74505805969E-08  0.10566000000E+00  0.10566000000E+00 0.  1.
     999900   -1    0    0    0    0 -0.00000000000E+00 -0.00000000000E+00 -0.74505805969E-08  0.93827000000E+00  0.93827000000E+00 0.  1.
     999902    2    1    2    0    0  0.15540173927E-01 -0.12174155075E-01  0.13219054696E-01  0.10201718337E+01  0.10198951514E+01 0.  0.
     999903    2    3    3    0    0 -0.10458992134E-01 -0.41252692821E-01 -0.12002801638E+00  0.12928671210E+00  0.22296951071E-01 0.  0.
         14    1    1    2    0    0 -0.15540173927E-01  0.12174155075E-01 -0.13219054696E-01  0.23758166270E-01  0.00000000000E+00 0. -1.
     999901    1    3    3    0    0  0.25999166061E-01  0.29078537747E-01  0.13324707108E+00  0.89088512163E+00  0.88000000000E+00 0. -1.
        -11    1    4    4    0    0 -0.12543940079E-01 -0.37437207723E-01 -0.11805734297E+00  0.12448571125E+00  0.51100000000E-03 0.  1.
         11    1    4    4    0    0  0.20849479446E-02 -0.38154850980E-02 -0.19706734122E-02  0.48010008500E-02  0.51100000000E-03 0. -1.
</event>
<event>
 8    1  0.1099921E+005  0.1043930E+01  0.7957747E-01            NaN
         13   -1    0    0    0    0  0.00000000000E+00  0.00000000000E+00  0.74505805969E-08  0.10566000000E+00  0.10566000000E+00 0. -1.
     999900   -1    0    0    0    0 -0.00000000000E+00 -0.00000000000E+00 -0.74505805969E-08  0.93827000000E+00  0.93827000000E+00 0. -1.
     999902    2    1    2    0    0 -0.24438773982E-01 -0.11887107142E-01  0.18927243134E-01  0.10108120664E+01  0.10102693879E+01 0.  0.
     999903    2    3    3    0    0 -0.40550571731E-01 -0.10236781240E+00  0.56274370040E-01  0.12523815314E+00  0.19856293568E-01 0.  0.
         14    1    1    2    0    0  0.24438773982E-01  0.11887107142E-01 -0.18927243134E-01  0.33117933550E-01  0.00000000000E+00 0.  1.
     999901    1    3    3    0    0  0.16111797749E-01  0.90480705260E-01 -0.37347126905E-01  0.88557391331E+00  0.88000000000E+00 0. -1.
        -11    1    4    4    0    0 -0.25478553944E-01 -0.58728847774E-01  0.43268554774E-01  0.77270066812E-01  0.51100000000E-03 0. -1.
         11    1    4    4    0    0 -0.15072017788E-01 -0.43638964628E-01  0.13005815266E-01  0.47968086326E-01  0.51100000000E-03 0.  1.
</event>
<event>
 8    1  0.1099921E+005  0.1043930E+01  0.7957747E-01            NaN
         13   -1    0    0    0    0  0.00000000000E+00  0.00000000000E+00  0.74505805969E-08  0.10566000000E+00  0.10566000000E+00 0.  1.
     999900   -1    0    0    0    0 -0.00000000000E+00 -0.00000000000E+00 -0.74505805969E-08  0.93827000000E+00  0.93827000000E+00 0.  1.
     999902    2    1    2    0    0  0.13773221841E-01  0.17861256007E-01 -0.72012509149E-02  0.10202533423E+01  0.10199785774E+01 0.  0.
     999903    2    3    3    0    0 -0.64663524032E-01  0.51337246502E-01  0.97843361027E-01  0.12991220792E+00  0.22067493062E-01 0.  0.
         14    1    1    2    0    0 -0.13773221841E-01 -0.17861256007E-01  0.72012509149E-02  0.23676657720E-01  0.00000000000E+00 0.  1.
     999901    1    3    3    0    0  0.78436745873E-01 -0.33475990495E-01 -0.10504461194E+00  0.89034113436E+00  0.88000000000E+00 0.  1.
        -11    1    4    4    0    0 -0.20992536396E-01  0.12674454440E-01  0.44785089479E-01  0.51061666055E-01  0.51100000000E-03 0. -1.
         11    1    4    4    0    0 -0.43670987636E-01  0.38662792063E-01  0.53058271548E-01  0.78850541862E-01  0.51100000000E-03 0.  1.
</event>
<event>
 8    1  0.1099921E+005  0.1043930E+01  0.7957747E-01            NaN
         13   -1    0    0    0    0  0.00000000000E+00  0.00000000000E+00  0.74505805969E-08  0.10566000000E+00  0.10566000000E+00 0.  1.
     999900   -1    0    0    0    0 -0.00000000000E+00 -0.00000000000E+00 -0.74505805969E-08  0.93827000000E+00  0.93827000000E+00 0.  1.
     999902    2    1    2    0    0 -0.15442982002E-01 -0.16554073244E-01 -0.14648456115E-01  0.10169652026E+01  0.10166076544E+01 0.  0.
     999903    2    3    3    0    0 -0.60582071386E-01  0.10422850675E+00  0.31921262537E-01  0.12635041057E+00  0.20290151728E-01 0.  0.
         14    1    1    2    0    0  0.15442982002E-01  0.16554073244E-01  0.14648456115E-01  0.26964797434E-01  0.00000000000E+00 0.  1.
     999901    1    3    3    0    0  0.45139089383E-01 -0.12078257999E+00 -0.46569718652E-01  0.89061479199E+00  0.88000000000E+00 0.  1.
        -11    1    4    4    0    0 -0.20474928931E-01  0.35974190829E-01  0.21048004654E-01  0.46439689291E-01  0.51100000000E-03 0. -1.
         11    1    4    4    0    0 -0.40107142455E-01  0.68254315922E-01  0.10873257883E-01  0.79910721283E-01  0.51100000000E-03 0.  1.
</event>
<event>
 8    1  0.1099921E+005  0.1043930E+01  0.7957747E-01            NaN
         13   -1    0    0    0    0  0.00000000000E+00  0.00000000000E+00  0.74505805969E-08  0.10566000000E+00  0.10566000000E+00 0.  1.
     999900   -1    0    0    0    0 -0.00000000000E+00 -0.00000000000E+00 -0.74505805969E-08  0.93827000000E+00  0.93827000000E+00 0.  1.
     999902    2    1    2    0    0 -0.51204461731E-02 -0.18783674670E-01 -0.12992916414E-01  0.10205235633E+01  0.10202551063E+01 0.  0.
     999903    2    3    3    0    0  0.84960132712E-02  0.66687107280E-01 -0.11047422017E+00  0.13092069282E+00  0.20403969418E-01 0.  0.
         14    1    1    2    0    0  0.51204461731E-02  0.18783674670E-01  0.12992916414E-01  0.23406436723E-01  0.00000000000E+00 0.  1.
     999901    1    3    3    0    0 -0.13616459444E-01 -0.85470781950E-01  0.97481303759E-01  0.88960287045E+00  0.88000000000E+00 0. -1.
        -11    1    4    4    0    0  0.11829817787E-02  0.38604323436E-01 -0.80000160623E-01  0.88836816999E-01  0.51100000000E-03 0.  1.
         11    1    4    4    0    0  0.73130314925E-02  0.28082783844E-01 -0.30474059550E-01  0.42083875825E-01  0.51100000000E-03 0. -1.
</event>
<event>
 8    1  0.1099921E+005  0.1043930E+01  0.7957747E-01            NaN
         13   -1    0    0    0    0  0.00000000000E+00  0.00000000000E+00  0.74505805969E-08  0.10566000000E+00  0.10566000000E+00 0. -1.
     999900   -1    0    0    0    0 -0.00000000000E+00 -0.00000000000E+00 -0.74505805969E-08  0.93827000000E+00  0.93827000000E+00 0.  1.
     999902    2    1    2    0    0  0.21121819530E-01  0.10165554103E-01  0.38952312659E-02  0.10201677910E+01  0.10198910134E+01 0.  0.
     999903    2    3    3    0    0 -0.21804759329E-01 -0.19179494729E-01  0.12532605875E+00  0.13030866229E+00  0.20746708601E-01 0.  0.
         14    1    1    2    0    0 -0.21121819530E-01 -0.10165554103E-01 -0.38952312659E-02  0.23762209012E-01  0.00000000000E+00 0. -1.
     999901    1    3    3    0    0  0.42926578860E-01  0.29345048832E-01 -0.12143082749E+00  0.88985912870E+00  0.88000000000E+00 0.  1.
        -11    1    4    4    0    0 -0.84639809586E-02 -0.12462488655E-01  0.98092052097E-01  0.99243460252E-01  0.51100000000E-03 0. -1.
         11    1    4    4    0    0 -0.13340778371E-01 -0.67170060747E-02  0.27234006656E-01  0.31065202038E-01  0.51100000000E-03 0.  1.
</event>
<event>
 8    1  0.1099921E+005  0.1043930E+01  0.7957747E-01            NaN
         13   -1    0    0    0    0  0.00000000000E+00  0.00000000000E+00  0.74505805969E-08  0.10566000000E+00  0.10566000000E+00 0. -1.
     999900   -1    0    0    0    0 -0.00000000000E+00 -0.00000000000E+00 -0.74505805969E-08  0.93827000000E+00  0.93827000000E+00 0.  1.
     999902    2    1    2    0    0  0.82435688998E-02 -0.31597345302E-02  0.21924432051E-01  0.10202948340E+01  0.10200210425E+01 0.  0.
     999903    2    3    3    0    0  0.78769290785E-01 -0.44701106191E-01 -0.90289535737E-01  0.12940116046E+00  0.19740060782E-01 0.  0.
         14    1    1    2    0    0 -0.82435688998E-02  0.31597345302E-02 -0.21924432051E-01  0.23635165987E-01  0.00000000000E+00 0.  1.
     999901    1    3    3    0    0 -0.70525721885E-01  0.41541371661E-01  0.11221396779E+00  0.89089367355E+00  0.88000000000E+00 0. -1.
        -11    1    4    4    0    0  0.52669262850E-01 -0.28364050899E-01 -0.71898388974E-01  0.93531866712E-01  0.51100000000E-03 0. -1.
         11    1    4    4    0    0  0.26100027935E-01 -0.16337055292E-01 -0.18391146763E-01  0.35869293750E-01  0.51100000000E-03 0.  1.
</event>
<event>
 8    1  0.1099921E+005  0.1043930E+01  0.7957747E-01            NaN
         13   -1    0    0    0    0  0.00000000000E+00  0.00000000000E+00  0.74505805969E-08  0.10566000000E+00  0.10566000000E+00 0. -1.
     999900   -1    0    0    0    0 -0.00000000000E+00 -0.00000000000E+00 -0.74505805969E-08  0.93827000000E+00  0.93827000000E+00 0. -1.
     999902    2    1    2    0    0  0.73246359956E-02  0.20477112828E-01  0.10749993683E-01  0.10196704698E+01  0.10193818431E+01 0.  0.
     999903    2    3    3    0    0 -0.12537506156E-01 -0.11754588932E+00 -0.42642933309E-01  0.12709237322E+00  0.18969090947E-01 0.  0.
         14    1    1    2    0    0 -0.73246359956E-02 -0.20477112828E-01 -0.10749993683E-01  0.24259530219E-01  0.00000000000E+00 0.  1.
     999901    1    3    3    0    0  0.19862142151E-01  0.13802300215E+00  0.53392926992E-01  0.89257809656E+00  0.88000000000E+00 0.  1.
        -11    1    4    4    0    0 -0.88893084761E-02 -0.65883881672E-01 -0.14124062930E-01  0.67966579611E-01  0.51100000000E-03 0. -1.
         11    1    4    4    0    0 -0.36481976796E-02 -0.51662007651E-01 -0.28518870379E-01  0.59125793606E-01  0.51100000000E-03 0.  1.
</event>
<event>
 8    1  0.1099921E+005  0.1043930E+01  0.7957747E-01            NaN
         13   -1    0    0    0    0  0.00000000000E+00  0.00000000000E+00  0.74505805969E-08  0.10566000000E+00  0.10566000000E+00 0. -1.
     999900   -1    0    0    0    0 -0.00000000000E+00 -0.00000000000E+00 -0.74505805969E-08  0.93827000000E+00  0.93827000000E+00 0. -1.
     999902    2    1    2    0    0 -0.81876862842E-03 -0.18451480938E-01  0.11773498892E-01  0.10220269681E+01  0.10217922395E+01 0.  0.
     999903    2    3    3    0    0 -0.49898315418E-01  0.49231945242E-01 -0.10763261636E+00  0.13003612259E+00  0.20272808386E-01 0.  0.
         14    1    1    2    0    0  0.81876862842E-03  0.18451480938E-01 -0.11773498892E-01  0.21903031914E-01  0.00000000000E+00 0.  1.
     999901    1    3    3    0    0  0.49079546789E-01 -0.67683426180E-01  0.11940611525E+00  0.89199084550E+00  0.88000000000E+00 0.  1.
        -11    1    4    4    0    0 -0.51222598650E-02 -0.13095953367E-02 -0.59631810081E-02  0.79858145988E-02  0.51100000000E-03 0.  1.
         11    1    4    4    0    0 -0.44776055553E-01  0.50541540579E-01 -0.10166943535E+00  0.12205030799E+00  0.51100000000E-03 0. -1.
</event>
<event>
 8    1  0.1099921E+005  0.1043930E+01  0.7957747E-01            NaN
         13   -1    0    0    0    0  0.00000000000E+00  0.00000000000E+00  0.74505805969E-08  0.10566000000E+00  0.10566000000E+00 0.  1.
     999900   -1    0    0    0    0 -0.00000000000E+00 -0.00000000000E+00 -0.74505805969E-08  0.93827000000E+00  0.93827000000E+00 0.  1.
     999902    2    1    2    0    0 -0.32210399459E-02  0.24591182820E-01  0.13499608141E-02  0.10190920499E+01  0.10187893219E+01 0.  0.
     999903    2    3    3    0    0 -0.57080892611E-01  0.11539979043E+00 -0.23104170250E-01  0.13244381556E+00  0.20789941385E-01 0.  0.
         14    1    1    2    0    0  0.32210399459E-02 -0.24591182820E-01 -0.13499608141E-02  0.24837950097E-01  0.00000000000E+00 0. -1.
     999901    1    3    3    0    0  0.53859852665E-01 -0.90808607613E-01  0.24454131064E-01  0.88664823435E+00  0.88000000000E+00 0.  1.
        -11    1    4    4    0    0 -0.35724507519E-01  0.51204308583E-01 -0.15719084484E-01  0.64385342997E-01  0.51100000000E-03 0. -1.
         11    1    4    4    0    0 -0.21356385092E-01  0.64195481850E-01 -0.73850857661E-02  0.68058472558E-01  0.51100000000E-03 0.  1.
</event>
<event>
 8    1  0.1099921E+005  0.1043930E+01  0.7957747E-01            NaN
         13   -1    0    0    0    0  0.00000000000E+00  0.00000000000E+00  0.74505805969E-08  0.10566000000E+00  0.10566000000E+00 0.  1.
     999900   -1    0    0    0    0 -0.00000000000E+00 -0.00000000000E+00 -0.74505805969E-08  0.93827000000E+00  0.93827000000E+00 0. -1.
     999902    2    1    2    0    0  0.64897148498E-02  0.19559686583E-01 -0.10685515927E-01  0.10207162543E+01  0.10204522497E+01 0.  0.
     999903    2    3    3    0    0  0.67193179174E-01 -0.68417409925E-01 -0.86877676662E-01  0.13098026794E+00  0.20303560769E-01 0.  0.
         14    1    1    2    0    0 -0.64897148498E-02 -0.19559686583E-01  0.10685515927E-01  0.23213745684E-01  0.00000000000E+00 0.  1.
     999901    1    3    3    0    0 -0.60703464324E-01  0.87977096508E-01  0.76192160735E-01  0.88973598637E+00  0.88000000000E+00 0.  1.
        -11    1    4    4    0    0  0.60727665209E-01 -0.57692871227E-01 -0.66053486514E-01  0.10667539976E+00  0.51100000000E-03 0.  1.
         11    1    4    4    0    0  0.64655139652E-02 -0.10724538698E-01 -0.20824190148E-01  0.24304868184E-01  0.51100000000E-03 0. -1.
</event>
<event>
 8    1  0.1099921E+005  0.1043930E+01  0.7957747E-01            NaN
         13   -1    0    0    0    0  0.00000000000E+00  0.00000000000E+00  0.74505805969E-08  0.10566000000E+00  0.10566000000E+00 0.  1.
     999900   -1    0    0    0    0 -0.00000000000E+00 -0.00000000000E+00 -0.74505805969E-08  0.93827000000E+00  0.93827000000E+00 0.  1.
     999902    2    1    2    0    0  0.19641425109E-01 -0.67235546784E-02  0.11635840717E-01  0.10201311648E+01  0.10198535232E+01 0.  0.
     999903    2    3    3    0    0  0.94220176433E-01 -0.58568456029E-01  0.71263209296E-01  0.13344897425E+00  0.20554270627E-01 0.  0.
         14    1    1    2    0    0 -0.19641425109E-01  0.67235546784E-02 -0.11635840717E-01  0.23798835203E-01  0.00000000000E+00 0. -1.
     999901    1    3    3    0    0 -0.74578751324E-01  0.51844901351E-01 -0.59627368580E-01  0.88668219054E+00  0.88000000000E+00 0. -1.
        -11    1    4    4    0    0  0.22775280144E-01 -0.66228459957E-02  0.21744067228E-01  0.32181377462E-01  0.51100000000E-03 0. -1.
         11    1    4    4    0    0  0.71444896290E-01 -0.51945610033E-01  0.49519142068E-01  0.10126759679E+00  0.51100000000E-03 0.  1.
</event>
<event>
 8    1  0.1099921E+005  0.1043930E+01  0.7957747E-01            NaN
         13   -1    0    0    0    0  0.00000000000E+00  0.00000000000E+00  0.74505805969E-08  0.10566000000E+00  0.10566000000E+00 0.  1.
     999900   -1    0    0    0    0 -0.00000000000E+00 -0.00000000000E+00 -0.74505805969E-08  0.93827000000E+00  0.93827000000E+00 0.  1.
     999902    2    1    2    0    0  0.55465720864E-02  0.46622014856E-02 -0.23081358934E-01  0.10197380651E+01  0.10194510639E+01 0.  0.
     999903    2    3    3    0    0 -0.38434415902E-01 -0.10922706317E+00 -0.57116719223E-01  0.13065792378E+00  0.20035413125E-01 0.  0.
         14    1    1    2    0    0 -0.55465720864E-02 -0.46622014856E-02  0.23081358934E-01  0.24191934913E-01  0.00000000000E+00 0.  1.
     999901    1    3    3    0    0  0.43980987988E-01  0.11388926465E+00  0.34035360289E-01  0.88908014130E+00  0.88000000000E+00 0. -1.
        -11    1    4    4    0    0 -0.25271354128E-01 -0.45847881992E-01 -0.31080045474E-01  0.60884316292E-01  0.51100000000E-03 0. -1.
         11    1    4    4    0    0 -0.13163061774E-01 -0.63379181175E-01 -0.26036673749E-01  0.69773607493E-01  0.51100000000E-03 0.  1.
</event>
<event>
 8    1  0.1099921E+005  0.1043930E+01  0.7957747E-01            NaN
         13   -1    0    0    0    0  0.00000000000E+00  0.00000000000E+00  0.74505805969E-08  0.10566000000E+00  0.10566000000E+00 0. -1.
     999900   -1    0    0    0    0 -0.00000000000E+00 -0.00000000000E+00 -0.74505805969E-08  0.93827000000E+00  0.93827000000E+00 0.  1.
     999902    2    1    2    0    0 -0.10331397414E-01 -0.20776963925E-01  0.30999120648E-02  0.10205199710E+01  0.10202514307E+01 0.  0.
     999903    2    3    3    0    0 -0.10578231664E+00  0.15568817087E-01 -0.73602459055E-01  0.13129831838E+00  0.19739297136E-01 0.  0.
         14    1    1    2    0    0  0.10331397414E-01  0.20776963925E-01 -0.30999120648E-02  0.23410028989E-01  0.00000000000E+00 0. -1.
     999901    1    3    3    0    0  0.95450919222E-01 -0.36345781011E-01  0.76702371120E-01  0.88922165263E+00  0.88000000000E+00 0.  1.
        -11    1    4    4    0    0 -0.50923240817E-01 -0.21658504703E-02 -0.37351997619E-01  0.63192564520E-01  0.51100000000E-03 0.  1.
         11    1    4    4    0    0 -0.54859075819E-01  0.17734667557E-01 -0.36250461436E-01  0.68105753857E-01  0.51100000000E-03 0. -1.
</event>
<event>
 8    1  0.1099921E+005  0.1043930E+01  0.7957747E-01            NaN
         13   -1    0    0    0    0  0.00000000000E+00  0.00000000000E+00  0.74505805969E-08  0.10566000000E+00  0.10566000000E+00 0.  1.
     999900   -1    0    0    0    0 -0.00000000000E+00 -0.00000000000E+00 -0.74505805969E-08  0.93827000000E+00  0.93827000000E+00 0.  1.
     999902    2    1    2    0    0  0.14779066675E-01  0.17795057004E-01 -0.33780570637E-02  0.10205527432E+01  0.10202849629E+01 0.  0.
     999903    2    3    3    0    0 -0.11216457806E+00 -0.30578421301E-01  0.49523594142E-01  0.12855875946E+00  0.23639708903E-01 0.  0.
         14    1    1    2    0    0 -0.14779066675E-01 -0.17795057004E-01  0.33780570637E-02  0.23377256791E-01  0.00000000000E+00 0.  1.
     999901    1    3    3    0    0  0.12694364473E+00  0.48373478305E-01 -0.52901651206E-01  0.89199398375E+00  0.88000000000E+00 0.  1.
        -11    1    4    4    0    0 -0.89801045228E-01 -0.33967895123E-01  0.40211905006E-01  0.10409276655E+00  0.51100000000E-03 0.  1.
         11    1    4    4    0    0 -0.22363532831E-01  0.33894738226E-02  0.93116891367E-02  0.24465992910E-01  0.51100000000E-03 0. -1.
</event>
<event>
 8    1  0.1099921E+005  0.1043930E+01  0.7957747E-01            NaN
         13   -1    0    0    0    0  0.00000000000E+00  0.00000000000E+00  0.74505805969E-08  0.10566000000E+00  0.10566000000E+00 0. -1.
     999900   -1    0    0    0    0 -0.00000000000E+00 -0.00000000000E+00 -0.74505805969E-08  0.93827000000E+00  0.93827000000E+00 0. -1.
     999902    2    1    2    0    0  0.20241289083E-01 -0.82333025202E-02  0.60575232405E-02  0.10212542279E+01  0.10210024521E+01 0.  0.
     999903    2    3    3    0    0 -0.49919379814E-02 -0.12270016579E+00 -0.44322582269E-01  0.13205372541E+00  0.19835447174E-01 0.  0.
         14    1    1    2    0    0 -0.20241289083E-01  0.82333025202E-02 -0.60575232405E-02  0.22675772135E-01  0.00000000000E+00 0.  1.
     999901    1    3    3    0    0  0.25233227064E-01  0.11446686327E+00  0.50380105510E-01  0.88920050246E+00  0.88000000000E+00 0.  1.
        -11    1    4    4    0    0  0.20482099374E-02 -0.38633243342E-01 -0.23101515911E-01  0.45062887318E-01  0.51100000000E-03 0.  1.
         11    1    4    4    0    0 -0.70401479188E-02 -0.84066922453E-01 -0.21221066358E-01  0.86990838091E-01  0.51100000000E-03 0. -1.
</event>
<event>
 8    1  0.1099921E+005  0.1043930E+01  0.7957747E-01            NaN
         13   -1    0    0    0    0  0.00000000000E+00  0.00000000000E+00  0.74505805969E-08  0.10566000000E+00  0.10566000000E+00 0.  1.
     999900   -1    0    0    0    0 -0.00000000000E+00 -0.00000000000E+00 -0.74505805969E-08  0.93827000000E+00  0.93827000000E+00 0.  1.
     999902    2    1    2    0    0 -0.11586112242E-01 -0.11450070388E-01 -0.17524067284E-01  0.10200043852E+01  0.10197237424E+01 0.  0.
     999903    2    3    3    0    0  0.89630778382E-01 -0.90804690649E-01 -0.19156034370E-01  0.13065367935E+00  0.20597621157E-01 0.  0.
         14    1    1    2    0    0  0.11586112242E-01  0.11450070388E-01  0.17524067284E-01  0.23925614787E-01  0.00000000000E+00 0. -1.
     999901    1    3    3    0    0 -0.10121689062E+00  0.79354620261E-01  0.16319670862E-02  0.88935070586E+00  0.88000000000E+00 0.  1.
        -11    1    4    4    0    0  0.45425835523E-01 -0.58931540157E-01 -0.15679633117E-01  0.76043046848E-01  0.51100000000E-03 0.  1.
         11    1    4    4    0    0  0.44204942859E-01 -0.31873150492E-01 -0.34764012532E-02  0.54610632501E-01  0.51100000000E-03 0. -1.
</event>
<event>
 8    1  0.1099921E+005  0.1043930E+01  0.7957747E-01            NaN
         13   -1    0    0    0    0  0.00000000000E+00  0.00000000000E+00  0.74505805969E-08  0.10566000000E+00  0.10566000000E+00 0.  1.
     999900   -1    0    0    0    0 -0.00000000000E+00 -0.00000000000E+00 -0.74505805969E-08  0.93827000000E+00  0.93827000000E+00 0.  1.
     999902    2    1    2    0    0 -0.22016950528E-02  0.33787859112E-02  0.24013322613E-01  0.10195803939E+01  0.10192895939E+01 0.  0.
     999903    2    3    3    0    0 -0.62405537040E-01 -0.34633117195E-01 -0.10378384541E+00  0.12750331003E+00  0.19801607052E-01 0.  0.
         14    1    1    2    0    0  0.22016950528E-02 -0.33787859112E-02 -0.24013322613E-01  0.24349606121E-01  0.00000000000E+00 0. -1.
     999901    1    3    3    0    0  0.60203841988E-01  0.38011903107E-01  0.12779716802E+00  0.89207708385E+00  0.88000000000E+00 0. -1.
        -11    1    4    4    0    0 -0.16169241233E-01 -0.13689548515E-01 -0.45633345265E-01  0.50314127456E-01  0.51100000000E-03 0.  1.
         11    1    4    4    0    0 -0.46236295808E-01 -0.20943568680E-01 -0.58150500143E-01  0.77189182577E-01  0.51100000000E-03 0. -1.
</event>
<event>
 8    1  0.1099921E+005  0.1043930E+01  0.7957747E-01            NaN
         13   -1    0    0    0    0  0.00000000000E+00  0.00000000000E+00  0.74505805969E-08  0.10566000000E+00  0.10566000000E+00 0. -1.
     999900   -1    0    0    0    0 -0.00000000000E+00 -0.00000000000E+00 -0.74505805969E-08  0.93827000000E+00  0.93827000000E+00 0. -1.
     999902    2    1    2    0    0  0.10995489921E-01 -0.20835173981E-01 -0.31678692661E-02  0.10201594159E+01  0.10198824408E+01 0.  0.
     999903    2    3    3    0    0 -0.11192961697E+00  0.50117349887E-01  0.31368725704E-01  0.12811815062E+00  0.19755395508E-01 0.  0.
         14    1    1    2    0    0 -0.10995489921E-01  0.20835173981E-01  0.31678692661E-02  0.23770584114E-01  0.00000000000E+00 0. -1.
     999901    1    3    3    0    0  0.12292510689E+00 -0.70952523868E-01 -0.34536594970E-01  0.89204126527E+00  0.88000000000E+00 0. -1.
        -11    1    4    4    0    0 -0.70153860392E-01  0.35693215519E-01  0.11095837266E-01  0.79491813966E-01  0.51100000000E-03 0. -1.
         11    1    4    4    0    0 -0.41775756576E-01  0.14424134368E-01  0.20272888438E-01  0.48626336654E-01  0.51100000000E-03 0.  1.
</event>
<event>
 8    1  0.1099921E+005  0.1043930E+01  0.7957747E-01            NaN
         13   -1    0    0    0    0  0.00000000000E+00  0.00000000000E+00  0.74505805969E-08  0.10566000000E+00  0.10566000000E+00 0.  1.
     999900   -1    0    0    0    0 -0.00000000000E+00 -0.00000000000E+00 -0.74505805969E-08  0.93827000000E+00  0.93827000000E+00 0. -1.
     999902    2    1    2    0    0 -0.23079261423E-01  0.55217229116E-02 -0.40016197458E-02  0.10198643670E+01  0.10195803903E+01 0.  0.
     999903    2    3    3    0    0  0.10715657734E+00  0.67656271444E-01 -0.16999689853E-02  0.12810914641E+00  0.18685833320E-01 0.  0.
         14    1    1    2    0    0  0.23079261423E-01 -0.55217229116E-02  0.40016197458E-02  0.24065633013E-01  0.00000000000E+00 0. -1.
     999901    1    3    3    0    0 -0.13023583877E+00 -0.62134548532E-01 -0.23016507605E-02  0.89175522057E+00  0.88000000000E+00 0. -1.
        -11    1    4    4    0    0  0.24489184734E-01  0.19380510607E-01  0.69122197064E-02  0.31990065061E-01  0.51100000000E-03 0. -1.
         11    1    4    4    0    0  0.82667392610E-01  0.48275760837E-01 -0.86121886917E-02  0.96119081354E-01  0.51100000000E-03 0.  1.
</event>
<event>
 8    1  0.1099921E+005  0.1043930E+01  0.7957747E-01            NaN
         13   -1    0    0    0    0  0.00000000000E+00  0.00000000000E+00  0.74505805969E-08  0.10566000000E+00  0.10566000000E+00 0.  1.
     999900   -1    0    0    0    0 -0.00000000000E+00 -0.00000000000E+00 -0.74505805969E-08  0.93827000000E+00  0.93827000000E+00 0.  1.
     999902    2    1    2    0    0 -0.25135573845E-01  0.70724112712E-02  0.13503266061E-02  0.10177835001E+01  0.10174475975E+01 0.  0.
     999903    2    3    3    0    0 -0.50372672146E-01 -0.46688984003E-01  0.10771344506E+00  0.12939151923E+00  0.20559953203E-01 0.  0.
         14    1    1    2    0    0  0.25135573845E-01 -0.70724112712E-02 -0.13503266061E-02  0.26146499874E-01  0.00000000000E+00 0.  1.
     999901    1    3    3    0    0  0.25237098301E-01  0.53761395274E-01 -0.10636311845E+00  0.88839198090E+00  0.88000000000E+00 0.  1.
        -11    1    4    4    0    0 -0.19673849945E-01 -0.61293581356E-02  0.35687736736E-01  0.41212923667E-01  0.51100000000E-03 0. -1.
         11    1    4    4    0    0 -0.30698822201E-01 -0.40559625868E-01  0.72025708324E-01  0.88178595564E-01  0.51100000000E-03 0.  1.
</event>
<event>
 8    1  0.1099921E+005  0.1043930E+01  0.7957747E-01            NaN
         13   -1    0    0    0    0  0.00000000000E+00  0.00000000000E+00  0.74505805969E-08  0.10566000000E+00  0.10566000000E+00 0. -1.
     999900   -1    0    0    0    0 -0.00000000000E+00 -0.00000000000E+00 -0.74505805969E-08  0.93827000000E+00  0.93827000000E+00 0.  1.
     999902    2    1    2    0    0  0.48240904814E-02 -0.20905781093E-01  0.38631260373E-02  0.10221298331E+01  0.10218973278E+01 0.  0.
     999903    2    3    3    0    0 -0.94323030931E-01 -0.49343561903E-01  0.77613685031E-01  0.13304153381E+00  0.18561905866E-01 0.  0.
         14    1    1    2    0    0 -0.48240904814E-02  0.20905781093E-01 -0.38631260373E-02  0.21800166854E-01  0.00000000000E+00 0. -1.
     999901    1    3    3    0    0  0.99147121413E-01  0.28437780809E-01 -0.73750558994E-01  0.88908829933E+00  0.88000000000E+00 0.  1.
        -11    1    4    4    0    0 -0.97738701821E-02 -0.10105924124E-01  0.16006885574E-01  0.21310554839E-01  0.51100000000E-03 0.  1.
         11    1    4    4    0    0 -0.84549160749E-01 -0.39237637779E-01  0.61606799457E-01  0.11173097897E+00  0.51100000000E-03 0. -1.
</event>
<event>
 8    1  0.1099921E+005  0.1043930E+01  0.7957747E-01            NaN
         13   -1    0    0    0    0  0.00000000000E+00  0.00000000000E+00  0.74505805969E-08  0.10566000000E+00  0.10566000000E+00 0. -1.
     999900   -1    0    0    0    0 -0.00000000000E+00 -0.00000000000E+00 -0.74505805969E-08  0.93827000000E+00  0.93827000000E+00 0.  1.
     999902    2    1    2    0    0 -0.11066626102E-01 -0.95400728389E-02 -0.18941592288E-01  0.10200078947E+01  0.10197273352E+01 0.  0.
     999903    2    3    3    0    0 -0.13994097684E-01  0.12536940366E+00 -0.23081496521E-01  0.12971228327E+00  0.19473027671E-01 0.  0.
         14    1    1    2    0    0  0.11066626102E-01  0.95400728389E-02  0.18941592288E-01  0.23922105289E-01  0.00000000000E+00 0. -1.
     999901    1    3    3    0    0  0.29274715823E-02 -0.13490947650E+00  0.41399042332E-02  0.89029561144E+00  0.88000000000E+00 0. -1.
        -11    1    4    4    0    0 -0.13314591971E-01  0.57309301530E-01 -0.17661299671E-01  0.61431400995E-01  0.51100000000E-03 0.  1.
         11    1    4    4    0    0 -0.67950571322E-03  0.68060102129E-01 -0.54201968499E-02  0.68280882278E-01  0.51100000000E-03 0. -1.
</event>
<event>
 8    1  0.1099921E+005  0.1043930E+01  0.7957747E-01            NaN
         13   -1    0    0    0    0  0.00000000000E+00  0.00000000000E+00  0.74505805969E-08  0.10566000000E+00  0.10566000000E+00 0. -1.
     999900   -1    0    0    0    0 -0.00000000000E+00 -0.00000000000E+00 -0.74505805969E-08  0.93827000000E+00  0.93827000000E+00 0.  1.
     999902    2    1    2    0    0 -0.10146851605E-01 -0.19820215059E-01 -0.88845238351E-02  0.10199563835E+01  0.10196746001E+01 0.  0.
     999903    2    3    3    0    0 -0.22353060002E-01  0.99661868336E-01 -0.76376867152E-01  0.12923747379E+00  0.20898600531E-01 0.  0.
         14    1    1    2    0    0  0.10146851605E-01  0.19820215059E-01  0.88845238351E-02  0.23973616462E-01  0.00000000000E+00 0. -1.
     999901    1    3    3    0    0  0.12206208397E-01 -0.11948208339E+00  0.67492343317E-01  0.89071890975E+00  0.88000000000E+00 0.  1.
        -11    1    4    4    0    0 -0.40970802088E-02  0.36600754409E-01 -0.39201189626E-01  0.53790293536E-01  0.51100000000E-03 0. -1.
         11    1    4    4    0    0 -0.18255979793E-01  0.63061113927E-01 -0.37175677526E-01  0.75447180255E-01  0.51100000000E-03 0.  1.
</event>
<event>
 8    1  0.1099921E+005  0.1043930E+01  0.7957747E-01            NaN
         13   -1    0    0    0    0  0.00000000000E+00  0.00000000000E+00  0.74505805969E-08  0.10566000000E+00  0.10566000000E+00 0.  1.
     999900   -1    0    0    0    0 -0.00000000000E+00 -0.00000000000E+00 -0.74505805969E-08  0.93827000000E+00  0.93827000000E+00 0. -1.
     999902    2    1    2    0    0  0.26619076143E-02 -0.10902856083E-01  0.21015926838E-01  0.10201050718E+01  0.10198268139E+01 0.  0.
     999903    2    3    3    0    0 -0.82247806624E-01 -0.93901550804E-01 -0.32775187129E-01  0.13050295465E+00  0.19354724044E-01 0.  0.
         14    1    1    2    0    0 -0.26619076143E-02  0.10902856083E-01 -0.21015926838E-01  0.23824928200E-01  0.00000000000E+00 0. -1.
     999901    1    3    3    0    0  0.84909714239E-01  0.82998694721E-01  0.53791113966E-01  0.88960211715E+00  0.88000000000E+00 0.  1.
        -11    1    4    4    0    0 -0.25486636413E-01 -0.19406477008E-01 -0.14093909522E-01  0.35001134154E-01  0.51100000000E-03 0.  1.
         11    1    4    4    0    0 -0.56761170212E-01 -0.74495073796E-01 -0.18681277607E-01  0.95501820495E-01  0.51100000000E-03 0. -1.
</event>
<event>
 8    1  0.1099921E+005  0.1043930E+01  0.7957747E-01            NaN
         13   -1    0    0    0    0  0.00000000000E+00  0.00000000000E+00  0.74505805969E-08  0.10566000000E+00  0.10566000000E+00 0.  1.
     999900   -1    0    0    0    0 -0.00000000000E+00 -0.00000000000E+00 -0.74505805969E-08  0.93827000000E+00  0.93827000000E+00 0. -1.
     999902    2    1    2    0    0  0.22589245367E-01  0.10586815525E-01 -0.27769717854E-02  0.10188288797E+01  0.10185196217E+01 0.  0.
     999903    2    3    3    0    0 -0.74315326668E-01  0.10018809361E+00 -0.24602595687E-01  0.12871919937E+00  0.20072934357E-01 0.  0.
         14    1    1    2    0    0 -0.22589245367E-01 -0.10586815525E-01  0.27769717854E-02  0.25101120324E-01  0.00000000000E+00 0.  1.
     999901    1    3    3    0    0  0.96904572035E-01 -0.89601278082E-01  0.21825623901E-01  0.89010968031E+00  0.88000000000E+00 0. -1.
        -11    1    4    4    0    0 -0.39029965263E-01  0.64127097699E-01 -0.21856541747E-01  0.78189464674E-01  0.51100000000E-03 0.  1.
         11    1    4    4    0    0 -0.35285361405E-01  0.36060995908E-01 -0.27460539397E-02  0.50529734697E-01  0.51100000000E-03 0. -1.
</event>
<event>
 8    1  0.1099921E+005  0.1043930E+01  0.7957747E-01            NaN
         13   -1    0    0    0    0  0.00000000000E+00  0.00000000000E+00  0.74505805969E-08  0.10566000000E+00  0.10566000000E+00 0.  1.
     999900   -1    0    0    0    0 -0.00000000000E+00 -0.00000000000E+00 -0.74505805969E-08  0.93827000000E+00  0.93827000000E+00 0. -1.
     999902    2    1    2    0    0  0.79488991472E-02 -0.23032023579E-01  0.28489729994E-02  0.10193988819E+01  0.10191036771E+01 0.  0.
     999903    2    3    3    0    0 -0.48081277283E-01  0.95636634849E-01 -0.64707840292E-01  0.12710657880E+00  0.22600943081E-01 0.  0.
         14    1    1    2    0    0 -0.79488991472E-02  0.23032023579E-01 -0.28489729994E-02  0.24531118094E-01  0.00000000000E+00 0. -1.
     999901    1    3    3    0    0  0.56030176430E-01 -0.11866865843E+00  0.67556813291E-01  0.89229230311E+00  0.88000000000E+00 0.  1.
        -11    1    4    4    0    0 -0.24624819976E-01  0.35799989193E-01 -0.37172484787E-01  0.57184575992E-01  0.51100000000E-03 0. -1.
         11    1    4    4    0    0 -0.23456457307E-01  0.59836645656E-01 -0.27535355505E-01  0.69922002807E-01  0.51100000000E-03 0.  1.
</event>
<event>
 8    1  0.1099921E+005  0.1043930E+01  0.7957747E-01            NaN
         13   -1    0    0    0    0  0.00000000000E+00  0.00000000000E+00  0.74505805969E-08  0.10566000000E+00  0.10566000000E+00 0.  1.
     999900   -1    0    0    0    0 -0.00000000000E+00 -0.00000000000E+00 -0.74505805969E-08  0.93827000000E+00  0.93827000000E+00 0.  1.
     999902    2    1    2    0    0  0.11702587349E-01 -0.19695549563E-01 -0.30587808232E-02  0.10208167708E+01  0.10205550736E+01 0.  0.
     999903    2    3    3    0    0  0.71383651948E-01 -0.18969687614E-02 -0.10965323781E+00  0.13219930688E+00  0.18804252713E-01 0.  0.
         14    1    1    2    0    0 -0.11702587349E-01  0.19695549563E-01  0.30587808232E-02  0.23113229185E-01  0.00000000000E+00 0. -1.
     999901    1    3    3    0    0 -0.59681064599E-01 -0.17798580802E-01  0.10659445699E+00  0.88861746394E+00  0.88000000000E+00 0. -1.
        -11    1    4    4    0    0  0.56474273342E-01 -0.48038963931E-02 -0.72278426164E-01  0.91852343355E-01  0.51100000000E-03 0. -1.
         11    1    4    4    0    0  0.14909378606E-01  0.29069276317E-02 -0.37374811651E-01  0.40346963524E-01  0.51100000000E-03 0.  1.
</event>
<event>
 8    1  0.1099921E+005  0.1043930E+01  0.7957747E-01            NaN
         13   -1    0    0    0    0  0.00000000000E+00  0.00000000000E+00  0.74505805969E-08  0.10566000000E+00  0.10566000000E+00 0. -1.
     999900   -1    0    0    0    0 -0.00000000000E+00 -0.00000000000E+00 -0.74505805969E-08  0.93827000000E+00  0.93827000000E+00 0. -1.
     999902    2    1    2    0    0 -0.11722980007E-02  0.20405998346E-01 -0.14053534077E-01  0.10191251442E+01  0.10188232323E+01 0.  0.
     999903    2    3    3    0    0 -0.65695479065E-01 -0.95398396554E-01  0.48440051632E-01  0.12700444215E+00  0.19155669903E-01 0.  0.
         14    1    1    2    0    0  0.11722980007E-02 -0.20405998346E-01  0.14053534077E-01  0.24804855797E-01  0.00000000000E+00 0. -1.
     999901    1    3    3    0    0  0.64523181065E-01  0.11580439490E+00 -0.62493585708E-01  0.89212070205E+00  0.88000000000E+00 0. -1.
        -11    1    4    4    0    0 -0.59794221831E-01 -0.76296388955E-01  0.35750993341E-01  0.10331932335E+00  0.51100000000E-03 0. -1.
         11    1    4    4    0    0 -0.59012572342E-02 -0.19102007600E-01  0.12689058291E-01  0.23685118801E-01  0.51100000000E-03 0.  1.
</event>
<event>
 8    1  0.1099921E+005  0.1043930E+01  0.7957747E-01            NaN
         13   -1    0    0    0    0  0.00000000000E+00  0.00000000000E+00  0.74505805969E-08  0.10566000000E+00  0.10566000000E+00 0.  1.
     999900   -1    0    0    0    0 -0.00000000000E+00 -0.00000000000E+00 -0.74505805969E-08  0.93827000000E+00  0.93827000000E+00 0. -1.
     999902    2    1    2    0    0  0.78517648936E-02 -0.17657367019E-01  0.12977911712E-01  0.10206521347E+01  0.10203866527E+01 0.  0.
     999903    2    3    3    0    0 -0.53877308362E-02  0.14646012345E-01 -0.12643541087E+00  0.12899364226E+00  0.20246315735E-01 0.  0.
         14    1    1    2    0    0 -0.78517648936E-02  0.17657367019E-01 -0.12977911712E-01  0.23277865331E-01  0.00000000000E+00 0. -1.
     999901    1    3    3    0    0  0.13239495730E-01 -0.32303379364E-01  0.13941332258E+00  0.89165849241E+00  0.88000000000E+00 0.  1.
        -11    1    4    4    0    0 -0.94197013090E-02  0.17683910763E-01 -0.10931115258E+00  0.11113343633E+00  0.51100000000E-03 0.  1.
         11    1    4    4    0    0  0.40319704728E-02 -0.30378984186E-02 -0.17124258295E-01  0.17860205930E-01  0.51100000000E-03 0. -1.
</event>
<event>
 8    1  0.1099921E+005  0.1043930E+01  0.7957747E-01            NaN
         13   -1    0    0    0    0  0.00000000000E+00  0.00000000000E+00  0.74505805969E-08  0.10566000000E+00  0.10566000000E+00 0. -1.
     999900   -1    0    0    0    0 -0.00000000000E+00 -0.00000000000E+00 -0.74505805969E-08  0.93827000000E+00  0.93827000000E+00 0.  1.
     999902    2    1    2    0    0 -0.71974540948E-02  0.13483689995E-01  0.18387385344E-01  0.10200195592E+01  0.10197392764E+01 0.  0.
     999903    2    3    3    0    0  0.29019598375E-01  0.10172093519E+00  0.77071693473E-01  0.13292241998E+00  0.23217193026E-01 0.  0.
         14    1    1    2    0    0  0.71974540948E-02 -0.13483689995E-01 -0.18387385344E-01  0.23910440839E-01  0.00000000000E+00 0. -1.
     999901    1    3    3    0    0 -0.36217052470E-01 -0.88237245194E-01 -0.58684308130E-01  0.88709713918E+00  0.88000000000E+00 0. -1.
        -11    1    4    4    0    0  0.73559556789E-02  0.36273735434E-01  0.40552781232E-01  0.54906130376E-01  0.51100000000E-03 0.  1.
         11    1    4    4    0    0  0.21663642697E-01  0.65447199755E-01  0.36518912241E-01  0.78016289600E-01  0.51100000000E-03 0. -1.
</event>
<event>
 8    1  0.1099921E+005  0.1043930E+01  0.7957747E-01            NaN
         13   -1    0    0    0    0  0.00000000000E+00  0.00000000000E+00  0.74505805969E-08  0.10566000000E+00  0.10566000000E+00 0.  1.
     999900   -1    0    0    0    0 -0.00000000000E+00 -0.00000000000E+00 -0.74505805969E-08  0.93827000000E+00  0.93827000000E+00 0. -1.
     999902    2    1    2    0    0 -0.13104293774E-01 -0.38628723794E-02  0.19226632287E-01  0.10203438242E+01  0.10200711798E+01 0.  0.
     999903    2    3    3    0    0  0.95852820019E-01  0.57211080675E-01  0.63454243071E-01  0.13042373684E+00  0.22870052678E-01 0.  0.
         14    1    1    2    0    0  0.13104293774E-01  0.38628723794E-02 -0.19226632287E-01  0.23586175770E-01  0.00000000000E+00 0. -1.
     999901    1    3    3    0    0 -0.10895711379E+00 -0.61073953054E-01 -0.44227610784E-01  0.88992008739E+00  0.88000000000E+00 0. -1.
        -11    1    4    4    0    0  0.29740184582E-01  0.85051694319E-02  0.10311705373E-01  0.32609950548E-01  0.51100000000E-03 0.  1.
         11    1    4    4    0    0  0.66112635437E-01  0.48705911243E-01  0.53142537698E-01  0.97813786290E-01  0.51100000000E-03 0. -1.
</event>
<event>
 8    1  0.1099921E+005  0.1043930E+01  0.7957747E-01            NaN
         13   -1    0    0    0    0  0.00000000000E+00  0.00000000000E+00  0.74505805969E-08  0.10566000000E+00  0.10566000000E+00 0.  1.
     999900   -1    0    0    0    0 -0.00000000000E+00 -0.00000000000E+00 -0.74505805969E-08  0.93827000000E+00  0.93827000000E+00 0. -1.
     999902    2    1    2    0    0  0.13702619229E-01  0.26609047760E-02 -0.17486236215E-01  0.10215556700E+01  0.10213106169E+01 0.  0.
     999903    2    3    3    0    0 -0.79845396863E-01 -0.14736859377E-02 -0.10251597539E+00  0.13251214869E+00  0.25932319440E-01 0.  0.
         14    1    1    2    0    0 -0.13702619229E-01 -0.26609047760E-02  0.17486236215E-01  0.22374330044E-01  0.00000000000E+00 0.  1.
     999901    1    3    3    0    0  0.93548016093E-01  0.41345907137E-02  0.85029739170E-01  0.88904352126E+00  0.88000000000E+00 0. -1.
        -11    1    4    4    0    0 -0.32991733106E-01 -0.78906013924E-02 -0.59949966303E-01  0.68883783464E-01  0.51100000000E-03 0.  1.
         11    1    4    4    0    0 -0.46853663758E-01  0.64169154547E-02 -0.42566009083E-01  0.63628365229E-01  0.51100000000E-03 0. -1.
</event>
<event>
 8    1  0.1099921E+005  0.1043930E+01  0.7957747E-01            NaN
         13   -1    0    0    0    0  0.00000000000E+00  0.00000000000E+00  0.74505805969E-08  0.10566000000E+00  0.10566000000E+00 0.  1.
     999900   -1    0    0    0    0 -0.00000000000E+00 -0.00000000000E+00 -0.74505805969E-08  0.93827000000E+00  0.93827000000E+00 0. -1.
     999902    2    1    2    0    0 -0.23317697186E-01 -0.41544531420E-02  0.16005798508E-02  0.10201910797E+01  0.10199148507E+01 0.  0.
     999903    2    3    3    0    0  0.32698182088E-01 -0.12030841636E+00 -0.32775988320E-01  0.13012857043E+00  0.17773386645E-01 0.  0.
         14    1    1    2    0    0  0.23317697186E-01  0.41544531420E-02 -0.16005798508E-02  0.23738920338E-01  0.00000000000E+00 0. -1.
     999901    1    3    3    0    0 -0.56015879274E-01  0.11615396322E+00  0.34376568171E-01  0.89006250923E+00  0.88000000000E+00 0.  1.
        -11    1    4    4    0    0  0.30973131808E-01 -0.92111734626E-01 -0.20483784880E-01  0.99316429224E-01  0.51100000000E-03 0. -1.
         11    1    4    4    0    0  0.17250502803E-02 -0.28196681734E-01 -0.12292203439E-01  0.30812141205E-01  0.51100000000E-03 0.  1.
</event>
<event>
 8    1  0.1099921E+005  0.1043930E+01  0.7957747E-01            NaN
         13   -1    0    0    0    0  0.00000000000E+00  0.00000000000E+00  0.74505805969E-08  0.10566000000E+00  0.10566000000E+00 0. -1.
     999900   -1    0    0    0    0 -0.00000000000E+00 -0.00000000000E+00 -0.74505805969E-08  0.93827000000E+00  0.93827000000E+00 0. -1.
     999902    2    1    2    0    0 -0.52256058976E-02 -0.17331635215E-01  0.14075398507E-01  0.10209994662E+01  0.10207419364E+01 0.  0.
     999903    2    3    3    0    0 -0.27054427141E-01  0.27317877087E-01  0.12531330186E+00  0.13260543904E+00  0.20064157193E-01 0.  0.
         14    1    1    2    0    0  0.52256058976E-02  0.17331635215E-01 -0.14075398507E-01  0.22930533778E-01  0.00000000000E+00 0.  1.
     999901    1    3    3    0    0  0.21828821243E-01 -0.44649512302E-01 -0.11123790335E+00  0.88839402718E+00  0.88000000000E+00 0. -1.
        -11    1    4    4    0    0 -0.10832262006E-01  0.74361183467E-02  0.74789588238E-01  0.75936666941E-01  0.51100000000E-03 0.  1.
         11    1    4    4    0    0 -0.16222165134E-01  0.19881758740E-01  0.50523713623E-01  0.56668772101E-01  0.51100000000E-03 0. -1.
</event>
<event>
 8    1  0.1099921E+005  0.1043930E+01  0.7957747E-01            NaN
         13   -1    0    0    0    0  0.00000000000E+00  0.00000000000E+00  0.74505805969E-08  0.10566000000E+00  0.10566000000E+00 0.  1.
     999900   -1    0    0    0    0 -0.00000000000E+00 -0.00000000000E+00 -0.74505805969E-08  0.93827000000E+00  0.93827000000E+00 0.  1.
     999902    2    1    2    0    0 -0.15549137135E-01  0.74608908145E-04 -0.17710753300E-01  0.10203619705E+01  0.10200897504E+01 0.  0.
     999903    2    3    3    0    0  0.22664858710E-01  0.12559469188E+00 -0.21655998034E-01  0.13062539956E+00  0.17501151709E-01 0.  0.
         14    1    1    2    0    0  0.15549137135E-01 -0.74608908145E-04  0.17710753300E-01  0.23568029502E-01  0.00000000000E+00 0.  1.
     999901    1    3    3    0    0 -0.38213995845E-01 -0.12552008297E+00  0.39452447341E-02  0.88973657094E+00  0.88000000000E+00 0. -1.
        -11    1    4    4    0    0  0.40024097651E-02  0.32849847316E-01  0.18341305437E-02  0.33147502296E-01  0.51100000000E-03 0.  1.
         11    1    4    4    0    0  0.18662448945E-01  0.92744844562E-01 -0.23490128578E-01  0.97477897265E-01  0.51100000000E-03 0. -1.
</event>
<event>
 8    1  0.1099921E+005  0.1043930E+01  0.7957747E-01            NaN
         13   -1    0    0    0    0  0.00000000000E+00  0.00000000000E+00  0.74505805969E-08  0.10566000000E+00  0.10566000000E+00 0.  1.
     999900   -1    0    0    0    0 -0.00000000000E+00 -0.00000000000E+00 -0.74505805969E-08  0.93827000000E+00  0.93827000000E+00 0. -1.
     999902    2    1    2    0    0  0.15655973712E-01  0.12545544008E-01  0.11778700630E-01  0.10206654782E+01  0.10204003040E+01 0.  0.
     999903    2    3    3    0    0  0.48003739732E-01  0.64928134872E-01  0.10443468887E+00  0.13366184461E+00  0.20949051031E-01 0.  0.
         14    1    1    2    0    0 -0.15655973712E-01 -0.12545544008E-01 -0.11778700630E-01  0.23264521828E-01  0.00000000000E+00 0. -1.
     999901    1    3    3    0    0 -0.32347766020E-01 -0.52382590864E-01 -0.92655988242E-01  0.88700363356E+00  0.88000000000E+00 0. -1.
        -11    1    4    4    0    0  0.33663855430E-01  0.54595413615E-01  0.69937230575E-01  0.94896742261E-01  0.51100000000E-03 0.  1.
         11    1    4    4    0    0  0.14339884301E-01  0.10332721257E-01  0.34497458297E-01  0.38765102351E-01  0.51100000000E-03 0. -1.
</event>
<event>
 8    1  0.1099921E+005  0.1043930E+01  0.7957747E-01            NaN
         13   -1    0    0    0    0  0.00000000000E+00  0.00000000000E+00  0.74505805969E-08  0.10566000000E+00  0.10566000000E+00 0. -1.
     999900   -1    0    0    0    0 -0.00000000000E+00 -0.00000000000E+00 -0.74505805969E-08  0.93827000000E+00  0.93827000000E+00 0. -1.
     999902    2    1    2    0    0  0.15882014252E-01  0.14207377719E-01 -0.92470193445E-02  0.10207008088E+01  0.10204364486E+01 0.  0.
     999903    2    3    3    0    0 -0.74432864154E-01 -0.62242316054E-02 -0.10527630081E+00  0.13064696162E+00  0.20162756345E-01 0.  0.
         14    1    1    2    0    0 -0.15882014252E-01 -0.14207377719E-01  0.92470193445E-02  0.23229191228E-01  0.00000000000E+00 0. -1.
     999901    1    3    3    0    0  0.90314878407E-01  0.20431609324E-01  0.96029281470E-01  0.89005384715E+00  0.88000000000E+00 0.  1.
        -11    1    4    4    0    0 -0.35882061062E-01  0.59791093084E-02 -0.57635073253E-01  0.68156693318E-01  0.51100000000E-03 0. -1.
         11    1    4    4    0    0 -0.38550803092E-01 -0.12203340914E-01 -0.47641227561E-01  0.62490268307E-01  0.51100000000E-03 0.  1.
</event>
<event>
 8    1  0.1099921E+005  0.1043930E+01  0.7957747E-01            NaN
         13   -1    0    0    0    0  0.00000000000E+00  0.00000000000E+00  0.74505805969E-08  0.10566000000E+00  0.10566000000E+00 0. -1.
     999900   -1    0    0    0    0 -0.00000000000E+00 -0.00000000000E+00 -0.74505805969E-08  0.93827000000E+00  0.93827000000E+00 0.  1.
     999902    2    1    2    0    0 -0.79075523430E-02  0.21523341442E-01  0.41361031313E-02  0.10206299794E+01  0.10203639860E+01 0.  0.
     999903    2    3    3    0    0  0.21864685769E-02  0.12688207178E+00  0.37066987979E-01  0.13367631968E+00  0.19787775563E-01 0.  0.
         14    1    1    2    0    0  0.79075523430E-02 -0.21523341442E-01 -0.41361031313E-02  0.23300020601E-01  0.00000000000E+00 0.  1.
     999901    1    3    3    0    0 -0.10094020920E-01 -0.10535873033E+00 -0.32930884848E-01  0.88695365972E+00  0.88000000000E+00 0.  1.
        -11    1    4    4    0    0 -0.18191381620E-03  0.11848045468E+00  0.29466802899E-01  0.12209096948E+00  0.51100000000E-03 0. -1.
         11    1    4    4    0    0  0.23683823931E-02  0.84016170912E-02  0.76001850802E-02  0.11585350196E-01  0.51100000000E-03 0.  1.
</event>
<event>
 8    1  0.1099921E+005  0.1043930E+01  0.7957747E-01            NaN
         13   -1    0    0    0    0  0.00000000000E+00  0.00000000000E+00  0.74505805969E-08  0.10566000000E+00  0.10566000000E+00 0.  1.
     999900   -1    0    0    0    0 -0.00000000000E+00 -0.00000000000E+00 -0.74505805969E-08  0.93827000000E+00  0.93827000000E+00 0. -1.
     999902    2    1    2    0    0  0.20644538288E-02  0.24332682676E-01 -0.40249971018E-02  0.10191804138E+01  0.10188798623E+01 0.  0.
     999903    2    3    3    0    0 -0.75482854568E-01 -0.18115770223E-01  0.10037658907E+00  0.12861028888E+00  0.20959587473E-01 0.  0.
         14    1    1    2    0    0 -0.20644538288E-02 -0.24332682676E-01  0.40249971018E-02  0.24749586208E-01  0.00000000000E+00 0. -1.
     999901    1    3    3    0    0  0.77547308397E-01  0.42448452899E-01 -0.10440158617E+00  0.89057012491E+00  0.88000000000E+00 0. -1.
        -11    1    4    4    0    0 -0.28035653276E-01 -0.14268213770E-01  0.28831801697E-01  0.42674508654E-01  0.51100000000E-03 0. -1.
         11    1    4    4    0    0 -0.47447201293E-01 -0.38475564535E-02  0.71544787375E-01  0.85935780224E-01  0.51100000000E-03 0.  1.
</event>
<event>
 8    1  0.1099921E+005  0.1043930E+01  0.7957747E-01            NaN
         13   -1    0    0    0    0  0.00000000000E+00  0.00000000000E+00  0.74505805969E-08  0.10566000000E+00  0.10566000000E+00 0.  1.
     999900   -1    0    0    0    0 -0.00000000000E+00 -0.00000000000E+00 -0.74505805969E-08  0.93827000000E+00  0.93827000000E+00 0.  1.
     999902    2    1    2    0    0 -0.12979486075E-01  0.15395999698E-01  0.12369019539E-01  0.10202974692E+01  0.10200237395E+01 0.  0.
     999903    2    3    3    0    0  0.12433900439E+00  0.17858841633E-01  0.26219639738E-01  0.12953696659E+00  0.17698304116E-01 0.  0.
         14    1    1    2    0    0  0.12979486075E-01 -0.15395999698E-01 -0.12369019539E-01  0.23632530754E-01  0.00000000000E+00 0. -1.
     999901    1    3    3    0    0 -0.13731849046E+00 -0.24628419350E-02 -0.13850620200E-01  0.89076050266E+00  0.88000000000E+00 0.  1.
        -11    1    4    4    0    0  0.69884646345E-01  0.70030049493E-02  0.61981846719E-02  0.70509463813E-01  0.51100000000E-03 0. -1.
         11    1    4    4    0    0  0.54454358043E-01  0.10855836684E-01  0.20021455067E-01  0.59027502776E-01  0.51100000000E-03 0.  1.
</event>
<event>
 8    1  0.1099921E+005  0.1043930E+01  0.7957747E-01            NaN
         13   -1    0    0    0    0  0.00000000000E+00  0.00000000000E+00  0.74505805969E-08  0.10566000000E+00  0.10566000000E+00 0.  1.
     999900   -1    0    0    0    0 -0.00000000000E+00 -0.00000000000E+00 -0.74505805969E-08  0.93827000000E+00  0.93827000000E+00 0. -1.
     999902    2    1    2    0    0 -0.17371352093E-01 -0.15366184040E-01  0.66945084929E-02  0.10197908217E+01  0.10195050859E+01 0.  0.
     999903    2    3    3    0    0  0.23277031368E-02 -0.43591816327E-02  0.12945308105E+00  0.13098326433E+00  0.19341527263E-01 0.  0.
         14    1    1    2    0    0  0.17371352093E-01  0.15366184040E-01 -0.66945084929E-02  0.24139178309E-01  0.00000000000E+00 0. -1.
     999901    1    3    3    0    0 -0.19699055230E-01 -0.11007002407E-01 -0.12275857255E+00  0.88880755736E+00  0.88000000000E+00 0. -1.
        -11    1    4    4    0    0  0.10570727771E-01 -0.28210020161E-02  0.56821218936E-01  0.57867178784E-01  0.51100000000E-03 0.  1.
         11    1    4    4    0    0 -0.82430246342E-02 -0.15381796166E-02  0.72631862110E-01  0.73116085550E-01  0.51100000000E-03 0. -1.
</event>
<event>
 8    1  0.1099921E+005  0.1043930E+01  0.7957747E-01            NaN
         13   -1    0    0    0    0  0.00000000000E+00  0.00000000000E+00  0.74505805969E-08  0.10566000000E+00  0.10566000000E+00 0. -1.
     999900   -1    0    0    0    0 -0.00000000000E+00 -0.00000000000E+00 -0.74505805969E-08  0.93827000000E+00  0.93827000000E+00 0.  1.
     999902    2    1    2    0    0  0.10425273958E-01  0.14132307442E-01  0.16910963040E-01  0.10195499032E+01  0.10192583656E+01 0.  0.
     999903    2    3    3    0    0  0.11319804513E+00 -0.58015478934E-01 -0.17917814449E-01  0.12995415828E+00  0.19683545483E-01 0.  0.
         14    1    1    2    0    0 -0.10425273958E-01 -0.14132307442E-01 -0.16910963040E-01  0.24380096835E-01  0.00000000000E+00 0. -1.
     999901    1    3    3    0    0 -0.10277277117E+00  0.72147786376E-01  0.34828777490E-01  0.88959574488E+00  0.88000000000E+00 0. -1.
        -11    1    4    4    0    0  0.80627795068E-01 -0.42831031162E-01 -0.39160386683E-02  0.91383450624E-01  0.51100000000E-03 0.  1.
         11    1    4    4    0    0  0.32570250062E-01 -0.15184447772E-01 -0.14001775781E-01  0.38570707658E-01  0.51100000000E-03 0. -1.
</event>
<event>
 8    1  0.1099921E+005  0.1043930E+01  0.7957747E-01            NaN
         13   -1    0    0    0    0  0.00000000000E+00  0.00000000000E+00  0.74505805969E-08  0.10566000000E+00  0.10566000000E+00 0. -1.
     999900   -1    0    0    0    0 -0.00000000000E+00 -0.00000000000E+00 -0.74505805969E-08  0.93827000000E+00  0.93827000000E+00 0.  1.
     999902    2    1    2    0    0  0.12676757835E-01  0.10025742120E-01  0.16865115697E-01  0.10205708942E+01  0.10203035344E+01 0.  0.
     999903    2    3    3    0    0 -0.11411461457E+00 -0.31432024848E-01  0.49595608334E-01  0.12991603196E+00  0.20207264777E-01 0.  0.
         14    1    1    2    0    0 -0.12676757835E-01 -0.10025742120E-01 -0.16865115697E-01  0.23359105756E-01  0.00000000000E+00 0.  1.
     999901    1    3    3    0    0  0.12679137241E+00  0.41457766968E-01 -0.32730492637E-01  0.89065486228E+00  0.88000000000E+00 0.  1.
        -11    1    4    4    0    0 -0.15947703592E-01  0.73267652899E-04  0.12769343020E-01  0.20436532489E-01  0.51100000000E-03 0. -1.
         11    1    4    4    0    0 -0.98166910979E-01 -0.31505292501E-01  0.36826265314E-01  0.10947949947E+00  0.51100000000E-03 0.  1.
</event>
<event>
 8    1  0.1099921E+005  0.1043930E+01  0.7957747E-01            NaN
         13   -1    0    0    0    0  0.00000000000E+00  0.00000000000E+00  0.74505805969E-08  0.10566000000E+00  0.10566000000E+00 0.  1.
     999900   -1    0    0    0    0 -0.00000000000E+00 -0.00000000000E+00 -0.74505805969E-08  0.93827000000E+00  0.93827000000E+00 0.  1.
     999902    2    1    2    0    0  0.15011145486E-01 -0.11077631863E-01 -0.16003196440E-01  0.10193505225E+01  0.10190541384E+01 0.  0.
     999903    2    3    3    0    0 -0.95664260631E-01 -0.35963121932E-01  0.75106506594E-01  0.12740360083E+00  0.12070346765E-01 0.  0.
         14    1    1    2    0    0 -0.15011145486E-01  0.11077631863E-01  0.16003196440E-01  0.24579477472E-01  0.00000000000E+00 0.  1.
     999901    1    3    3    0    0  0.11067540612E+00  0.24885490069E-01 -0.91109703035E-01  0.89194692170E+00  0.88000000000E+00 0.  1.
        -11    1    4    4    0    0 -0.22655452582E-01 -0.13764543191E-01  0.17113963812E-01  0.31557583230E-01  0.51100000000E-03 0. -1.
         11    1    4    4    0    0 -0.73008808049E-01 -0.22198578741E-01  0.57992542782E-01  0.95846017602E-01  0.51100000000E-03 0.  1.
</event>
<event>
 8    1  0.1099921E+005  0.1043930E+01  0.7957747E-01            NaN
         13   -1    0    0    0    0  0.00000000000E+00  0.00000000000E+00  0.74505805969E-08  0.10566000000E+00  0.10566000000E+00 0. -1.
     999900   -1    0    0    0    0 -0.00000000000E+00 -0.00000000000E+00 -0.74505805969E-08  0.93827000000E+00  0.93827000000E+00 0. -1.
     999902    2    1    2    0    0  0.17817930695E-01  0.76216770883E-02  0.12978666132E-01  0.10206058839E+01  0.10203393337E+01 0.  0.
     999903    2    3    3    0    0  0.11595497801E+00  0.15025729895E-01 -0.58474494308E-01  0.13224151376E+00  0.19930428806E-01 0.  0.
         14    1    1    2    0    0 -0.17817930695E-01 -0.76216770883E-02 -0.12978666132E-01  0.23324116070E-01  0.00000000000E+00 0. -1.
     999901    1    3    3    0    0 -0.98137047314E-01 -0.74040528069E-02  0.71453160440E-01  0.88836437017E+00  0.88000000000E+00 0. -1.
        -11    1    4    4    0    0  0.27192155334E-01  0.12117095395E-01 -0.13513438881E-01  0.32697269977E-01  0.51100000000E-03 0.  1.
         11    1    4    4    0    0  0.88762822675E-01  0.29086345003E-02 -0.44961055427E-01  0.99544243782E-01  0.51100000000E-03 0. -1.
</event>
<event>
 8    1  0.1099921E+005  0.1043930E+01  0.7957747E-01            NaN
         13   -1    0    0    0    0  0.00000000000E+00  0.00000000000E+00  0.74505805969E-08  0.10566000000E+00  0.10566000000E+00 0.  1.
     999900   -1    0    0    0    0 -0.00000000000E+00 -0.00000000000E+00 -0.74505805969E-08  0.93827000000E+00  0.93827000000E+00 0. -1.
     999902    2    1    2    0    0  0.66922111057E-02  0.18295103769E-01 -0.14023266924E-01  0.10199269059E+01  0.10196444208E+01 0.  0.
     999903    2    3    3    0    0 -0.46741069053E-01  0.44542418198E-01 -0.11374297325E+00  0.13229632014E+00  0.19902205950E-01 0.  0.
         14    1    1    2    0    0 -0.66922111057E-02 -0.18295103769E-01  0.14023266924E-01  0.24003094105E-01  0.00000000000E+00 0.  1.
     999901    1    3    3    0    0  0.53433280159E-01 -0.26247314428E-01  0.99719706331E-01  0.88763058576E+00  0.88000000000E+00 0.  1.
        -11    1    4    4    0    0 -0.17353433041E-01  0.28653335528E-01 -0.66095356897E-01  0.74101367056E-01  0.51100000000E-03 0.  1.
         11    1    4    4    0    0 -0.29387636012E-01  0.15889082669E-01 -0.47647616357E-01  0.58194953080E-01  0.51100000000E-03 0. -1.
</event>
<event>
 8    1  0.1099921E+005  0.1043930E+01  0.7957747E-01            NaN
         13   -1    0    0    0    0  0.00000000000E+00  0.00000000000E+00  0.74505805969E-08  0.10566000000E+00  0.10566000000E+00 0. -1.
     999900   -1    0    0    0    0 -0.00000000000E+00 -0.00000000000E+00 -0.74505805969E-08  0.93827000000E+00  0.93827000000E+00 0.  1.
     999902    2    1    2    0    0 -0.17845692190E-01  0.13615021011E-01 -0.10661598882E-02  0.10214583685E+01  0.10212111556E+01 0.  0.
     999903    2    3    3    0    0  0.57270504421E-01 -0.49996461400E-01 -0.10358881219E+00  0.13005511633E+00  0.20103095341E-01 0.  0.
         14    1    1    2    0    0  0.17845692190E-01 -0.13615021011E-01  0.10661598882E-02  0.22471631534E-01  0.00000000000E+00 0. -1.
     999901    1    3    3    0    0 -0.75116196611E-01  0.63611482412E-01  0.10252265230E+00  0.89140325214E+00  0.88000000000E+00 0. -1.
        -11    1    4    4    0    0  0.11405094313E-01 -0.16247763946E-02 -0.20606609305E-01  0.23613757487E-01  0.51100000000E-03 0.  1.
         11    1    4    4    0    0  0.45865410108E-01 -0.48371685006E-01 -0.82982202888E-01  0.10644135884E+00  0.51100000000E-03 0. -1.
</event>
<event>
 8    1  0.1099921E+005  0.1043930E+01  0.7957747E-01            NaN
         13   -1    0    0    0    0  0.00000000000E+00  0.00000000000E+00  0.74505805969E-08  0.10566000000E+00  0.10566000000E+00 0.  1.
     999900   -1    0    0    0    0 -0.00000000000E+00 -0.00000000000E+00 -0.74505805969E-08  0.93827000000E+00  0.93827000000E+00 0. -1.
     999902    2    1    2    0    0  0.16450858123E-01  0.51211002776E-03 -0.16277244632E-01  0.10207817456E+01  0.10205192455E+01 0.  0.
     999903    2    3    3    0    0 -0.65916812433E-01 -0.82358531867E-01 -0.75600591944E-01  0.13107885362E+00  0.18391912093E-01 0.  0.
         14    1    1    2    0    0 -0.16450858123E-01 -0.51211002776E-03  0.16277244632E-01  0.23148254415E-01  0.00000000000E+00 0.  1.
     999901    1    3    3    0    0  0.82367670556E-01  0.82870641895E-01  0.59323347313E-01  0.88970289197E+00  0.88000000000E+00 0.  1.
        -11    1    4    4    0    0 -0.39813874516E-01 -0.50411360564E-01 -0.56757858689E-01  0.85721441436E-01  0.51100000000E-03 0.  1.
         11    1    4    4    0    0 -0.26102937917E-01 -0.31947171303E-01 -0.18842733255E-01  0.45357412180E-01  0.51100000000E-03 0. -1.
</event>
<event>
 8    1  0.1099921E+005  0.1043930E+01  0.7957747E-01            NaN
         13   -1    0    0    0    0  0.00000000000E+00  0.00000000000E+00  0.74505805969E-08  0.10566000000E+00  0.10566000000E+00 0.  1.
     999900   -1    0    0    0    0 -0.00000000000E+00 -0.00000000000E+00 -0.74505805969E-08  0.93827000000E+00  0.93827000000E+00 0.  1.
     999902    2    1    2    0    0 -0.70071328283E-02  0.22292511123E-01 -0.36060739688E-02  0.10202855560E+01  0.10200115470E+01 0.  0.
     999903    2    3    3    0    0 -0.22584093215E-01  0.34435599568E-01  0.12275133687E+00  0.13104076880E+00  0.20197539422E-01 0.  0.
         14    1    1    2    0    0  0.70071328283E-02 -0.22292511123E-01  0.36060739688E-02  0.23644444001E-01  0.00000000000E+00 0. -1.
     999901    1    3    3    0    0  0.15576960387E-01 -0.12143088445E-01 -0.12635741084E+00  0.88924478720E+00  0.88000000000E+00 0.  1.
        -11    1    4    4    0    0 -0.14101411150E-01  0.29784153462E-01  0.11111385801E+00  0.11589864606E+00  0.51100000000E-03 0.  1.
         11    1    4    4    0    0 -0.84826820648E-02  0.46514461065E-02  0.11637478859E-01  0.15142122740E-01  0.51100000000E-03 0. -1.
</event>
<event>
 8    1  0.1099921E+005  0.1043930E+01  0.7957747E-01            NaN
         13   -1    0    0    0    0  0.00000000000E+00  0.00000000000E+00  0.74505805969E-08  0.10566000000E+00  0.10566000000E+00 0. -1.
     999900   -1    0    0    0    0 -0.00000000000E+00 -0.00000000000E+00 -0.74505805969E-08  0.93827000000E+00  0.93827000000E+00 0. -1.
     999902    2    1    2    0    0 -0.39363078314E-02  0.16473028820E-01  0.16984969403E-01  0.10199436626E+01  0.10196615764E+01 0.  0.
     999903    2    3    3    0    0  0.94361708960E-01 -0.85040739388E-01  0.33202869019E-03  0.12851510925E+00  0.19492654718E-01 0.  0.
         14    1    1    2    0    0  0.39363078314E-02 -0.16473028820E-01 -0.16984969403E-01  0.23986337433E-01  0.00000000000E+00 0. -1.
     999901    1    3    3    0    0 -0.98298016792E-01  0.10151376821E+00  0.16652940713E-01  0.89142855332E+00  0.88000000000E+00 0. -1.
        -11    1    4    4    0    0  0.29841461266E-02 -0.98253354168E-03 -0.29089420818E-02  0.43120256610E-02  0.51100000000E-03 0. -1.
         11    1    4    4    0    0  0.91377562834E-01 -0.84058205846E-01  0.32409707720E-02  0.12420308359E+00  0.51100000000E-03 0.  1.
</event>
<event>
 8    1  0.1099921E+005  0.1043930E+01  0.7957747E-01            NaN
         13   -1    0    0    0    0  0.00000000000E+00  0.00000000000E+00  0.74505805969E-08  0.10566000000E+00  0.10566000000E+00 0.  1.
     999900   -1    0    0    0    0 -0.00000000000E+00 -0.00000000000E+00 -0.74505805969E-08  0.93827000000E+00  0.93827000000E+00 0. -1.
     999902    2    1    2    0    0 -0.36092208318E-02  0.94034202969E-02 -0.21650777772E-01  0.10200509932E+01  0.10197714556E+01 0.  0.
     999903    2    3    3    0    0  0.10665501519E+00  0.45838338907E-01 -0.58729124773E-01  0.13164764512E+00  0.20138192332E-01 0.  0.
         14    1    1    2    0    0  0.36092208318E-02 -0.94034202969E-02  0.21650777772E-01  0.23879006814E-01  0.00000000000E+00 0.  1.
     999901    1    3    3    0    0 -0.11026423602E+00 -0.36434918610E-01  0.37078347001E-01  0.88840334807E+00  0.88000000000E+00 0.  1.
        -11    1    4    4    0    0  0.49071638723E-01  0.13557957475E-01 -0.17606707063E-01  0.53871153621E-01  0.51100000000E-03 0.  1.
         11    1    4    4    0    0  0.57583376465E-01  0.32280381432E-01 -0.41122417710E-01  0.77776491499E-01  0.51100000000E-03 0. -1.
</event>
<event>
 8    1  0.1099921E+005  0.1043930E+01  0.7957747E-01            NaN
         13   -1    0    0    0    0  0.00000000000E+00  0.00000000000E+00  0.74505805969E-08  0.10566000000E+00  0.10566000000E+00 0. -1.
     999900   -1    0    0    0    0 -0.00000000000E+00 -0.00000000000E+00 -0.74505805969E-08  0.93827000000E+00  0.93827000000E+00 0.  1.
     999902    2    1    2    0    0 -0.16703565915E-03 -0.41463653849E-02  0.23352970470E-01  0.10202111999E+01  0.10199354445E+01 0.  0.
     999903    2    3    3    0    0 -0.55803788658E-01  0.22428147164E-01 -0.11103083245E+00  0.12787681222E+00  0.20187836357E-01 0.  0.
         14    1    1    2    0    0  0.16703565915E-03  0.41463653849E-02 -0.23352970470E-01  0.23718800066E-01  0.00000000000E+00 0.  1.
     999901    1    3    3    0    0  0.55636752999E-01 -0.26574512548E-01  0.13438380292E+00  0.89233438771E+00  0.88000000000E+00 0. -1.
        -11    1    4    4    0    0 -0.39414304604E-01  0.66291276461E-02 -0.79509815867E-01  0.88991598934E-01  0.51100000000E-03 0. -1.
         11    1    4    4    0    0 -0.16389484054E-01  0.15799019517E-01 -0.31521016581E-01  0.38885213290E-01  0.51100000000E-03 0.  1.
</event>
<event>
 8    1  0.1099921E+005  0.1043930E+01  0.7957747E-01            NaN
         13   -1    0    0    0    0  0.00000000000E+00  0.00000000000E+00  0.74505805969E-08  0.10566000000E+00  0.10566000000E+00 0. -1.
     999900   -1    0    0    0    0 -0.00000000000E+00 -0.00000000000E+00 -0.74505805969E-08  0.93827000000E+00  0.93827000000E+00 0. -1.
     999902    2    1    2    0    0  0.77137359788E-02 -0.80297398753E-02 -0.20595807301E-01  0.10205170608E+01  0.10202484529E+01 0.  0.
     999903    2    3    3    0    0  0.11157848594E+00  0.25753955169E-01  0.58663206137E-01  0.13022990734E+00  0.20135349057E-01 0.  0.
         14    1    1    2    0    0 -0.77137359788E-02  0.80297398753E-02  0.20595807301E-01  0.23412939234E-01  0.00000000000E+00 0. -1.
     999901    1    3    3    0    0 -0.10386474996E+00 -0.33783695045E-01 -0.79259013438E-01  0.89028715342E+00  0.88000000000E+00 0. -1.
        -11    1    4    4    0    0  0.67681204073E-01  0.11728752625E-01  0.24765634107E-01  0.73019906715E-01  0.51100000000E-03 0.  1.
         11    1    4    4    0    0  0.43897281865E-01  0.14025202545E-01  0.33897572030E-01  0.57210000630E-01  0.51100000000E-03 0. -1.
</event>
<event>
 8    1  0.1099921E+005  0.1043930E+01  0.7957747E-01            NaN
         13   -1    0    0    0    0  0.00000000000E+00  0.00000000000E+00  0.74505805969E-08  0.10566000000E+00  0.10566000000E+00 0.  1.
     999900   -1    0    0    0    0 -0.00000000000E+00 -0.00000000000E+00 -0.74505805969E-08  0.93827000000E+00  0.93827000000E+00 0. -1.
     999902    2    1    2    0    0  0.21235735231E-01  0.41761232025E-02 -0.88641397081E-02  0.10205426225E+01  0.10202746076E+01 0.  0.
     999903    2    3    3    0    0 -0.11985469075E+00  0.18842744100E-01 -0.37985739337E-01  0.12870761213E+00  0.20063327938E-01 0.  0.
         14    1    1    2    0    0 -0.21235735231E-01 -0.41761232025E-02  0.88641397081E-02  0.23387377548E-01  0.00000000000E+00 0.  1.
     999901    1    3    3    0    0  0.14109042598E+00 -0.14666620897E-01  0.29121599629E-01  0.89183501032E+00  0.88000000000E+00 0. -1.
        -11    1    4    4    0    0 -0.55507475493E-01 -0.11639876204E-02 -0.19241139114E-01  0.58761528726E-01  0.51100000000E-03 0. -1.
         11    1    4    4    0    0 -0.64347215254E-01  0.20006731720E-01 -0.18744600223E-01  0.69946083404E-01  0.51100000000E-03 0.  1.
</event>
<event>
 8    1  0.1099921E+005  0.1043930E+01  0.7957747E-01            NaN
         13   -1    0    0    0    0  0.00000000000E+00  0.00000000000E+00  0.74505805969E-08  0.10566000000E+00  0.10566000000E+00 0.  1.
     999900   -1    0    0    0    0 -0.00000000000E+00 -0.00000000000E+00 -0.74505805969E-08  0.93827000000E+00  0.93827000000E+00 0. -1.
     999902    2    1    2    0    0 -0.15479452315E-01 -0.16984438959E-01  0.27507332055E-02  0.10207858616E+01  0.10205234559E+01 0.  0.
     999903    2    3    3    0    0  0.97834786530E-01  0.50738778787E-01  0.63984473771E-01  0.12883512193E+00  0.18931630453E-01 0.  0.
         14    1    1    2    0    0  0.15479452315E-01  0.16984438959E-01 -0.27507332055E-02  0.23144138435E-01  0.00000000000E+00 0. -1.
     999901    1    3    3    0    0 -0.11331423884E+00 -0.67723217746E-01 -0.61233740565E-01  0.89195073963E+00  0.88000000000E+00 0. -1.
        -11    1    4    4    0    0  0.61502845244E-01  0.41375803093E-01  0.45841613827E-01  0.87156593176E-01  0.51100000000E-03 0. -1.
         11    1    4    4    0    0  0.36331941286E-01  0.93629756941E-02  0.18142859943E-01  0.41678528757E-01  0.51100000000E-03 0.  1.
</event>
<event>
 8    1  0.1099921E+005  0.1043930E+01  0.7957747E-01            NaN
         13   -1    0    0    0    0  0.00000000000E+00  0.00000000000E+00  0.74505805969E-08  0.10566000000E+00  0.10566000000E+00 0. -1.
     999900   -1    0    0    0    0 -0.00000000000E+00 -0.00000000000E+00 -0.74505805969E-08  0.93827000000E+00  0.93827000000E+00 0.  1.
     999902    2    1    2    0    0 -0.23389080079E-01  0.18091799674E-02 -0.12374212238E-02  0.10204384396E+01  0.10201680036E+01 0.  0.
     999903    2    3    3    0    0  0.89079675755E-01 -0.72286629247E-01 -0.54608221792E-01  0.12859324432E+00  0.19839838618E-01 0.  0.
         14    1    1    2    0    0  0.23389080079E-01 -0.18091799674E-02  0.12374212238E-02  0.23491560408E-01  0.00000000000E+00 0. -1.
     999901    1    3    3    0    0 -0.11246875583E+00  0.74095809214E-01  0.53370800569E-01  0.89184519528E+00  0.88000000000E+00 0.  1.
        -11    1    4    4    0    0  0.60563400145E-01 -0.53564725850E-01 -0.47399038671E-01  0.93723184328E-01  0.51100000000E-03 0.  1.
         11    1    4    4    0    0  0.28516275610E-01 -0.18721903396E-01 -0.72091831210E-02  0.34870059990E-01  0.51100000000E-03 0. -1.
</event>
<event>
 8    1  0.1099921E+005  0.1043930E+01  0.7957747E-01            NaN
         13   -1    0    0    0    0  0.00000000000E+00  0.00000000000E+00  0.74505805969E-08  0.10566000000E+00  0.10566000000E+00 0. -1.
     999900   -1    0    0    0    0 -0.00000000000E+00 -0.00000000000E+00 -0.74505805969E-08  0.93827000000E+00  0.93827000000E+00 0. -1.
     999902    2    1    2    0    0  0.40949521986E-02  0.24717770382E-01 -0.15063011241E-01  0.10146959255E+01  0.10142747113E+01 0.  0.
     999903    2    3    3    0    0 -0.12142598788E+00  0.18638169394E-01 -0.16951173688E-01  0.12576621334E+00  0.20931942998E-01 0.  0.
         14    1    1    2    0    0 -0.40949521986E-02 -0.24717770382E-01  0.15063011241E-01  0.29234074533E-01  0.00000000000E+00 0. -1.
     999901    1    3    3    0    0  0.12552094008E+00  0.60796009885E-02  0.18881624475E-02  0.88892971213E+00  0.88000000000E+00 0. -1.
        -11    1    4    4    0    0 -0.56114812418E-01  0.15032710119E-01 -0.16343201434E-01  0.60350773817E-01  0.51100000000E-03 0.  1.
         11    1    4    4    0    0 -0.65311175461E-01  0.36054592746E-02 -0.60797225455E-03  0.65415439522E-01  0.51100000000E-03 0. -1.
</event>
<event>
 8    1  0.1099921E+005  0.1043930E+01  0.7957747E-01            NaN
         13   -1    0    0    0    0  0.00000000000E+00  0.00000000000E+00  0.74505805969E-08  0.10566000000E+00  0.10566000000E+00 0.  1.
     999900   -1    0    0    0    0 -0.00000000000E+00 -0.00000000000E+00 -0.74505805969E-08  0.93827000000E+00  0.93827000000E+00 0.  1.
     999902    2    1    2    0    0 -0.13516416735E-01 -0.20526742222E-02  0.15836645225E-01  0.10230085678E+01  0.10227946145E+01 0.  0.
     999903    2    3    3    0    0 -0.13087893859E+00  0.24693070898E-01  0.61087722851E-02  0.13476089518E+00  0.19599424879E-01 0.  0.
         14    1    1    2    0    0  0.13516416735E-01  0.20526742222E-02 -0.15836645225E-01  0.20921432188E-01  0.00000000000E+00 0. -1.
     999901    1    3    3    0    0  0.11736252185E+00 -0.26745745120E-01  0.97278729397E-02  0.88824767263E+00  0.88000000000E+00 0.  1.
        -11    1    4    4    0    0 -0.61757573998E-01  0.72512463869E-02  0.11612536067E-01  0.63258917436E-01  0.51100000000E-03 0. -1.
         11    1    4    4    0    0 -0.69121364590E-01  0.17441824511E-01 -0.55037637816E-02  0.71501977748E-01  0.51100000000E-03 0.  1.
</event>
<event>
 8    1  0.1099921E+005  0.1043930E+01  0.7957747E-01            NaN
         13   -1    0    0    0    0  0.00000000000E+00  0.00000000000E+00  0.74505805969E-08  0.10566000000E+00  0.10566000000E+00 0. -1.
     999900   -1    0    0    0    0 -0.00000000000E+00 -0.00000000000E+00 -0.74505805969E-08  0.93827000000E+00  0.93827000000E+00 0. -1.
     999902    2    1    2    0    0  0.19534008418E-01  0.10507163485E-01 -0.40260554011E-02  0.10213869946E+01  0.10211381913E+01 0.  0.
     999903    2    3    3    0    0 -0.15079686073E-01  0.12043728280E+00 -0.49989461951E-01  0.13268267162E+00  0.19318618561E-01 0.  0.
         14    1    1    2    0    0 -0.19534008418E-01 -0.10507163485E-01  0.40260554011E-02  0.22543005378E-01  0.00000000000E+00 0.  1.
     999901    1    3    3    0    0  0.34613694491E-01 -0.10993011931E+00  0.45963406549E-01  0.88870432300E+00  0.88000000000E+00 0. -1.
        -11    1    4    4    0    0  0.34760630761E-02  0.32645768825E-01 -0.90934092985E-02  0.34070228211E-01  0.51100000000E-03 0. -1.
         11    1    4    4    0    0 -0.18555749149E-01  0.87791513971E-01 -0.40896052652E-01  0.98612443410E-01  0.51100000000E-03 0.  1.
</event>
<event>
 8    1  0.1099921E+005  0.1043930E+01  0.7957747E-01            NaN
         13   -1    0    0    0    0  0.00000000000E+00  0.00000000000E+00  0.74505805969E-08  0.10566000000E+00  0.10566000000E+00 0. -1.
     999900   -1    0    0    0    0 -0.00000000000E+00 -0.00000000000E+00 -0.74505805969E-08  0.93827000000E+00  0.93827000000E+00 0. -1.
     999902    2    1    2    0    0 -0.15619675245E-01  0.48335951941E-02  0.16880115202E-01  0.10204294428E+01  0.10201587973E+01 0.  0.
     999903    2    3    3    0    0 -0.77565482028E-01  0.74344055793E-01  0.76659448588E-01  0.13350072203E+00  0.20058142751E-01 0.  0.
         14    1    1    2    0    0  0.15619675245E-01 -0.48335951941E-02 -0.16880115202E-01  0.23500557153E-01  0.00000000000E+00 0.  1.
     999901    1    3    3    0    0  0.61945806783E-01 -0.69510460599E-01 -0.59779333386E-01  0.88692872082E+00  0.88000000000E+00 0.  1.
        -11    1    4    4    0    0 -0.63297700248E-01  0.48969876109E-01  0.59265629170E-01  0.99585759749E-01  0.51100000000E-03 0. -1.
         11    1    4    4    0    0 -0.14267781780E-01  0.25374179685E-01  0.17393819418E-01  0.33914962281E-01  0.51100000000E-03 0.  1.
</event>
<event>
 8    1  0.1099921E+005  0.1043930E+01  0.7957747E-01            NaN
         13   -1    0    0    0    0  0.00000000000E+00  0.00000000000E+00  0.74505805969E-08  0.10566000000E+00  0.10566000000E+00 0.  1.
     999900   -1    0    0    0    0 -0.00000000000E+00 -0.00000000000E+00 -0.74505805969E-08  0.93827000000E+00  0.93827000000E+00 0. -1.
     999902    2    1    2    0    0  0.15069085871E-01 -0.17340838538E-01  0.60537759948E-03  0.10209485181E+01  0.10206898295E+01 0.  0.
     999903    2    3    3    0    0  0.51816958125E-01  0.21523480463E-01  0.11739323067E+00  0.13162279369E+00  0.19877923691E-01 0.  0.
         14    1    1    2    0    0 -0.15069085871E-01  0.17340838538E-01 -0.60537759948E-03  0.22981481941E-01  0.00000000000E+00 0. -1.
     999901    1    3    3    0    0 -0.36747872254E-01 -0.38864319001E-01 -0.11678785307E+00  0.88932572437E+00  0.88000000000E+00 0. -1.
        -11    1    4    4    0    0  0.13211935365E-01 -0.73581313534E-03  0.15351442575E-01  0.20273740829E-01  0.51100000000E-03 0.  1.
         11    1    4    4    0    0  0.38605022760E-01  0.22259293598E-01  0.10204178809E+00  0.11134905286E+00  0.51100000000E-03 0. -1.
</event>
<event>
 8    1  0.1099921E+005  0.1043930E+01  0.7957747E-01            NaN
         13   -1    0    0    0    0  0.00000000000E+00  0.00000000000E+00  0.74505805969E-08  0.10566000000E+00  0.10566000000E+00 0. -1.
     999900   -1    0    0    0    0 -0.00000000000E+00 -0.00000000000E+00 -0.74505805969E-08  0.93827000000E+00  0.93827000000E+00 0. -1.
     999902    2    1    2    0    0  0.12822440950E-01 -0.11691005097E-01 -0.17843737858E-01  0.10190403722E+01  0.10187363675E+01 0.  0.
     999903    2    3    3    0    0 -0.22810634169E-01 -0.59197816785E-01  0.10883143879E+00  0.12798862645E+00  0.22629624109E-01 0.  0.
         14    1    1    2    0    0 -0.12822440950E-01  0.11691005097E-01  0.17843737858E-01  0.24889627817E-01  0.00000000000E+00 0. -1.
     999901    1    3    3    0    0  0.35633075119E-01  0.47506811687E-01 -0.12667517665E+00  0.89105174574E+00  0.88000000000E+00 0. -1.
        -11    1    4    4    0    0 -0.10508292758E-01 -0.27770011891E-01  0.29891205842E-01  0.42134820337E-01  0.51100000000E-03 0. -1.
         11    1    4    4    0    0 -0.12302341411E-01 -0.31427804893E-01  0.78940232949E-01  0.85853806111E-01  0.51100000000E-03 0.  1.
</event>
<event>
 8    1  0.1099921E+005  0.1043930E+01  0.7957747E-01            NaN
         13   -1    0    0    0    0  0.00000000000E+00  0.00000000000E+00  0.74505805969E-08  0.10566000000E+00  0.10566000000E+00 0.  1.
     999900   -1    0    0    0    0 -0.00000000000E+00 -0.00000000000E+00 -0.74505805969E-08  0.93827000000E+00  0.93827000000E+00 0. -1.
     999902    2    1    2    0    0  0.20036266011E-01 -0.19460807040E-02 -0.13700077489E-01  0.10195798191E+01  0.10192890053E+01 0.  0.
     999903    2    3    3    0    0  0.30451508536E-01 -0.12550016072E+00 -0.75823973883E-02  0.13086641539E+00  0.19772233364E-01 0.  0.
         14    1    1    2    0    0 -0.20036266011E-01  0.19460807040E-02  0.13700077489E-01  0.24350180881E-01  0.00000000000E+00 0. -1.
     999901    1    3    3    0    0 -0.10415242525E-01  0.12355408002E+00 -0.61176801002E-02  0.88871340373E+00  0.88000000000E+00 0. -1.
        -11    1    4    4    0    0  0.14034586970E-01 -0.94682678240E-01 -0.61450519768E-02  0.95915598184E-01  0.51100000000E-03 0. -1.
         11    1    4    4    0    0  0.16416921565E-01 -0.30817482482E-01 -0.14373454115E-02  0.34950817201E-01  0.51100000000E-03 0.  1.
</event>
<event>
 8    1  0.1099921E+005  0.1043930E+01  0.7957747E-01            NaN
         13   -1    0    0    0    0  0.00000000000E+00  0.00000000000E+00  0.74505805969E-08  0.10566000000E+00  0.10566000000E+00 0.  1.
     999900   -1    0    0    0    0 -0.00000000000E+00 -0.00000000000E+00 -0.74505805969E-08  0.93827000000E+00  0.93827000000E+00 0. -1.
     999902    2    1    2    0    0  0.15169289456E-01  0.21330127540E-02 -0.17513983900E-01  0.10206620667E+01  0.10203968139E+01 0.  0.
     999903    2    3    3    0    0  0.38273154254E-01 -0.18747079017E-01 -0.12493827992E+00  0.13358273197E+00  0.20456910395E-01 0.  0.
         14    1    1    2    0    0 -0.15169289456E-01 -0.21330127540E-02  0.17513983900E-01  0.23267933257E-01  0.00000000000E+00 0.  1.
     999901    1    3    3    0    0 -0.23103864798E-01  0.20880091771E-01  0.10742429602E+00  0.88707933477E+00  0.88000000000E+00 0.  1.
        -11    1    4    4    0    0  0.11262868019E-01 -0.16180073619E-01 -0.44025470320E-01  0.48240544526E-01  0.51100000000E-03 0.  1.
         11    1    4    4    0    0  0.27010286235E-01 -0.25670053982E-02 -0.80912809603E-01  0.85342187446E-01  0.51100000000E-03 0. -1.
</event>
<event>
 8    1  0.1099921E+005  0.1043930E+01  0.7957747E-01            NaN
         13   -1    0    0    0    0  0.00000000000E+00  0.00000000000E+00  0.74505805969E-08  0.10566000000E+00  0.10566000000E+00 0. -1.
     999900   -1    0    0    0    0 -0.00000000000E+00 -0.00000000000E+00 -0.74505805969E-08  0.93827000000E+00  0.93827000000E+00 0.  1.
     999902    2    1    2    0    0  0.77028397206E-02 -0.64170896244E-02 -0.22299173251E-01  0.10194807483E+01  0.10191875344E+01 0.  0.
     999903    2    3    3    0    0  0.64214826333E-01 -0.81513040851E-01 -0.80361235092E-01  0.13257364523E+00  0.18706243737E-01 0.  0.
         14    1    1    2    0    0 -0.77028397206E-02  0.64170896244E-02  0.22299173251E-01  0.24449251659E-01  0.00000000000E+00 0. -1.
     999901    1    3    3    0    0 -0.56511986612E-01  0.75095951226E-01  0.58062061841E-01  0.88690710311E+00  0.88000000000E+00 0. -1.
        -11    1    4    4    0    0  0.30462091297E-01 -0.30040113603E-01 -0.42504403686E-01  0.60309475915E-01  0.51100000000E-03 0.  1.
         11    1    4    4    0    0  0.33752735035E-01 -0.51472927248E-01 -0.37856831406E-01  0.72264169316E-01  0.51100000000E-03 0. -1.
</event>
<event>
 8    1  0.1099921E+005  0.1043930E+01  0.7957747E-01            NaN
         13   -1    0    0    0    0  0.00000000000E+00  0.00000000000E+00  0.74505805969E-08  0.10566000000E+00  0.10566000000E+00 0. -1.
     999900   -1    0    0    0    0 -0.00000000000E+00 -0.00000000000E+00 -0.74505805969E-08  0.93827000000E+00  0.93827000000E+00 0.  1.
     999902    2    1    2    0    0  0.13569464405E-01 -0.90545145788E-02 -0.17644648170E-01  0.10198998479E+01  0.10196167180E+01 0.  0.
     999903    2    3    3    0    0  0.12772857090E+00  0.74784584169E-02  0.23205856144E-01  0.13143240088E+00  0.19116722478E-01 0.  0.
         14    1    1    2    0    0 -0.13569464405E-01  0.90545145788E-02  0.17644648170E-01  0.24030152050E-01  0.00000000000E+00 0. -1.
     999901    1    3    3    0    0 -0.11415910650E+00 -0.16532972996E-01 -0.40850504315E-01  0.88846744707E+00  0.88000000000E+00 0.  1.
        -11    1    4    4    0    0  0.51126115305E-01  0.11976786277E-01  0.66672835106E-02  0.52934269298E-01  0.51100000000E-03 0.  1.
         11    1    4    4    0    0  0.76602455595E-01 -0.44983278604E-02  0.16538572634E-01  0.78498131586E-01  0.51100000000E-03 0. -1.
</event>
<event>
 8    1  0.1099921E+005  0.1043930E+01  0.7957747E-01            NaN
         13   -1    0    0    0    0  0.00000000000E+00  0.00000000000E+00  0.74505805969E-08  0.10566000000E+00  0.10566000000E+00 0. -1.
     999900   -1    0    0    0    0 -0.00000000000E+00 -0.00000000000E+00 -0.74505805969E-08  0.93827000000E+00  0.93827000000E+00 0.  1.
     999902    2    1    2    0    0  0.20264110506E-01 -0.34686339826E-02 -0.12260525837E-01  0.10199928721E+01  0.10197119560E+01 0.  0.
     999903    2    3    3    0    0  0.26052598075E-02  0.45184317473E-04 -0.13039380709E+00  0.13191649363E+00  0.19814816299E-01 0.  0.
         14    1    1    2    0    0 -0.20264110506E-01  0.34686339826E-02  0.12260525837E-01  0.23937127858E-01  0.00000000000E+00 0. -1.
     999901    1    3    3    0    0  0.17658850699E-01 -0.35138183001E-02  0.11813328125E+00  0.88807637851E+00  0.88000000000E+00 0. -1.
        -11    1    4    4    0    0  0.87608713573E-02 -0.47825578716E-02 -0.10106574904E+00  0.10155871443E+00  0.51100000000E-03 0.  1.
         11    1    4    4    0    0 -0.61556115498E-02  0.48277421891E-02 -0.29328058052E-01  0.30357779206E-01  0.51100000000E-03 0. -1.
</event>
<event>
 8    1  0.1099921E+005  0.1043930E+01  0.7957747E-01            NaN
         13   -1    0    0    0    0  0.00000000000E+00  0.00000000000E+00  0.74505805969E-08  0.10566000000E+00  0.10566000000E+00 0. -1.
     999900   -1    0    0    0    0 -0.00000000000E+00 -0.00000000000E+00 -0.74505805969E-08  0.93827000000E+00  0.93827000000E+00 0. -1.
     999902    2    1    2    0    0  0.12235728727E-02  0.17189305876E-01  0.15914442434E-01  0.10204728296E+01  0.10202031940E+01 0.  0.
     999903    2    3    3    0    0  0.19983155291E-01 -0.99034508804E-02  0.12916696115E+00  0.13260342903E+00  0.20053944812E-01 0.  0.
         14    1    1    2    0    0 -0.12235728727E-02 -0.17189305876E-01 -0.15914442434E-01  0.23457170440E-01  0.00000000000E+00 0.  1.
     999901    1    3    3    0    0 -0.18759582418E-01  0.27092756756E-01 -0.11325251872E+00  0.88786940053E+00  0.88000000000E+00 0. -1.
        -11    1    4    4    0    0  0.21259354741E-01 -0.16858576340E-02  0.83448105182E-01  0.86131583402E-01  0.51100000000E-03 0.  1.
         11    1    4    4    0    0 -0.12761994501E-02 -0.82175932464E-02  0.45718855971E-01  0.46471845628E-01  0.51100000000E-03 0. -1.
</event>
<event>
 8    1  0.1099921E+005  0.1043930E+01  0.7957747E-01            NaN
         13   -1    0    0    0    0  0.00000000000E+00  0.00000000000E+00  0.74505805969E-08  0.10566000000E+00  0.10566000000E+00 0.  1.
     999900   -1    0    0    0    0 -0.00000000000E+00 -0.00000000000E+00 -0.74505805969E-08  0.93827000000E+00  0.93827000000E+00 0.  1.
     999902    2    1    2    0    0 -0.66951754508E-02  0.10089888480E-01 -0.20624094966E-01  0.10200138022E+01  0.10197333829E+01 0.  0.
     999903    2    3    3    0    0 -0.77995099800E-02 -0.77612269402E-02 -0.13067075782E+00  0.13297933282E+00  0.22081372412E-01 0.  0.
         14    1    1    2    0    0  0.66951754508E-02 -0.10089888480E-01  0.20624094966E-01  0.23916197796E-01  0.00000000000E+00 0.  1.
     999901    1    3    3    0    0  0.11043345292E-02  0.17851115420E-01  0.11004666285E+00  0.88703446939E+00  0.88000000000E+00 0. -1.
        -11    1    4    4    0    0  0.26020426727E-02 -0.53890448403E-03 -0.96437884754E-01  0.96475840400E-01  0.51100000000E-03 0.  1.
         11    1    4    4    0    0 -0.10401552653E-01 -0.72223224561E-02 -0.34232873066E-01  0.36503492416E-01  0.51100000000E-03 0. -1.
</event>
<event>
 8    1  0.1099921E+005  0.1043930E+01  0.7957747E-01            NaN
         13   -1    0    0    0    0  0.00000000000E+00  0.00000000000E+00  0.74505805969E-08  0.10566000000E+00  0.10566000000E+00 0. -1.
     999900   -1    0    0    0    0 -0.00000000000E+00 -0.00000000000E+00 -0.74505805969E-08  0.93827000000E+00  0.93827000000E+00 0.  1.
     999902    2    1    2    0    0  0.20366934958E-01 -0.10397935116E-01  0.60790636313E-02  0.10202681296E+01  0.10199937119E+01 0.  0.
     999903    2    3    3    0    0  0.67722294426E-01 -0.57723155078E-01  0.97072762381E-01  0.13304659038E+00  0.18973724495E-01 0.  0.
         14    1    1    2    0    0 -0.20366934958E-01  0.10397935116E-01 -0.60790636313E-02  0.23661870359E-01  0.00000000000E+00 0.  1.
     999901    1    3    3    0    0 -0.47355359467E-01  0.47325219962E-01 -0.90993698750E-01  0.88722153926E+00  0.88000000000E+00 0.  1.
        -11    1    4    4    0    0  0.40661787890E-01 -0.22289476061E-01  0.51018309325E-01  0.68944403289E-01  0.51100000000E-03 0. -1.
         11    1    4    4    0    0  0.27060506536E-01 -0.35433679017E-01  0.46054453055E-01  0.64102187092E-01  0.51100000000E-03 0.  1.
</event>
<event>
 8    1  0.1099921E+005  0.1043930E+01  0.7957747E-01            NaN
         13   -1    0    0    0    0  0.00000000000E+00  0.00000000000E+00  0.74505805969E-08  0.10566000000E+00  0.10566000000E+00 0. -1.
     999900   -1    0    0    0    0 -0.00000000000E+00 -0.00000000000E+00 -0.74505805969E-08  0.93827000000E+00  0.93827000000E+00 0.  1.
     999902    2    1    2    0    0  0.19153599771E-01 -0.53695781897E-02 -0.12525925403E-01  0.10204227339E+01  0.10201519319E+01 0.  0.
     999903    2    3    3    0    0 -0.36549327834E-01 -0.92493414533E-01 -0.83638957745E-01  0.13151866571E+00  0.20268179025E-01 0.  0.
         14    1    1    2    0    0 -0.19153599771E-01  0.53695781897E-02  0.12525925403E-01  0.23507266139E-01  0.00000000000E+00 0.  1.
     999901    1    3    3    0    0  0.55702927605E-01  0.87123836343E-01  0.71113032342E-01  0.88890406815E+00  0.88000000000E+00 0. -1.
        -11    1    4    4    0    0 -0.15640760452E-01 -0.55976846050E-01 -0.38016718477E-01  0.69451945156E-01  0.51100000000E-03 0.  1.
         11    1    4    4    0    0 -0.20908567382E-01 -0.36516568482E-01 -0.45622239268E-01  0.62066720556E-01  0.51100000000E-03 0. -1.
</event>
<event>
 8    1  0.1290566E+005  0.1043930E+01  0.7957747E-01            NaN
         13   -1    0    0    0    0  0.00000000000E+00  0.00000000000E+00  0.74505805969E-08  0.10566000000E+00  0.10566000000E+00 0. -1.
     999900   -1    0    0    0    0 -0.00000000000E+00 -0.00000000000E+00 -0.74505805969E-08  0.93827000000E+00  0.93827000000E+00 0. -1.
     999902    2    1    2    0    0  0.22203580110E-01  0.97040953902E-02  0.13321430004E-02  0.10196618513E+01  0.10193730171E+01 0.  0.
     999903    2    3    3    0    0 -0.18658928937E-01  0.35950508952E-02 -0.12673699592E+00  0.12943223517E+00  0.18148205056E-01 0.  0.
         14    1    1    2    0    0 -0.22203580110E-01 -0.97040953902E-02 -0.13321430004E-02  0.24268148714E-01  0.00000000000E+00 0. -1.
     999901    1    3    3    0    0  0.40862509047E-01  0.61090444950E-02  0.12806913892E+00  0.89022961612E+00  0.88000000000E+00 0.  1.
        -11    1    4    4    0    0 -0.72549142373E-02  0.10537223579E-01 -0.56060071777E-01  0.57503561890E-01  0.51100000000E-03 0.  1.
         11    1    4    4    0    0 -0.11404014699E-01 -0.69421726838E-02 -0.70676924139E-01  0.71928673278E-01  0.51100000000E-03 0. -1.
</event>
<event>
 8    1  0.1099921E+005  0.1043930E+01  0.7957747E-01            NaN
         13   -1    0    0    0    0  0.00000000000E+00  0.00000000000E+00  0.74505805969E-08  0.10566000000E+00  0.10566000000E+00 0. -1.
     999900   -1    0    0    0    0 -0.00000000000E+00 -0.00000000000E+00 -0.74505805969E-08  0.93827000000E+00  0.93827000000E+00 0.  1.
     999902    2    1    2    0    0 -0.15937021800E-01  0.14358567021E-01 -0.99585358853E-02  0.10202798510E+01  0.10200057082E+01 0.  0.
     999903    2    3    3    0    0 -0.12931600370E+00  0.17993743458E-01  0.13176860093E-01  0.13269703538E+00  0.19709640767E-01 0.  0.
         14    1    1    2    0    0  0.15937021800E-01 -0.14358567021E-01  0.99585358853E-02  0.23650149000E-01  0.00000000000E+00 0.  1.
     999901    1    3    3    0    0  0.11337898190E+00 -0.36351764366E-02 -0.23135395979E-01  0.88758281562E+00  0.88000000000E+00 0. -1.
        -11    1    4    4    0    0 -0.25648413317E-02  0.32589094616E-02 -0.10278537964E-02  0.43030810314E-02  0.51100000000E-03 0.  1.
         11    1    4    4    0    0 -0.12675116237E+00  0.14734833996E-01  0.14204713890E-01  0.12839395434E+00  0.51100000000E-03 0. -1.
</event>
<event>
 8    1  0.1099921E+005  0.1043930E+01  0.7957747E-01            NaN
         13   -1    0    0    0    0  0.00000000000E+00  0.00000000000E+00  0.74505805969E-08  0.10566000000E+00  0.10566000000E+00 0. -1.
     999900   -1    0    0    0    0 -0.00000000000E+00 -0.00000000000E+00 -0.74505805969E-08  0.93827000000E+00  0.93827000000E+00 0.  1.
     999902    2    1    2    0    0  0.79095825639E-02 -0.16180136307E-01 -0.14335727923E-01  0.10209110643E+01  0.10206515222E+01 0.  0.
     999903    2    3    3    0    0  0.12431514130E+00 -0.13193445308E-01 -0.40038132548E-01  0.13286839185E+00  0.20558116137E-01 0.  0.
         14    1    1    2    0    0 -0.79095825639E-02  0.16180136307E-01  0.14335727923E-01  0.23018935734E-01  0.00000000000E+00 0. -1.
     999901    1    3    3    0    0 -0.11640555874E+00 -0.29866909990E-02  0.25702404625E-01  0.88804267242E+00  0.88000000000E+00 0. -1.
        -11    1    4    4    0    0  0.43893258004E-01  0.50800372019E-02 -0.15343944021E-01  0.46777372899E-01  0.51100000000E-03 0. -1.
         11    1    4    4    0    0  0.80421883297E-01 -0.18273482510E-01 -0.24694188527E-01  0.86091018951E-01  0.51100000000E-03 0.  1.
</event>
<event>
 8    1  0.1099921E+005  0.1043930E+01  0.7957747E-01            NaN
         13   -1    0    0    0    0  0.00000000000E+00  0.00000000000E+00  0.74505805969E-08  0.10566000000E+00  0.10566000000E+00 0.  1.
     999900   -1    0    0    0    0 -0.00000000000E+00 -0.00000000000E+00 -0.74505805969E-08  0.93827000000E+00  0.93827000000E+00 0. -1.
     999902    2    1    2    0    0 -0.14110276739E-01  0.18544403819E-03 -0.19127400258E-01  0.10201604451E+01  0.10198834943E+01 0.  0.
     999903    2    3    3    0    0 -0.45809565457E-01  0.85638856332E-01 -0.88304210169E-01  0.13275266871E+00  0.19826939137E-01 0.  0.
         14    1    1    2    0    0  0.14110276739E-01 -0.18544403819E-03  0.19127400258E-01  0.23769554893E-01  0.00000000000E+00 0.  1.
     999901    1    3    3    0    0  0.31699288718E-01 -0.85453412293E-01  0.69176809910E-01  0.88740777640E+00  0.88000000000E+00 0.  1.
        -11    1    4    4    0    0 -0.29297024988E-01  0.41154115146E-01 -0.55584615819E-01  0.75112498983E-01  0.51100000000E-03 0.  1.
         11    1    4    4    0    0 -0.16512540469E-01  0.44484741185E-01 -0.32719594349E-01  0.57640169729E-01  0.51100000000E-03 0. -1.
</event>
<event>
 8    1  0.1099921E+005  0.1043930E+01  0.7957747E-01            NaN
         13   -1    0    0    0    0  0.00000000000E+00  0.00000000000E+00  0.74505805969E-08  0.10566000000E+00  0.10566000000E+00 0.  1.
     999900   -1    0    0    0    0 -0.00000000000E+00 -0.00000000000E+00 -0.74505805969E-08  0.93827000000E+00  0.93827000000E+00 0. -1.
     999902    2    1    2    0    0  0.21041776696E-01 -0.10372099375E-01  0.85784228812E-02  0.10189514862E+01  0.10186452793E+01 0.  0.
     999903    2    3    3    0    0 -0.68854511154E-01 -0.79119710654E-01  0.72809640749E-01  0.12938236244E+00  0.20920793561E-01 0.  0.
         14    1    1    2    0    0 -0.21041776696E-01  0.10372099375E-01 -0.85784228812E-02  0.24978513789E-01  0.00000000000E+00 0.  1.
     999901    1    3    3    0    0  0.89896287850E-01  0.68747611279E-01 -0.64231217868E-01  0.88956912378E+00  0.88000000000E+00 0.  1.
        -11    1    4    4    0    0 -0.66078459865E-01 -0.79978117535E-01  0.69138401078E-01  0.12467253814E+00  0.51100000000E-03 0. -1.
         11    1    4    4    0    0 -0.27760512894E-02  0.85840688188E-03  0.36712396713E-02  0.47098242919E-02  0.51100000000E-03 0.  1.
</event>
<event>
 8    1  0.1099921E+005  0.1043930E+01  0.7957747E-01            NaN
         13   -1    0    0    0    0  0.00000000000E+00  0.00000000000E+00  0.74505805969E-08  0.10566000000E+00  0.10566000000E+00 0.  1.
     999900   -1    0    0    0    0 -0.00000000000E+00 -0.00000000000E+00 -0.74505805969E-08  0.93827000000E+00  0.93827000000E+00 0. -1.
     999902    2    1    2    0    0  0.10015624875E-01  0.17189455161E-01 -0.12594398633E-01  0.10203841089E+01  0.10201124059E+01 0.  0.
     999903    2    3    3    0    0  0.26289446490E-01 -0.46439121071E-01  0.11552625761E+00  0.12868441981E+00  0.19121630178E-01 0.  0.
         14    1    1    2    0    0 -0.10015624875E-01 -0.17189455161E-01  0.12594398633E-01  0.23545891092E-01  0.00000000000E+00 0.  1.
     999901    1    3    3    0    0 -0.16273821615E-01  0.63628576232E-01 -0.12812065625E+00  0.89169968910E+00  0.88000000000E+00 0. -1.
        -11    1    4    4    0    0  0.10679664871E-01 -0.19737281874E-01  0.28213669383E-01  0.36053956767E-01  0.51100000000E-03 0.  1.
         11    1    4    4    0    0  0.15609781619E-01 -0.26701839197E-01  0.87312588231E-01  0.92630463041E-01  0.51100000000E-03 0. -1.
</event>
<event>
 8    1  0.1099921E+005  0.1043930E+01  0.7957747E-01            NaN
         13   -1    0    0    0    0  0.00000000000E+00  0.00000000000E+00  0.74505805969E-08  0.10566000000E+00  0.10566000000E+00 0. -1.
     999900   -1    0    0    0    0 -0.00000000000E+00 -0.00000000000E+00 -0.74505805969E-08  0.93827000000E+00  0.93827000000E+00 0. -1.
     999902    2    1    2    0    0 -0.60424465129E-02  0.11718282116E-01  0.20042412181E-01  0.10199398441E+01  0.10196576670E+01 0.  0.
     999903    2    3    3    0    0 -0.70468121064E-01 -0.64978541482E-02  0.11046746614E+00  0.13277628218E+00  0.20457317509E-01 0.  0.
         14    1    1    2    0    0  0.60424465129E-02 -0.11718282116E-01 -0.20042412181E-01  0.23990155932E-01  0.00000000000E+00 0.  1.
     999901    1    3    3    0    0  0.64425674551E-01  0.18216136264E-01 -0.90425053955E-01  0.88716356189E+00  0.88000000000E+00 0. -1.
        -11    1    4    4    0    0 -0.49703785811E-03 -0.88553499898E-03  0.10854344487E-01  0.10913713122E-01  0.51100000000E-03 0.  1.
         11    1    4    4    0    0 -0.69971083206E-01 -0.56123191492E-02  0.99613121649E-01  0.12186256906E+00  0.51100000000E-03 0. -1.
</event>
<event>
 8    1  0.1099921E+005  0.1043930E+01  0.7957747E-01            NaN
         13   -1    0    0    0    0  0.00000000000E+00  0.00000000000E+00  0.74505805969E-08  0.10566000000E+00  0.10566000000E+00 0. -1.
     999900   -1    0    0    0    0 -0.00000000000E+00 -0.00000000000E+00 -0.74505805969E-08  0.93827000000E+00  0.93827000000E+00 0. -1.
     999902    2    1    2    0    0  0.20082602314E-01  0.11181299227E-01  0.59535936196E-02  0.10201859977E+01  0.10199096491E+01 0.  0.
     999903    2    3    3    0    0 -0.10143502827E+00 -0.61957708683E-01  0.43198655101E-01  0.12805201470E+00  0.20084124088E-01 0.  0.
         14    1    1    2    0    0 -0.20082602314E-01 -0.11181299227E-01 -0.59535936196E-02  0.23744002297E-01  0.00000000000E+00 0.  1.
     999901    1    3    3    0    0  0.12151763059E+00  0.73139007910E-01 -0.37245061482E-01  0.89213398300E+00  0.88000000000E+00 0. -1.
        -11    1    4    4    0    0 -0.20172168390E-01 -0.46862947001E-02  0.11550793580E-01  0.23718340770E-01  0.51100000000E-03 0.  1.
         11    1    4    4    0    0 -0.81262859884E-01 -0.57271413983E-01  0.31647861522E-01  0.10433367393E+00  0.51100000000E-03 0. -1.
</event>
<event>
 8    1  0.1099921E+005  0.1043930E+01  0.7957747E-01            NaN
         13   -1    0    0    0    0  0.00000000000E+00  0.00000000000E+00  0.74505805969E-08  0.10566000000E+00  0.10566000000E+00 0.  1.
     999900   -1    0    0    0    0 -0.00000000000E+00 -0.00000000000E+00 -0.74505805969E-08  0.93827000000E+00  0.93827000000E+00 0.  1.
     999902    2    1    2    0    0 -0.18974244893E-01 -0.97138603524E-02  0.79383954230E-02  0.10211835899E+01  0.10209302253E+01 0.  0.
     999903    2    3    3    0    0  0.41653417649E-01  0.11609058976E+00  0.36168637491E-01  0.12972443785E+00  0.17556400715E-01 0.  0.
         14    1    1    2    0    0  0.18974244893E-01  0.97138603524E-02 -0.79383954230E-02  0.22746410137E-01  0.00000000000E+00 0. -1.
     999901    1    3    3    0    0 -0.60627662542E-01 -0.12580445011E+00 -0.28230242068E-01  0.89145915201E+00  0.88000000000E+00 0.  1.
        -11    1    4    4    0    0  0.13096039020E-01  0.54962532475E-01  0.22860521393E-01  0.60952856975E-01  0.51100000000E-03 0. -1.
         11    1    4    4    0    0  0.28557378628E-01  0.61128057285E-01  0.13308116098E-01  0.68771580879E-01  0.51100000000E-03 0.  1.
</event>
<event>
 8    1  0.1099921E+005  0.1043930E+01  0.7957747E-01            NaN
         13   -1    0    0    0    0  0.00000000000E+00  0.00000000000E+00  0.74505805969E-08  0.10566000000E+00  0.10566000000E+00 0.  1.
     999900   -1    0    0    0    0 -0.00000000000E+00 -0.00000000000E+00 -0.74505805969E-08  0.93827000000E+00  0.93827000000E+00 0. -1.
     999902    2    1    2    0    0  0.97963523825E-02  0.93545972611E-02  0.20160371031E-01  0.10196417813E+01  0.10193524633E+01 0.  0.
     999903    2    3    3    0    0  0.24279008443E-01 -0.12263226441E+00  0.28197910835E-01  0.12964465708E+00  0.19607968037E-01 0.  0.
         14    1    1    2    0    0 -0.97963523825E-02 -0.93545972611E-02 -0.20160371031E-01  0.24288218749E-01  0.00000000000E+00 0. -1.
     999901    1    3    3    0    0 -0.14482656061E-01  0.13198686167E+00 -0.80375398038E-02  0.88999712417E+00  0.88000000000E+00 0. -1.
        -11    1    4    4    0    0  0.18784969478E-01 -0.94537181214E-01  0.30023933731E-01  0.10095469988E+00  0.51100000000E-03 0. -1.
         11    1    4    4    0    0  0.54940389652E-02 -0.28095083192E-01 -0.18260228965E-02  0.28689957204E-01  0.51100000000E-03 0.  1.
</event>
<event>
 8    1  0.1099921E+005  0.1043930E+01  0.7957747E-01            NaN
         13   -1    0    0    0    0  0.00000000000E+00  0.00000000000E+00  0.74505805969E-08  0.10566000000E+00  0.10566000000E+00 0. -1.
     999900   -1    0    0    0    0 -0.00000000000E+00 -0.00000000000E+00 -0.74505805969E-08  0.93827000000E+00  0.93827000000E+00 0. -1.
     999902    2    1    2    0    0  0.18233890127E-01 -0.14686073974E-01  0.31365671234E-02  0.10203081125E+01  0.10200346321E+01 0.  0.
     999903    2    3    3    0    0  0.43373577137E-01 -0.10736635612E+00 -0.61994595371E-01  0.13269124303E+00  0.18837051275E-01 0.  0.
         14    1    1    2    0    0 -0.18233890127E-01  0.14686073974E-01 -0.31365671234E-02  0.23621887546E-01  0.00000000000E+00 0. -1.
     999901    1    3    3    0    0 -0.25139687011E-01  0.92680282146E-01  0.65131162494E-01  0.88761686943E+00  0.88000000000E+00 0. -1.
        -11    1    4    4    0    0  0.18211452912E-01 -0.45045517460E-01 -0.36642870934E-01  0.60858169309E-01  0.51100000000E-03 0.  1.
         11    1    4    4    0    0  0.25162124225E-01 -0.62320838661E-01 -0.25351724437E-01  0.71833073719E-01  0.51100000000E-03 0. -1.
</event>
<event>
 8    1  0.1099921E+005  0.1043930E+01  0.7957747E-01            NaN
         13   -1    0    0    0    0  0.00000000000E+00  0.00000000000E+00  0.74505805969E-08  0.10566000000E+00  0.10566000000E+00 0. -1.
     999900   -1    0    0    0    0 -0.00000000000E+00 -0.00000000000E+00 -0.74505805969E-08  0.93827000000E+00  0.93827000000E+00 0. -1.
     999902    2    1    2    0    0  0.11175071553E-01  0.18689663013E-01  0.94107508300E-02  0.10202076907E+01  0.10199318527E+01 0.  0.
     999903    2    3    3    0    0 -0.12307899457E+00 -0.30409931593E-01  0.10119474352E-01  0.12867225856E+00  0.19517774387E-01 0.  0.
         14    1    1    2    0    0 -0.11175071553E-01 -0.18689663013E-01 -0.94107508300E-02  0.23722309309E-01  0.00000000000E+00 0.  1.
     999901    1    3    3    0    0  0.13425406612E+00  0.49099594606E-01 -0.70872352235E-03  0.89153543213E+00  0.88000000000E+00 0.  1.
        -11    1    4    4    0    0 -0.55585472989E-01 -0.71205081022E-02 -0.28016954706E-02  0.56112004612E-01  0.51100000000E-03 0.  1.
         11    1    4    4    0    0 -0.67493521582E-01 -0.23289423491E-01  0.12921169823E-01  0.72560253946E-01  0.51100000000E-03 0. -1.
</event>
<event>
 8    1  0.1099921E+005  0.1043930E+01  0.7957747E-01            NaN
         13   -1    0    0    0    0  0.00000000000E+00  0.00000000000E+00  0.74505805969E-08  0.10566000000E+00  0.10566000000E+00 0. -1.
     999900   -1    0    0    0    0 -0.00000000000E+00 -0.00000000000E+00 -0.74505805969E-08  0.93827000000E+00  0.93827000000E+00 0. -1.
     999902    2    1    2    0    0  0.19510752165E-01 -0.12698271085E-01 -0.53176948042E-02  0.10200512769E+01  0.10197717461E+01 0.  0.
     999903    2    3    3    0    0  0.60912988230E-01 -0.11274286039E+00  0.25273802739E-01  0.13288787329E+00  0.24476050706E-01 0.  0.
         14    1    1    2    0    0 -0.19510752165E-01  0.12698271085E-01  0.53176948042E-02  0.23878723095E-01  0.00000000000E+00 0. -1.
     999901    1    3    3    0    0 -0.41402236064E-01  0.10004458930E+00 -0.30591497543E-01  0.88716340362E+00  0.88000000000E+00 0. -1.
        -11    1    4    4    0    0  0.38814493563E-01 -0.93122945185E-01  0.20442172147E-01  0.10293974623E+00  0.51100000000E-03 0.  1.
         11    1    4    4    0    0  0.22098494667E-01 -0.19619915203E-01  0.48316305918E-02  0.29948127058E-01  0.51100000000E-03 0. -1.
</event>
<event>
 8    1  0.1099921E+005  0.1043930E+01  0.7957747E-01            NaN
         13   -1    0    0    0    0  0.00000000000E+00  0.00000000000E+00  0.74505805969E-08  0.10566000000E+00  0.10566000000E+00 0.  1.
     999900   -1    0    0    0    0 -0.00000000000E+00 -0.00000000000E+00 -0.74505805969E-08  0.93827000000E+00  0.93827000000E+00 0.  1.
     999902    2    1    2    0    0 -0.12964161280E-01 -0.18678490201E-01 -0.41341078529E-02  0.10208205577E+01  0.10205589472E+01 0.  0.
     999903    2    3    3    0    0  0.10398140995E+00 -0.42945848977E-01  0.62475099309E-01  0.13025783799E+00  0.20186301380E-01 0.  0.
         14    1    1    2    0    0  0.12964161280E-01  0.18678490201E-01  0.41341078529E-02  0.23109442262E-01  0.00000000000E+00 0. -1.
     999901    1    3    3    0    0 -0.11694557123E+00  0.24267358776E-01 -0.66609207162E-01  0.89056271975E+00  0.88000000000E+00 0.  1.
        -11    1    4    4    0    0  0.18923704461E-01 -0.78722757645E-02  0.20955348705E-01  0.29316668921E-01  0.51100000000E-03 0.  1.
         11    1    4    4    0    0  0.85057705491E-01 -0.35073573213E-01  0.41519750604E-01  0.10094116907E+00  0.51100000000E-03 0. -1.
</event>
<event>
 8    1  0.1099921E+005  0.1043930E+01  0.7957747E-01            NaN
         13   -1    0    0    0    0  0.00000000000E+00  0.00000000000E+00  0.74505805969E-08  0.10566000000E+00  0.10566000000E+00 0. -1.
     999900   -1    0    0    0    0 -0.00000000000E+00 -0.00000000000E+00 -0.74505805969E-08  0.93827000000E+00  0.93827000000E+00 0. -1.
     999902    2    1    2    0    0 -0.35151356933E-02  0.23745188883E-01  0.23950492293E-02  0.10198068486E+01  0.10195214966E+01 0.  0.
     999903    2    3    3    0    0 -0.10625500161E+00  0.68953322320E-01  0.31735951252E-01  0.13219198620E+00  0.20563671500E-01 0.  0.
         14    1    1    2    0    0  0.35151356933E-02 -0.23745188883E-01 -0.23950492293E-02  0.24123151429E-01  0.00000000000E+00 0.  1.
     999901    1    3    3    0    0  0.10273986592E+00 -0.45208133437E-01 -0.29340902022E-01  0.88761486238E+00  0.88000000000E+00 0.  1.
        -11    1    4    4    0    0 -0.60622474608E-02  0.10051064192E-02  0.56261491047E-02  0.83472006049E-02  0.51100000000E-03 0. -1.
         11    1    4    4    0    0 -0.10019275415E+00  0.67948215901E-01  0.26109802147E-01  0.12384478559E+00  0.51100000000E-03 0.  1.
</event>
<event>
 8    1  0.1099921E+005  0.1043930E+01  0.7957747E-01            NaN
         13   -1    0    0    0    0  0.00000000000E+00  0.00000000000E+00  0.74505805969E-08  0.10566000000E+00  0.10566000000E+00 0.  1.
     999900   -1    0    0    0    0 -0.00000000000E+00 -0.00000000000E+00 -0.74505805969E-08  0.93827000000E+00  0.93827000000E+00 0. -1.
     999902    2    1    2    0    0  0.13251646404E-01  0.17792367707E-01  0.88407105362E-02  0.10200483618E+01  0.10197687619E+01 0.  0.
     999903    2    3    3    0    0  0.38401842750E-01  0.12525191174E+00 -0.16942070492E-01  0.13278017359E+00  0.13446108243E-01 0.  0.
         14    1    1    2    0    0 -0.13251646404E-01 -0.17792367707E-01 -0.88407105362E-02  0.23881638215E-01  0.00000000000E+00 0. -1.
     999901    1    3    3    0    0 -0.25150196345E-01 -0.10745954403E+00  0.25782781028E-01  0.88726818819E+00  0.88000000000E+00 0.  1.
        -11    1    4    4    0    0  0.30119754477E-01  0.97513714483E-01 -0.75389830251E-02  0.10233875858E+00  0.51100000000E-03 0.  1.
         11    1    4    4    0    0  0.82820882725E-02  0.27738197252E-01 -0.94030874667E-02  0.30441415011E-01  0.51100000000E-03 0. -1.
</event>
<event>
 8    1  0.1099921E+005  0.1043930E+01  0.7957747E-01            NaN
         13   -1    0    0    0    0  0.00000000000E+00  0.00000000000E+00  0.74505805969E-08  0.10566000000E+00  0.10566000000E+00 0.  1.
     999900   -1    0    0    0    0 -0.00000000000E+00 -0.00000000000E+00 -0.74505805969E-08  0.93827000000E+00  0.93827000000E+00 0.  1.
     999902    2    1    2    0    0  0.75612908341E-02  0.16019544078E-01 -0.14952507116E-01  0.10207486200E+01  0.10204853594E+01 0.  0.
     999903    2    3    3    0    0 -0.14012341804E-01  0.97846273020E-01 -0.87357903992E-01  0.13372912937E+00  0.21950803734E-01 0.  0.
         14    1    1    2    0    0 -0.75612908341E-02 -0.16019544078E-01  0.14952507116E-01  0.23181380041E-01  0.00000000000E+00 0.  1.
     999901    1    3    3    0    0  0.21573632639E-01 -0.81826728942E-01  0.72405396876E-01  0.88701949059E+00  0.88000000000E+00 0. -1.
        -11    1    4    4    0    0 -0.17619451912E-01  0.47916040041E-01 -0.40665473053E-01  0.65271232549E-01  0.51100000000E-03 0. -1.
         11    1    4    4    0    0  0.36071101074E-02  0.49930232978E-01 -0.46692430940E-01  0.68457896817E-01  0.51100000000E-03 0.  1.
</event>
<event>
 8    1  0.1099921E+005  0.1043930E+01  0.7957747E-01            NaN
         13   -1    0    0    0    0  0.00000000000E+00  0.00000000000E+00  0.74505805969E-08  0.10566000000E+00  0.10566000000E+00 0. -1.
     999900   -1    0    0    0    0 -0.00000000000E+00 -0.00000000000E+00 -0.74505805969E-08  0.93827000000E+00  0.93827000000E+00 0. -1.
     999902    2    1    2    0    0  0.83641439615E-02  0.21954185000E-01 -0.78247214092E-02  0.10191677019E+01  0.10188668378E+01 0.  0.
     999903    2    3    3    0    0  0.92908862230E-02 -0.11584753633E+00  0.45456219440E-01  0.12685103616E+00  0.22758410494E-01 0.  0.
         14    1    1    2    0    0 -0.83641439615E-02 -0.21954185000E-01  0.78247214092E-02  0.24762298124E-01  0.00000000000E+00 0.  1.
     999901    1    3    3    0    0 -0.92674226148E-03  0.13780172133E+00 -0.53280940849E-01  0.89231666571E+00  0.88000000000E+00 0. -1.
        -11    1    4    4    0    0  0.53726011837E-02 -0.10403155203E+00  0.33099919661E-01  0.10930368001E+00  0.51100000000E-03 0. -1.
         11    1    4    4    0    0  0.39182850393E-02 -0.11815984307E-01  0.12356299779E-01  0.17547356154E-01  0.51100000000E-03 0.  1.
</event>
<event>
 8    1  0.1099921E+005  0.1043930E+01  0.7957747E-01            NaN
         13   -1    0    0    0    0  0.00000000000E+00  0.00000000000E+00  0.74505805969E-08  0.10566000000E+00  0.10566000000E+00 0. -1.
     999900   -1    0    0    0    0 -0.00000000000E+00 -0.00000000000E+00 -0.74505805969E-08  0.93827000000E+00  0.93827000000E+00 0. -1.
     999902    2    1    2    0    0 -0.12731342389E-01  0.19078293436E-01 -0.19605199761E-02  0.10209101825E+01  0.10206506203E+01 0.  0.
     999903    2    3    3    0    0  0.10017554725E+00 -0.19137630432E-01  0.77072331677E-01  0.12936398952E+00  0.19837043844E-01 0.  0.
         14    1    1    2    0    0  0.12731342389E-01 -0.19078293436E-01  0.19605199761E-02  0.23019817506E-01  0.00000000000E+00 0.  1.
     999901    1    3    3    0    0 -0.11290688964E+00  0.38215923868E-01 -0.79032851653E-01  0.89154619297E+00  0.88000000000E+00 0. -1.
        -11    1    4    4    0    0  0.20548948963E-01 -0.12300922078E-01  0.16648776113E-01  0.29172158894E-01  0.51100000000E-03 0.  1.
         11    1    4    4    0    0  0.79626598289E-01 -0.68367083541E-02  0.60423555564E-01  0.10019183063E+00  0.51100000000E-03 0. -1.
</event>
<event>
 8    1  0.1099921E+005  0.1043930E+01  0.7957747E-01            NaN
         13   -1    0    0    0    0  0.00000000000E+00  0.00000000000E+00  0.74505805969E-08  0.10566000000E+00  0.10566000000E+00 0.  1.
     999900   -1    0    0    0    0 -0.00000000000E+00 -0.00000000000E+00 -0.74505805969E-08  0.93827000000E+00  0.93827000000E+00 0.  1.
     999902    2    1    2    0    0 -0.21871751034E-01  0.78859272875E-02  0.72529398268E-02  0.10195749907E+01  0.10192840601E+01 0.  0.
     999903    2    3    3    0    0  0.58951724437E-01  0.12991269592E-01 -0.11091701882E+00  0.12799064929E+00  0.20855271290E-01 0.  0.
         14    1    1    2    0    0  0.21871751034E-01 -0.78859272875E-02 -0.72529398268E-02  0.24355009313E-01  0.00000000000E+00 0.  1.
     999901    1    3    3    0    0 -0.80823475471E-01 -0.51053423043E-02  0.11816995865E+00  0.89158434140E+00  0.88000000000E+00 0. -1.
        -11    1    4    4    0    0  0.81722728878E-02 -0.30257412050E-02 -0.29024453502E-01  0.30308764014E-01  0.51100000000E-03 0.  1.
         11    1    4    4    0    0  0.50779451549E-01  0.16017010797E-01 -0.81892565319E-01  0.97681885271E-01  0.51100000000E-03 0. -1.
</event>
<event>
 8    1  0.1099921E+005  0.1043930E+01  0.7957747E-01            NaN
         13   -1    0    0    0    0  0.00000000000E+00  0.00000000000E+00  0.74505805969E-08  0.10566000000E+00  0.10566000000E+00 0. -1.
     999900   -1    0    0    0    0 -0.00000000000E+00 -0.00000000000E+00 -0.74505805969E-08  0.93827000000E+00  0.93827000000E+00 0.  1.
     999902    2    1    2    0    0 -0.15003574496E-01 -0.16040159609E-01 -0.83830001788E-02  0.10204210940E+01  0.10201502539E+01 0.  0.
     999903    2    3    3    0    0  0.85809043037E-01 -0.86594672160E-01  0.41416900087E-01  0.13046539111E+00  0.21072008706E-01 0.  0.
         14    1    1    2    0    0  0.15003574496E-01  0.16040159609E-01  0.83830001788E-02  0.23508905970E-01  0.00000000000E+00 0.  1.
     999901    1    3    3    0    0 -0.10081261753E+00  0.70554512551E-01 -0.49799900265E-01  0.88995570292E+00  0.88000000000E+00 0.  1.
        -11    1    4    4    0    0  0.60240025391E-01 -0.61230284701E-01  0.18787603997E-01  0.87927490631E-01  0.51100000000E-03 0.  1.
         11    1    4    4    0    0  0.25569017646E-01 -0.25364387459E-01  0.22629296090E-01  0.42537900478E-01  0.51100000000E-03 0. -1.
</event>
<event>
 8    1  0.1099921E+005  0.1043930E+01  0.7957747E-01            NaN
         13   -1    0    0    0    0  0.00000000000E+00  0.00000000000E+00  0.74505805969E-08  0.10566000000E+00  0.10566000000E+00 0.  1.
     999900   -1    0    0    0    0 -0.00000000000E+00 -0.00000000000E+00 -0.74505805969E-08  0.93827000000E+00  0.93827000000E+00 0. -1.
     999902    2    1    2    0    0  0.22152481061E-01  0.65371800490E-02 -0.74610765797E-03  0.10208210447E+01  0.10205594453E+01 0.  0.
     999903    2    3    3    0    0 -0.66364163905E-01 -0.60682947839E-01  0.90513000374E-01  0.12914735613E+00  0.19995348169E-01 0.  0.
         14    1    1    2    0    0 -0.22152481061E-01 -0.65371800490E-02  0.74610765797E-03  0.23108955338E-01  0.00000000000E+00 0.  1.
     999901    1    3    3    0    0  0.88516644966E-01  0.67220127888E-01 -0.91259108032E-01  0.89167368854E+00  0.88000000000E+00 0.  1.
        -11    1    4    4    0    0 -0.17198662798E-03 -0.64247870972E-02  0.49953528171E-02  0.81561105567E-02  0.51100000000E-03 0. -1.
         11    1    4    4    0    0 -0.66192177277E-01 -0.54258160742E-01  0.85517647557E-01  0.12099124557E+00  0.51100000000E-03 0.  1.
</event>
<event>
 8    1  0.1099921E+005  0.1043930E+01  0.7957747E-01            NaN
         13   -1    0    0    0    0  0.00000000000E+00  0.00000000000E+00  0.74505805969E-08  0.10566000000E+00  0.10566000000E+00 0. -1.
     999900   -1    0    0    0    0 -0.00000000000E+00 -0.00000000000E+00 -0.74505805969E-08  0.93827000000E+00  0.93827000000E+00 0.  1.
     999902    2    1    2    0    0 -0.95040908459E-02 -0.20770859189E-01  0.20419963271E-01  0.10132912788E+01  0.10128279639E+01 0.  0.
     999903    2    3    3    0    0  0.78681576680E-01  0.85387937141E-01 -0.28283490542E-01  0.12120472003E+00  0.20217269910E-01 0.  0.
         14    1    1    2    0    0  0.95040908459E-02  0.20770859189E-01 -0.20419963271E-01  0.30638721159E-01  0.00000000000E+00 0. -1.
     999901    1    3    3    0    0 -0.88185667526E-01 -0.10615879633E+00  0.48703453813E-01  0.89208655881E+00  0.88000000000E+00 0.  1.
        -11    1    4    4    0    0  0.67264399700E-01  0.60515119303E-01 -0.21263977565E-01  0.92946204840E-01  0.51100000000E-03 0.  1.
         11    1    4    4    0    0  0.11417176980E-01  0.24872817838E-01 -0.70195129768E-02  0.28258515191E-01  0.51100000000E-03 0. -1.
</event>
<event>
 8    1  0.1099921E+005  0.1043930E+01  0.7957747E-01            NaN
         13   -1    0    0    0    0  0.00000000000E+00  0.00000000000E+00  0.74505805969E-08  0.10566000000E+00  0.10566000000E+00 0.  1.
     999900   -1    0    0    0    0 -0.00000000000E+00 -0.00000000000E+00 -0.74505805969E-08  0.93827000000E+00  0.93827000000E+00 0.  1.
     999902    2    1    2    0    0 -0.20539020983E-01 -0.41660381353E-02 -0.11042826248E-01  0.10202413684E+01  0.10199663222E+01 0.  0.
     999903    2    3    3    0    0  0.11646893621E+00  0.10594972423E-01 -0.49966155818E-01  0.12866742677E+00  0.19530065063E-01 0.  0.
         14    1    1    2    0    0  0.20539020983E-01  0.41660381353E-02  0.11042826248E-01  0.23688631624E-01  0.00000000000E+00 0.  1.
     999901    1    3    3    0    0 -0.13700795719E+00 -0.14761010558E-01  0.38923329570E-01  0.89157394161E+00  0.88000000000E+00 0.  1.
        -11    1    4    4    0    0  0.24673159317E-01 -0.56956433385E-02 -0.11384361257E-01  0.27768146246E-01  0.51100000000E-03 0.  1.
         11    1    4    4    0    0  0.91795776894E-01  0.16290615761E-01 -0.38581794562E-01  0.10089928052E+00  0.51100000000E-03 0. -1.
</event>
<event>
 8    1  0.1099921E+005  0.1043930E+01  0.7957747E-01            NaN
         13   -1    0    0    0    0  0.00000000000E+00  0.00000000000E+00  0.74505805969E-08  0.10566000000E+00  0.10566000000E+00 0. -1.
     999900   -1    0    0    0    0 -0.00000000000E+00 -0.00000000000E+00 -0.74505805969E-08  0.93827000000E+00  0.93827000000E+00 0. -1.
     999902    2    1    2    0    0 -0.15693259391E-01  0.67562517111E-02 -0.14992039251E-01  0.10211992594E+01  0.10209462478E+01 0.  0.
     999903    2    3    3    0    0  0.30658055717E-02  0.88158332862E-01  0.94075013389E-01  0.13054005223E+00  0.20231319181E-01 0.  0.
         14    1    1    2    0    0  0.15693259391E-01 -0.67562517111E-02  0.14992039251E-01  0.22730740604E-01  0.00000000000E+00 0.  1.
     999901    1    3    3    0    0 -0.18759064963E-01 -0.81402081151E-01 -0.10906705264E+00  0.89065920716E+00  0.88000000000E+00 0. -1.
        -11    1    4    4    0    0 -0.43744793551E-02  0.55429227312E-01  0.69135128730E-01  0.88721262702E-01  0.51100000000E-03 0.  1.
         11    1    4    4    0    0  0.74402849268E-02  0.32729105551E-01  0.24939884659E-01  0.41818789530E-01  0.51100000000E-03 0. -1.
</event>
<event>
 8    1  0.1099921E+005  0.1043930E+01  0.7957747E-01            NaN
         13   -1    0    0    0    0  0.00000000000E+00  0.00000000000E+00  0.74505805969E-08  0.10566000000E+00  0.10566000000E+00 0. -1.
     999900   -1    0    0    0    0 -0.00000000000E+00 -0.00000000000E+00 -0.74505805969E-08  0.93827000000E+00  0.93827000000E+00 0. -1.
     999902    2    1    2    0    0 -0.12808776259E-01 -0.33882579631E-02 -0.19150381815E-01  0.10206430473E+01  0.10203773556E+01 0.  0.
     999903    2    3    3    0    0  0.19613907124E-01  0.12466161240E+00  0.22467850164E-01  0.12981193149E+00  0.20520972375E-01 0.  0.
         14    1    1    2    0    0  0.12808776259E-01  0.33882579631E-02  0.19150381815E-01  0.23286952676E-01  0.00000000000E+00 0. -1.
     999901    1    3    3    0    0 -0.32422683383E-01 -0.12804987037E+00 -0.41618231978E-01  0.89083111583E+00  0.88000000000E+00 0.  1.
        -11    1    4    4    0    0  0.11164719271E-01  0.11081363425E+00  0.16885009190E-01  0.11264846714E+00  0.51100000000E-03 0. -1.
         11    1    4    4    0    0  0.84491878527E-02  0.13847978149E-01  0.55828409733E-02  0.17163464351E-01  0.51100000000E-03 0.  1.
</event>
<event>
 8    1  0.1099921E+005  0.1043930E+01  0.7957747E-01            NaN
         13   -1    0    0    0    0  0.00000000000E+00  0.00000000000E+00  0.74505805969E-08  0.10566000000E+00  0.10566000000E+00 0.  1.
     999900   -1    0    0    0    0 -0.00000000000E+00 -0.00000000000E+00 -0.74505805969E-08  0.93827000000E+00  0.93827000000E+00 0.  1.
     999902    2    1    2    0    0 -0.22184683221E-01  0.11435877100E-02 -0.95729754669E-02  0.10197409566E+01  0.10194540248E+01 0.  0.
     999903    2    3    3    0    0  0.47803798945E-01 -0.31712219134E-01 -0.11511819172E+00  0.13006816034E+00  0.19356142009E-01 0.  0.
         14    1    1    2    0    0  0.22184683221E-01 -0.11435877100E-02  0.95729754669E-02  0.24189043424E-01  0.00000000000E+00 0.  1.
     999901    1    3    3    0    0 -0.69988482166E-01  0.32855806845E-01  0.10554521626E+00  0.88967279623E+00  0.88000000000E+00 0. -1.
        -11    1    4    4    0    0  0.16750879186E-01 -0.22468902126E-01 -0.57312622349E-01  0.63800010327E-01  0.51100000000E-03 0. -1.
         11    1    4    4    0    0  0.31052919759E-01 -0.92433170088E-02 -0.57805569376E-01  0.66268150018E-01  0.51100000000E-03 0.  1.
</event>
<event>
 8    1  0.1099921E+005  0.1043930E+01  0.7957747E-01            NaN
         13   -1    0    0    0    0  0.00000000000E+00  0.00000000000E+00  0.74505805969E-08  0.10566000000E+00  0.10566000000E+00 0. -1.
     999900   -1    0    0    0    0 -0.00000000000E+00 -0.00000000000E+00 -0.74505805969E-08  0.93827000000E+00  0.93827000000E+00 0.  1.
     999902    2    1    2    0    0  0.91616297837E-02  0.67972938043E-02  0.19546227405E-01  0.10212983039E+01  0.10210475169E+01 0.  0.
     999903    2    3    3    0    0  0.90096284592E-01 -0.68540870035E-01 -0.58565891515E-01  0.13094569935E+00  0.30027007286E-01 0.  0.
         14    1    1    2    0    0 -0.91616297837E-02 -0.67972938043E-02 -0.19546227405E-01  0.22631696117E-01  0.00000000000E+00 0.  1.
     999901    1    3    3    0    0 -0.80934654808E-01  0.75338163839E-01  0.78112118920E-01  0.89035260453E+00  0.88000000000E+00 0.  1.
        -11    1    4    4    0    0  0.90477333741E-01 -0.65959952668E-01 -0.60854516192E-01  0.12743781440E+00  0.51100000000E-03 0.  1.
         11    1    4    4    0    0 -0.38104914964E-03 -0.25809173663E-02  0.22886246766E-02  0.35078849492E-02  0.51100000000E-03 0. -1.
</event>
<event>
 8    1  0.1099921E+005  0.1043930E+01  0.7957747E-01            NaN
         13   -1    0    0    0    0  0.00000000000E+00  0.00000000000E+00  0.74505805969E-08  0.10566000000E+00  0.10566000000E+00 0.  1.
     999900   -1    0    0    0    0 -0.00000000000E+00 -0.00000000000E+00 -0.74505805969E-08  0.93827000000E+00  0.93827000000E+00 0. -1.
     999902    2    1    2    0    0  0.12268929773E-01 -0.20046891668E-01  0.75310019727E-02  0.10192496334E+01  0.10189507813E+01 0.  0.
     999903    2    3    3    0    0 -0.46434406196E-01  0.82656887872E-02  0.11700343544E+00  0.13007479261E+00  0.31704448853E-01 0.  0.
         14    1    1    2    0    0 -0.12268929773E-01  0.20046891668E-01 -0.75310019727E-02  0.24680366570E-01  0.00000000000E+00 0. -1.
     999901    1    3    3    0    0  0.58703335969E-01 -0.28312580455E-01 -0.10947243347E+00  0.88917484082E+00  0.88000000000E+00 0. -1.
        -11    1    4    4    0    0 -0.25708247550E-01 -0.91358525363E-02  0.77701035833E-01  0.82353444884E-01  0.51100000000E-03 0. -1.
         11    1    4    4    0    0 -0.20726158646E-01  0.17401541323E-01  0.39302399605E-01  0.47721347722E-01  0.51100000000E-03 0.  1.
</event>
<event>
 8    1  0.1099921E+005  0.1043930E+01  0.7957747E-01            NaN
         13   -1    0    0    0    0  0.00000000000E+00  0.00000000000E+00  0.74505805969E-08  0.10566000000E+00  0.10566000000E+00 0. -1.
     999900   -1    0    0    0    0 -0.00000000000E+00 -0.00000000000E+00 -0.74505805969E-08  0.93827000000E+00  0.93827000000E+00 0.  1.
     999902    2    1    2    0    0  0.46591437306E-02  0.21459004238E-01 -0.67354057187E-02  0.10209612784E+01  0.10207028803E+01 0.  0.
     999903    2    3    3    0    0 -0.12831702522E+00  0.17117023528E-01 -0.17008695345E-03  0.13093621259E+00  0.19647172369E-01 0.  0.
         14    1    1    2    0    0 -0.46591437306E-02 -0.21459004238E-01  0.67354057187E-02  0.22968721632E-01  0.00000000000E+00 0. -1.
     999901    1    3    3    0    0  0.13297616895E+00  0.43419807109E-02 -0.65653187653E-02  0.89002506578E+00  0.88000000000E+00 0.  1.
        -11    1    4    4    0    0 -0.10208317823E+00  0.10647243923E-01  0.73018367561E-02  0.10289760455E+00  0.51100000000E-03 0.  1.
         11    1    4    4    0    0 -0.26233846991E-01  0.64697796042E-02 -0.74719237095E-02  0.28038608043E-01  0.51100000000E-03 0. -1.
</event>
<event>
 8    1  0.1099921E+005  0.1043930E+01  0.7957747E-01            NaN
         13   -1    0    0    0    0  0.00000000000E+00  0.00000000000E+00  0.74505805969E-08  0.10566000000E+00  0.10566000000E+00 0.  1.
     999900   -1    0    0    0    0 -0.00000000000E+00 -0.00000000000E+00 -0.74505805969E-08  0.93827000000E+00  0.93827000000E+00 0. -1.
     999902    2    1    2    0    0 -0.21991342992E-01 -0.38249704704E-03 -0.15713349640E-01  0.10168990025E+01  0.10165396728E+01 0.  0.
     999903    2    3    3    0    0 -0.13679786188E-01  0.12487422389E+00 -0.13739524555E-01  0.12798830723E+00  0.20286052133E-01 0.  0.
         14    1    1    2    0    0  0.21991342992E-01  0.38249704704E-03  0.15713349640E-01  0.27030997531E-01  0.00000000000E+00 0.  1.
     999901    1    3    3    0    0 -0.83115568042E-02 -0.12525672094E+00 -0.19738250856E-02  0.88891069523E+00  0.88000000000E+00 0. -1.
        -11    1    4    4    0    0  0.38350752301E-02  0.43381309333E-01 -0.28774400560E-03  0.43554445457E-01  0.51100000000E-03 0.  1.
         11    1    4    4    0    0 -0.17514861418E-01  0.81492914559E-01 -0.13451780549E-01  0.84433861778E-01  0.51100000000E-03 0. -1.
</event>
<event>
 8    1  0.1099921E+005  0.1043930E+01  0.7957747E-01            NaN
         13   -1    0    0    0    0  0.00000000000E+00  0.00000000000E+00  0.74505805969E-08  0.10566000000E+00  0.10566000000E+00 0.  1.
     999900   -1    0    0    0    0 -0.00000000000E+00 -0.00000000000E+00 -0.74505805969E-08  0.93827000000E+00  0.93827000000E+00 0. -1.
     999902    2    1    2    0    0  0.22321159962E-01  0.17905820483E-02 -0.64302492196E-02  0.10206321788E+01  0.10203662362E+01 0.  0.
     999903    2    3    3    0    0  0.85059181257E-01 -0.42981508588E-01  0.89284306233E-01  0.13209299819E+00  0.19859467111E-01 0.  0.
         14    1    1    2    0    0 -0.22321159962E-01 -0.17905820483E-02  0.64302492196E-02  0.23297821168E-01  0.00000000000E+00 0.  1.
     999901    1    3    3    0    0 -0.62738021295E-01  0.44772090637E-01 -0.95714555453E-01  0.88853918065E+00  0.88000000000E+00 0. -1.
        -11    1    4    4    0    0  0.10123773290E-01 -0.73849916859E-03  0.16646484079E-01  0.19503915500E-01  0.51100000000E-03 0. -1.
         11    1    4    4    0    0  0.74935407966E-01 -0.42243009420E-01  0.72637822154E-01  0.11258908269E+00  0.51100000000E-03 0.  1.
</event>
<event>
 8    1  0.1099921E+005  0.1043930E+01  0.7957747E-01            NaN
         13   -1    0    0    0    0  0.00000000000E+00  0.00000000000E+00  0.74505805969E-08  0.10566000000E+00  0.10566000000E+00 0.  1.
     999900   -1    0    0    0    0 -0.00000000000E+00 -0.00000000000E+00 -0.74505805969E-08  0.93827000000E+00  0.93827000000E+00 0. -1.
     999902    2    1    2    0    0 -0.20377853195E-01 -0.13551420110E-01  0.11934568187E-02  0.10194285260E+01  0.10191340429E+01 0.  0.
     999903    2    3    3    0    0 -0.65610419393E-01  0.61375014419E-01  0.92414692109E-01  0.13039462937E+00  0.19765235197E-01 0.  0.
         14    1    1    2    0    0  0.20377853195E-01  0.13551420110E-01 -0.11934568187E-02  0.24501473976E-01  0.00000000000E+00 0. -1.
     999901    1    3    3    0    0  0.45232566199E-01 -0.74926434529E-01 -0.91221235290E-01  0.88903389666E+00  0.88000000000E+00 0.  1.
        -11    1    4    4    0    0 -0.39425478073E-01  0.24303584867E-01  0.51789926343E-01  0.69480142129E-01  0.51100000000E-03 0. -1.
         11    1    4    4    0    0 -0.26184941320E-01  0.37071429551E-01  0.40624765766E-01  0.60914487238E-01  0.51100000000E-03 0.  1.
</event>
<event>
 8    1  0.1099921E+005  0.1043930E+01  0.7957747E-01            NaN
         13   -1    0    0    0    0  0.00000000000E+00  0.00000000000E+00  0.74505805969E-08  0.10566000000E+00  0.10566000000E+00 0.  1.
     999900   -1    0    0    0    0 -0.00000000000E+00 -0.00000000000E+00 -0.74505805969E-08  0.93827000000E+00  0.93827000000E+00 0.  1.
     999902    2    1    2    0    0  0.79600258811E-02 -0.22718739150E-01 -0.43640942200E-02  0.10194647504E+01  0.10191711480E+01 0.  0.
     999903    2    3    3    0    0 -0.49509225795E-01  0.81864203497E-01  0.81554863255E-01  0.12726389069E+00  0.19798760055E-01 0.  0.
         14    1    1    2    0    0 -0.79600258811E-02  0.22718739150E-01  0.43640942200E-02  0.24465249620E-01  0.00000000000E+00 0. -1.
     999901    1    3    3    0    0  0.57469251676E-01 -0.10458294265E+00 -0.85918957475E-01  0.89220085969E+00  0.88000000000E+00 0.  1.
        -11    1    4    4    0    0 -0.30980656541E-01  0.67300349977E-01  0.63308268507E-01  0.97454277326E-01  0.51100000000E-03 0. -1.
         11    1    4    4    0    0 -0.18528569254E-01  0.14563853519E-01  0.18246594748E-01  0.29809613363E-01  0.51100000000E-03 0.  1.
</event>
<event>
 8    1  0.1099921E+005  0.1043930E+01  0.7957747E-01            NaN
         13   -1    0    0    0    0  0.00000000000E+00  0.00000000000E+00  0.74505805969E-08  0.10566000000E+00  0.10566000000E+00 0. -1.
     999900   -1    0    0    0    0 -0.00000000000E+00 -0.00000000000E+00 -0.74505805969E-08  0.93827000000E+00  0.93827000000E+00 0.  1.
     999902    2    1    2    0    0  0.19401099611E-01 -0.81342357461E-02 -0.11275483363E-01  0.10200615065E+01  0.10197822179E+01 0.  0.
     999903    2    3    3    0    0  0.77730787807E-01  0.78359666016E-02 -0.10551243650E+00  0.13296624485E+00  0.21063481836E-01 0.  0.
         14    1    1    2    0    0 -0.19401099611E-01  0.81342357461E-02  0.11275483363E-01  0.23868493508E-01  0.00000000000E+00 0. -1.
     999901    1    3    3    0    0 -0.58329688196E-01 -0.15970202348E-01  0.94236953141E-01  0.88709526164E+00  0.88000000000E+00 0. -1.
        -11    1    4    4    0    0  0.62217655780E-01 -0.22232857877E-02 -0.77731612592E-01  0.99591387216E-01  0.51100000000E-03 0. -1.
         11    1    4    4    0    0  0.15513132027E-01  0.10059252389E-01 -0.27780823912E-01  0.33374857635E-01  0.51100000000E-03 0.  1.
</event>
<event>
 8    1  0.1099921E+005  0.1043930E+01  0.7957747E-01            NaN
         13   -1    0    0    0    0  0.00000000000E+00  0.00000000000E+00  0.74505805969E-08  0.10566000000E+00  0.10566000000E+00 0. -1.
     999900   -1    0    0    0    0 -0.00000000000E+00 -0.00000000000E+00 -0.74505805969E-08  0.93827000000E+00  0.93827000000E+00 0. -1.
     999902    2    1    2    0    0 -0.33110610705E-02  0.79656586977E-02 -0.22596002800E-01  0.10197433469E+01  0.10194564726E+01 0.  0.
     999903    2    3    3    0    0  0.11961631049E+00 -0.39437138090E-01 -0.25605957739E-01  0.12993031958E+00  0.19049233024E-01 0.  0.
         14    1    1    2    0    0  0.33110610705E-02 -0.79656586977E-02  0.22596002800E-01  0.24186653064E-01  0.00000000000E+00 0. -1.
     999901    1    3    3    0    0 -0.12292737156E+00  0.47402796788E-01  0.30099549387E-02  0.88981302736E+00  0.88000000000E+00 0. -1.
        -11    1    4    4    0    0  0.20761839987E-01 -0.88841962529E-02  0.24593192524E-02  0.22722066695E-01  0.51100000000E-03 0.  1.
         11    1    4    4    0    0  0.98854470503E-01 -0.30552941837E-01 -0.28065276991E-01  0.10720825289E+00  0.51100000000E-03 0. -1.
</event>
<event>
 8    1  0.1099921E+005  0.1043930E+01  0.7957747E-01            NaN
         13   -1    0    0    0    0  0.00000000000E+00  0.00000000000E+00  0.74505805969E-08  0.10566000000E+00  0.10566000000E+00 0.  1.
     999900   -1    0    0    0    0 -0.00000000000E+00 -0.00000000000E+00 -0.74505805969E-08  0.93827000000E+00  0.93827000000E+00 0. -1.
     999902    2    1    2    0    0  0.11362859559E-01 -0.20272194844E-01 -0.12819690047E-02  0.10206551229E+01  0.10203897098E+01 0.  0.
     999903    2    3    3    0    0  0.45387091288E-01 -0.11096259066E+00  0.55458481832E-01  0.13352386144E+00  0.19501122629E-01 0.  0.
         14    1    1    2    0    0 -0.11362859559E-01  0.20272194844E-01  0.12819690047E-02  0.23274877135E-01  0.00000000000E+00 0. -1.
     999901    1    3    3    0    0 -0.34024231728E-01  0.90690395821E-01 -0.56740450836E-01  0.88713126143E+00  0.88000000000E+00 0.  1.
        -11    1    4    4    0    0  0.40926146471E-01 -0.91581600369E-01  0.53075065032E-01  0.11348727964E+00  0.51100000000E-03 0.  1.
         11    1    4    4    0    0  0.44609448167E-02 -0.19380990295E-01  0.23834167997E-02  0.20036581797E-01  0.51100000000E-03 0. -1.
</event>
<event>
 8    1  0.1099921E+005  0.1043930E+01  0.7957747E-01            NaN
         13   -1    0    0    0    0  0.00000000000E+00  0.00000000000E+00  0.74505805969E-08  0.10566000000E+00  0.10566000000E+00 0.  1.
     999900   -1    0    0    0    0 -0.00000000000E+00 -0.00000000000E+00 -0.74505805969E-08  0.93827000000E+00  0.93827000000E+00 0. -1.
     999902    2    1    2    0    0  0.13544043244E-01  0.56580668722E-02  0.17928730052E-01  0.10207590227E+01  0.10204960011E+01 0.  0.
     999903    2    3    3    0    0  0.49584451877E-01  0.12083180018E+00  0.72369242107E-02  0.13245827711E+00  0.20829793543E-01 0.  0.
         14    1    1    2    0    0 -0.13544043244E-01 -0.56580668722E-02 -0.17928730052E-01  0.23170977308E-01  0.00000000000E+00 0. -1.
     999901    1    3    3    0    0 -0.36040408632E-01 -0.11517373331E+00  0.10691805841E-01  0.88830074559E+00  0.88000000000E+00 0.  1.
        -11    1    4    4    0    0  0.25760694176E-01  0.53152930046E-01  0.12977992250E-01  0.60477572213E-01  0.51100000000E-03 0.  1.
         11    1    4    4    0    0  0.23823757701E-01  0.67678870134E-01 -0.57410680396E-02  0.71980704893E-01  0.51100000000E-03 0. -1.
</event>
<event>
 8    1  0.1099921E+005  0.1043930E+01  0.7957747E-01            NaN
         13   -1    0    0    0    0  0.00000000000E+00  0.00000000000E+00  0.74505805969E-08  0.10566000000E+00  0.10566000000E+00 0. -1.
     999900   -1    0    0    0    0 -0.00000000000E+00 -0.00000000000E+00 -0.74505805969E-08  0.93827000000E+00  0.93827000000E+00 0.  1.
     999902    2    1    2    0    0 -0.14188846331E-01  0.32684654143E-01  0.32879938795E-02  0.10081470309E+01  0.10075117940E+01 0.  0.
     999903    2    3    3    0    0  0.56304116429E-01 -0.31782454482E-01  0.96678500503E-01  0.11806442086E+00  0.20302637132E-01 0.  0.
         14    1    1    2    0    0  0.14188846331E-01 -0.32684654143E-01 -0.32879938795E-02  0.35782969138E-01  0.00000000000E+00 0.  1.
     999901    1    3    3    0    0 -0.70492962760E-01  0.64467108625E-01 -0.93390506624E-01  0.89008261000E+00  0.88000000000E+00 0.  1.
        -11    1    4    4    0    0  0.53336179943E-01 -0.31750952926E-01  0.80737614913E-01  0.10184151749E+00  0.51100000000E-03 0. -1.
         11    1    4    4    0    0  0.29679364864E-02 -0.31501555801E-04  0.15940885591E-01  0.16222903370E-01  0.51100000000E-03 0.  1.
</event>
<event>
 8    1  0.1099921E+005  0.1043930E+01  0.7957747E-01            NaN
         13   -1    0    0    0    0  0.00000000000E+00  0.00000000000E+00  0.74505805969E-08  0.10566000000E+00  0.10566000000E+00 0.  1.
     999900   -1    0    0    0    0 -0.00000000000E+00 -0.00000000000E+00 -0.74505805969E-08  0.93827000000E+00  0.93827000000E+00 0. -1.
     999902    2    1    2    0    0 -0.21928163982E-01  0.83108402431E-02  0.39971542185E-02  0.10201415221E+01  0.10198641249E+01 0.  0.
     999903    2    3    3    0    0 -0.44768058381E-01  0.33439424921E-01 -0.11690631524E+00  0.13122602805E+00  0.20755955883E-01 0.  0.
         14    1    1    2    0    0  0.21928163982E-01 -0.83108402431E-02 -0.39971542185E-02  0.23788477946E-01  0.00000000000E+00 0.  1.
     999901    1    3    3    0    0  0.22839894399E-01 -0.25128584677E-01  0.12090346946E+00  0.88891549400E+00  0.88000000000E+00 0.  1.
        -11    1    4    4    0    0 -0.34974210928E-02  0.12542919164E-01 -0.20446396363E-01  0.24246092895E-01  0.51100000000E-03 0. -1.
         11    1    4    4    0    0 -0.41270637288E-01  0.20896505757E-01 -0.96459918882E-01  0.10697993516E+00  0.51100000000E-03 0.  1.
</event>
<event>
 8    1  0.1099921E+005  0.1043930E+01  0.7957747E-01            NaN
         13   -1    0    0    0    0  0.00000000000E+00  0.00000000000E+00  0.74505805969E-08  0.10566000000E+00  0.10566000000E+00 0. -1.
     999900   -1    0    0    0    0 -0.00000000000E+00 -0.00000000000E+00 -0.74505805969E-08  0.93827000000E+00  0.93827000000E+00 0. -1.
     999902    2    1    2    0    0  0.17113285588E-01 -0.15648455856E-01  0.29609103649E-02  0.10205525385E+01  0.10202847535E+01 0.  0.
     999903    2    3    3    0    0 -0.97999738026E-01  0.40908864282E-01  0.70235927613E-01  0.12871417504E+00  0.18888342894E-01 0.  0.
         14    1    1    2    0    0 -0.17113285588E-01  0.15648455856E-01 -0.29609103649E-02  0.23377461464E-01  0.00000000000E+00 0. -1.
     999901    1    3    3    0    0  0.11511302361E+00 -0.56557320138E-01 -0.67275017248E-01  0.89183836350E+00  0.88000000000E+00 0. -1.
        -11    1    4    4    0    0 -0.15599410962E-01  0.79340931925E-02  0.20553918632E-01  0.27000299059E-01  0.51100000000E-03 0.  1.
         11    1    4    4    0    0 -0.82400327064E-01  0.32974771089E-01  0.49682008981E-01  0.10171387598E+00  0.51100000000E-03 0. -1.
</event>
<event>
 8    1  0.1099921E+005  0.1043930E+01  0.7957747E-01            NaN
         13   -1    0    0    0    0  0.00000000000E+00  0.00000000000E+00  0.74505805969E-08  0.10566000000E+00  0.10566000000E+00 0.  1.
     999900   -1    0    0    0    0 -0.00000000000E+00 -0.00000000000E+00 -0.74505805969E-08  0.93827000000E+00  0.93827000000E+00 0. -1.
     999902    2    1    2    0    0 -0.81332424938E-02 -0.19179405856E-01 -0.37072219525E-02  0.10227700677E+01  0.10225511569E+01 0.  0.
     999903    2    3    3    0    0 -0.96098008436E-01 -0.41580334217E-01  0.80696810305E-01  0.13408359746E+00  0.22420626559E-01 0.  0.
         14    1    1    2    0    0  0.81332424938E-02  0.19179405856E-01  0.37072219525E-02  0.21159932350E-01  0.00000000000E+00 0.  1.
     999901    1    3    3    0    0  0.87964765942E-01  0.22400928361E-01 -0.84404032258E-01  0.88868647019E+00  0.88000000000E+00 0. -1.
        -11    1    4    4    0    0 -0.38605167644E-01 -0.16459825584E-01  0.46447054596E-01  0.62600917155E-01  0.51100000000E-03 0.  1.
         11    1    4    4    0    0 -0.57492840791E-01 -0.25120508633E-01  0.34249755710E-01  0.71482680304E-01  0.51100000000E-03 0. -1.
</event>
<event>
 8    1  0.1099921E+005  0.1043930E+01  0.7957747E-01            NaN
         13   -1    0    0    0    0  0.00000000000E+00  0.00000000000E+00  0.74505805969E-08  0.10566000000E+00  0.10566000000E+00 0.  1.
     999900   -1    0    0    0    0 -0.00000000000E+00 -0.00000000000E+00 -0.74505805969E-08  0.93827000000E+00  0.93827000000E+00 0. -1.
     999902    2    1    2    0    0 -0.22516052313E-01  0.52410865277E-02 -0.56585988442E-02  0.10201295517E+01  0.10198518720E+01 0.  0.
     999903    2    3    3    0    0  0.71709078416E-01 -0.12297295745E-01  0.10366253497E+00  0.12820069778E+00  0.19901817622E-01 0.  0.
         14    1    1    2    0    0  0.22516052313E-01 -0.52410865277E-02  0.56585988442E-02  0.23800448329E-01  0.00000000000E+00 0. -1.
     999901    1    3    3    0    0 -0.94225130729E-01  0.17538382272E-01 -0.10932113381E+00  0.89192885390E+00  0.88000000000E+00 0. -1.
        -11    1    4    4    0    0  0.32150153405E-01 -0.57040218766E-04  0.59674182895E-01  0.67785727426E-01  0.51100000000E-03 0. -1.
         11    1    4    4    0    0  0.39558925011E-01 -0.12240255526E-01  0.43988352072E-01  0.60414970350E-01  0.51100000000E-03 0.  1.
</event>
<event>
 8    1  0.1099921E+005  0.1043930E+01  0.7957747E-01            NaN
         13   -1    0    0    0    0  0.00000000000E+00  0.00000000000E+00  0.74505805969E-08  0.10566000000E+00  0.10566000000E+00 0.  1.
     999900   -1    0    0    0    0 -0.00000000000E+00 -0.00000000000E+00 -0.74505805969E-08  0.93827000000E+00  0.93827000000E+00 0.  1.
     999902    2    1    2    0    0 -0.25845843850E-02  0.20525177042E-01 -0.98239332288E-02  0.10210286325E+01  0.10207717648E+01 0.  0.
     999903    2    3    3    0    0  0.25290031148E-01 -0.74891187181E-01  0.99513429702E-01  0.12870809834E+00  0.20361146716E-01 0.  0.
         14    1    1    2    0    0  0.25845843850E-02 -0.20525177042E-01  0.98239332288E-02  0.22901367495E-01  0.00000000000E+00 0.  1.
     999901    1    3    3    0    0 -0.27874615533E-01  0.95416364223E-01 -0.10933736293E+00  0.89232053416E+00  0.88000000000E+00 0.  1.
        -11    1    4    4    0    0  0.22635945132E-02 -0.24525920328E-01  0.43162703464E-01  0.49698337190E-01  0.51100000000E-03 0.  1.
         11    1    4    4    0    0  0.23026436635E-01 -0.50365266853E-01  0.56350726238E-01  0.79009761155E-01  0.51100000000E-03 0. -1.
</event>
<event>
 8    1  0.1099921E+005  0.1043930E+01  0.7957747E-01            NaN
         13   -1    0    0    0    0  0.00000000000E+00  0.00000000000E+00  0.74505805969E-08  0.10566000000E+00  0.10566000000E+00 0. -1.
     999900   -1    0    0    0    0 -0.00000000000E+00 -0.00000000000E+00 -0.74505805969E-08  0.93827000000E+00  0.93827000000E+00 0.  1.
     999902    2    1    2    0    0 -0.57723724585E-02 -0.21510708554E-01 -0.42722983521E-02  0.10212521827E+01  0.10210003610E+01 0.  0.
     999903    2    3    3    0    0 -0.50227996903E-01  0.11612366467E+00  0.16994783876E-01  0.12919175195E+00  0.19852680541E-01 0.  0.
         14    1    1    2    0    0  0.57723724585E-02  0.21510708554E-01  0.42722983521E-02  0.22677817345E-01  0.00000000000E+00 0. -1.
     999901    1    3    3    0    0  0.44455624444E-01 -0.13763437322E+00 -0.21267082228E-01  0.89206043070E+00  0.88000000000E+00 0. -1.
        -11    1    4    4    0    0 -0.15196179953E-01  0.20353592001E-01 -0.19074491947E-02  0.25477285490E-01  0.51100000000E-03 0.  1.
         11    1    4    4    0    0 -0.35031816949E-01  0.95770072669E-01  0.18902233071E-01  0.10371446646E+00  0.51100000000E-03 0. -1.
</event>
<event>
 8    1  0.1099921E+005  0.1043930E+01  0.7957747E-01            NaN
         13   -1    0    0    0    0  0.00000000000E+00  0.00000000000E+00  0.74505805969E-08  0.10566000000E+00  0.10566000000E+00 0.  1.
     999900   -1    0    0    0    0 -0.00000000000E+00 -0.00000000000E+00 -0.74505805969E-08  0.93827000000E+00  0.93827000000E+00 0. -1.
     999902    2    1    2    0    0 -0.20940254778E-01  0.93080821116E-02 -0.49054839013E-02  0.10204950169E+01  0.10202258970E+01 0.  0.
     999903    2    3    3    0    0 -0.12402549565E+00 -0.41417864744E-01 -0.14009099714E-01  0.13298019197E+00  0.19741162321E-01 0.  0.
         14    1    1    2    0    0  0.20940254778E-01 -0.93080821116E-02  0.49054839013E-02  0.23434983146E-01  0.00000000000E+00 0. -1.
     999901    1    3    3    0    0  0.10308524087E+00  0.50725946856E-01  0.91036158129E-02  0.88751482489E+00  0.88000000000E+00 0. -1.
        -11    1    4    4    0    0 -0.10870639262E+00 -0.37531641601E-01 -0.57676058428E-02  0.11514873128E+00  0.51100000000E-03 0.  1.
         11    1    4    4    0    0 -0.15319103034E-01 -0.38862231431E-02 -0.82414938714E-02  0.17831460690E-01  0.51100000000E-03 0. -1.
</event>
<event>
 8    1  0.1099921E+005  0.1043930E+01  0.7957747E-01            NaN
         13   -1    0    0    0    0  0.00000000000E+00  0.00000000000E+00  0.74505805969E-08  0.10566000000E+00  0.10566000000E+00 0.  1.
     999900   -1    0    0    0    0 -0.00000000000E+00 -0.00000000000E+00 -0.74505805969E-08  0.93827000000E+00  0.93827000000E+00 0. -1.
     999902    2    1    2    0    0  0.14249629033E-02  0.21304517255E-01  0.11925497332E-01  0.10194732941E+01  0.10191798992E+01 0.  0.
     999903    2    3    3    0    0  0.67609157367E-01  0.10966648329E+00  0.24218235520E-01  0.13249003835E+00  0.19218522680E-01 0.  0.
         14    1    1    2    0    0 -0.14249629033E-02 -0.21304517255E-01 -0.11925497332E-01  0.24456705856E-01  0.00000000000E+00 0. -1.
     999901    1    3    3    0    0 -0.66184194464E-01 -0.88361966037E-01 -0.12292738189E-01  0.88698325579E+00  0.88000000000E+00 0. -1.
        -11    1    4    4    0    0  0.45825531617E-01  0.59813492805E-01  0.83306473351E-02  0.75810910004E-01  0.51100000000E-03 0. -1.
         11    1    4    4    0    0  0.21783625749E-01  0.49852990487E-01  0.15887588185E-01  0.56679128351E-01  0.51100000000E-03 0.  1.
</event>
<event>
 8    1  0.1099921E+005  0.1043930E+01  0.7957747E-01            NaN
         13   -1    0    0    0    0  0.00000000000E+00  0.00000000000E+00  0.74505805969E-08  0.10566000000E+00  0.10566000000E+00 0. -1.
     999900   -1    0    0    0    0 -0.00000000000E+00 -0.00000000000E+00 -0.74505805969E-08  0.93827000000E+00  0.93827000000E+00 0. -1.
     999902    2    1    2    0    0 -0.20346434371E-02  0.95177668256E-02 -0.21372431581E-01  0.10204457821E+01  0.10201755171E+01 0.  0.
     999903    2    3    3    0    0 -0.17439156010E-01  0.97470452906E-01  0.82451579940E-01  0.12985474274E+00  0.16105211138E-01 0.  0.
         14    1    1    2    0    0  0.20346434371E-02 -0.95177668256E-02  0.21372431581E-01  0.23484217912E-01  0.00000000000E+00 0. -1.
     999901    1    3    3    0    0  0.15404512573E-01 -0.87952686081E-01 -0.10382401152E+00  0.89059103935E+00  0.88000000000E+00 0. -1.
        -11    1    4    4    0    0 -0.15510480108E-01  0.59014990758E-01  0.42475659280E-01  0.74349087954E-01  0.51100000000E-03 0.  1.
         11    1    4    4    0    0 -0.19286759018E-02  0.38455462149E-01  0.39975920660E-01  0.55505654787E-01  0.51100000000E-03 0. -1.
</event>
<event>
 8    1  0.1099921E+005  0.1043930E+01  0.7957747E-01            NaN
         13   -1    0    0    0    0  0.00000000000E+00  0.00000000000E+00  0.74505805969E-08  0.10566000000E+00  0.10566000000E+00 0. -1.
     999900   -1    0    0    0    0 -0.00000000000E+00 -0.00000000000E+00 -0.74505805969E-08  0.93827000000E+00  0.93827000000E+00 0.  1.
     999902    2    1    2    0    0  0.10025521862E-02  0.46715535888E-02 -0.23277540822E-01  0.10201671628E+01  0.10198903704E+01 0.  0.
     999903    2    3    3    0    0 -0.24407317140E-01  0.97400682775E-01 -0.84939736713E-01  0.13278529505E+00  0.18291133734E-01 0.  0.
         14    1    1    2    0    0 -0.10025521862E-02 -0.46715535888E-02  0.23277540822E-01  0.23762837174E-01  0.00000000000E+00 0. -1.
     999901    1    3    3    0    0  0.25409869326E-01 -0.92729129186E-01  0.61662195891E-01  0.88738186778E+00  0.88000000000E+00 0. -1.
        -11    1    4    4    0    0 -0.16030558586E-01  0.61779358297E-01 -0.42192039650E-01  0.76512072583E-01  0.51100000000E-03 0. -1.
         11    1    4    4    0    0 -0.83767585536E-02  0.35621324478E-01 -0.42747697063E-01  0.56273222466E-01  0.51100000000E-03 0.  1.
</event>
<event>
 8    1  0.1099921E+005  0.1043930E+01  0.7957747E-01            NaN
         13   -1    0    0    0    0  0.00000000000E+00  0.00000000000E+00  0.74505805969E-08  0.10566000000E+00  0.10566000000E+00 0.  1.
     999900   -1    0    0    0    0 -0.00000000000E+00 -0.00000000000E+00 -0.74505805969E-08  0.93827000000E+00  0.93827000000E+00 0.  1.
     999902    2    1    2    0    0 -0.15372513450E-01  0.10773917253E-01  0.14291322946E-01  0.10203369211E+01  0.10200641152E+01 0.  0.
     999903    2    3    3    0    0  0.55605767367E-01 -0.10628178387E+00  0.43926066242E-01  0.12925994821E+00  0.19769065937E-01 0.  0.
         14    1    1    2    0    0  0.15372513450E-01 -0.10773917253E-01 -0.14291322946E-01  0.23593078949E-01  0.00000000000E+00 0. -1.
     999901    1    3    3    0    0 -0.70978280817E-01  0.11705570113E+00 -0.29634743296E-01  0.89107697284E+00  0.88000000000E+00 0.  1.
        -11    1    4    4    0    0  0.40017402535E-01 -0.84327053286E-01  0.25953828671E-01  0.96882953946E-01  0.51100000000E-03 0. -1.
         11    1    4    4    0    0  0.15588364833E-01 -0.21954730589E-01  0.17972237571E-01  0.32376994266E-01  0.51100000000E-03 0.  1.
</event>
<event>
 8    1  0.1099921E+005  0.1043930E+01  0.7957747E-01            NaN
         13   -1    0    0    0    0  0.00000000000E+00  0.00000000000E+00  0.74505805969E-08  0.10566000000E+00  0.10566000000E+00 0. -1.
     999900   -1    0    0    0    0 -0.00000000000E+00 -0.00000000000E+00 -0.74505805969E-08  0.93827000000E+00  0.93827000000E+00 0.  1.
     999902    2    1    2    0    0  0.25070711356E-01 -0.35363148040E-02  0.66938426833E-02  0.10177411928E+01  0.10174041881E+01 0.  0.
     999903    2    3    3    0    0  0.26539409094E-01  0.59285195137E-01  0.11016495287E+00  0.12945353120E+00  0.20070508264E-01 0.  0.
         14    1    1    2    0    0 -0.25070711356E-01  0.35363148040E-02 -0.66938426833E-02  0.26188807154E-01  0.00000000000E+00 0.  1.
     999901    1    3    3    0    0 -0.14686977380E-02 -0.62821509941E-01 -0.10347111019E+00  0.88828766164E+00  0.88000000000E+00 0.  1.
        -11    1    4    4    0    0  0.96924477406E-02  0.29378273096E-01  0.34358985580E-01  0.46236646552E-01  0.51100000000E-03 0.  1.
         11    1    4    4    0    0  0.16846961354E-01  0.29906922041E-01  0.75805967291E-01  0.83216884650E-01  0.51100000000E-03 0. -1.
</event>
<event>
 8    1  0.1099921E+005  0.1043930E+01  0.7957747E-01            NaN
         13   -1    0    0    0    0  0.00000000000E+00  0.00000000000E+00  0.74505805969E-08  0.10566000000E+00  0.10566000000E+00 0.  1.
     999900   -1    0    0    0    0 -0.00000000000E+00 -0.00000000000E+00 -0.74505805969E-08  0.93827000000E+00  0.93827000000E+00 0. -1.
     999902    2    1    2    0    0 -0.16055199998E-01 -0.81292810344E-02 -0.20787264716E-01  0.10164351817E+01  0.10160632429E+01 0.  0.
     999903    2    3    3    0    0  0.25607086188E-01 -0.66163791038E-01  0.10098169735E+00  0.12518245071E+00  0.20975525191E-01 0.  0.
         14    1    1    2    0    0  0.16055199998E-01  0.81292810344E-02  0.20787264716E-01  0.27494818266E-01  0.00000000000E+00 0.  1.
     999901    1    3    3    0    0 -0.41662286186E-01  0.58034510003E-01 -0.12176896207E+00  0.89125273103E+00  0.88000000000E+00 0. -1.
        -11    1    4    4    0    0  0.58062255569E-02 -0.34187460806E-01  0.61815019553E-01  0.70879140055E-01  0.51100000000E-03 0. -1.
         11    1    4    4    0    0  0.19800860631E-01 -0.31976330232E-01  0.39166677799E-01  0.54303310651E-01  0.51100000000E-03 0.  1.
</event>
<event>
 8    1  0.1099921E+005  0.1043930E+01  0.7957747E-01            NaN
         13   -1    0    0    0    0  0.00000000000E+00  0.00000000000E+00  0.74505805969E-08  0.10566000000E+00  0.10566000000E+00 0.  1.
     999900   -1    0    0    0    0 -0.00000000000E+00 -0.00000000000E+00 -0.74505805969E-08  0.93827000000E+00  0.93827000000E+00 0.  1.
     999902    2    1    2    0    0  0.19092277984E-02 -0.19279660303E-01  0.15938437285E-01  0.10188424685E+01  0.10185335495E+01 0.  0.
     999903    2    3    3    0    0  0.23630011284E-01  0.86469904649E-01  0.90880662275E-01  0.12908345621E+00  0.19178687331E-01 0.  0.
         14    1    1    2    0    0 -0.19092277984E-02  0.19279660303E-01 -0.15938437285E-01  0.25087531470E-01  0.00000000000E+00 0. -1.
     999901    1    3    3    0    0 -0.21720783486E-01 -0.10574956495E+00 -0.74942224991E-01  0.88975901232E+00  0.88000000000E+00 0.  1.
        -11    1    4    4    0    0  0.18234710083E-01  0.38018053216E-01  0.33999458838E-01  0.54167345740E-01  0.51100000000E-03 0. -1.
         11    1    4    4    0    0  0.53953012013E-02  0.48451851432E-01  0.56881203437E-01  0.74916110468E-01  0.51100000000E-03 0.  1.
</event>
<event>
 8    1  0.1099921E+005  0.1043930E+01  0.7957747E-01            NaN
         13   -1    0    0    0    0  0.00000000000E+00  0.00000000000E+00  0.74505805969E-08  0.10566000000E+00  0.10566000000E+00 0.  1.
     999900   -1    0    0    0    0 -0.00000000000E+00 -0.00000000000E+00 -0.74505805969E-08  0.93827000000E+00  0.93827000000E+00 0. -1.
     999902    2    1    2    0    0 -0.30618875617E-02 -0.13040905541E-02 -0.23140301870E-01  0.10205516045E+01  0.10202837978E+01 0.  0.
     999903    2    3    3    0    0  0.12200870995E+00  0.21435795198E-01  0.32415750959E-01  0.12968335843E+00  0.20527394469E-01 0.  0.
         14    1    1    2    0    0  0.30618875617E-02  0.13040905541E-02  0.23140301870E-01  0.23378395544E-01  0.00000000000E+00 0.  1.
     999901    1    3    3    0    0 -0.12507059752E+00 -0.22739885752E-01 -0.55556052829E-01  0.89086824602E+00  0.88000000000E+00 0. -1.
        -11    1    4    4    0    0  0.39913228747E-01  0.29318954013E-02  0.15792842559E-02  0.40055175688E-01  0.51100000000E-03 0. -1.
         11    1    4    4    0    0  0.82095481206E-01  0.18503899796E-01  0.30836466703E-01  0.89628182744E-01  0.51100000000E-03 0.  1.
</event>
<event>
 8    1  0.1099921E+005  0.1043930E+01  0.7957747E-01            NaN
         13   -1    0    0    0    0  0.00000000000E+00  0.00000000000E+00  0.74505805969E-08  0.10566000000E+00  0.10566000000E+00 0. -1.
     999900   -1    0    0    0    0 -0.00000000000E+00 -0.00000000000E+00 -0.74505805969E-08  0.93827000000E+00  0.93827000000E+00 0.  1.
     999902    2    1    2    0    0 -0.15623457446E-01  0.14108468660E-01 -0.12088985267E-01  0.10196548095E+01  0.10193658056E+01 0.  0.
     999903    2    3    3    0    0 -0.95475217413E-01 -0.26311511158E-01  0.82076512921E-01  0.13011716587E+00  0.19649684999E-01 0.  0.
         14    1    1    2    0    0  0.15623457446E-01 -0.14108468660E-01  0.12088985267E-01  0.24275190530E-01  0.00000000000E+00 0.  1.
     999901    1    3    3    0    0  0.79851759966E-01  0.40419979818E-01 -0.94165498187E-01  0.88953764360E+00  0.88000000000E+00 0.  1.
        -11    1    4    4    0    0 -0.27936072796E-01 -0.11053518429E-01  0.36244190862E-01  0.47079793173E-01  0.51100000000E-03 0.  1.
         11    1    4    4    0    0 -0.67539144616E-01 -0.15257992730E-01  0.45832322058E-01  0.83037372694E-01  0.51100000000E-03 0. -1.
</event>
<event>
 8    1  0.1099921E+005  0.1043930E+01  0.7957747E-01            NaN
         13   -1    0    0    0    0  0.00000000000E+00  0.00000000000E+00  0.74505805969E-08  0.10566000000E+00  0.10566000000E+00 0. -1.
     999900   -1    0    0    0    0 -0.00000000000E+00 -0.00000000000E+00 -0.74505805969E-08  0.93827000000E+00  0.93827000000E+00 0.  1.
     999902    2    1    2    0    0  0.11959751505E-01  0.89622491610E-02  0.18433154627E-01  0.10201994552E+01  0.10199234234E+01 0.  0.
     999903    2    3    3    0    0 -0.19150873641E-02  0.92725858090E-01  0.93145310119E-01  0.13296174214E+00  0.20025577569E-01 0.  0.
         14    1    1    2    0    0 -0.11959751505E-01 -0.89622491610E-02 -0.18433154627E-01  0.23730544781E-01  0.00000000000E+00 0.  1.
     999901    1    3    3    0    0  0.13874838869E-01 -0.83763608930E-01 -0.74712155492E-01  0.88723771308E+00  0.88000000000E+00 0.  1.
        -11    1    4    4    0    0  0.60625510288E-02  0.53160224685E-01  0.62538514665E-01  0.82304865901E-01  0.51100000000E-03 0.  1.
         11    1    4    4    0    0 -0.79776383929E-02  0.39565633406E-01  0.30606795455E-01  0.50656876238E-01  0.51100000000E-03 0. -1.
</event>
<event>
 8    1  0.1099921E+005  0.1043930E+01  0.7957747E-01            NaN
         13   -1    0    0    0    0  0.00000000000E+00  0.00000000000E+00  0.74505805969E-08  0.10566000000E+00  0.10566000000E+00 0. -1.
     999900   -1    0    0    0    0 -0.00000000000E+00 -0.00000000000E+00 -0.74505805969E-08  0.93827000000E+00  0.93827000000E+00 0.  1.
     999902    2    1    2    0    0  0.16387527181E-01 -0.17242516268E-01  0.45035129278E-02  0.10197197327E+01  0.10194322911E+01 0.  0.
     999903    2    3    3    0    0 -0.50451321028E-01 -0.48315257570E-01  0.10830280474E+00  0.13055875747E+00  0.20889991111E-01 0.  0.
         14    1    1    2    0    0 -0.16387527181E-01  0.17242516268E-01 -0.45035129278E-02  0.24210267307E-01  0.00000000000E+00 0.  1.
     999901    1    3    3    0    0  0.66838848210E-01  0.31072741302E-01 -0.10379929182E+00  0.88916097523E+00  0.88000000000E+00 0.  1.
        -11    1    4    4    0    0 -0.47692419566E-01 -0.37051042489E-01  0.97565455685E-01  0.11474591887E+00  0.51100000000E-03 0.  1.
         11    1    4    4    0    0 -0.27589014627E-02 -0.11264215082E-01  0.10737349059E-01  0.15812838597E-01  0.51100000000E-03 0. -1.
</event>
<event>
 8    1  0.1099921E+005  0.1043930E+01  0.7957747E-01            NaN
         13   -1    0    0    0    0  0.00000000000E+00  0.00000000000E+00  0.74505805969E-08  0.10566000000E+00  0.10566000000E+00 0. -1.
     999900   -1    0    0    0    0 -0.00000000000E+00 -0.00000000000E+00 -0.74505805969E-08  0.93827000000E+00  0.93827000000E+00 0. -1.
     999902    2    1    2    0    0 -0.13637663217E-01 -0.14981418651E-01  0.51679409092E-03  0.10236643680E+01  0.10234637475E+01 0.  0.
     999903    2    3    3    0    0  0.23954198118E-01 -0.13121945835E+00  0.12437877483E-02  0.13522474801E+00  0.22177367014E-01 0.  0.
         14    1    1    2    0    0  0.13637663217E-01  0.14981418651E-01 -0.51679409092E-03  0.20265631965E-01  0.00000000000E+00 0.  1.
     999901    1    3    3    0    0 -0.37591861335E-01  0.11623803970E+00 -0.72699365737E-03  0.88843962003E+00  0.88000000000E+00 0. -1.
        -11    1    4    4    0    0  0.16324789749E-01 -0.90677016937E-01 -0.94062265144E-02  0.92615108806E-01  0.51100000000E-03 0. -1.
         11    1    4    4    0    0  0.76294083693E-02 -0.40542441418E-01  0.10650014263E-01  0.42609639203E-01  0.51100000000E-03 0.  1.
</event>
<event>
 8    1  0.1099921E+005  0.1043930E+01  0.7957747E-01            NaN
         13   -1    0    0    0    0  0.00000000000E+00  0.00000000000E+00  0.74505805969E-08  0.10566000000E+00  0.10566000000E+00 0.  1.
     999900   -1    0    0    0    0 -0.00000000000E+00 -0.00000000000E+00 -0.74505805969E-08  0.93827000000E+00  0.93827000000E+00 0.  1.
     999902    2    1    2    0    0 -0.62115894091E-02  0.20101371292E-01  0.94885506712E-02  0.10208501048E+01  0.10205891704E+01 0.  0.
     999903    2    3    3    0    0  0.74112215856E-01 -0.63964627882E-01 -0.80864350032E-01  0.12861546489E+00  0.20464616854E-01 0.  0.
         14    1    1    2    0    0  0.62115894091E-02 -0.20101371292E-01 -0.94885506712E-02  0.23079895248E-01  0.00000000000E+00 0. -1.
     999901    1    3    3    0    0 -0.80323805265E-01  0.84065999174E-01  0.90352900703E-01  0.89223463986E+00  0.88000000000E+00 0. -1.
        -11    1    4    4    0    0  0.49128286823E-01 -0.53996788353E-01 -0.56406917387E-01  0.92256399066E-01  0.51100000000E-03 0.  1.
         11    1    4    4    0    0  0.24983929033E-01 -0.99678395292E-02 -0.24457432645E-01  0.36359065821E-01  0.51100000000E-03 0. -1.
</event>
<event>
 8    1  0.1099921E+005  0.1043930E+01  0.7957747E-01            NaN
         13   -1    0    0    0    0  0.00000000000E+00  0.00000000000E+00  0.74505805969E-08  0.10566000000E+00  0.10566000000E+00 0.  1.
     999900   -1    0    0    0    0 -0.00000000000E+00 -0.00000000000E+00 -0.74505805969E-08  0.93827000000E+00  0.93827000000E+00 0. -1.
     999902    2    1    2    0    0  0.27617652919E-02  0.14021553790E-01  0.18917573124E-01  0.10202212275E+01  0.10199457080E+01 0.  0.
     999903    2    3    3    0    0 -0.51209987677E-01 -0.11534694583E+00 -0.14134146810E-01  0.12851411476E+00  0.19716055272E-01 0.  0.
         14    1    1    2    0    0 -0.27617652919E-02 -0.14021553790E-01 -0.18917573124E-01  0.23708772451E-01  0.00000000000E+00 0. -1.
     999901    1    3    3    0    0  0.53971752969E-01  0.12936849962E+00  0.33051719935E-01  0.89170711279E+00  0.88000000000E+00 0. -1.
        -11    1    4    4    0    0 -0.13971876115E-01 -0.22311045774E-01  0.41263559451E-02  0.26651154198E-01  0.51100000000E-03 0.  1.
         11    1    4    4    0    0 -0.37238111562E-01 -0.93035900056E-01 -0.18260502756E-01  0.10186296056E+00  0.51100000000E-03 0. -1.
</event>
<event>
 8    1  0.1099921E+005  0.1043930E+01  0.7957747E-01            NaN
         13   -1    0    0    0    0  0.00000000000E+00  0.00000000000E+00  0.74505805969E-08  0.10566000000E+00  0.10566000000E+00 0. -1.
     999900   -1    0    0    0    0 -0.00000000000E+00 -0.00000000000E+00 -0.74505805969E-08  0.93827000000E+00  0.93827000000E+00 0. -1.
     999902    2    1    2    0    0 -0.18179796594E-01 -0.38003864177E-02  0.10991553571E-01  0.10223484757E+01  0.10221206600E+01 0.  0.
     999903    2    3    3    0    0 -0.81305040697E-01  0.72689562546E-01  0.75967107167E-01  0.13439727699E+00  0.19933503052E-01 0.  0.
         14    1    1    2    0    0  0.18179796594E-01  0.38003864177E-02 -0.10991553571E-01  0.21581524298E-01  0.00000000000E+00 0.  1.
     999901    1    3    3    0    0  0.63125244103E-01 -0.76489948964E-01 -0.64975553597E-01  0.88795119872E+00  0.88000000000E+00 0. -1.
        -11    1    4    4    0    0 -0.19527503230E-01  0.11781484872E-01  0.79509940911E-02  0.24157942715E-01  0.51100000000E-03 0.  1.
         11    1    4    4    0    0 -0.61777537467E-01  0.60908077674E-01  0.68016113076E-01  0.11023933427E+00  0.51100000000E-03 0. -1.
</event>
<event>
 8    1  0.1099921E+005  0.1043930E+01  0.7957747E-01            NaN
         13   -1    0    0    0    0  0.00000000000E+00  0.00000000000E+00  0.74505805969E-08  0.10566000000E+00  0.10566000000E+00 0.  1.
     999900   -1    0    0    0    0 -0.00000000000E+00 -0.00000000000E+00 -0.74505805969E-08  0.93827000000E+00  0.93827000000E+00 0.  1.
     999902    2    1    2    0    0 -0.45478119031E-02 -0.21746756327E-01 -0.82691303617E-02  0.10202238295E+01  0.10199483711E+01 0.  0.
     999903    2    3    3    0    0 -0.68908497985E-01  0.10627323253E+00 -0.65225451957E-02  0.12863285486E+00  0.21482241662E-01 0.  0.
         14    1    1    2    0    0  0.45478119031E-02  0.21746756327E-01  0.82691303617E-02  0.23706170522E-01  0.00000000000E+00 0.  1.
     999901    1    3    3    0    0  0.64360686082E-01 -0.12801998886E+00 -0.17465851660E-02  0.89159097462E+00  0.88000000000E+00 0. -1.
        -11    1    4    4    0    0 -0.25032603964E-01  0.57732209121E-01 -0.58835080676E-03  0.62930489501E-01  0.51100000000E-03 0.  1.
         11    1    4    4    0    0 -0.43875894021E-01  0.48541023409E-01 -0.59341943889E-02  0.65702365359E-01  0.51100000000E-03 0. -1.
</event>
<event>
 8    1  0.1099921E+005  0.1043930E+01  0.7957747E-01            NaN
         13   -1    0    0    0    0  0.00000000000E+00  0.00000000000E+00  0.74505805969E-08  0.10566000000E+00  0.10566000000E+00 0.  1.
     999900   -1    0    0    0    0 -0.00000000000E+00 -0.00000000000E+00 -0.74505805969E-08  0.93827000000E+00  0.93827000000E+00 0.  1.
     999902    2    1    2    0    0 -0.75459531039E-02  0.19748020092E-01 -0.94599612965E-02  0.10207693313E+01  0.10205065464E+01 0.  0.
     999903    2    3    3    0    0 -0.59527276039E-01 -0.10877969555E+00 -0.31925809405E-01  0.12963177407E+00  0.20214370734E-01 0.  0.
         14    1    1    2    0    0  0.75459531039E-02 -0.19748020092E-01  0.94599612965E-02  0.23160668676E-01  0.00000000000E+00 0.  1.
     999901    1    3    3    0    0  0.51981322935E-01  0.12852771565E+00  0.22465848108E-01  0.89113755726E+00  0.88000000000E+00 0. -1.
        -11    1    4    4    0    0 -0.33204125908E-01 -0.45148772545E-01 -0.21284481874E-01  0.59951780034E-01  0.51100000000E-03 0.  1.
         11    1    4    4    0    0 -0.26323150131E-01 -0.63630923009E-01 -0.10641327531E-01  0.69679994033E-01  0.51100000000E-03 0. -1.
</event>
<event>
 8    1  0.1099921E+005  0.1043930E+01  0.7957747E-01            NaN
         13   -1    0    0    0    0  0.00000000000E+00  0.00000000000E+00  0.74505805969E-08  0.10566000000E+00  0.10566000000E+00 0.  1.
     999900   -1    0    0    0    0 -0.00000000000E+00 -0.00000000000E+00 -0.74505805969E-08  0.93827000000E+00  0.93827000000E+00 0. -1.
     999902    2    1    2    0    0  0.11976016080E-01 -0.20185044067E-01  0.65607710326E-02  0.10195598403E+01  0.10192685433E+01 0.  0.
     999903    2    3    3    0    0  0.55440321157E-01  0.98339482472E-01 -0.57384994193E-01  0.12825390516E+00  0.20291466354E-01 0.  0.
         14    1    1    2    0    0 -0.11976016080E-01  0.20185044067E-01 -0.65607710326E-02  0.24370159657E-01  0.00000000000E+00 0. -1.
     999901    1    3    3    0    0 -0.43464305076E-01 -0.11852452654E+00  0.63945765226E-01  0.89130593519E+00  0.88000000000E+00 0.  1.
        -11    1    4    4    0    0  0.47655363930E-01  0.65951205358E-01 -0.41696557559E-01  0.91430078381E-01  0.51100000000E-03 0.  1.
         11    1    4    4    0    0  0.77849572266E-02  0.32388277115E-01 -0.15688436634E-01  0.36823826777E-01  0.51100000000E-03 0. -1.
</event>
<event>
 8    1  0.1099921E+005  0.1043930E+01  0.7957747E-01            NaN
         13   -1    0    0    0    0  0.00000000000E+00  0.00000000000E+00  0.74505805969E-08  0.10566000000E+00  0.10566000000E+00 0. -1.
     999900   -1    0    0    0    0 -0.00000000000E+00 -0.00000000000E+00 -0.74505805969E-08  0.93827000000E+00  0.93827000000E+00 0.  1.
     999902    2    1    2    0    0 -0.72908220497E-02 -0.19069555050E-01  0.71857825441E-02  0.10222865371E+01  0.10220573978E+01 0.  0.
     999903    2    3    3    0    0 -0.88721296132E-01 -0.75406072032E-01  0.65128110228E-01  0.13483961553E+00  0.19557788393E-01 0.  0.
         14    1    1    2    0    0  0.72908220497E-02  0.19069555050E-01 -0.71857825441E-02  0.21643462910E-01  0.00000000000E+00 0.  1.
     999901    1    3    3    0    0  0.81430474083E-01  0.56336516982E-01 -0.57942327684E-01  0.88744692156E+00  0.88000000000E+00 0. -1.
        -11    1    4    4    0    0 -0.27583501151E-01 -0.12622445426E-01  0.19130741915E-01  0.35866726524E-01  0.51100000000E-03 0.  1.
         11    1    4    4    0    0 -0.61137794981E-01 -0.62783626605E-01  0.45997368314E-01  0.98972889003E-01  0.51100000000E-03 0. -1.
</event>
<event>
 8    1  0.1099921E+005  0.1043930E+01  0.7957747E-01            NaN
         13   -1    0    0    0    0  0.00000000000E+00  0.00000000000E+00  0.74505805969E-08  0.10566000000E+00  0.10566000000E+00 0.  1.
     999900   -1    0    0    0    0 -0.00000000000E+00 -0.00000000000E+00 -0.74505805969E-08  0.93827000000E+00  0.93827000000E+00 0. -1.
     999902    2    1    2    0    0  0.12715947992E-03  0.22220932131E-01 -0.82053909718E-02  0.10202421458E+01  0.10199671179E+01 0.  0.
     999903    2    3    3    0    0 -0.40836563219E-01 -0.11609887661E+00  0.28356925804E-01  0.12774721639E+00  0.19200573108E-01 0.  0.
         14    1    1    2    0    0 -0.12715947992E-03 -0.22220932131E-01  0.82053909718E-02  0.23687854173E-01  0.00000000000E+00 0.  1.
     999901    1    3    3    0    0  0.40963722699E-01  0.13831980874E+00 -0.36562316776E-01  0.89249492944E+00  0.88000000000E+00 0.  1.
        -11    1    4    4    0    0 -0.17252645139E-01 -0.25791411472E-01  0.10139513158E-01  0.32648453533E-01  0.51100000000E-03 0.  1.
         11    1    4    4    0    0 -0.23583918080E-01 -0.90307465139E-01  0.18217412646E-01  0.95098762854E-01  0.51100000000E-03 0. -1.
</event>
<event>
 8    1  0.1099921E+005  0.1043930E+01  0.7957747E-01            NaN
         13   -1    0    0    0    0  0.00000000000E+00  0.00000000000E+00  0.74505805969E-08  0.10566000000E+00  0.10566000000E+00 0. -1.
     999900   -1    0    0    0    0 -0.00000000000E+00 -0.00000000000E+00 -0.74505805969E-08  0.93827000000E+00  0.93827000000E+00 0.  1.
     999902    2    1    2    0    0 -0.21709430956E-01 -0.19397108855E-01  0.14017149748E-01  0.10116185823E+01  0.10111024322E+01 0.  0.
     999903    2    3    3    0    0  0.70148959476E-01  0.80006339889E-01  0.52928359232E-01  0.12042102189E+00  0.19440174000E-01 0.  0.
         14    1    1    2    0    0  0.21709430956E-01  0.19397108855E-01 -0.14017149748E-01  0.32311417663E-01  0.00000000000E+00 0.  1.
     999901    1    3    3    0    0 -0.91858390432E-01 -0.99403448743E-01 -0.38911209484E-01  0.89119756044E+00  0.88000000000E+00 0.  1.
        -11    1    4    4    0    0  0.36108700658E-01  0.34418322758E-01  0.15198450398E-01  0.52150869793E-01  0.51100000000E-03 0. -1.
         11    1    4    4    0    0  0.34040258818E-01  0.45588017131E-01  0.37729908834E-01  0.68270152101E-01  0.51100000000E-03 0.  1.
</event>
<event>
 8    1  0.1099921E+005  0.1043930E+01  0.7957747E-01            NaN
         13   -1    0    0    0    0  0.00000000000E+00  0.00000000000E+00  0.74505805969E-08  0.10566000000E+00  0.10566000000E+00 0.  1.
     999900   -1    0    0    0    0 -0.00000000000E+00 -0.00000000000E+00 -0.74505805969E-08  0.93827000000E+00  0.93827000000E+00 0.  1.
     999902    2    1    2    0    0 -0.40573567248E-02  0.24907887857E-01 -0.72921568211E-02  0.10176613767E+01  0.10173222877E+01 0.  0.
     999903    2    3    3    0    0  0.73061263521E-01  0.20991230618E-02 -0.10403515127E+00  0.12871439944E+00  0.20043187818E-01 0.  0.
         14    1    1    2    0    0  0.40573567248E-02 -0.24907887857E-01  0.72921568211E-02  0.26268623341E-01  0.00000000000E+00 0.  1.
     999901    1    3    3    0    0 -0.77118620246E-01  0.22808764796E-01  0.96742994447E-01  0.88894697722E+00  0.88000000000E+00 0.  1.
        -11    1    4    4    0    0  0.50459947465E-01 -0.70482480194E-02 -0.63585177640E-01  0.81481409136E-01  0.51100000000E-03 0.  1.
         11    1    4    4    0    0  0.22601316056E-01  0.91473710813E-02 -0.40449973628E-01  0.47232990300E-01  0.51100000000E-03 0. -1.
</event>
<event>
 8    1  0.1099921E+005  0.1043930E+01  0.7957747E-01            NaN
         13   -1    0    0    0    0  0.00000000000E+00  0.00000000000E+00  0.74505805969E-08  0.10566000000E+00  0.10566000000E+00 0.  1.
     999900   -1    0    0    0    0 -0.00000000000E+00 -0.00000000000E+00 -0.74505805969E-08  0.93827000000E+00  0.93827000000E+00 0. -1.
     999902    2    1    2    0    0 -0.10199553648E-01 -0.76247652198E-02 -0.19787177785E-01  0.10203991619E+01  0.10201278102E+01 0.  0.
     999903    2    3    3    0    0 -0.11950110798E+00 -0.42582326127E-01  0.28770180744E-01  0.13162096797E+00  0.20064560904E-01 0.  0.
         14    1    1    2    0    0  0.10199553648E-01  0.76247652198E-02  0.19787177785E-01  0.23530838148E-01  0.00000000000E+00 0. -1.
     999901    1    3    3    0    0  0.10930155433E+00  0.34957560908E-01 -0.48557358529E-01  0.88877819388E+00  0.88000000000E+00 0. -1.
        -11    1    4    4    0    0 -0.98171767395E-01 -0.33749083279E-01  0.15429214211E-01  0.10495245737E+00  0.51100000000E-03 0.  1.
         11    1    4    4    0    0 -0.21329340583E-01 -0.88332428487E-02  0.13340966533E-01  0.26668510606E-01  0.51100000000E-03 0. -1.
</event>
<event>
 8    1  0.1099921E+005  0.1043930E+01  0.7957747E-01            NaN
         13   -1    0    0    0    0  0.00000000000E+00  0.00000000000E+00  0.74505805969E-08  0.10566000000E+00  0.10566000000E+00 0. -1.
     999900   -1    0    0    0    0 -0.00000000000E+00 -0.00000000000E+00 -0.74505805969E-08  0.93827000000E+00  0.93827000000E+00 0. -1.
     999902    2    1    2    0    0  0.76273003319E-02 -0.20951799750E-01  0.79599976258E-02  0.10202547981E+01  0.10199800674E+01 0.  0.
     999903    2    3    3    0    0  0.12831661622E+00  0.61212546416E-02  0.19483030077E-01  0.13153007045E+00  0.20443757364E-01 0.  0.
         14    1    1    2    0    0 -0.76273003319E-02  0.20951799750E-01 -0.79599976258E-02  0.23675201906E-01  0.00000000000E+00 0.  1.
     999901    1    3    3    0    0 -0.12068931589E+00 -0.27073054391E-01 -0.11523032451E-01  0.88872472764E+00  0.88000000000E+00 0. -1.
        -11    1    4    4    0    0  0.11767228537E+00  0.29026434565E-02  0.12457714711E-01  0.11836658254E+00  0.51100000000E-03 0. -1.
         11    1    4    4    0    0  0.10644330848E-01  0.32186111851E-02  0.70253153657E-02  0.13163487917E-01  0.51100000000E-03 0.  1.
</event>
<event>
 8    1  0.1099921E+005  0.1043930E+01  0.7957747E-01            NaN
         13   -1    0    0    0    0  0.00000000000E+00  0.00000000000E+00  0.74505805969E-08  0.10566000000E+00  0.10566000000E+00 0.  1.
     999900   -1    0    0    0    0 -0.00000000000E+00 -0.00000000000E+00 -0.74505805969E-08  0.93827000000E+00  0.93827000000E+00 0.  1.
     999902    2    1    2    0    0  0.13847838663E-02 -0.20171437762E-01  0.12971137512E-01  0.10199080322E+01  0.10196250974E+01 0.  0.
     999903    2    3    3    0    0 -0.82961237402E-01 -0.10080428696E+00  0.35038728195E-04  0.13211118027E+00  0.20230955103E-01 0.  0.
         14    1    1    2    0    0 -0.13847838663E-02  0.20171437762E-01 -0.12971137512E-01  0.24021967782E-01  0.00000000000E+00 0. -1.
     999901    1    3    3    0    0  0.84346021268E-01  0.80632849199E-01  0.12936098783E-01  0.88779685195E+00  0.88000000000E+00 0. -1.
        -11    1    4    4    0    0 -0.26523838150E-01 -0.24150536578E-01  0.74207031525E-02  0.36634551498E-01  0.51100000000E-03 0. -1.
         11    1    4    4    0    0 -0.56437399251E-01 -0.76653750383E-01 -0.73856644243E-02  0.95476628774E-01  0.51100000000E-03 0.  1.
</event>
<event>
 8    1  0.1099921E+005  0.1043930E+01  0.7957747E-01            NaN
         13   -1    0    0    0    0  0.00000000000E+00  0.00000000000E+00  0.74505805969E-08  0.10566000000E+00  0.10566000000E+00 0. -1.
     999900   -1    0    0    0    0 -0.00000000000E+00 -0.00000000000E+00 -0.74505805969E-08  0.93827000000E+00  0.93827000000E+00 0.  1.
     999902    2    1    2    0    0 -0.15734783515E-01  0.22149500717E-02 -0.16954861130E-01  0.10206930309E+01  0.10204284917E+01 0.  0.
     999903    2    3    3    0    0 -0.86323073455E-01  0.98093291968E-01  0.63180200885E-02  0.13237045994E+00  0.20200355090E-01 0.  0.
         14    1    1    2    0    0  0.15734783515E-01 -0.22149500717E-02  0.16954861130E-01  0.23236969080E-01  0.00000000000E+00 0. -1.
     999901    1    3    3    0    0  0.70588289941E-01 -0.95878341896E-01 -0.23272881219E-01  0.88832257099E+00  0.88000000000E+00 0. -1.
        -11    1    4    4    0    0 -0.18121849748E-01  0.10222946656E-01  0.34741178529E-02  0.21100727297E-01  0.51100000000E-03 0.  1.
         11    1    4    4    0    0 -0.68201223708E-01  0.87870345312E-01  0.28439022356E-02  0.11126973264E+00  0.51100000000E-03 0. -1.
</event>
<event>
 8    1  0.1099921E+005  0.1043930E+01  0.7957747E-01            NaN
         13   -1    0    0    0    0  0.00000000000E+00  0.00000000000E+00  0.74505805969E-08  0.10566000000E+00  0.10566000000E+00 0. -1.
     999900   -1    0    0    0    0 -0.00000000000E+00 -0.00000000000E+00 -0.74505805969E-08  0.93827000000E+00  0.93827000000E+00 0. -1.
     999902    2    1    2    0    0 -0.81751147914E-02  0.11206555224E-01 -0.19820340954E-01  0.10197377430E+01  0.10194507341E+01 0.  0.
     999903    2    3    3    0    0 -0.33207197705E-01 -0.23976452394E-02 -0.12695030764E+00  0.13278311668E+00  0.20162062941E-01 0.  0.
         14    1    1    2    0    0  0.81751147914E-02 -0.11206555224E-01  0.19820340954E-01  0.24192256971E-01  0.00000000000E+00 0. -1.
     999901    1    3    3    0    0  0.25032082913E-01  0.13604200463E-01  0.10712996669E+00  0.88695462635E+00  0.88000000000E+00 0.  1.
        -11    1    4    4    0    0 -0.24911311307E-01  0.14754578526E-02 -0.56882966335E-01  0.62118301547E-01  0.51100000000E-03 0.  1.
         11    1    4    4    0    0 -0.82958863974E-02 -0.38731030920E-02 -0.70067341306E-01  0.70664815130E-01  0.51100000000E-03 0. -1.
</event>
<event>
 8    1  0.1099921E+005  0.1043930E+01  0.7957747E-01            NaN
         13   -1    0    0    0    0  0.00000000000E+00  0.00000000000E+00  0.74505805969E-08  0.10566000000E+00  0.10566000000E+00 0. -1.
     999900   -1    0    0    0    0 -0.00000000000E+00 -0.00000000000E+00 -0.74505805969E-08  0.93827000000E+00  0.93827000000E+00 0.  1.
     999902    2    1    2    0    0  0.22767794931E-01 -0.11324547631E-02  0.48423022865E-02  0.10206254333E+01  0.10203593348E+01 0.  0.
     999903    2    3    3    0    0 -0.11554393633E+00  0.17806964853E-01 -0.48530952275E-01  0.12802387549E+00  0.19166902366E-01 0.  0.
         14    1    1    2    0    0 -0.22767794931E-01  0.11324547631E-02 -0.48423022865E-02  0.23304566747E-01  0.00000000000E+00 0. -1.
     999901    1    3    3    0    0  0.13831173126E+00 -0.18939419616E-01  0.53373254562E-01  0.89260155776E+00  0.88000000000E+00 0.  1.
        -11    1    4    4    0    0 -0.37608834348E-01 -0.30635791820E-02 -0.17190176598E-01  0.41467737229E-01  0.51100000000E-03 0. -1.
         11    1    4    4    0    0 -0.77935101984E-01  0.20870544035E-01 -0.31340775677E-01  0.86556138261E-01  0.51100000000E-03 0.  1.
</event>
<event>
 8    1  0.1099921E+005  0.1043930E+01  0.7957747E-01            NaN
         13   -1    0    0    0    0  0.00000000000E+00  0.00000000000E+00  0.74505805969E-08  0.10566000000E+00  0.10566000000E+00 0. -1.
     999900   -1    0    0    0    0 -0.00000000000E+00 -0.00000000000E+00 -0.74505805969E-08  0.93827000000E+00  0.93827000000E+00 0.  1.
     999902    2    1    2    0    0 -0.18070074948E-02 -0.16676820860E-01 -0.17359032490E-01  0.10197904549E+01  0.10195047102E+01 0.  0.
     999903    2    3    3    0    0 -0.63508680013E-01  0.99184121881E-01  0.45697844780E-01  0.12782239254E+00  0.19478925716E-01 0.  0.
         14    1    1    2    0    0  0.18070074948E-02  0.16676820860E-01  0.17359032490E-01  0.24139545130E-01  0.00000000000E+00 0. -1.
     999901    1    3    3    0    0  0.61701672518E-01 -0.11586094274E+00 -0.63056877270E-01  0.89196806233E+00  0.88000000000E+00 0.  1.
        -11    1    4    4    0    0 -0.31695543127E-01  0.32059826906E-01  0.17867144477E-01  0.48496762037E-01  0.51100000000E-03 0.  1.
         11    1    4    4    0    0 -0.31813136886E-01  0.67124294975E-01  0.27830700303E-01  0.79325630504E-01  0.51100000000E-03 0. -1.
</event>
<event>
 8    1  0.1099921E+005  0.1043930E+01  0.7957747E-01            NaN
         13   -1    0    0    0    0  0.00000000000E+00  0.00000000000E+00  0.74505805969E-08  0.10566000000E+00  0.10566000000E+00 0.  1.
     999900   -1    0    0    0    0 -0.00000000000E+00 -0.00000000000E+00 -0.74505805969E-08  0.93827000000E+00  0.93827000000E+00 0.  1.
     999902    2    1    2    0    0  0.11089283394E-03  0.25450637737E-02 -0.23566672947E-01  0.10202260400E+01  0.10199506336E+01 0.  0.
     999903    2    3    3    0    0 -0.10745140514E+00 -0.20136308430E-01  0.65330903426E-01  0.12894220658E+00  0.20166564207E-01 0.  0.
         14    1    1    2    0    0 -0.11089283394E-03 -0.25450637737E-02  0.23566672947E-01  0.23703960020E-01  0.00000000000E+00 0.  1.
     999901    1    3    3    0    0  0.10756229798E+00  0.22681372204E-01 -0.88897576373E-01  0.89128383340E+00  0.88000000000E+00 0. -1.
        -11    1    4    4    0    0 -0.61248255153E-02 -0.57870214040E-02  0.80427575469E-02  0.11659767334E-01  0.51100000000E-03 0. -1.
         11    1    4    4    0    0 -0.10132657963E+00 -0.14349287026E-01  0.57288145879E-01  0.11728243925E+00  0.51100000000E-03 0.  1.
</event>
<event>
 8    1  0.1099921E+005  0.1043930E+01  0.7957747E-01            NaN
         13   -1    0    0    0    0  0.00000000000E+00  0.00000000000E+00  0.74505805969E-08  0.10566000000E+00  0.10566000000E+00 0. -1.
     999900   -1    0    0    0    0 -0.00000000000E+00 -0.00000000000E+00 -0.74505805969E-08  0.93827000000E+00  0.93827000000E+00 0. -1.
     999902    2    1    2    0    0 -0.10879140124E-01  0.57246354036E-02 -0.21846948307E-01  0.10188617673E+01  0.10185533293E+01 0.  0.
     999903    2    3    3    0    0  0.23821412127E-01  0.45869592776E-01  0.11413638652E+00  0.12683754494E+00  0.19727363241E-01 0.  0.
         14    1    1    2    0    0  0.10879140124E-01 -0.57246354036E-02  0.21846948307E-01  0.25068232699E-01  0.00000000000E+00 0. -1.
     999901    1    3    3    0    0 -0.34700552251E-01 -0.40144957373E-01 -0.13598333483E+00  0.89202422236E+00  0.88000000000E+00 0. -1.
        -11    1    4    4    0    0  0.24886433815E-01  0.29156920641E-01  0.73898333029E-01  0.83250737863E-01  0.51100000000E-03 0. -1.
         11    1    4    4    0    0 -0.10650216872E-02  0.16712672136E-01  0.40238053494E-01  0.43586807076E-01  0.51100000000E-03 0.  1.
</event>
<event>
 8    1  0.1099921E+005  0.1043930E+01  0.7957747E-01            NaN
         13   -1    0    0    0    0  0.00000000000E+00  0.00000000000E+00  0.74505805969E-08  0.10566000000E+00  0.10566000000E+00 0. -1.
     999900   -1    0    0    0    0 -0.00000000000E+00 -0.00000000000E+00 -0.74505805969E-08  0.93827000000E+00  0.93827000000E+00 0. -1.
     999902    2    1    2    0    0 -0.84131518313E-02 -0.21759062386E-01 -0.45994332620E-02  0.10201520122E+01  0.10198748625E+01 0.  0.
     999903    2    3    3    0    0 -0.37860573471E-01  0.11319846961E+00  0.42168750093E-01  0.12814979856E+00  0.19921115476E-01 0.  0.
         14    1    1    2    0    0  0.84131518313E-02  0.21759062386E-01  0.45994332620E-02  0.23777987845E-01  0.00000000000E+00 0. -1.
     999901    1    3    3    0    0  0.29447421640E-01 -0.13495753199E+00 -0.46768183355E-01  0.89200221359E+00  0.88000000000E+00 0.  1.
        -11    1    4    4    0    0 -0.35344320883E-01  0.88223962600E-01  0.39423755820E-01  0.10289403403E+00  0.51100000000E-03 0.  1.
         11    1    4    4    0    0 -0.25162525876E-02  0.24974507007E-01  0.27449942725E-02  0.25255764528E-01  0.51100000000E-03 0. -1.
</event>
<event>
 8    1  0.1099921E+005  0.1043930E+01  0.7957747E-01            NaN
         13   -1    0    0    0    0  0.00000000000E+00  0.00000000000E+00  0.74505805969E-08  0.10566000000E+00  0.10566000000E+00 0.  1.
     999900   -1    0    0    0    0 -0.00000000000E+00 -0.00000000000E+00 -0.74505805969E-08  0.93827000000E+00  0.93827000000E+00 0. -1.
     999902    2    1    2    0    0 -0.89440094394E-02  0.13198258639E-01 -0.17907671727E-01  0.10199534689E+01  0.10196716161E+01 0.  0.
     999903    2    3    3    0    0  0.12486417125E+00  0.12310261185E-01  0.21931340898E-01  0.12894697922E+00  0.20093181530E-01 0.  0.
         14    1    1    2    0    0  0.89440094394E-02 -0.13198258639E-01  0.17907671727E-01  0.23976531080E-01  0.00000000000E+00 0.  1.
     999901    1    3    3    0    0 -0.13380818069E+00  0.88799745455E-03 -0.39839012625E-01  0.89100648970E+00  0.88000000000E+00 0. -1.
        -11    1    4    4    0    0  0.42803801331E-01 -0.15975460315E-02 -0.14475349978E-03  0.42836895736E-01  0.51100000000E-03 0.  1.
         11    1    4    4    0    0  0.82060369919E-01  0.13907807216E-01  0.22076094397E-01  0.86110083484E-01  0.51100000000E-03 0. -1.
</event>
<event>
 8    1  0.1099921E+005  0.1043930E+01  0.7957747E-01            NaN
         13   -1    0    0    0    0  0.00000000000E+00  0.00000000000E+00  0.74505805969E-08  0.10566000000E+00  0.10566000000E+00 0. -1.
     999900   -1    0    0    0    0 -0.00000000000E+00 -0.00000000000E+00 -0.74505805969E-08  0.93827000000E+00  0.93827000000E+00 0. -1.
     999902    2    1    2    0    0 -0.23032737061E-02 -0.19309642252E-01 -0.12755990220E-01  0.10206731163E+01  0.10204081182E+01 0.  0.
     999903    2    3    3    0    0 -0.12799896330E+00  0.18510729393E-01 -0.35662712067E-02  0.13088986300E+00  0.19825645943E-01 0.  0.
         14    1    1    2    0    0  0.23032737061E-02  0.19309642252E-01  0.12755990220E-01  0.23256883715E-01  0.00000000000E+00 0. -1.
     999901    1    3    3    0    0  0.12569568959E+00 -0.37820371644E-01 -0.91897190128E-02  0.88978325329E+00  0.88000000000E+00 0. -1.
        -11    1    4    4    0    0 -0.35664379385E-01  0.10711252142E-02 -0.88760991894E-02  0.36771477044E-01  0.51100000000E-03 0.  1.
         11    1    4    4    0    0 -0.92334583914E-01  0.17439604178E-01  0.53098279827E-02  0.94118385955E-01  0.51100000000E-03 0. -1.
</event>
<event>
 8    1  0.1099921E+005  0.1043930E+01  0.7957747E-01            NaN
         13   -1    0    0    0    0  0.00000000000E+00  0.00000000000E+00  0.74505805969E-08  0.10566000000E+00  0.10566000000E+00 0. -1.
     999900   -1    0    0    0    0 -0.00000000000E+00 -0.00000000000E+00 -0.74505805969E-08  0.93827000000E+00  0.93827000000E+00 0.  1.
     999902    2    1    2    0    0  0.23284893936E-01  0.10514539762E-02 -0.12620994769E-02  0.10205872338E+01  0.10203202522E+01 0.  0.
     999903    2    3    3    0    0  0.10234514522E+00 -0.55747984345E-01 -0.61520747401E-01  0.13317086914E+00  0.19165372928E-01 0.  0.
         14    1    1    2    0    0 -0.23284893936E-01 -0.10514539762E-02  0.12620994769E-02  0.23342766249E-01  0.00000000000E+00 0.  1.
     999901    1    3    3    0    0 -0.79060251279E-01  0.56799438321E-01  0.60258647924E-01  0.88741636461E+00  0.88000000000E+00 0. -1.
        -11    1    4    4    0    0  0.14661447916E-01 -0.96663425762E-03 -0.83809407949E-02  0.16923171287E-01  0.51100000000E-03 0.  1.
         11    1    4    4    0    0  0.87683697299E-01 -0.54781350088E-01 -0.53139806606E-01  0.11624769786E+00  0.51100000000E-03 0. -1.
</event>
<event>
 8    1  0.1099921E+005  0.1043930E+01  0.7957747E-01            NaN
         13   -1    0    0    0    0  0.00000000000E+00  0.00000000000E+00  0.74505805969E-08  0.10566000000E+00  0.10566000000E+00 0.  1.
     999900   -1    0    0    0    0 -0.00000000000E+00 -0.00000000000E+00 -0.74505805969E-08  0.93827000000E+00  0.93827000000E+00 0. -1.
     999902    2    1    2    0    0 -0.14899034781E-02 -0.23757960758E-01  0.39712774902E-02  0.10197963812E+01  0.10195107785E+01 0.  0.
     999903    2    3    3    0    0 -0.22371056915E-01  0.12350641700E+00  0.45615590544E-02  0.12731491474E+00  0.20832197883E-01 0.  0.
         14    1    1    2    0    0  0.14899034781E-02  0.23757960758E-01 -0.39712774902E-02  0.24133618806E-01  0.00000000000E+00 0.  1.
     999901    1    3    3    0    0  0.20881153437E-01 -0.14726437775E+00 -0.59028156423E-03  0.89248146645E+00  0.88000000000E+00 0.  1.
        -11    1    4    4    0    0  0.10817830813E-02  0.40615122778E-01 -0.35477160335E-02  0.40787324783E-01  0.51100000000E-03 0. -1.
         11    1    4    4    0    0 -0.23452839996E-01  0.82891294218E-01  0.81092750879E-02  0.86527589961E-01  0.51100000000E-03 0.  1.
</event>
<event>
 8    1  0.1099921E+005  0.1043930E+01  0.7957747E-01            NaN
         13   -1    0    0    0    0  0.00000000000E+00  0.00000000000E+00  0.74505805969E-08  0.10566000000E+00  0.10566000000E+00 0.  1.
     999900   -1    0    0    0    0 -0.00000000000E+00 -0.00000000000E+00 -0.74505805969E-08  0.93827000000E+00  0.93827000000E+00 0. -1.
     999902    2    1    2    0    0  0.17687323414E-01 -0.14830211755E-01  0.62255203972E-02  0.10200232291E+01  0.10197430334E+01 0.  0.
     999903    2    3    3    0    0  0.12767843597E+00 -0.30993065479E-01  0.46169513154E-02  0.13302724818E+00  0.20312050635E-01 0.  0.
         14    1    1    2    0    0 -0.17687323414E-01  0.14830211755E-01 -0.62255203972E-02  0.23906770891E-01  0.00000000000E+00 0.  1.
     999901    1    3    3    0    0 -0.10999111255E+00  0.16162853724E-01  0.16085690818E-02  0.88699598092E+00  0.88000000000E+00 0. -1.
        -11    1    4    4    0    0  0.44900206042E-01 -0.96683946396E-02 -0.79845226649E-02  0.46621026166E-01  0.51100000000E-03 0.  1.
         11    1    4    4    0    0  0.82778229926E-01 -0.21324670840E-01  0.12601473980E-01  0.86406222019E-01  0.51100000000E-03 0. -1.
</event>
<event>
 8    1  0.1099921E+005  0.1043930E+01  0.7957747E-01            NaN
         13   -1    0    0    0    0  0.00000000000E+00  0.00000000000E+00  0.74505805969E-08  0.10566000000E+00  0.10566000000E+00 0. -1.
     999900   -1    0    0    0    0 -0.00000000000E+00 -0.00000000000E+00 -0.74505805969E-08  0.93827000000E+00  0.93827000000E+00 0. -1.
     999902    2    1    2    0    0 -0.13049498032E-01  0.19470881462E-01  0.34058338229E-02  0.10202444701E+01  0.10199694968E+01 0.  0.
     999903    2    3    3    0    0  0.87181984649E-01 -0.75560660767E-01 -0.50985016953E-01  0.12781200272E+00  0.20647619312E-01 0.  0.
         14    1    1    2    0    0  0.13049498032E-01 -0.19470881462E-01 -0.34058338229E-02  0.23685529925E-01  0.00000000000E+00 0.  1.
     999901    1    3    3    0    0 -0.10023148268E+00  0.95031542228E-01  0.54390850776E-01  0.89243246735E+00  0.88000000000E+00 0.  1.
        -11    1    4    4    0    0  0.65128897465E-01 -0.56415671660E-01 -0.27864909542E-01  0.90560563153E-01  0.51100000000E-03 0. -1.
         11    1    4    4    0    0  0.22053087183E-01 -0.19144989107E-01 -0.23120107411E-01  0.37251439568E-01  0.51100000000E-03 0.  1.
</event>
<event>
 8    1  0.1099921E+005  0.1043930E+01  0.7957747E-01            NaN
         13   -1    0    0    0    0  0.00000000000E+00  0.00000000000E+00  0.74505805969E-08  0.10566000000E+00  0.10566000000E+00 0.  1.
     999900   -1    0    0    0    0 -0.00000000000E+00 -0.00000000000E+00 -0.74505805969E-08  0.93827000000E+00  0.93827000000E+00 0.  1.
     999902    2    1    2    0    0 -0.35414035601E-02 -0.23854565776E-01  0.14626379379E-03  0.10198135483E+01  0.10195283567E+01 0.  0.
     999903    2    3    3    0    0 -0.40098785793E-02  0.81011506658E-01 -0.97596257805E-01  0.12821346246E+00  0.18295329479E-01 0.  0.
         14    1    1    2    0    0  0.35414035601E-02  0.23854565776E-01 -0.14626379379E-03  0.24116451659E-01  0.00000000000E+00 0. -1.
     999901    1    3    3    0    0  0.46847501921E-03 -0.10486607243E+00  0.97742521599E-01  0.89160008588E+00  0.88000000000E+00 0. -1.
        -11    1    4    4    0    0 -0.27266536161E-02  0.32982098246E-01 -0.26484798123E-01  0.42390554340E-01  0.51100000000E-03 0. -1.
         11    1    4    4    0    0 -0.12832249631E-02  0.48029408413E-01 -0.71111459682E-01  0.85822908119E-01  0.51100000000E-03 0.  1.
</event>
<event>
 8    1  0.1099921E+005  0.1043930E+01  0.7957747E-01            NaN
         13   -1    0    0    0    0  0.00000000000E+00  0.00000000000E+00  0.74505805969E-08  0.10566000000E+00  0.10566000000E+00 0.  1.
     999900   -1    0    0    0    0 -0.00000000000E+00 -0.00000000000E+00 -0.74505805969E-08  0.93827000000E+00  0.93827000000E+00 0.  1.
     999902    2    1    2    0    0 -0.17230173283E-01 -0.14647974875E-01 -0.64963877661E-02  0.10204003359E+01  0.10201290116E+01 0.  0.
     999903    2    3    3    0    0  0.25202628219E-01  0.12059289872E+00  0.29646186993E-01  0.12832583101E+00  0.20268271053E-01 0.  0.
         14    1    1    2    0    0  0.17230173283E-01  0.14647974875E-01  0.64963877661E-02  0.23529664113E-01  0.00000000000E+00 0.  1.
     999901    1    3    3    0    0 -0.42432801501E-01 -0.13524087359E+00 -0.36142574759E-01  0.89207450487E+00  0.88000000000E+00 0.  1.
        -11    1    4    4    0    0  0.21945150805E-01  0.56628706637E-01  0.16591532600E-01  0.62959829528E-01  0.51100000000E-03 0. -1.
         11    1    4    4    0    0  0.32574774135E-02  0.63964192083E-01  0.13054654393E-01  0.65366001486E-01  0.51100000000E-03 0.  1.
</event>
<event>
 7    1  0.1099921E+005  0.1043930E+01  0.7957747E-01            NaN
         13   -1    0    0    0    0  0.00000000000E+00  0.00000000000E+00  0.74505805969E-08  0.10566000000E+00  0.10566000000E+00 0.  1.
     999900   -1    0    0    0    0 -0.00000000000E+00 -0.00000000000E+00 -0.74505805969E-08  0.93827000000E+00  0.93827000000E+00 0. -1.
     999903    2    1    2    0    0 -0.38990570267E-01  0.85631816599E-01 -0.49492132219E-01  0.10826853068E+00  0.20482455891E-01 0.  0.
         14    1    1    2    0    0 -0.38851847426E-01  0.11756087686E-01  0.22617414476E-01  0.46467398073E-01  0.00000000000E+00 0. -1.
     999901    1    1    2    0    0  0.77842417693E-01 -0.97387904285E-01  0.26874717743E-01  0.88919407125E+00  0.88000000000E+00 0.  1.
        -11    1    3    3    0    0  0.14563450355E-03  0.14867929926E-01 -0.12093164927E-01  0.19172436169E-01  0.51100000000E-03 0. -1.
         11    1    3    3    0    0 -0.39136204771E-01  0.70763886674E-01 -0.37398967292E-01  0.89096094508E-01  0.51100000000E-03 0.  1.
</event>
<event>
 8    1  0.1099921E+005  0.1043930E+01  0.7957747E-01            NaN
         13   -1    0    0    0    0  0.00000000000E+00  0.00000000000E+00  0.74505805969E-08  0.10566000000E+00  0.10566000000E+00 0.  1.
     999900   -1    0    0    0    0 -0.00000000000E+00 -0.00000000000E+00 -0.74505805969E-08  0.93827000000E+00  0.93827000000E+00 0. -1.
     999902    2    1    2    0    0 -0.89581407698E-02 -0.61806761345E-02  0.20822953149E-01  0.10204343744E+01  0.10201638437E+01 0.  0.
     999903    2    3    3    0    0 -0.52997497603E-01 -0.86867688026E-01 -0.78990576708E-01  0.13003412758E+00  0.17737901532E-01 0.  0.
         14    1    1    2    0    0  0.89581407698E-02  0.61806761345E-02 -0.20822953149E-01  0.23495625580E-01  0.00000000000E+00 0. -1.
     999901    1    3    3    0    0  0.44039356833E-01  0.80687011891E-01  0.99813529857E-01  0.89040024684E+00  0.88000000000E+00 0.  1.
        -11    1    4    4    0    0 -0.37954641907E-01 -0.52008379445E-01 -0.57945422183E-01  0.86621933987E-01  0.51100000000E-03 0. -1.
         11    1    4    4    0    0 -0.15042855696E-01 -0.34859308580E-01 -0.21045154525E-01  0.43412193589E-01  0.51100000000E-03 0.  1.
</event>
<event>
 8    1  0.1099921E+005  0.1043930E+01  0.7957747E-01            NaN
         13   -1    0    0    0    0  0.00000000000E+00  0.00000000000E+00  0.74505805969E-08  0.10566000000E+00  0.10566000000E+00 0.  1.
     999900   -1    0    0    0    0 -0.00000000000E+00 -0.00000000000E+00 -0.74505805969E-08  0.93827000000E+00  0.93827000000E+00 0. -1.
     999902    2    1    2    0    0  0.18609549558E-01 -0.10182618029E-01 -0.98343949480E-02  0.10205480333E+01  0.10202801438E+01 0.  0.
     999903    2    3    3    0    0  0.57064715921E-01  0.78450796051E-01 -0.86861879791E-01  0.13191542338E+00  0.21113587131E-01 0.  0.
         14    1    1    2    0    0 -0.18609549558E-01  0.10182618029E-01  0.98343949480E-02  0.23381966741E-01  0.00000000000E+00 0.  1.
     999901    1    3    3    0    0 -0.38455166362E-01 -0.88633414080E-01  0.77027484843E-01  0.88863260987E+00  0.88000000000E+00 0.  1.
        -11    1    4    4    0    0  0.17253230681E-01  0.25893705609E-01 -0.15534912316E-01  0.34781497678E-01  0.51100000000E-03 0. -1.
         11    1    4    4    0    0  0.39811485240E-01  0.52557090443E-01 -0.71326967475E-01  0.97133925706E-01  0.51100000000E-03 0.  1.
</event>
<event>
 8    1  0.1099921E+005  0.1043930E+01  0.7957747E-01            NaN
         13   -1    0    0    0    0  0.00000000000E+00  0.00000000000E+00  0.74505805969E-08  0.10566000000E+00  0.10566000000E+00 0.  1.
     999900   -1    0    0    0    0 -0.00000000000E+00 -0.00000000000E+00 -0.74505805969E-08  0.93827000000E+00  0.93827000000E+00 0. -1.
     999902    2    1    2    0    0 -0.21727591942E-01  0.81538449962E-02 -0.48610066210E-02  0.10202191834E+01  0.10199436157E+01 0.  0.
     999903    2    3    3    0    0 -0.45454101660E-01 -0.11957087230E+00  0.16166453070E-01  0.13043341998E+00  0.19704161589E-01 0.  0.
         14    1    1    2    0    0  0.21727591942E-01 -0.81538449962E-02  0.48610066210E-02  0.23710816628E-01  0.00000000000E+00 0. -1.
     999901    1    3    3    0    0  0.23726509718E-01  0.12772471729E+00 -0.21027459691E-01  0.88978576339E+00  0.88000000000E+00 0.  1.
        -11    1    4    4    0    0 -0.16231348132E-01 -0.32220261574E-01  0.12721874679E-01  0.38258451804E-01  0.51100000000E-03 0.  1.
         11    1    4    4    0    0 -0.29222753528E-01 -0.87350610723E-01  0.34445783904E-02  0.92174968178E-01  0.51100000000E-03 0. -1.
</event>
<event>
 8    1  0.1099921E+005  0.1043930E+01  0.7957747E-01            NaN
         13   -1    0    0    0    0  0.00000000000E+00  0.00000000000E+00  0.74505805969E-08  0.10566000000E+00  0.10566000000E+00 0. -1.
     999900   -1    0    0    0    0 -0.00000000000E+00 -0.00000000000E+00 -0.74505805969E-08  0.93827000000E+00  0.93827000000E+00 0.  1.
     999902    2    1    2    0    0 -0.21852532018E-01 -0.10380307680E-02 -0.15103396887E-01  0.10173457328E+01  0.10169983367E+01 0.  0.
     999903    2    3    3    0    0 -0.82468338074E-01  0.62569231722E-01 -0.76836031005E-01  0.13081819355E+00  0.22219103496E-01 0.  0.
         14    1    1    2    0    0  0.21852532018E-01  0.10380307680E-02  0.15103396887E-01  0.26584267170E-01  0.00000000000E+00 0. -1.
     999901    1    3    3    0    0  0.60615806057E-01 -0.63607262490E-01  0.61732634118E-01  0.88652753928E+00  0.88000000000E+00 0. -1.
        -11    1    4    4    0    0 -0.70009014910E-01  0.58334527674E-01 -0.58673356830E-01  0.10838359290E+00  0.51100000000E-03 0. -1.
         11    1    4    4    0    0 -0.12459323164E-01  0.42347040487E-02 -0.18162674175E-01  0.22434600648E-01  0.51100000000E-03 0.  1.
</event>
<event>
 8    1  0.1099921E+005  0.1043930E+01  0.7957747E-01            NaN
         13   -1    0    0    0    0  0.00000000000E+00  0.00000000000E+00  0.74505805969E-08  0.10566000000E+00  0.10566000000E+00 0.  1.
     999900   -1    0    0    0    0 -0.00000000000E+00 -0.00000000000E+00 -0.74505805969E-08  0.93827000000E+00  0.93827000000E+00 0. -1.
     999902    2    1    2    0    0  0.28797073652E-02 -0.76165504704E-02  0.24744420314E-01  0.10178802228E+01  0.10175468329E+01 0.  0.
     999903    2    3    3    0    0 -0.24078796759E-01 -0.94159726752E-01 -0.79404661043E-01  0.12711453338E+00  0.20178250780E-01 0.  0.
         14    1    1    2    0    0 -0.28797073652E-02  0.76165504704E-02 -0.24744420314E-01  0.26049777201E-01  0.00000000000E+00 0. -1.
     999901    1    3    3    0    0  0.26958504125E-01  0.86543176282E-01  0.10414908136E+00  0.89076568942E+00  0.88000000000E+00 0.  1.
        -11    1    4    4    0    0 -0.16323751056E-01 -0.69967804072E-01 -0.46671172706E-01  0.85676239051E-01  0.51100000000E-03 0.  1.
         11    1    4    4    0    0 -0.77550457032E-02 -0.24191922681E-01 -0.32733488337E-01  0.41438294325E-01  0.51100000000E-03 0. -1.
</event>
<event>
 8    1  0.1099921E+005  0.1043930E+01  0.7957747E-01            NaN
         13   -1    0    0    0    0  0.00000000000E+00  0.00000000000E+00  0.74505805969E-08  0.10566000000E+00  0.10566000000E+00 0.  1.
     999900   -1    0    0    0    0 -0.00000000000E+00 -0.00000000000E+00 -0.74505805969E-08  0.93827000000E+00  0.93827000000E+00 0.  1.
     999902    2    1    2    0    0 -0.15646146957E-01 -0.78181177527E-02  0.16768854091E-01  0.10196994543E+01  0.10194115252E+01 0.  0.
     999903    2    3    3    0    0  0.11341918818E+00  0.47015487296E-01  0.32542835624E-01  0.12845683663E+00  0.19176924511E-01 0.  0.
         14    1    1    2    0    0  0.15646146957E-01  0.78181177527E-02 -0.16768854091E-01  0.24230545749E-01  0.00000000000E+00 0.  1.
     999901    1    3    3    0    0 -0.12906533513E+00 -0.54833605049E-01 -0.15773981534E-01  0.89124261762E+00  0.88000000000E+00 0. -1.
        -11    1    4    4    0    0  0.73844616348E-01  0.29764569792E-01  0.30413496286E-01  0.85230269598E-01  0.51100000000E-03 0.  1.
         11    1    4    4    0    0  0.39574571827E-01  0.17250917504E-01  0.21293393384E-02  0.43226567029E-01  0.51100000000E-03 0. -1.
</event>
<event>
 8    1  0.1099921E+005  0.1043930E+01  0.7957747E-01            NaN
         13   -1    0    0    0    0  0.00000000000E+00  0.00000000000E+00  0.74505805969E-08  0.10566000000E+00  0.10566000000E+00 0. -1.
     999900   -1    0    0    0    0 -0.00000000000E+00 -0.00000000000E+00 -0.74505805969E-08  0.93827000000E+00  0.93827000000E+00 0.  1.
     999902    2    1    2    0    0  0.12114686619E-01 -0.11401954849E-01 -0.17043339781E-01  0.10201130809E+01  0.10198350122E+01 0.  0.
     999903    2    3    3    0    0 -0.52083191398E-01 -0.12334753096E-01 -0.11892042544E+00  0.13191198976E+00  0.19846926597E-01 0.  0.
         14    1    1    2    0    0 -0.12114686619E-01  0.11401954849E-01  0.17043339781E-01  0.23816919136E-01  0.00000000000E+00 0. -1.
     999901    1    3    3    0    0  0.64197878017E-01  0.93279824664E-03  0.10187708566E+00  0.88820109110E+00  0.88000000000E+00 0. -1.
        -11    1    4    4    0    0 -0.23755213085E-01  0.42667152366E-02 -0.46444106758E-01  0.52343396730E-01  0.51100000000E-03 0. -1.
         11    1    4    4    0    0 -0.28327978313E-01 -0.16601468332E-01 -0.72476318683E-01  0.79568593031E-01  0.51100000000E-03 0.  1.
</event>
<event>
 8    1  0.1099921E+005  0.1043930E+01  0.7957747E-01            NaN
         13   -1    0    0    0    0  0.00000000000E+00  0.00000000000E+00  0.74505805969E-08  0.10566000000E+00  0.10566000000E+00 0.  1.
     999900   -1    0    0    0    0 -0.00000000000E+00 -0.00000000000E+00 -0.74505805969E-08  0.93827000000E+00  0.93827000000E+00 0.  1.
     999902    2    1    2    0    0  0.78784162026E-02  0.15938489860E-01  0.13403296810E-01  0.10216644826E+01  0.10214218334E+01 0.  0.
     999903    2    3    3    0    0 -0.85624183626E-01 -0.62132504708E-01  0.75110439899E-01  0.13113341188E+00  0.19037976938E-01 0.  0.
         14    1    1    2    0    0 -0.78784162026E-02 -0.15938489860E-01 -0.13403296810E-01  0.22265517426E-01  0.00000000000E+00 0. -1.
     999901    1    3    3    0    0  0.93502599828E-01  0.78070994568E-01 -0.61707143089E-01  0.89053107070E+00  0.88000000000E+00 0. -1.
        -11    1    4    4    0    0 -0.82581448147E-01 -0.57769744150E-01  0.65685678492E-01  0.12029924521E+00  0.51100000000E-03 0. -1.
         11    1    4    4    0    0 -0.30427354785E-02 -0.43627605582E-02  0.94247614066E-02  0.10834166671E-01  0.51100000000E-03 0.  1.
</event>
<event>
 8    1  0.1099921E+005  0.1043930E+01  0.7957747E-01            NaN
         13   -1    0    0    0    0  0.00000000000E+00  0.00000000000E+00  0.74505805969E-08  0.10566000000E+00  0.10566000000E+00 0. -1.
     999900   -1    0    0    0    0 -0.00000000000E+00 -0.00000000000E+00 -0.74505805969E-08  0.93827000000E+00  0.93827000000E+00 0.  1.
     999902    2    1    2    0    0 -0.17326673420E-01  0.50547906546E-02  0.77381341444E-02  0.10242921987E+01  0.10241039327E+01 0.  0.
     999903    2    3    3    0    0 -0.84273716103E-01  0.10225934355E+00 -0.22596183551E-01  0.13589431347E+00  0.19941021880E-01 0.  0.
         14    1    1    2    0    0  0.17326673420E-01 -0.50547906546E-02 -0.77381341444E-02  0.19637801313E-01  0.00000000000E+00 0. -1.
     999901    1    3    3    0    0  0.66947042683E-01 -0.97204552894E-01  0.30334317695E-01  0.88839788522E+00  0.88000000000E+00 0. -1.
        -11    1    4    4    0    0 -0.70632910790E-01  0.94236526292E-01 -0.16466121217E-01  0.11891562237E+00  0.51100000000E-03 0. -1.
         11    1    4    4    0    0 -0.13640805313E-01  0.80228172569E-02 -0.61300623335E-02  0.16978691102E-01  0.51100000000E-03 0.  1.
</event>
<event>
 8    1  0.1099921E+005  0.1043930E+01  0.7957747E-01            NaN
         13   -1    0    0    0    0  0.00000000000E+00  0.00000000000E+00  0.74505805969E-08  0.10566000000E+00  0.10566000000E+00 0.  1.
     999900   -1    0    0    0    0 -0.00000000000E+00 -0.00000000000E+00 -0.74505805969E-08  0.93827000000E+00  0.93827000000E+00 0. -1.
     999902    2    1    2    0    0  0.97695936560E-02 -0.20870841458E-01  0.64706001354E-02  0.10199945524E+01  0.10197136762E+01 0.  0.
     999903    2    3    3    0    0  0.78234027282E-01 -0.10364991769E+00 -0.21511028503E-01  0.13302063757E+00  0.19180646786E-01 0.  0.
         14    1    1    2    0    0 -0.97695936560E-02  0.20870841458E-01 -0.64706001354E-02  0.23935447551E-01  0.00000000000E+00 0. -1.
     999901    1    3    3    0    0 -0.68464433626E-01  0.82779076230E-01  0.27981628639E-01  0.88697391488E+00  0.88000000000E+00 0. -1.
        -11    1    4    4    0    0  0.10274524621E-01 -0.21297484309E-01 -0.98168098547E-02  0.25608193431E-01  0.51100000000E-03 0.  1.
         11    1    4    4    0    0  0.67959502661E-01 -0.82352433378E-01 -0.11694218648E-01  0.10741244414E+00  0.51100000000E-03 0. -1.
</event>
<event>
 8    1  0.1099921E+005  0.1043930E+01  0.7957747E-01            NaN
         13   -1    0    0    0    0  0.00000000000E+00  0.00000000000E+00  0.74505805969E-08  0.10566000000E+00  0.10566000000E+00 0.  1.
     999900   -1    0    0    0    0 -0.00000000000E+00 -0.00000000000E+00 -0.74505805969E-08  0.93827000000E+00  0.93827000000E+00 0. -1.
     999902    2    1    2    0    0  0.94195060160E-02 -0.88353089714E-02  0.83993116137E-02  0.10285242149E+01  0.10284088304E+01 0.  0.
     999903    2    3    3    0    0 -0.89711336943E-02  0.12631367155E+00  0.48361241327E-01  0.13712059232E+00  0.20679030783E-01 0.  0.
         14    1    1    2    0    0 -0.94195060160E-02  0.88353089714E-02 -0.83993116137E-02  0.15405785075E-01  0.00000000000E+00 0. -1.
     999901    1    3    3    0    0  0.18390639710E-01 -0.13514898053E+00 -0.39961929713E-01  0.89140362260E+00  0.88000000000E+00 0. -1.
        -11    1    4    4    0    0  0.30709759152E-02  0.83789122410E-01  0.27467679584E-01  0.88231414304E-01  0.51100000000E-03 0.  1.
         11    1    4    4    0    0 -0.12042109610E-01  0.42524549144E-01  0.20893561743E-01  0.48889178016E-01  0.51100000000E-03 0. -1.
</event>
<event>
 8    1  0.1099921E+005  0.1043930E+01  0.7957747E-01            NaN
         13   -1    0    0    0    0  0.00000000000E+00  0.00000000000E+00  0.74505805969E-08  0.10566000000E+00  0.10566000000E+00 0. -1.
     999900   -1    0    0    0    0 -0.00000000000E+00 -0.00000000000E+00 -0.74505805969E-08  0.93827000000E+00  0.93827000000E+00 0.  1.
     999902    2    1    2    0    0  0.19144821070E-01  0.91427571159E-02 -0.12757490263E-01  0.10191738343E+01  0.10188731211E+01 0.  0.
     999903    2    3    3    0    0  0.66775265606E-01  0.42262238362E-01 -0.10445751988E+00  0.13250904156E+00  0.20055915494E-01 0.  0.
         14    1    1    2    0    0 -0.19144821070E-01 -0.91427571159E-02  0.12757490263E-01  0.24756165683E-01  0.00000000000E+00 0. -1.
     999901    1    3    3    0    0 -0.47630444536E-01 -0.33119481246E-01  0.91700029622E-01  0.88666479276E+00  0.88000000000E+00 0. -1.
        -11    1    4    4    0    0  0.51132671982E-01  0.30220164449E-01 -0.90787647010E-01  0.10849178058E+00  0.51100000000E-03 0.  1.
         11    1    4    4    0    0  0.15642593624E-01  0.12042073913E-01 -0.13669872875E-01  0.24017260976E-01  0.51100000000E-03 0. -1.
</event>
<event>
 8    1  0.1099921E+005  0.1043930E+01  0.7957747E-01            NaN
         13   -1    0    0    0    0  0.00000000000E+00  0.00000000000E+00  0.74505805969E-08  0.10566000000E+00  0.10566000000E+00 0.  1.
     999900   -1    0    0    0    0 -0.00000000000E+00 -0.00000000000E+00 -0.74505805969E-08  0.93827000000E+00  0.93827000000E+00 0.  1.
     999902    2    1    2    0    0  0.12921967874E-01  0.28777874488E-02  0.19552289430E-01  0.10203174835E+01  0.10200442227E+01 0.  0.
     999903    2    3    3    0    0  0.45387545735E-01 -0.84234929410E-01  0.89537984815E-01  0.13265728006E+00  0.20624029363E-01 0.  0.
         14    1    1    2    0    0 -0.12921967874E-01 -0.28777874488E-02 -0.19552289430E-01  0.23612516518E-01  0.00000000000E+00 0. -1.
     999901    1    3    3    0    0 -0.32465577861E-01  0.87112716859E-01 -0.69985695385E-01  0.88766020342E+00  0.88000000000E+00 0.  1.
        -11    1    4    4    0    0  0.45347304891E-02 -0.61962069573E-02  0.16585112448E-01  0.18283430673E-01  0.51100000000E-03 0.  1.
         11    1    4    4    0    0  0.40852815246E-01 -0.78038722453E-01  0.72952872367E-01  0.11437384938E+00  0.51100000000E-03 0. -1.
</event>
<event>
 8    1  0.1099921E+005  0.1043930E+01  0.7957747E-01            NaN
         13   -1    0    0    0    0  0.00000000000E+00  0.00000000000E+00  0.74505805969E-08  0.10566000000E+00  0.10566000000E+00 0. -1.
     999900   -1    0    0    0    0 -0.00000000000E+00 -0.00000000000E+00 -0.74505805969E-08  0.93827000000E+00  0.93827000000E+00 0. -1.
     999902    2    1    2    0    0 -0.13285847317E-01 -0.58784751602E-02 -0.18935280136E-01  0.10200633906E+01  0.10197841467E+01 0.  0.
     999903    2    3    3    0    0 -0.48372247145E-01 -0.70740623774E-01  0.95221000480E-01  0.12963101802E+00  0.19825532919E-01 0.  0.
         14    1    1    2    0    0  0.13285847317E-01  0.58784751602E-02  0.18935280136E-01  0.23866609373E-01  0.00000000000E+00 0. -1.
     999901    1    3    3    0    0  0.35086399828E-01  0.64862148614E-01 -0.11415628062E+00  0.89043237260E+00  0.88000000000E+00 0. -1.
        -11    1    4    4    0    0 -0.21995408920E-01 -0.43001029090E-01  0.64298358214E-01  0.80420311529E-01  0.51100000000E-03 0.  1.
         11    1    4    4    0    0 -0.26376838225E-01 -0.27739594684E-01  0.30922642266E-01  0.49210706495E-01  0.51100000000E-03 0. -1.
</event>
<event>
 8    1  0.1099921E+005  0.1043930E+01  0.7957747E-01            NaN
         13   -1    0    0    0    0  0.00000000000E+00  0.00000000000E+00  0.74505805969E-08  0.10566000000E+00  0.10566000000E+00 0. -1.
     999900   -1    0    0    0    0 -0.00000000000E+00 -0.00000000000E+00 -0.74505805969E-08  0.93827000000E+00  0.93827000000E+00 0. -1.
     999902    2    1    2    0    0  0.63702956275E-02 -0.17393265962E-01 -0.14592113176E-01  0.10203495816E+01  0.10200770718E+01 0.  0.
     999903    2    3    3    0    0  0.15643227735E-01 -0.12086699480E+00 -0.49807182297E-01  0.13353906012E+00  0.22324519314E-01 0.  0.
         14    1    1    2    0    0 -0.63702956275E-02  0.17393265962E-01  0.14592113176E-01  0.23580418447E-01  0.00000000000E+00 0. -1.
     999901    1    3    3    0    0 -0.92729321070E-02  0.10347372884E+00  0.35215069122E-01  0.88681052143E+00  0.88000000000E+00 0. -1.
        -11    1    4    4    0    0 -0.21849379603E-02 -0.41183275022E-01 -0.24862579948E-01  0.48158541279E-01  0.51100000000E-03 0.  1.
         11    1    4    4    0    0  0.17828165695E-01 -0.79683719781E-01 -0.24944602349E-01  0.85380518841E-01  0.51100000000E-03 0. -1.
</event>
<event>
 8    1  0.1099921E+005  0.1043930E+01  0.7957747E-01            NaN
         13   -1    0    0    0    0  0.00000000000E+00  0.00000000000E+00  0.74505805969E-08  0.10566000000E+00  0.10566000000E+00 0.  1.
     999900   -1    0    0    0    0 -0.00000000000E+00 -0.00000000000E+00 -0.74505805969E-08  0.93827000000E+00  0.93827000000E+00 0. -1.
     999902    2    1    2    0    0 -0.40603416668E-02 -0.49336271121E-02  0.23523857701E-01  0.10195538040E+01  0.10192623609E+01 0.  0.
     999903    2    3    3    0    0 -0.94137119836E-01 -0.78569430093E-01 -0.37568267062E-01  0.12979636223E+00  0.20019197863E-01 0.  0.
         14    1    1    2    0    0  0.40603416668E-02  0.49336271121E-02 -0.23523857701E-01  0.24376196013E-01  0.00000000000E+00 0. -1.
     999901    1    3    3    0    0  0.90076778169E-01  0.73635802981E-01  0.61092124763E-01  0.88975744175E+00  0.88000000000E+00 0.  1.
        -11    1    4    4    0    0 -0.69664578018E-01 -0.50669957774E-01 -0.18660187598E-01  0.88142281417E-01  0.51100000000E-03 0.  1.
         11    1    4    4    0    0 -0.24472541818E-01 -0.27899472319E-01 -0.18908079464E-01  0.41654080817E-01  0.51100000000E-03 0. -1.
</event>
<event>
 8    1  0.1099921E+005  0.1043930E+01  0.7957747E-01            NaN
         13   -1    0    0    0    0  0.00000000000E+00  0.00000000000E+00  0.74505805969E-08  0.10566000000E+00  0.10566000000E+00 0.  1.
     999900   -1    0    0    0    0 -0.00000000000E+00 -0.00000000000E+00 -0.74505805969E-08  0.93827000000E+00  0.93827000000E+00 0. -1.
     999902    2    1    2    0    0 -0.17105425249E-01 -0.13646193221E-01 -0.75091969228E-02  0.10207955624E+01  0.10205333792E+01 0.  0.
     999903    2    3    3    0    0  0.79193542870E-01 -0.95425652333E-01 -0.37665891470E-01  0.13126152857E+00  0.20813388675E-01 0.  0.
         14    1    1    2    0    0  0.17105425249E-01  0.13646193221E-01  0.75091969228E-02  0.23134437551E-01  0.00000000000E+00 0.  1.
     999901    1    3    3    0    0 -0.96298968119E-01  0.81779459111E-01  0.30156694547E-01  0.88953403387E+00  0.88000000000E+00 0.  1.
        -11    1    4    4    0    0  0.18856090742E-01 -0.10579907420E-01 -0.65306758655E-02  0.22591977500E-01  0.51100000000E-03 0.  1.
         11    1    4    4    0    0  0.60337452128E-01 -0.84845744913E-01 -0.31135215604E-01  0.10866955108E+00  0.51100000000E-03 0. -1.
</event>
<event>
 8    1  0.1099921E+005  0.1043930E+01  0.7957747E-01            NaN
         13   -1    0    0    0    0  0.00000000000E+00  0.00000000000E+00  0.74505805969E-08  0.10566000000E+00  0.10566000000E+00 0. -1.
     999900   -1    0    0    0    0 -0.00000000000E+00 -0.00000000000E+00 -0.74505805969E-08  0.93827000000E+00  0.93827000000E+00 0. -1.
     999902    2    1    2    0    0  0.20896374818E-01 -0.91022630215E-03 -0.11462294035E-01  0.10200789795E+01  0.10198001046E+01 0.  0.
     999903    2    3    3    0    0 -0.55053642762E-01 -0.11475374604E+00  0.10627288463E-01  0.12922730737E+00  0.19683289814E-01 0.  0.
         14    1    1    2    0    0 -0.20896374818E-01  0.91022630215E-03  0.11462294035E-01  0.23851020460E-01  0.00000000000E+00 0. -1.
     999901    1    3    3    0    0  0.75950017580E-01  0.11384351974E+00 -0.22089582497E-01  0.89085167217E+00  0.88000000000E+00 0. -1.
        -11    1    4    4    0    0 -0.87378263027E-02 -0.38597512988E-01  0.53227497893E-02  0.39933825308E-01  0.51100000000E-03 0. -1.
         11    1    4    4    0    0 -0.46315816459E-01 -0.76156233052E-01  0.53045386733E-02  0.89293482060E-01  0.51100000000E-03 0.  1.
</event>
<event>
 8    1  0.1099921E+005  0.1043930E+01  0.7957747E-01            NaN
         13   -1    0    0    0    0  0.00000000000E+00  0.00000000000E+00  0.74505805969E-08  0.10566000000E+00  0.10566000000E+00 0. -1.
     999900   -1    0    0    0    0 -0.00000000000E+00 -0.00000000000E+00 -0.74505805969E-08  0.93827000000E+00  0.93827000000E+00 0.  1.
     999902    2    1    2    0    0 -0.22012129792E-01 -0.61158701423E-02  0.74991344791E-02  0.10198847355E+01  0.10196012451E+01 0.  0.
     999903    2    3    3    0    0 -0.72496077078E-02 -0.85665241969E-01  0.98220456222E-01  0.13152872984E+00  0.16169671007E-01 0.  0.
         14    1    1    2    0    0  0.22012129792E-01  0.61158701423E-02 -0.74991344791E-02  0.24045264472E-01  0.00000000000E+00 0. -1.
     999901    1    3    3    0    0 -0.14762522084E-01  0.79549371826E-01 -0.90721321743E-01  0.88835600568E+00  0.88000000000E+00 0.  1.
        -11    1    4    4    0    0 -0.96507935065E-02 -0.56644663935E-01  0.55997833491E-01  0.80235741689E-01  0.51100000000E-03 0. -1.
         11    1    4    4    0    0  0.24011857987E-02 -0.29020578034E-01  0.42222622731E-01  0.51292988155E-01  0.51100000000E-03 0.  1.
</event>
<event>
 8    1  0.1099921E+005  0.1043930E+01  0.7957747E-01            NaN
         13   -1    0    0    0    0  0.00000000000E+00  0.00000000000E+00  0.74505805969E-08  0.10566000000E+00  0.10566000000E+00 0.  1.
     999900   -1    0    0    0    0 -0.00000000000E+00 -0.00000000000E+00 -0.74505805969E-08  0.93827000000E+00  0.93827000000E+00 0.  1.
     999902    2    1    2    0    0 -0.68920448196E-02  0.37072190332E-02 -0.21236401702E-01  0.10212975341E+01  0.10210467299E+01 0.  0.
     999903    2    3    3    0    0 -0.12236706223E-01  0.35935653764E-01  0.12176245144E+00  0.12915634046E+00  0.20350860173E-01 0.  0.
         14    1    1    2    0    0  0.68920448196E-02 -0.37072190332E-02  0.21236401702E-01  0.22632465884E-01  0.00000000000E+00 0.  1.
     999901    1    3    3    0    0  0.53446614035E-02 -0.32228434731E-01 -0.14299885315E+00  0.89214119365E+00  0.88000000000E+00 0.  1.
        -11    1    4    4    0    0 -0.16254217505E-01  0.23881707004E-01  0.67498483928E-01  0.73422353338E-01  0.51100000000E-03 0.  1.
         11    1    4    4    0    0  0.40175112818E-02  0.12053946760E-01  0.54263967516E-01  0.55733987126E-01  0.51100000000E-03 0. -1.
</event>
<event>
 8    1  0.1099921E+005  0.1043930E+01  0.7957747E-01            NaN
         13   -1    0    0    0    0  0.00000000000E+00  0.00000000000E+00  0.74505805969E-08  0.10566000000E+00  0.10566000000E+00 0. -1.
     999900   -1    0    0    0    0 -0.00000000000E+00 -0.00000000000E+00 -0.74505805969E-08  0.93827000000E+00  0.93827000000E+00 0. -1.
     999902    2    1    2    0    0 -0.13072182985E-01 -0.50855180111E-02  0.22754820122E-01  0.10171993752E+01  0.10168480922E+01 0.  0.
     999903    2    3    3    0    0 -0.20376306974E-01 -0.40166417117E-01  0.12126925038E+00  0.13097755612E+00  0.20502540588E-01 0.  0.
         14    1    1    2    0    0  0.13072182985E-01  0.50855180111E-02 -0.22754820122E-01  0.26730624763E-01  0.00000000000E+00 0.  1.
     999901    1    3    3    0    0  0.73041239891E-02  0.35080899106E-01 -0.98514430255E-01  0.88622181912E+00  0.88000000000E+00 0. -1.
        -11    1    4    4    0    0 -0.17231306788E-01 -0.27590295659E-01  0.10630883129E+00  0.11117540681E+00  0.51100000000E-03 0. -1.
         11    1    4    4    0    0 -0.31450001861E-02 -0.12576121458E-01  0.14960419090E-01  0.19802149314E-01  0.51100000000E-03 0.  1.
</event>
<event>
 8    1  0.1099921E+005  0.1043930E+01  0.7957747E-01            NaN
         13   -1    0    0    0    0  0.00000000000E+00  0.00000000000E+00  0.74505805969E-08  0.10566000000E+00  0.10566000000E+00 0. -1.
     999900   -1    0    0    0    0 -0.00000000000E+00 -0.00000000000E+00 -0.74505805969E-08  0.93827000000E+00  0.93827000000E+00 0. -1.
     999902    2    1    2    0    0 -0.57075257567E-02 -0.15479788143E-01  0.17965226326E-01  0.10195384226E+01  0.10192466071E+01 0.  0.
     999903    2    3    3    0    0  0.10788461730E+00 -0.68726737209E-01  0.18044920868E-01  0.13064111756E+00  0.19468625287E-01 0.  0.
         14    1    1    2    0    0  0.57075257567E-02  0.15479788143E-01 -0.17965226326E-01  0.24391577402E-01  0.00000000000E+00 0.  1.
     999901    1    3    3    0    0 -0.11359214306E+00  0.53246949066E-01 -0.79694542095E-04  0.88889730504E+00  0.88000000000E+00 0. -1.
        -11    1    4    4    0    0  0.91405425505E-01 -0.65825178208E-01  0.16153302415E-01  0.11379409562E+00  0.51100000000E-03 0. -1.
         11    1    4    4    0    0  0.16479191799E-01 -0.29015590009E-02  0.18916184534E-02  0.16847021943E-01  0.51100000000E-03 0.  1.
</event>
<event>
 7    1  0.1099921E+005  0.1043930E+01  0.7957747E-01            NaN
         13   -1    0    0    0    0  0.00000000000E+00  0.00000000000E+00  0.74505805969E-08  0.10566000000E+00  0.10566000000E+00 0. -1.
     999900   -1    0    0    0    0 -0.00000000000E+00 -0.00000000000E+00 -0.74505805969E-08  0.93827000000E+00  0.93827000000E+00 0. -1.
     999902    2    1    2    0    0 -0.23595501789E-01 -0.27095709995E-02 -0.15138623809E-02  0.10201312341E+01  0.10198535942E+01 0.  0.
         14    1    1    2    0    0  0.23595501789E-01  0.27095709995E-02  0.15138623809E-02  0.23798765913E-01  0.00000000000E+00 0.  1.
     999901    1    3    3    0    0  0.30006944113E-01  0.59127454660E-01 -0.94991806661E-01  0.88759220136E+00  0.88000000000E+00 0. -1.
        -11    1    3    3    0    0 -0.43694492281E-02 -0.34232512313E-01  0.20024767945E-01  0.39902499146E-01  0.51100000000E-03 0.  1.
         11    1    3    3    0    0 -0.49232996674E-01 -0.27604513346E-01  0.73453176334E-01  0.92636533577E-01  0.51100000000E-03 0. -1.
</event>
<event>
 8    1  0.1099921E+005  0.1043930E+01  0.7957747E-01            NaN
         13   -1    0    0    0    0  0.00000000000E+00  0.00000000000E+00  0.74505805969E-08  0.10566000000E+00  0.10566000000E+00 0.  1.
     999900   -1    0    0    0    0 -0.00000000000E+00 -0.00000000000E+00 -0.74505805969E-08  0.93827000000E+00  0.93827000000E+00 0. -1.
     999902    2    1    2    0    0 -0.12392016724E-01 -0.15043956552E-01  0.13746394007E-01  0.10200795062E+01  0.10198006437E+01 0.  0.
     999903    2    3    3    0    0 -0.63223317038E-01  0.10949760010E-01 -0.11064374407E+00  0.12949969457E+00  0.20274312103E-01 0.  0.
         14    1    1    2    0    0  0.12392016724E-01  0.15043956552E-01 -0.13746394007E-01  0.23850493819E-01  0.00000000000E+00 0.  1.
     999901    1    3    3    0    0  0.50831300314E-01 -0.25993716562E-01  0.12439013808E+00  0.89057981161E+00  0.88000000000E+00 0.  1.
        -11    1    4    4    0    0 -0.36425211305E-01  0.22022354011E-02 -0.79577097873E-01  0.87546681755E-01  0.51100000000E-03 0. -1.
         11    1    4    4    0    0 -0.26798105732E-01  0.87475246093E-02 -0.31066646198E-01  0.41953012819E-01  0.51100000000E-03 0.  1.
</event>
<event>
 8    1  0.1099921E+005  0.1043930E+01  0.7957747E-01            NaN
         13   -1    0    0    0    0  0.00000000000E+00  0.00000000000E+00  0.74505805969E-08  0.10566000000E+00  0.10566000000E+00 0.  1.
     999900   -1    0    0    0    0 -0.00000000000E+00 -0.00000000000E+00 -0.74505805969E-08  0.93827000000E+00  0.93827000000E+00 0. -1.
     999902    2    1    2    0    0  0.33336974899E-02  0.20144616958E-01 -0.12325043028E-01  0.10200799305E+01  0.10198010780E+01 0.  0.
     999903    2    3    3    0    0 -0.56259033948E-01 -0.56371180276E-01  0.98098956313E-01  0.12789193430E+00  0.19752284992E-01 0.  0.
         14    1    1    2    0    0 -0.33336974899E-02 -0.20144616958E-01  0.12325043028E-01  0.23850069539E-01  0.00000000000E+00 0.  1.
     999901    1    3    3    0    0  0.59592731438E-01  0.76515797234E-01 -0.11042399934E+00  0.89218799616E+00  0.88000000000E+00 0.  1.
        -11    1    4    4    0    0 -0.44187974357E-01 -0.42755593239E-01  0.61237428824E-01  0.86780767691E-01  0.51100000000E-03 0.  1.
         11    1    4    4    0    0 -0.12071059591E-01 -0.13615587036E-01  0.36861527490E-01  0.41111166608E-01  0.51100000000E-03 0. -1.
</event>
<event>
 8    1  0.1099921E+005  0.1043930E+01  0.7957747E-01            NaN
         13   -1    0    0    0    0  0.00000000000E+00  0.00000000000E+00  0.74505805969E-08  0.10566000000E+00  0.10566000000E+00 0. -1.
     999900   -1    0    0    0    0 -0.00000000000E+00 -0.00000000000E+00 -0.74505805969E-08  0.93827000000E+00  0.93827000000E+00 0. -1.
     999902    2    1    2    0    0  0.19152354048E-01  0.13431495665E-01 -0.33964779310E-02  0.10202920262E+01  0.10200181690E+01 0.  0.
     999903    2    3    3    0    0  0.50210437962E-01  0.12114604124E+00  0.14993746744E-01  0.13298980700E+00  0.16248844117E-01 0.  0.
         14    1    1    2    0    0 -0.19152354048E-01 -0.13431495665E-01  0.33964779310E-02  0.23637973765E-01  0.00000000000E+00 0. -1.
     999901    1    3    3    0    0 -0.31058083914E-01 -0.10771454557E+00 -0.18390224675E-01  0.88730221924E+00  0.88000000000E+00 0.  1.
        -11    1    4    4    0    0  0.58977050216E-02  0.31735319269E-01  0.18273944320E-02  0.32334407449E-01  0.51100000000E-03 0.  1.
         11    1    4    4    0    0  0.44312732941E-01  0.89410721969E-01  0.13166352312E-01  0.10065539955E+00  0.51100000000E-03 0. -1.
</event>
<event>
 8    1  0.1099921E+005  0.1043930E+01  0.7957747E-01            NaN
         13   -1    0    0    0    0  0.00000000000E+00  0.00000000000E+00  0.74505805969E-08  0.10566000000E+00  0.10566000000E+00 0. -1.
     999900   -1    0    0    0    0 -0.00000000000E+00 -0.00000000000E+00 -0.74505805969E-08  0.93827000000E+00  0.93827000000E+00 0.  1.
     999902    2    1    2    0    0  0.11030285102E-01  0.13936890760E-01 -0.15970801219E-01  0.10200350088E+01  0.10197550924E+01 0.  0.
     999903    2    3    3    0    0  0.65419139175E-01 -0.32443017401E-01 -0.10869213560E+00  0.13228138915E+00  0.18766257639E-01 0.  0.
         14    1    1    2    0    0 -0.11030285102E-01 -0.13936890760E-01  0.15970801219E-01  0.23894991213E-01  0.00000000000E+00 0.  1.
     999901    1    3    3    0    0 -0.54388854073E-01  0.46379908161E-01  0.92721334381E-01  0.88775361964E+00  0.88000000000E+00 0. -1.
        -11    1    4    4    0    0  0.40595687106E-01 -0.29930391413E-01 -0.72883284529E-01  0.88634487794E-01  0.51100000000E-03 0. -1.
         11    1    4    4    0    0  0.24823452070E-01 -0.25126259876E-02 -0.35808851071E-01  0.43646901357E-01  0.51100000000E-03 0.  1.
</event>
<event>
 8    1  0.1099921E+005  0.1043930E+01  0.7957747E-01            NaN
         13   -1    0    0    0    0  0.00000000000E+00  0.00000000000E+00  0.74505805969E-08  0.10566000000E+00  0.10566000000E+00 0.  1.
     999900   -1    0    0    0    0 -0.00000000000E+00 -0.00000000000E+00 -0.74505805969E-08  0.93827000000E+00  0.93827000000E+00 0.  1.
     999902    2    1    2    0    0  0.11636851335E-01  0.20165476129E-01  0.71339426270E-02  0.10195793147E+01  0.10192884887E+01 0.  0.
     999903    2    3    3    0    0 -0.34262542081E-01 -0.12072015742E+00  0.69637462402E-02  0.12719176156E+00  0.19544110364E-01 0.  0.
         14    1    1    2    0    0 -0.11636851335E-01 -0.20165476129E-01 -0.71339426270E-02  0.24350685286E-01  0.00000000000E+00 0. -1.
     999901    1    3    3    0    0  0.45899393416E-01  0.14088563355E+00  0.17019638680E-03  0.89238755315E+00  0.88000000000E+00 0. -1.
        -11    1    4    4    0    0 -0.14471025769E-01 -0.79851061947E-01  0.95088259598E-02  0.81708515915E-01  0.51100000000E-03 0.  1.
         11    1    4    4    0    0 -0.19791516313E-01 -0.40869095472E-01 -0.25450797196E-02  0.45483245646E-01  0.51100000000E-03 0. -1.
</event>
<event>
 8    1  0.1099921E+005  0.1043930E+01  0.7957747E-01            NaN
         13   -1    0    0    0    0  0.00000000000E+00  0.00000000000E+00  0.74505805969E-08  0.10566000000E+00  0.10566000000E+00 0. -1.
     999900   -1    0    0    0    0 -0.00000000000E+00 -0.00000000000E+00 -0.74505805969E-08  0.93827000000E+00  0.93827000000E+00 0. -1.
     999902    2    1    2    0    0 -0.22670320980E-01  0.26016808382E-02 -0.75728043427E-02  0.10198871307E+01  0.10196036975E+01 0.  0.
     999903    2    3    3    0    0 -0.53538101248E-01 -0.76761727515E-01 -0.90884659913E-01  0.13185997140E+00  0.19192174309E-01 0.  0.
         14    1    1    2    0    0  0.22670320980E-01 -0.26016808382E-02  0.75728043427E-02  0.24042869257E-01  0.00000000000E+00 0. -1.
     999901    1    3    3    0    0  0.30867780269E-01  0.79363408354E-01  0.83311855571E-01  0.88802715934E+00  0.88000000000E+00 0.  1.
        -11    1    4    4    0    0 -0.15219590562E-01 -0.30201081964E-01 -0.22192141489E-01  0.40453597535E-01  0.51100000000E-03 0. -1.
         11    1    4    4    0    0 -0.38318510687E-01 -0.46560645551E-01 -0.68692518425E-01  0.91406373869E-01  0.51100000000E-03 0.  1.
</event>
<event>
 8    1  0.1099921E+005  0.1043930E+01  0.7957747E-01            NaN
         13   -1    0    0    0    0  0.00000000000E+00  0.00000000000E+00  0.74505805969E-08  0.10566000000E+00  0.10566000000E+00 0. -1.
     999900   -1    0    0    0    0 -0.00000000000E+00 -0.00000000000E+00 -0.74505805969E-08  0.93827000000E+00  0.93827000000E+00 0.  1.
     999902    2    1    2    0    0 -0.69380563547E-02 -0.61226162734E-02  0.21496525064E-01  0.10205265036E+01  0.10202581148E+01 0.  0.
     999903    2    3    3    0    0  0.51959537619E-01 -0.76026350960E-01  0.93648255250E-01  0.13285464365E+00  0.20014021040E-01 0.  0.
         14    1    1    2    0    0  0.69380563547E-02  0.61226162734E-02 -0.21496525064E-01  0.23403496445E-01  0.00000000000E+00 0.  1.
     999901    1    3    3    0    0 -0.58897593974E-01  0.69903734687E-01 -0.72151730186E-01  0.88767185991E+00  0.88000000000E+00 0.  1.
        -11    1    4    4    0    0  0.31490478533E-01 -0.47807845400E-01  0.71311954000E-01  0.91448872187E-01  0.51100000000E-03 0.  1.
         11    1    4    4    0    0  0.20469059086E-01 -0.28218505560E-01  0.22336301250E-01  0.41405771463E-01  0.51100000000E-03 0. -1.
</event>
<event>
 8    1  0.1099921E+005  0.1043930E+01  0.7957747E-01            NaN
         13   -1    0    0    0    0  0.00000000000E+00  0.00000000000E+00  0.74505805969E-08  0.10566000000E+00  0.10566000000E+00 0. -1.
     999900   -1    0    0    0    0 -0.00000000000E+00 -0.00000000000E+00 -0.74505805969E-08  0.93827000000E+00  0.93827000000E+00 0. -1.
     999902    2    1    2    0    0 -0.16896908550E-01  0.13358073806E-01  0.42233659733E-03  0.10223865086E+01  0.10221595037E+01 0.  0.
     999903    2    3    3    0    0 -0.59065119969E-01 -0.13701511823E-01  0.11729282916E+00  0.13324698564E+00  0.17908980618E-01 0.  0.
         14    1    1    2    0    0  0.16896908550E-01 -0.13358073806E-01 -0.42233659733E-03  0.21543491420E-01  0.00000000000E+00 0.  1.
     999901    1    3    3    0    0  0.42168211419E-01  0.27059585630E-01 -0.11687049256E+00  0.88913952294E+00  0.88000000000E+00 0. -1.
        -11    1    4    4    0    0 -0.53529654653E-01 -0.16623637760E-01  0.97302957298E-01  0.11229379270E+00  0.51100000000E-03 0. -1.
         11    1    4    4    0    0 -0.55354653169E-02  0.29221259365E-02  0.19989871857E-01  0.20953192934E-01  0.51100000000E-03 0.  1.
</event>
<event>
 8    1  0.1099921E+005  0.1043930E+01  0.7957747E-01            NaN
         13   -1    0    0    0    0  0.00000000000E+00  0.00000000000E+00  0.74505805969E-08  0.10566000000E+00  0.10566000000E+00 0. -1.
     999900   -1    0    0    0    0 -0.00000000000E+00 -0.00000000000E+00 -0.74505805969E-08  0.93827000000E+00  0.93827000000E+00 0.  1.
     999902    2    1    2    0    0  0.90213245455E-03 -0.31964292743E-01  0.41764600029E-02  0.10116813927E+01  0.10111672798E+01 0.  0.
     999903    2    3    3    0    0  0.10554513316E+00  0.18310741476E-01  0.56555074808E-01  0.12251253589E+00  0.18324480253E-01 0.  0.
         14    1    1    2    0    0 -0.90213245455E-03  0.31964292743E-01 -0.41764600029E-02  0.32248607283E-01  0.00000000000E+00 0.  1.
     999901    1    3    3    0    0 -0.10464300071E+00 -0.50275034219E-01 -0.52378614805E-01  0.88916885683E+00  0.88000000000E+00 0.  1.
        -11    1    4    4    0    0  0.26029318122E-01  0.12685620903E-01  0.15306368342E-01  0.32756623947E-01  0.51100000000E-03 0.  1.
         11    1    4    4    0    0  0.79515815038E-01  0.56251205726E-02  0.41248706465E-01  0.89755911943E-01  0.51100000000E-03 0. -1.
</event>
<event>
 8    1  0.1099921E+005  0.1043930E+01  0.7957747E-01            NaN
         13   -1    0    0    0    0  0.00000000000E+00  0.00000000000E+00  0.74505805969E-08  0.10566000000E+00  0.10566000000E+00 0.  1.
     999900   -1    0    0    0    0 -0.00000000000E+00 -0.00000000000E+00 -0.74505805969E-08  0.93827000000E+00  0.93827000000E+00 0.  1.
     999902    2    1    2    0    0  0.55088911430E-02 -0.16071769605E-01 -0.18613596705E-01  0.10187284992E+01  0.10184167317E+01 0.  0.
     999903    2    3    3    0    0 -0.87015157021E-01 -0.78436754926E-01 -0.55178488801E-01  0.13092948918E+00  0.19336582806E-01 0.  0.
         14    1    1    2    0    0 -0.55088911430E-02  0.16071769605E-01  0.18613596705E-01  0.25201500791E-01  0.00000000000E+00 0.  1.
     999901    1    3    3    0    0  0.92524048164E-01  0.62364985321E-01  0.36564892096E-01  0.88779901003E+00  0.88000000000E+00 0. -1.
        -11    1    4    4    0    0 -0.77980213089E-01 -0.71249597987E-01 -0.55592482742E-01  0.11936584145E+00  0.51100000000E-03 0. -1.
         11    1    4    4    0    0 -0.90349439319E-02 -0.71871569386E-02  0.41399394131E-03  0.11563647725E-01  0.51100000000E-03 0.  1.
</event>
<event>
 8    1  0.1099921E+005  0.1043930E+01  0.7957747E-01            NaN
         13   -1    0    0    0    0  0.00000000000E+00  0.00000000000E+00  0.74505805969E-08  0.10566000000E+00  0.10566000000E+00 0.  1.
     999900   -1    0    0    0    0 -0.00000000000E+00 -0.00000000000E+00 -0.74505805969E-08  0.93827000000E+00  0.93827000000E+00 0.  1.
     999902    2    1    2    0    0 -0.76168126732E-02  0.13040977043E-01  0.18444455742E-01  0.10200913577E+01  0.10198127756E+01 0.  0.
     999903    2    3    3    0    0  0.10605579222E+00 -0.18017686595E-01  0.71379421326E-01  0.13065995944E+00  0.20113058422E-01 0.  0.
         14    1    1    2    0    0  0.76168126732E-02 -0.13040977043E-01 -0.18444455742E-01  0.23838642268E-01  0.00000000000E+00 0. -1.
     999901    1    3    3    0    0 -0.11367260489E+00  0.31058663638E-01 -0.52934965584E-01  0.88943139829E+00  0.88000000000E+00 0.  1.
        -11    1    4    4    0    0  0.75892900471E-01 -0.85223432095E-02  0.59734606490E-01  0.96957965166E-01  0.51100000000E-03 0. -1.
         11    1    4    4    0    0  0.30162891744E-01 -0.94953433854E-02  0.11644814836E-01  0.33701994272E-01  0.51100000000E-03 0.  1.
</event>
<event>
 8    1  0.1099921E+005  0.1043930E+01  0.7957747E-01            NaN
         13   -1    0    0    0    0  0.00000000000E+00  0.00000000000E+00  0.74505805969E-08  0.10566000000E+00  0.10566000000E+00 0.  1.
     999900   -1    0    0    0    0 -0.00000000000E+00 -0.00000000000E+00 -0.74505805969E-08  0.93827000000E+00  0.93827000000E+00 0. -1.
     999902    2    1    2    0    0  0.29775544556E-02  0.16400686797E-02  0.22529509890E-01  0.10211454774E+01  0.10208912535E+01 0.  0.
     999903    2    3    3    0    0 -0.60679274077E-01 -0.25457109185E-01  0.11441664580E+00  0.13366043827E+00  0.21069058197E-01 0.  0.
         14    1    1    2    0    0 -0.29775544556E-02 -0.16400686797E-02 -0.22529509890E-01  0.22784522634E-01  0.00000000000E+00 0. -1.
     999901    1    3    3    0    0  0.63656828533E-01  0.27097177864E-01 -0.91887135908E-01  0.88748503909E+00  0.88000000000E+00 0.  1.
        -11    1    4    4    0    0 -0.15205951543E-01 -0.14642746089E-01  0.48040909403E-01  0.52476862260E-01  0.51100000000E-03 0.  1.
         11    1    4    4    0    0 -0.45473322534E-01 -0.10814363096E-01  0.66375736394E-01  0.81183576013E-01  0.51100000000E-03 0. -1.
</event>
<event>
 8    1  0.1099921E+005  0.1043930E+01  0.7957747E-01            NaN
         13   -1    0    0    0    0  0.00000000000E+00  0.00000000000E+00  0.74505805969E-08  0.10566000000E+00  0.10566000000E+00 0.  1.
     999900   -1    0    0    0    0 -0.00000000000E+00 -0.00000000000E+00 -0.74505805969E-08  0.93827000000E+00  0.93827000000E+00 0. -1.
     999902    2    1    2    0    0  0.20840603214E-01 -0.54511580699E-02 -0.80379138111E-02  0.10209375246E+01  0.10206785857E+01 0.  0.
     999903    2    3    3    0    0  0.77973925038E-02  0.14418085820E-01  0.12771959963E+00  0.13021028540E+00  0.19332401932E-01 0.  0.
         14    1    1    2    0    0 -0.20840603214E-01  0.54511580699E-02  0.80379138111E-02  0.22992475401E-01  0.00000000000E+00 0. -1.
     999901    1    3    3    0    0  0.13043210711E-01 -0.19869243890E-01 -0.13575751344E+00  0.89072723920E+00  0.88000000000E+00 0. -1.
        -11    1    4    4    0    0 -0.42442145446E-02 -0.21935522075E-02  0.22365756989E-01  0.22876040634E-01  0.51100000000E-03 0.  1.
         11    1    4    4    0    0  0.12041607048E-01  0.16611638028E-01  0.10535384264E+00  0.10733424476E+00  0.51100000000E-03 0. -1.
</event>
<event>
 8    1  0.1099921E+005  0.1043930E+01  0.7957747E-01            NaN
         13   -1    0    0    0    0  0.00000000000E+00  0.00000000000E+00  0.74505805969E-08  0.10566000000E+00  0.10566000000E+00 0. -1.
     999900   -1    0    0    0    0 -0.00000000000E+00 -0.00000000000E+00 -0.74505805969E-08  0.93827000000E+00  0.93827000000E+00 0.  1.
     999902    2    1    2    0    0  0.22215059119E-01  0.49395762492E-02  0.68545912874E-02  0.10201625078E+01  0.10198856056E+01 0.  0.
     999903    2    3    3    0    0 -0.11186655996E+00 -0.36433824947E-01  0.46730851973E-01  0.12815367650E+00  0.19950975838E-01 0.  0.
         14    1    1    2    0    0 -0.22215059119E-01 -0.49395762492E-02 -0.68545912874E-02  0.23767492230E-01  0.00000000000E+00 0. -1.
     999901    1    3    3    0    0  0.13408161908E+00  0.41373401196E-01 -0.39876260686E-01  0.89200883127E+00  0.88000000000E+00 0.  1.
        -11    1    4    4    0    0 -0.44388942660E-01 -0.24465726551E-01  0.22590678111E-01  0.55493692116E-01  0.51100000000E-03 0. -1.
         11    1    4    4    0    0 -0.67477617297E-01 -0.11968098396E-01  0.24140173862E-01  0.72659984381E-01  0.51100000000E-03 0.  1.
</event>
<event>
 8    1  0.1099921E+005  0.1043930E+01  0.7957747E-01            NaN
         13   -1    0    0    0    0  0.00000000000E+00  0.00000000000E+00  0.74505805969E-08  0.10566000000E+00  0.10566000000E+00 0.  1.
     999900   -1    0    0    0    0 -0.00000000000E+00 -0.00000000000E+00 -0.74505805969E-08  0.93827000000E+00  0.93827000000E+00 0.  1.
     999902    2    1    2    0    0 -0.16719047149E-01  0.15695874858E-01  0.10300221672E-02  0.10209746527E+01  0.10207165588E+01 0.  0.
     999903    2    3    3    0    0 -0.15969377302E-01  0.11513145682E+00 -0.61652686874E-01  0.13315872638E+00  0.20491931376E-01 0.  0.
         14    1    1    2    0    0  0.16719047149E-01 -0.15695874858E-01 -0.10300221672E-02  0.22955347325E-01  0.00000000000E+00 0. -1.
     999901    1    3    3    0    0 -0.74966984692E-03 -0.99435581965E-01  0.62682709041E-01  0.88781592629E+00  0.88000000000E+00 0. -1.
        -11    1    4    4    0    0 -0.14296638391E-02  0.62170676344E-01 -0.24454149904E-01  0.66824422963E-01  0.51100000000E-03 0. -1.
         11    1    4    4    0    0 -0.14539713463E-01  0.52960780479E-01 -0.37198536970E-01  0.66334303420E-01  0.51100000000E-03 0.  1.
</event>
<event>
 8    1  0.1099921E+005  0.1043930E+01  0.7957747E-01            NaN
         13   -1    0    0    0    0  0.00000000000E+00  0.00000000000E+00  0.74505805969E-08  0.10566000000E+00  0.10566000000E+00 0. -1.
     999900   -1    0    0    0    0 -0.00000000000E+00 -0.00000000000E+00 -0.74505805969E-08  0.93827000000E+00  0.93827000000E+00 0. -1.
     999902    2    1    2    0    0 -0.15412408306E-01 -0.17306797378E-01  0.62528150692E-02  0.10199265573E+01  0.10196440639E+01 0.  0.
     999903    2    3    3    0    0 -0.98790808538E-01  0.18828941047E-02  0.85578367231E-01  0.13222573770E+00  0.19920332105E-01 0.  0.
         14    1    1    2    0    0  0.15412408306E-01  0.17306797378E-01 -0.62528150692E-02  0.24003442703E-01  0.00000000000E+00 0. -1.
     999901    1    3    3    0    0  0.83378400232E-01 -0.19189691483E-01 -0.79325552162E-01  0.88770081960E+00  0.88000000000E+00 0. -1.
        -11    1    4    4    0    0 -0.64578606224E-01  0.51562454944E-02  0.44171900922E-01  0.78411741478E-01  0.51100000000E-03 0. -1.
         11    1    4    4    0    0 -0.34212202313E-01 -0.32733513897E-02  0.41406466309E-01  0.53813996225E-01  0.51100000000E-03 0.  1.
</event>
<event>
 8    1  0.1099921E+005  0.1043930E+01  0.7957747E-01            NaN
         13   -1    0    0    0    0  0.00000000000E+00  0.00000000000E+00  0.74505805969E-08  0.10566000000E+00  0.10566000000E+00 0.  1.
     999900   -1    0    0    0    0 -0.00000000000E+00 -0.00000000000E+00 -0.74505805969E-08  0.93827000000E+00  0.93827000000E+00 0. -1.
     999902    2    1    2    0    0  0.11768699391E-01 -0.92565013772E-02  0.19579205773E-01  0.10192818682E+01  0.10189838058E+01 0.  0.
     999903    2    3    3    0    0  0.12531749355E+00  0.25179194615E-01  0.21044263284E-01  0.13131717733E+00  0.21514507076E-01 0.  0.
         14    1    1    2    0    0 -0.11768699391E-01  0.92565013772E-02 -0.19579205773E-01  0.24648131812E-01  0.00000000000E+00 0. -1.
     999901    1    3    3    0    0 -0.11354879416E+00 -0.34435695993E-01 -0.14650575113E-02  0.88796469086E+00  0.88000000000E+00 0.  1.
        -11    1    4    4    0    0  0.92161543975E-01  0.14994344337E-01  0.24274191066E-01  0.96478381116E-01  0.51100000000E-03 0.  1.
         11    1    4    4    0    0  0.33155949574E-01  0.10184850279E-01 -0.32299277823E-02  0.34838796216E-01  0.51100000000E-03 0. -1.
</event>
<event>
 8    1  0.1099921E+005  0.1043930E+01  0.7957747E-01            NaN
         13   -1    0    0    0    0  0.00000000000E+00  0.00000000000E+00  0.74505805969E-08  0.10566000000E+00  0.10566000000E+00 0.  1.
     999900   -1    0    0    0    0 -0.00000000000E+00 -0.00000000000E+00 -0.74505805969E-08  0.93827000000E+00  0.93827000000E+00 0.  1.
     999902    2    1    2    0    0  0.20059417177E-01  0.13162342735E-02  0.24881150369E-01  0.10119427473E+01  0.10114370665E+01 0.  0.
     999903    2    3    3    0    0 -0.64956084624E-01 -0.44963749109E-02  0.10395262842E+00  0.12429770531E+00  0.20106224688E-01 0.  0.
         14    1    1    2    0    0 -0.20059417177E-01 -0.13162342735E-02 -0.24881150369E-01  0.31987252677E-01  0.00000000000E+00 0. -1.
     999901    1    3    3    0    0  0.85015501802E-01  0.58126091843E-02 -0.79071478056E-01  0.88764504202E+00  0.88000000000E+00 0.  1.
        -11    1    4    4    0    0 -0.41539677476E-01  0.63761588028E-02  0.58688548793E-01  0.72185920277E-01  0.51100000000E-03 0. -1.
         11    1    4    4    0    0 -0.23416407149E-01 -0.10872533714E-01  0.45264079632E-01  0.52111785030E-01  0.51100000000E-03 0.  1.
</event>
<event>
 8    1  0.1099921E+005  0.1043930E+01  0.7957747E-01            NaN
         13   -1    0    0    0    0  0.00000000000E+00  0.00000000000E+00  0.74505805969E-08  0.10566000000E+00  0.10566000000E+00 0.  1.
     999900   -1    0    0    0    0 -0.00000000000E+00 -0.00000000000E+00 -0.74505805969E-08  0.93827000000E+00  0.93827000000E+00 0.  1.
     999902    2    1    2    0    0  0.15724935732E-01  0.13046182993E-01  0.16364461776E-01  0.10177522976E+01  0.10174155823E+01 0.  0.
     999903    2    3    3    0    0  0.10375699487E+00  0.67379316277E-01 -0.34495785243E-01  0.13023413015E+00  0.21575059910E-01 0.  0.
         14    1    1    2    0    0 -0.15724935732E-01 -0.13046182993E-01 -0.16364461776E-01  0.26177702414E-01  0.00000000000E+00 0. -1.
     999901    1    3    3    0    0 -0.88032059134E-01 -0.54333133283E-01  0.50860247020E-01  0.88751816744E+00  0.88000000000E+00 0. -1.
        -11    1    4    4    0    0  0.35299381546E-01  0.31301243720E-01 -0.21160512718E-01  0.51709212095E-01  0.51100000000E-03 0.  1.
         11    1    4    4    0    0  0.68457613319E-01  0.36078072556E-01 -0.13335272526E-01  0.78524918052E-01  0.51100000000E-03 0. -1.
</event>
<event>
 7    1  0.1099921E+005  0.1043930E+01  0.7957747E-01            NaN
         13   -1    0    0    0    0  0.00000000000E+00  0.00000000000E+00  0.74505805969E-08  0.10566000000E+00  0.10566000000E+00 0.  1.
     999900   -1    0    0    0    0 -0.00000000000E+00 -0.00000000000E+00 -0.74505805969E-08  0.93827000000E+00  0.93827000000E+00 0.  1.
     999903    2    1    2    0    0  0.69484748807E-01 -0.39648892873E-01  0.62300146307E-01  0.10343138850E+00  0.20410263956E-01 0.  0.
         14    1    1    2    0    0 -0.28956258600E-01 -0.23448375613E-01  0.36056172418E-01  0.51849192862E-01  0.00000000000E+00 0.  1.
     999901    1    1    2    0    0 -0.40528490207E-01  0.63097268486E-01 -0.98356318725E-01  0.88864941864E+00  0.88000000000E+00 0.  1.
        -11    1    3    3    0    0  0.13792956067E-01 -0.18157501307E-01  0.15496892902E-01  0.27574540820E-01  0.51100000000E-03 0. -1.
         11    1    3    3    0    0  0.55691792740E-01 -0.21491391566E-01  0.46803253405E-01  0.75856847682E-01  0.51100000000E-03 0.  1.
</event>
<event>
 8    1  0.1099921E+005  0.1043930E+01  0.7957747E-01            NaN
         13   -1    0    0    0    0  0.00000000000E+00  0.00000000000E+00  0.74505805969E-08  0.10566000000E+00  0.10566000000E+00 0.  1.
     999900   -1    0    0    0    0 -0.00000000000E+00 -0.00000000000E+00 -0.74505805969E-08  0.93827000000E+00  0.93827000000E+00 0.  1.
     999902    2    1    2    0    0  0.89117535280E-02 -0.12504145012E-01  0.17788316822E-01  0.10204311232E+01  0.10201605168E+01 0.  0.
     999903    2    3    3    0    0 -0.25416104781E-01 -0.47631255028E-01 -0.11569344952E+00  0.12901107767E+00  0.18551793991E-01 0.  0.
         14    1    1    2    0    0 -0.89117535280E-02  0.12504145012E-01 -0.17788316822E-01  0.23498876755E-01  0.00000000000E+00 0.  1.
     999901    1    3    3    0    0  0.34327858309E-01  0.35127110017E-01  0.13348176634E+00  0.89142004558E+00  0.88000000000E+00 0. -1.
        -11    1    4    4    0    0 -0.10062992583E-01 -0.73170364810E-02 -0.15206304036E-01  0.19654405257E-01  0.51100000000E-03 0.  1.
         11    1    4    4    0    0 -0.15353112199E-01 -0.40314218547E-01 -0.10048714549E+00  0.10935667241E+00  0.51100000000E-03 0. -1.
</event>
<event>
 8    1  0.1099921E+005  0.1043930E+01  0.7957747E-01            NaN
         13   -1    0    0    0    0  0.00000000000E+00  0.00000000000E+00  0.74505805969E-08  0.10566000000E+00  0.10566000000E+00 0. -1.
     999900   -1    0    0    0    0 -0.00000000000E+00 -0.00000000000E+00 -0.74505805969E-08  0.93827000000E+00  0.93827000000E+00 0.  1.
     999902    2    1    2    0    0 -0.15480203243E-02  0.33040147947E-02 -0.22658248525E-01  0.10209798561E+01  0.10207218805E+01 0.  0.
     999903    2    3    3    0    0 -0.10078998698E+00 -0.28990797359E-01 -0.79499693792E-01  0.13299175212E+00  0.19170733241E-01 0.  0.
         14    1    1    2    0    0  0.15480203243E-02 -0.33040147947E-02  0.22658248525E-01  0.22950143941E-01  0.00000000000E+00 0. -1.
     999901    1    3    3    0    0  0.99241966651E-01  0.32294812154E-01  0.56841445267E-01  0.88798810394E+00  0.88000000000E+00 0.  1.
        -11    1    4    4    0    0 -0.52990566918E-01 -0.89692221353E-02 -0.49730848093E-01  0.73224760164E-01  0.51100000000E-03 0.  1.
         11    1    4    4    0    0 -0.47799420058E-01 -0.20021575224E-01 -0.29768845699E-01  0.59766991957E-01  0.51100000000E-03 0. -1.
</event>
<event>
 8    1  0.1099921E+005  0.1043930E+01  0.7957747E-01            NaN
         13   -1    0    0    0    0  0.00000000000E+00  0.00000000000E+00  0.74505805969E-08  0.10566000000E+00  0.10566000000E+00 0.  1.
     999900   -1    0    0    0    0 -0.00000000000E+00 -0.00000000000E+00 -0.74505805969E-08  0.93827000000E+00  0.93827000000E+00 0. -1.
     999902    2    1    2    0    0  0.16734264374E-01 -0.46514262753E-02 -0.16445826491E-01  0.10200106233E+01  0.10197301286E+01 0.  0.
     999903    2    3    3    0    0  0.50546578606E-02 -0.63749554714E-01  0.11014679329E+00  0.12891315765E+00  0.19918103550E-01 0.  0.
         14    1    1    2    0    0 -0.16734264374E-01  0.46514262753E-02  0.16445826491E-01  0.23919376654E-01  0.00000000000E+00 0.  1.
     999901    1    3    3    0    0  0.11679606513E-01  0.59098128439E-01 -0.12659261978E+00  0.89109746570E+00  0.88000000000E+00 0. -1.
        -11    1    4    4    0    0  0.70971667702E-02 -0.58027093641E-01  0.85866386186E-01  0.10387882734E+00  0.51100000000E-03 0.  1.
         11    1    4    4    0    0 -0.20425089096E-02 -0.57224610725E-02  0.24280407107E-01  0.25034330302E-01  0.51100000000E-03 0. -1.
</event>
<event>
 8    1  0.1099921E+005  0.1043930E+01  0.7957747E-01            NaN
         13   -1    0    0    0    0  0.00000000000E+00  0.00000000000E+00  0.74505805969E-08  0.10566000000E+00  0.10566000000E+00 0.  1.
     999900   -1    0    0    0    0 -0.00000000000E+00 -0.00000000000E+00 -0.74505805969E-08  0.93827000000E+00  0.93827000000E+00 0.  1.
     999902    2    1    2    0    0 -0.19516307872E-01  0.18310953129E-02  0.13379116627E-01  0.10201973233E+01  0.10199212413E+01 0.  0.
     999903    2    3    3    0    0  0.11671003776E+00 -0.21713343641E-01 -0.41214779629E-01  0.12773306552E+00  0.22899252452E-01 0.  0.
         14    1    1    2    0    0  0.19516307872E-01 -0.18310953129E-02 -0.13379116627E-01  0.23732676729E-01  0.00000000000E+00 0. -1.
     999901    1    3    3    0    0 -0.13622634563E+00  0.23544438954E-01  0.54593896256E-01  0.89246425775E+00  0.88000000000E+00 0.  1.
        -11    1    4    4    0    0  0.38887190558E-01  0.25024405013E-02 -0.18392320980E-01  0.43093089817E-01  0.51100000000E-03 0. -1.
         11    1    4    4    0    0  0.77822847199E-01 -0.24215784142E-01 -0.22822458649E-01  0.84639975706E-01  0.51100000000E-03 0.  1.
</event>
<event>
 7    1  0.2767810E+005  0.1043930E+01  0.7957747E-01            NaN
         13   -1    0    0    0    0  0.00000000000E+00  0.00000000000E+00  0.74505805969E-08  0.10566000000E+00  0.10566000000E+00 0. -1.
     999900   -1    0    0    0    0 -0.00000000000E+00 -0.00000000000E+00 -0.74505805969E-08  0.93827000000E+00  0.93827000000E+00 0.  1.
     999903    2    1    2    0    0  0.38667657215E-01 -0.63802823642E-01  0.11234118499E-01  0.77980027673E-01  0.19715254962E-01 0.  0.
         14    1    1    2    0    0  0.33956534294E-01 -0.33809222515E-01 -0.59347551718E-01  0.76277399296E-01  0.00000000000E+00 0.  1.
     999901    1    1    2    0    0 -0.72624191509E-01  0.97612046158E-01  0.48113433219E-01  0.88967257303E+00  0.88000000000E+00 0. -1.
        -11    1    3    3    0    0  0.25364713833E-01 -0.23364146922E-01  0.30208400476E-02  0.34621361395E-01  0.51100000000E-03 0.  1.
         11    1    3    3    0    0  0.13302943382E-01 -0.40438676721E-01  0.82132784518E-02  0.43358666279E-01  0.51100000000E-03 0. -1.
</event>
<event>
 8    1  0.1099921E+005  0.1043930E+01  0.7957747E-01            NaN
         13   -1    0    0    0    0  0.00000000000E+00  0.00000000000E+00  0.74505805969E-08  0.10566000000E+00  0.10566000000E+00 0.  1.
     999900   -1    0    0    0    0 -0.00000000000E+00 -0.00000000000E+00 -0.74505805969E-08  0.93827000000E+00  0.93827000000E+00 0.  1.
     999902    2    1    2    0    0 -0.15144595238E-01  0.15404834856E-01  0.82578713990E-02  0.10208029565E+01  0.10205409427E+01 0.  0.
     999903    2    3    3    0    0  0.12254140811E+00  0.93906099279E-02  0.36557178827E-01  0.12962707192E+00  0.19030769720E-01 0.  0.
         14    1    1    2    0    0  0.15144595238E-01 -0.15404834856E-01 -0.82578713990E-02  0.23127043518E-01  0.00000000000E+00 0. -1.
     999901    1    3    3    0    0 -0.13768600334E+00  0.60142249279E-02 -0.28299307428E-01  0.89117588456E+00  0.88000000000E+00 0.  1.
        -11    1    4    4    0    0  0.94744498130E-01  0.18731580096E-03  0.23837640707E-01  0.97698767897E-01  0.51100000000E-03 0. -1.
         11    1    4    4    0    0  0.27796909976E-01  0.92032941269E-02  0.12719538120E-01  0.31928304026E-01  0.51100000000E-03 0.  1.
</event>
<event>
 8    1  0.1099921E+005  0.1043930E+01  0.7957747E-01            NaN
         13   -1    0    0    0    0  0.00000000000E+00  0.00000000000E+00  0.74505805969E-08  0.10566000000E+00  0.10566000000E+00 0.  1.
     999900   -1    0    0    0    0 -0.00000000000E+00 -0.00000000000E+00 -0.74505805969E-08  0.93827000000E+00  0.93827000000E+00 0.  1.
     999902    2    1    2    0    0  0.40727393759E-02  0.21850709275E-01  0.84810166654E-02  0.10201399108E+01  0.10198624756E+01 0.  0.
     999903    2    3    3    0    0  0.28043253213E-01  0.42179046424E-01  0.12076970604E+00  0.13244819819E+00  0.19791596635E-01 0.  0.
         14    1    1    2    0    0 -0.40727393759E-02 -0.21850709275E-01 -0.84810166654E-02  0.23790089229E-01  0.00000000000E+00 0.  1.
     999901    1    3    3    0    0 -0.23970513837E-01 -0.20328337149E-01 -0.11228868938E+00  0.88769171258E+00  0.88000000000E+00 0.  1.
        -11    1    4    4    0    0  0.25033253454E-01  0.37117429595E-01  0.83818750450E-01  0.95027424495E-01  0.51100000000E-03 0.  1.
         11    1    4    4    0    0  0.30099997595E-02  0.50616168296E-02  0.36950955595E-01  0.37420773694E-01  0.51100000000E-03 0. -1.
</event>
<event>
 8    1  0.1099921E+005  0.1043930E+01  0.7957747E-01            NaN
         13   -1    0    0    0    0  0.00000000000E+00  0.00000000000E+00  0.74505805969E-08  0.10566000000E+00  0.10566000000E+00 0.  1.
     999900   -1    0    0    0    0 -0.00000000000E+00 -0.00000000000E+00 -0.74505805969E-08  0.93827000000E+00  0.93827000000E+00 0.  1.
     999902    2    1    2    0    0 -0.37083342451E-02  0.15444185477E-01 -0.18817118650E-01  0.10193056510E+01  0.10190081706E+01 0.  0.
     999903    2    3    3    0    0 -0.62789024880E-01 -0.73721437350E-01 -0.84908109426E-01  0.13036861425E+00  0.20230584876E-01 0.  0.
         14    1    1    2    0    0  0.37083342451E-02 -0.15444185477E-01  0.18817118650E-01  0.24624348970E-01  0.00000000000E+00 0.  1.
     999901    1    3    3    0    0  0.59080690635E-01  0.89165622828E-01  0.66090990776E-01  0.88893703678E+00  0.88000000000E+00 0. -1.
        -11    1    4    4    0    0 -0.12876079935E-01 -0.12452697089E-01 -0.26957304897E-01  0.32370055724E-01  0.51100000000E-03 0.  1.
         11    1    4    4    0    0 -0.49912944945E-01 -0.61268740261E-01 -0.57950804529E-01  0.97998558524E-01  0.51100000000E-03 0. -1.
</event>
<event>
 8    1  0.1099921E+005  0.1043930E+01  0.7957747E-01            NaN
         13   -1    0    0    0    0  0.00000000000E+00  0.00000000000E+00  0.74505805969E-08  0.10566000000E+00  0.10566000000E+00 0.  1.
     999900   -1    0    0    0    0 -0.00000000000E+00 -0.00000000000E+00 -0.74505805969E-08  0.93827000000E+00  0.93827000000E+00 0.  1.
     999902    2    1    2    0    0 -0.16684850214E-01 -0.16285641167E-01 -0.41779309611E-02  0.10202432644E+01  0.10199682628E+01 0.  0.
     999903    2    3    3    0    0  0.44687706702E-01  0.24000656595E-01 -0.11771049588E+00  0.12991791950E+00  0.21210429484E-01 0.  0.
         14    1    1    2    0    0  0.16684850214E-01  0.16285641167E-01  0.41779309611E-02  0.23686735571E-01  0.00000000000E+00 0. -1.
     999901    1    3    3    0    0 -0.61372556916E-01 -0.40286297762E-01  0.11353256492E+00  0.89032534493E+00  0.88000000000E+00 0. -1.
        -11    1    4    4    0    0  0.11683178125E-01  0.98969912374E-03 -0.48133743773E-01  0.49543865070E-01  0.51100000000E-03 0. -1.
         11    1    4    4    0    0  0.33004528577E-01  0.23010957471E-01 -0.69576752108E-01  0.80374054428E-01  0.51100000000E-03 0.  1.
</event>
<event>
 8    1  0.1099921E+005  0.1043930E+01  0.7957747E-01            NaN
         13   -1    0    0    0    0  0.00000000000E+00  0.00000000000E+00  0.74505805969E-08  0.10566000000E+00  0.10566000000E+00 0. -1.
     999900   -1    0    0    0    0 -0.00000000000E+00 -0.00000000000E+00 -0.74505805969E-08  0.93827000000E+00  0.93827000000E+00 0. -1.
     999902    2    1    2    0    0 -0.89459561751E-02  0.84443006926E-02 -0.19889472313E-01  0.10205435198E+01  0.10202755257E+01 0.  0.
     999903    2    3    3    0    0  0.55001421452E-01  0.34303999034E-01  0.10899203735E+00  0.12848498215E+00  0.20668955477E-01 0.  0.
         14    1    1    2    0    0  0.89459561751E-02 -0.84443006926E-02  0.19889472313E-01  0.23386480175E-01  0.00000000000E+00 0. -1.
     999901    1    3    3    0    0 -0.63947377627E-01 -0.25859698341E-01 -0.12888150967E+00  0.89205853767E+00  0.88000000000E+00 0. -1.
        -11    1    4    4    0    0  0.21797164774E-01  0.25443258019E-01  0.58215276248E-01  0.67169600866E-01  0.51100000000E-03 0.  1.
         11    1    4    4    0    0  0.33204256677E-01  0.88607410146E-02  0.50776761105E-01  0.61315381285E-01  0.51100000000E-03 0. -1.
</event>
<event>
 8    1  0.1099921E+005  0.1043930E+01  0.7957747E-01            NaN
         13   -1    0    0    0    0  0.00000000000E+00  0.00000000000E+00  0.74505805969E-08  0.10566000000E+00  0.10566000000E+00 0.  1.
     999900   -1    0    0    0    0 -0.00000000000E+00 -0.00000000000E+00 -0.74505805969E-08  0.93827000000E+00  0.93827000000E+00 0.  1.
     999902    2    1    2    0    0  0.21450986758E-01 -0.94520329984E-02 -0.36695689829E-02  0.10202034011E+01  0.10199274621E+01 0.  0.
     999903    2    3    3    0    0  0.92519556013E-02  0.23144491381E-01 -0.12690966947E+00  0.13093433484E+00  0.20407588619E-01 0.  0.
         14    1    1    2    0    0 -0.21450986758E-01  0.94520329984E-02  0.36695689829E-02  0.23726598939E-01  0.00000000000E+00 0.  1.
     999901    1    3    3    0    0  0.12199031156E-01 -0.32596524380E-01  0.12324010048E+00  0.88926906622E+00  0.88000000000E+00 0. -1.
        -11    1    4    4    0    0  0.94504515505E-02  0.26837768977E-01 -0.11369065431E+00  0.11719813513E+00  0.51100000000E-03 0. -1.
         11    1    4    4    0    0 -0.19849594919E-03 -0.36932775955E-02 -0.13219015154E-01  0.13736199717E-01  0.51100000000E-03 0.  1.
</event>
<event>
 8    1  0.1099921E+005  0.1043930E+01  0.7957747E-01            NaN
         13   -1    0    0    0    0  0.00000000000E+00  0.00000000000E+00  0.74505805969E-08  0.10566000000E+00  0.10566000000E+00 0.  1.
     999900   -1    0    0    0    0 -0.00000000000E+00 -0.00000000000E+00 -0.74505805969E-08  0.93827000000E+00  0.93827000000E+00 0.  1.
     999902    2    1    2    0    0  0.33341126512E-03 -0.25041580011E-03  0.23341505806E-01  0.10205847700E+01  0.10203177314E+01 0.  0.
     999903    2    3    3    0    0 -0.11551208035E+00 -0.16607668454E-01 -0.52819383433E-01  0.12958071910E+00  0.19555565406E-01 0.  0.
         14    1    1    2    0    0 -0.33341126512E-03  0.25041580011E-03 -0.23341505806E-01  0.23345230014E-01  0.00000000000E+00 0. -1.
     999901    1    3    3    0    0  0.11584549162E+00  0.16357252654E-01  0.76160889238E-01  0.89100405088E+00  0.88000000000E+00 0. -1.
        -11    1    4    4    0    0 -0.68837674765E-01 -0.16115099792E-01 -0.39736393917E-01  0.81102182652E-01  0.51100000000E-03 0.  1.
         11    1    4    4    0    0 -0.46674405586E-01 -0.49256866192E-03 -0.13082989515E-01  0.48478536450E-01  0.51100000000E-03 0. -1.
</event>
<event>
 8    1  0.1099921E+005  0.1043930E+01  0.7957747E-01            NaN
         13   -1    0    0    0    0  0.00000000000E+00  0.00000000000E+00  0.74505805969E-08  0.10566000000E+00  0.10566000000E+00 0.  1.
     999900   -1    0    0    0    0 -0.00000000000E+00 -0.00000000000E+00 -0.74505805969E-08  0.93827000000E+00  0.93827000000E+00 0. -1.
     999902    2    1    2    0    0 -0.73103515107E-02 -0.23895194614E-02  0.22833789856E-01  0.10198357475E+01  0.10195510870E+01 0.  0.
     999903    2    3    3    0    0 -0.26742874968E-01  0.76414373301E-01  0.10333823158E+00  0.13244144870E+00  0.17538797507E-01 0.  0.
         14    1    1    2    0    0  0.73103515107E-02  0.23895194614E-02 -0.22833789856E-01  0.24094252461E-01  0.00000000000E+00 0. -1.
     999901    1    3    3    0    0  0.19432523457E-01 -0.78803892763E-01 -0.80504441724E-01  0.88739429884E+00  0.88000000000E+00 0. -1.
        -11    1    4    4    0    0  0.20826624666E-02  0.12680284167E-01  0.14889051547E-01  0.19674147160E-01  0.51100000000E-03 0.  1.
         11    1    4    4    0    0 -0.28825537434E-01  0.63734089134E-01  0.88449180032E-01  0.11276730154E+00  0.51100000000E-03 0. -1.
</event>
<event>
 8    1  0.1099921E+005  0.1043930E+01  0.7957747E-01            NaN
         13   -1    0    0    0    0  0.00000000000E+00  0.00000000000E+00  0.74505805969E-08  0.10566000000E+00  0.10566000000E+00 0.  1.
     999900   -1    0    0    0    0 -0.00000000000E+00 -0.00000000000E+00 -0.74505805969E-08  0.93827000000E+00  0.93827000000E+00 0.  1.
     999902    2    1    2    0    0 -0.22703552784E-01 -0.73276088618E-02 -0.43476783210E-02  0.10196803100E+01  0.10193919202E+01 0.  0.
     999903    2    3    3    0    0 -0.92964828410E-01  0.47914852234E-01  0.77308947140E-01  0.13139196665E+00  0.18678415533E-01 0.  0.
         14    1    1    2    0    0  0.22703552784E-01  0.73276088618E-02  0.43476783210E-02  0.24249690048E-01  0.00000000000E+00 0. -1.
     999901    1    3    3    0    0  0.70261275626E-01 -0.55242461096E-01 -0.81656625461E-01  0.88828834330E+00  0.88000000000E+00 0. -1.
        -11    1    4    4    0    0 -0.45320708209E-01  0.24495274701E-01  0.26627628421E-01  0.57993765109E-01  0.51100000000E-03 0. -1.
         11    1    4    4    0    0 -0.47644120201E-01  0.23419577534E-01  0.50681318719E-01  0.73398201543E-01  0.51100000000E-03 0.  1.
</event>
<event>
 8    1  0.1099921E+005  0.1043930E+01  0.7957747E-01            NaN
         13   -1    0    0    0    0  0.00000000000E+00  0.00000000000E+00  0.74505805969E-08  0.10566000000E+00  0.10566000000E+00 0. -1.
     999900   -1    0    0    0    0 -0.00000000000E+00 -0.00000000000E+00 -0.74505805969E-08  0.93827000000E+00  0.93827000000E+00 0. -1.
     999902    2    1    2    0    0 -0.18616002648E-01 -0.10522111821E-01  0.69698725572E-02  0.10214389014E+01  0.10211912553E+01 0.  0.
     999903    2    3    3    0    0 -0.74352700767E-01 -0.72199908274E-01 -0.81196012668E-01  0.13313492563E+00  0.19772836999E-01 0.  0.
         14    1    1    2    0    0  0.18616002648E-01  0.10522111821E-01 -0.69698725572E-02  0.22491098577E-01  0.00000000000E+00 0.  1.
     999901    1    3    3    0    0  0.55736698119E-01  0.61677796453E-01  0.88165885226E-01  0.88830397579E+00  0.88000000000E+00 0.  1.
        -11    1    4    4    0    0 -0.23203946633E-01 -0.15643652971E-01 -0.13117017946E-01  0.30910585540E-01  0.51100000000E-03 0. -1.
         11    1    4    4    0    0 -0.51148754134E-01 -0.56556255304E-01 -0.68078994722E-01  0.10222434009E+00  0.51100000000E-03 0.  1.
</event>
<event>
 8    1  0.1099921E+005  0.1043930E+01  0.7957747E-01            NaN
         13   -1    0    0    0    0  0.00000000000E+00  0.00000000000E+00  0.74505805969E-08  0.10566000000E+00  0.10566000000E+00 0.  1.
     999900   -1    0    0    0    0 -0.00000000000E+00 -0.00000000000E+00 -0.74505805969E-08  0.93827000000E+00  0.93827000000E+00 0. -1.
     999902    2    1    2    0    0  0.62433892325E-02  0.45926752142E-03  0.30400732141E-01  0.10128913894E+01  0.10124157107E+01 0.  0.
     999903    2    3    3    0    0 -0.66224958036E-02 -0.11792308568E+00  0.34932169262E-01  0.12485960701E+00  0.20492765220E-01 0.  0.
         14    1    1    2    0    0 -0.62433892325E-02 -0.45926752142E-03 -0.30400732141E-01  0.31038610640E-01  0.00000000000E+00 0. -1.
     999901    1    3    3    0    0  0.12865885036E-01  0.11838235320E+00 -0.45314371216E-02  0.88803178235E+00  0.88000000000E+00 0. -1.
        -11    1    4    4    0    0 -0.95676602307E-03 -0.82473608129E-01  0.15127411840E-01  0.83856491395E-01  0.51100000000E-03 0.  1.
         11    1    4    4    0    0 -0.56657297805E-02 -0.35449477548E-01  0.19804757423E-01  0.41003115612E-01  0.51100000000E-03 0. -1.
</event>
<event>
 8    1  0.1099921E+005  0.1043930E+01  0.7957747E-01            NaN
         13   -1    0    0    0    0  0.00000000000E+00  0.00000000000E+00  0.74505805969E-08  0.10566000000E+00  0.10566000000E+00 0.  1.
     999900   -1    0    0    0    0 -0.00000000000E+00 -0.00000000000E+00 -0.74505805969E-08  0.93827000000E+00  0.93827000000E+00 0. -1.
     999902    2    1    2    0    0  0.10279277042E-01  0.21140184470E-01 -0.14543295901E-02  0.10203782270E+01  0.10201063867E+01 0.  0.
     999903    2    3    3    0    0  0.11765155004E+00 -0.50970631233E-01 -0.16785137078E-01  0.13079191395E+00  0.19618650635E-01 0.  0.
         14    1    1    2    0    0 -0.10279277042E-01 -0.21140184470E-01  0.14543295901E-02  0.23551772979E-01  0.00000000000E+00 0. -1.
     999901    1    3    3    0    0 -0.10737227300E+00  0.72110815703E-01  0.15330807488E-01  0.88958631307E+00  0.88000000000E+00 0.  1.
        -11    1    4    4    0    0  0.35521594986E-01 -0.89724877343E-02  0.18272311763E-02  0.36686361788E-01  0.51100000000E-03 0.  1.
         11    1    4    4    0    0  0.82129955052E-01 -0.41998143499E-01 -0.18612368254E-01  0.94105552159E-01  0.51100000000E-03 0. -1.
</event>
<event>
 8    1  0.1099921E+005  0.1043930E+01  0.7957747E-01            NaN
         13   -1    0    0    0    0  0.00000000000E+00  0.00000000000E+00  0.74505805969E-08  0.10566000000E+00  0.10566000000E+00 0. -1.
     999900   -1    0    0    0    0 -0.00000000000E+00 -0.00000000000E+00 -0.74505805969E-08  0.93827000000E+00  0.93827000000E+00 0. -1.
     999902    2    1    2    0    0  0.12333652237E-01 -0.14263510146E-01  0.13409021094E-01  0.10207919675E+01  0.10205297019E+01 0.  0.
     999903    2    3    3    0    0 -0.67745093553E-01 -0.11124227186E+00  0.32054912457E-02  0.13179163134E+00  0.19862481391E-01 0.  0.
         14    1    1    2    0    0 -0.12333652237E-01  0.14263510146E-01 -0.13409021094E-01  0.23138032456E-01  0.00000000000E+00 0.  1.
     999901    1    3    3    0    0  0.80078745791E-01  0.96978761717E-01  0.10203529849E-01  0.88900033621E+00  0.88000000000E+00 0.  1.
        -11    1    4    4    0    0 -0.52281717033E-01 -0.68334403210E-01  0.45193079857E-02  0.86160628268E-01  0.51100000000E-03 0. -1.
         11    1    4    4    0    0 -0.15463376521E-01 -0.42907868654E-01 -0.13138167400E-02  0.45631003071E-01  0.51100000000E-03 0.  1.
</event>
<event>
 8    1  0.1099921E+005  0.1043930E+01  0.7957747E-01            NaN
         13   -1    0    0    0    0  0.00000000000E+00  0.00000000000E+00  0.74505805969E-08  0.10566000000E+00  0.10566000000E+00 0. -1.
     999900   -1    0    0    0    0 -0.00000000000E+00 -0.00000000000E+00 -0.74505805969E-08  0.93827000000E+00  0.93827000000E+00 0. -1.
     999902    2    1    2    0    0  0.11836053166E-01 -0.21330205515E-01  0.30678024577E-02  0.10193437999E+01  0.10190472517E+01 0.  0.
     999903    2    3    3    0    0  0.71151097747E-03  0.10443656737E+00 -0.69853483225E-01  0.12734685459E+00  0.20741489860E-01 0.  0.
         14    1    1    2    0    0 -0.11836053166E-01  0.21330205515E-01 -0.30678024577E-02  0.24586200068E-01  0.00000000000E+00 0. -1.
     999901    1    3    3    0    0  0.11124542189E-01 -0.12576677289E+00  0.72921285683E-01  0.89199694535E+00  0.88000000000E+00 0.  1.
        -11    1    4    4    0    0  0.70811225399E-02  0.58504106519E-01 -0.29651042326E-01  0.65972101740E-01  0.51100000000E-03 0.  1.
         11    1    4    4    0    0 -0.63696115625E-02  0.45932460855E-01 -0.40202440900E-01  0.61374752846E-01  0.51100000000E-03 0. -1.
</event>
<event>
 8    1  0.1099921E+005  0.1043930E+01  0.7957747E-01            NaN
         13   -1    0    0    0    0  0.00000000000E+00  0.00000000000E+00  0.74505805969E-08  0.10566000000E+00  0.10566000000E+00 0. -1.
     999900   -1    0    0    0    0 -0.00000000000E+00 -0.00000000000E+00 -0.74505805969E-08  0.93827000000E+00  0.93827000000E+00 0.  1.
     999902    2    1    2    0    0  0.20900652571E-01 -0.80685706828E-02  0.25500222562E-02  0.10213813476E+01  0.10211324182E+01 0.  0.
     999903    2    3    3    0    0  0.52043988804E-01  0.56209180707E-01 -0.10589595071E+00  0.13185222175E+00  0.17407103031E-01 0.  0.
         14    1    1    2    0    0 -0.20900652571E-01  0.80685706828E-02 -0.25500222562E-02  0.22548652383E-01  0.00000000000E+00 0. -1.
     999901    1    3    3    0    0 -0.31143336232E-01 -0.64277751390E-01  0.10844597297E+00  0.88952912587E+00  0.88000000000E+00 0. -1.
        -11    1    4    4    0    0  0.11153731573E-01  0.18430192983E-01 -0.41235356456E-01  0.46526266608E-01  0.51100000000E-03 0. -1.
         11    1    4    4    0    0  0.40890257230E-01  0.37778987724E-01 -0.64660594258E-01  0.85325955141E-01  0.51100000000E-03 0.  1.
</event>
<event>
 8    1  0.1099921E+005  0.1043930E+01  0.7957747E-01            NaN
         13   -1    0    0    0    0  0.00000000000E+00  0.00000000000E+00  0.74505805969E-08  0.10566000000E+00  0.10566000000E+00 0.  1.
     999900   -1    0    0    0    0 -0.00000000000E+00 -0.00000000000E+00 -0.74505805969E-08  0.93827000000E+00  0.93827000000E+00 0. -1.
     999902    2    1    2    0    0  0.93275246892E-02  0.21484578857E-01 -0.40440208459E-02  0.10201614504E+01  0.10198845233E+01 0.  0.
     999903    2    3    3    0    0  0.33124660182E-01  0.97935320603E-01  0.80591849306E-01  0.13248231350E+00  0.19181946774E-01 0.  0.
         14    1    1    2    0    0 -0.93275246892E-02 -0.21484578857E-01  0.40440208459E-02  0.23768549600E-01  0.00000000000E+00 0.  1.
     999901    1    3    3    0    0 -0.23797135492E-01 -0.76450741746E-01 -0.84635870152E-01  0.88767913690E+00  0.88000000000E+00 0. -1.
        -11    1    4    4    0    0  0.21232304476E-01  0.64126779613E-01  0.40754556102E-01  0.78893913459E-01  0.51100000000E-03 0.  1.
         11    1    4    4    0    0  0.11892355706E-01  0.33808540990E-01  0.39837293204E-01  0.53588400041E-01  0.51100000000E-03 0. -1.
</event>
<event>
 8    1  0.1099921E+005  0.1043930E+01  0.7957747E-01            NaN
         13   -1    0    0    0    0  0.00000000000E+00  0.00000000000E+00  0.74505805969E-08  0.10566000000E+00  0.10566000000E+00 0.  1.
     999900   -1    0    0    0    0 -0.00000000000E+00 -0.00000000000E+00 -0.74505805969E-08  0.93827000000E+00  0.93827000000E+00 0.  1.
     999902    2    1    2    0    0 -0.44380398633E-02 -0.22885247385E-01 -0.74561335473E-02  0.10194550194E+01  0.10191611806E+01 0.  0.
     999903    2    3    3    0    0 -0.12366293971E+00  0.32868650555E-01 -0.87870941025E-03  0.12964249066E+00  0.20821441046E-01 0.  0.
         14    1    1    2    0    0  0.44380398633E-02  0.22885247385E-01  0.74561335473E-02  0.24474980556E-01  0.00000000000E+00 0.  1.
     999901    1    3    3    0    0  0.11922489984E+00 -0.55753897940E-01 -0.65774241371E-02  0.88981252879E+00  0.88000000000E+00 0.  1.
        -11    1    4    4    0    0 -0.10101277329E+00  0.31192804250E-01 -0.74805157609E-02  0.10598486043E+00  0.51100000000E-03 0. -1.
         11    1    4    4    0    0 -0.22650166419E-01  0.16758463054E-02  0.66018063507E-02  0.23657630222E-01  0.51100000000E-03 0.  1.
</event>
<event>
 8    1  0.1099921E+005  0.1043930E+01  0.7957747E-01            NaN
         13   -1    0    0    0    0  0.00000000000E+00  0.00000000000E+00  0.74505805969E-08  0.10566000000E+00  0.10566000000E+00 0.  1.
     999900   -1    0    0    0    0 -0.00000000000E+00 -0.00000000000E+00 -0.74505805969E-08  0.93827000000E+00  0.93827000000E+00 0. -1.
     999902    2    1    2    0    0 -0.44571011195E-03 -0.18818039552E-01 -0.92241773538E-02  0.10229680650E+01  0.10227532739E+01 0.  0.
     999903    2    3    3    0    0 -0.46400100971E-01 -0.47033752597E-02  0.12182850848E+00  0.13196535108E+00  0.19939340482E-01 0.  0.
         14    1    1    2    0    0  0.44571011195E-03  0.18818039552E-01  0.92241773538E-02  0.20961934976E-01  0.00000000000E+00 0. -1.
     999901    1    3    3    0    0  0.45954390859E-01 -0.14114664293E-01 -0.13105268583E+00  0.89100271394E+00  0.88000000000E+00 0. -1.
        -11    1    4    4    0    0 -0.94083885229E-02 -0.67382709539E-02  0.47785608902E-01  0.49169580120E-01  0.51100000000E-03 0.  1.
         11    1    4    4    0    0 -0.36991712448E-01  0.20348956942E-02  0.74042899578E-01  0.82795770962E-01  0.51100000000E-03 0. -1.
</event>
<event>
 7    1  0.1099921E+005  0.1043930E+01  0.7957747E-01            NaN
         13   -1    0    0    0    0  0.00000000000E+00  0.00000000000E+00  0.74505805969E-08  0.10566000000E+00  0.10566000000E+00 0. -1.
     999900   -1    0    0    0    0 -0.00000000000E+00 -0.00000000000E+00 -0.74505805969E-08  0.93827000000E+00  0.93827000000E+00 0. -1.
     999903    2    1    2    0    0 -0.50073053296E-01  0.25717112231E-01 -0.97783743282E-01  0.11456772725E+00  0.19885249526E-01 0.  0.
         14    1    1    2    0    0 -0.32192008113E-01 -0.19328957159E-01 -0.10253705909E-01  0.38923931663E-01  0.00000000000E+00 0.  1.
     999901    1    1    2    0    0  0.82265061409E-01 -0.63881550713E-02  0.10803744919E+00  0.89043834109E+00  0.88000000000E+00 0.  1.
        -11    1    3    3    0    0 -0.27782247712E-01  0.43455121150E-02 -0.55334583298E-01  0.62071845415E-01  0.51100000000E-03 0. -1.
         11    1    3    3    0    0 -0.22290805584E-01  0.21371600116E-01 -0.42449159984E-01  0.52495881834E-01  0.51100000000E-03 0.  1.
</event>
<event>
 8    1  0.1099921E+005  0.1043930E+01  0.7957747E-01            NaN
         13   -1    0    0    0    0  0.00000000000E+00  0.00000000000E+00  0.74505805969E-08  0.10566000000E+00  0.10566000000E+00 0.  1.
     999900   -1    0    0    0    0 -0.00000000000E+00 -0.00000000000E+00 -0.74505805969E-08  0.93827000000E+00  0.93827000000E+00 0. -1.
     999902    2    1    2    0    0 -0.62827512453E-02  0.23798581208E-01 -0.96614880332E-03  0.10192971180E+01  0.10189994288E+01 0.  0.
     999903    2    3    3    0    0 -0.27848353961E-01 -0.10557753196E+00 -0.62406578649E-01  0.12745734525E+00  0.20703809477E-01 0.  0.
         14    1    1    2    0    0  0.62827512453E-02 -0.23798581208E-01  0.96614880332E-03  0.24632881972E-01  0.00000000000E+00 0.  1.
     999901    1    3    3    0    0  0.21565602715E-01  0.12937611317E+00  0.61440429845E-01  0.89183977277E+00  0.88000000000E+00 0.  1.
        -11    1    4    4    0    0 -0.17628856401E-01 -0.57677326019E-01 -0.22844744686E-01  0.64494914493E-01  0.51100000000E-03 0.  1.
         11    1    4    4    0    0 -0.10219497560E-01 -0.47900205945E-01 -0.39561833963E-01  0.62962430762E-01  0.51100000000E-03 0. -1.
</event>
<event>
 8    1  0.1099921E+005  0.1043930E+01  0.7957747E-01            NaN
         13   -1    0    0    0    0  0.00000000000E+00  0.00000000000E+00  0.74505805969E-08  0.10566000000E+00  0.10566000000E+00 0.  1.
     999900   -1    0    0    0    0 -0.00000000000E+00 -0.00000000000E+00 -0.74505805969E-08  0.93827000000E+00  0.93827000000E+00 0. -1.
     999902    2    1    2    0    0 -0.29118136613E-02 -0.17583040749E-01  0.16112749887E-01  0.10199037084E+01  0.10196206705E+01 0.  0.
     999903    2    3    3    0    0  0.46114702112E-01  0.11000070880E+00 -0.40498269597E-01  0.12755511061E+00  0.20086680025E-01 0.  0.
         14    1    1    2    0    0  0.29118136613E-02  0.17583040749E-01 -0.16112749887E-01  0.24026291635E-01  0.00000000000E+00 0. -1.
     999901    1    3    3    0    0 -0.49026515773E-01 -0.12758374955E+00  0.56611019484E-01  0.89234859776E+00  0.88000000000E+00 0.  1.
        -11    1    4    4    0    0  0.44944649067E-01  0.87249086123E-01 -0.33807256376E-01  0.10380566561E+00  0.51100000000E-03 0.  1.
         11    1    4    4    0    0  0.11700530451E-02  0.22751622674E-01 -0.66910132209E-02  0.23749444991E-01  0.51100000000E-03 0. -1.
</event>
<event>
 8    1  0.1099921E+005  0.1043930E+01  0.7957747E-01            NaN
         13   -1    0    0    0    0  0.00000000000E+00  0.00000000000E+00  0.74505805969E-08  0.10566000000E+00  0.10566000000E+00 0. -1.
     999900   -1    0    0    0    0 -0.00000000000E+00 -0.00000000000E+00 -0.74505805969E-08  0.93827000000E+00  0.93827000000E+00 0. -1.
     999902    2    1    2    0    0  0.70242806139E-02  0.23594588950E-01  0.58815442898E-02  0.10186191780E+01  0.10183046657E+01 0.  0.
     999903    2    3    3    0    0  0.21154170597E-01 -0.94779346153E-01  0.78956063298E-01  0.12757937665E+00  0.24734874655E-01 0.  0.
         14    1    1    2    0    0 -0.70242806139E-02 -0.23594588950E-01 -0.58815442898E-02  0.25310821976E-01  0.00000000000E+00 0. -1.
     999901    1    3    3    0    0 -0.14129889983E-01  0.11837393510E+00 -0.73074519009E-01  0.89103980137E+00  0.88000000000E+00 0. -1.
        -11    1    4    4    0    0  0.14144211062E-01 -0.72590646183E-01  0.45532300250E-01  0.86849940167E-01  0.51100000000E-03 0. -1.
         11    1    4    4    0    0  0.70099595355E-02 -0.22188699970E-01  0.33423763048E-01  0.40729436484E-01  0.51100000000E-03 0.  1.
</event>
<event>
 8    1  0.1099921E+005  0.1043930E+01  0.7957747E-01            NaN
         13   -1    0    0    0    0  0.00000000000E+00  0.00000000000E+00  0.74505805969E-08  0.10566000000E+00  0.10566000000E+00 0. -1.
     999900   -1    0    0    0    0 -0.00000000000E+00 -0.00000000000E+00 -0.74505805969E-08  0.93827000000E+00  0.93827000000E+00 0. -1.
     999902    2    1    2    0    0  0.17747873615E-02  0.14439492564E-01 -0.19355416548E-01  0.10197167605E+01  0.10194292475E+01 0.  0.
     999903    2    3    3    0    0 -0.93787083121E-01 -0.73284443341E-01  0.42801570640E-01  0.12803797808E+00  0.19877695681E-01 0.  0.
         14    1    1    2    0    0 -0.17747873615E-02 -0.14439492564E-01  0.19355416548E-01  0.24213239466E-01  0.00000000000E+00 0. -1.
     999901    1    3    3    0    0  0.95561870483E-01  0.87723935905E-01 -0.62156987188E-01  0.89167878245E+00  0.88000000000E+00 0. -1.
        -11    1    4    4    0    0 -0.52031912480E-01 -0.43732565253E-01  0.14238127231E-01  0.69446688675E-01  0.51100000000E-03 0. -1.
         11    1    4    4    0    0 -0.41755170641E-01 -0.29551878089E-01  0.28563443410E-01  0.58591289406E-01  0.51100000000E-03 0.  1.
</event>
<event>
 8    1  0.1099921E+005  0.1043930E+01  0.7957747E-01            NaN
         13   -1    0    0    0    0  0.00000000000E+00  0.00000000000E+00  0.74505805969E-08  0.10566000000E+00  0.10566000000E+00 0. -1.
     999900   -1    0    0    0    0 -0.00000000000E+00 -0.00000000000E+00 -0.74505805969E-08  0.93827000000E+00  0.93827000000E+00 0.  1.
     999902    2    1    2    0    0 -0.15983624885E-01 -0.12367988906E-01  0.12461081455E-01  0.10201871702E+01  0.10199108492E+01 0.  0.
     999903    2    3    3    0    0 -0.44327607651E-01  0.64126289737E-01  0.10406083968E+00  0.13167984234E+00  0.20827978481E-01 0.  0.
         14    1    1    2    0    0  0.15983624885E-01  0.12367988906E-01 -0.12461081455E-01  0.23742829761E-01  0.00000000000E+00 0.  1.
     999901    1    3    3    0    0  0.28343982765E-01 -0.76494278643E-01 -0.91599758228E-01  0.88850732790E+00  0.88000000000E+00 0.  1.
        -11    1    4    4    0    0 -0.28252692512E-01  0.43511884864E-01  0.83974148804E-01  0.98708751116E-01  0.51100000000E-03 0.  1.
         11    1    4    4    0    0 -0.16074915138E-01  0.20614404873E-01  0.20086690878E-01  0.32971091223E-01  0.51100000000E-03 0. -1.
</event>
<event>
 8    1  0.1099921E+005  0.1043930E+01  0.7957747E-01            NaN
         13   -1    0    0    0    0  0.00000000000E+00  0.00000000000E+00  0.74505805969E-08  0.10566000000E+00  0.10566000000E+00 0. -1.
     999900   -1    0    0    0    0 -0.00000000000E+00 -0.00000000000E+00 -0.74505805969E-08  0.93827000000E+00  0.93827000000E+00 0. -1.
     999902    2    1    2    0    0  0.11498981744E-03  0.81590812341E-02 -0.22028494370E-01  0.10204387592E+01  0.10201683307E+01 0.  0.
     999903    2    3    3    0    0  0.10542613840E+00 -0.25001859296E-01 -0.73641885947E-01  0.13203905853E+00  0.16474889522E-01 0.  0.
         14    1    1    2    0    0 -0.11498981744E-03 -0.81590812341E-02  0.22028494370E-01  0.23491240781E-01  0.00000000000E+00 0. -1.
     999901    1    3    3    0    0 -0.10531114859E+00  0.33160940530E-01  0.51613391577E-01  0.88839970069E+00  0.88000000000E+00 0.  1.
        -11    1    4    4    0    0  0.59347492742E-01 -0.21920580589E-01 -0.45880155458E-01  0.78152968811E-01  0.51100000000E-03 0. -1.
         11    1    4    4    0    0  0.46078645662E-01 -0.30812787073E-02 -0.27761730488E-01  0.53886089720E-01  0.51100000000E-03 0.  1.
</event>
<event>
 8    1  0.1099921E+005  0.1043930E+01  0.7957747E-01            NaN
         13   -1    0    0    0    0  0.00000000000E+00  0.00000000000E+00  0.74505805969E-08  0.10566000000E+00  0.10566000000E+00 0.  1.
     999900   -1    0    0    0    0 -0.00000000000E+00 -0.00000000000E+00 -0.74505805969E-08  0.93827000000E+00  0.93827000000E+00 0. -1.
     999902    2    1    2    0    0 -0.14942831088E-01  0.89345052448E-02 -0.16651383993E-01  0.10198388777E+01  0.10195542920E+01 0.  0.
     999903    2    3    3    0    0  0.67823171299E-01  0.77822483624E-01 -0.78852389746E-01  0.13109553464E+00  0.17664040049E-01 0.  0.
         14    1    1    2    0    0  0.14942831088E-01 -0.89345052448E-02  0.16651383993E-01  0.24091122302E-01  0.00000000000E+00 0.  1.
     999901    1    3    3    0    0 -0.82766002388E-01 -0.68887978379E-01  0.62201005753E-01  0.88874334306E+00  0.88000000000E+00 0.  1.
        -11    1    4    4    0    0  0.12515043275E-01  0.23576062926E-01 -0.14488169471E-01  0.30374746532E-01  0.51100000000E-03 0.  1.
         11    1    4    4    0    0  0.55308128024E-01  0.54246420698E-01 -0.64364220275E-01  0.10072078811E+00  0.51100000000E-03 0. -1.
</event>
<event>
 8    1  0.1099921E+005  0.1043930E+01  0.7957747E-01            NaN
         13   -1    0    0    0    0  0.00000000000E+00  0.00000000000E+00  0.74505805969E-08  0.10566000000E+00  0.10566000000E+00 0. -1.
     999900   -1    0    0    0    0 -0.00000000000E+00 -0.00000000000E+00 -0.74505805969E-08  0.93827000000E+00  0.93827000000E+00 0. -1.
     999902    2    1    2    0    0  0.18588918313E-01 -0.39795015291E-02  0.14234129600E-01  0.10201814261E+01  0.10199049698E+01 0.  0.
     999903    2    3    3    0    0  0.10601556166E-02 -0.33350802532E-01  0.12663875221E+00  0.13237247705E+00  0.19279501017E-01 0.  0.
         14    1    1    2    0    0 -0.18588918313E-01  0.39795015291E-02 -0.14234129600E-01  0.23748573893E-01  0.00000000000E+00 0.  1.
     999901    1    3    3    0    0  0.17528762697E-01  0.29371301003E-01 -0.11240462261E+00  0.88780894906E+00  0.88000000000E+00 0. -1.
        -11    1    4    4    0    0 -0.77563271138E-02 -0.24072872106E-01  0.92948777861E-01  0.96329643457E-01  0.51100000000E-03 0. -1.
         11    1    4    4    0    0  0.88164827304E-02 -0.92779304265E-02  0.33689974348E-01  0.36042833591E-01  0.51100000000E-03 0.  1.
</event>
<event>
 8    1  0.1099921E+005  0.1043930E+01  0.7957747E-01            NaN
         13   -1    0    0    0    0  0.00000000000E+00  0.00000000000E+00  0.74505805969E-08  0.10566000000E+00  0.10566000000E+00 0.  1.
     999900   -1    0    0    0    0 -0.00000000000E+00 -0.00000000000E+00 -0.74505805969E-08  0.93827000000E+00  0.93827000000E+00 0.  1.
     999902    2    1    2    0    0 -0.12125164925E-01 -0.19611739990E-01 -0.40344314832E-04  0.10208726455E+01  0.10206122264E+01 0.  0.
     999903    2    3    3    0    0 -0.21604750825E-01 -0.12701982059E+00  0.31208978504E-01  0.13374081846E+00  0.17658032214E-01 0.  0.
         14    1    1    2    0    0  0.12125164925E-01  0.19611739990E-01  0.40344314832E-04  0.23057354522E-01  0.00000000000E+00 0.  1.
     999901    1    3    3    0    0  0.94795858998E-02  0.10740808060E+00 -0.31249322819E-01  0.88713182702E+00  0.88000000000E+00 0.  1.
        -11    1    4    4    0    0  0.10277809560E-04 -0.45836996842E-01  0.14539373241E-01  0.48090382411E-01  0.51100000000E-03 0. -1.
         11    1    4    4    0    0 -0.21615028634E-01 -0.81182823752E-01  0.16669605262E-01  0.85650436052E-01  0.51100000000E-03 0.  1.
</event>
<event>
 8    1  0.1099921E+005  0.1043930E+01  0.7957747E-01            NaN
         13   -1    0    0    0    0  0.00000000000E+00  0.00000000000E+00  0.74505805969E-08  0.10566000000E+00  0.10566000000E+00 0. -1.
     999900   -1    0    0    0    0 -0.00000000000E+00 -0.00000000000E+00 -0.74505805969E-08  0.93827000000E+00  0.93827000000E+00 0.  1.
     999902    2    1    2    0    0 -0.18522315426E-02  0.26011990439E-02  0.23751885079E-01  0.10199644196E+01  0.10196828273E+01 0.  0.
     999903    2    3    3    0    0  0.17986724863E-01  0.99885084239E-01 -0.77154756838E-01  0.12865084467E+00  0.17251985583E-01 0.  0.
         14    1    1    2    0    0  0.18522315426E-02 -0.26011990439E-02 -0.23751885079E-01  0.23965580380E-01  0.00000000000E+00 0.  1.
     999901    1    3    3    0    0 -0.19838956406E-01 -0.97283885195E-01  0.10090664192E+00  0.89131357495E+00  0.88000000000E+00 0. -1.
        -11    1    4    4    0    0  0.18367007664E-01  0.75704015699E-01 -0.51475179271E-01  0.93372373673E-01  0.51100000000E-03 0. -1.
         11    1    4    4    0    0 -0.38028280077E-03  0.24181068540E-01 -0.25679577567E-01  0.35278470995E-01  0.51100000000E-03 0.  1.
</event>
<event>
 8    1  0.1099921E+005  0.1043930E+01  0.7957747E-01            NaN
         13   -1    0    0    0    0  0.00000000000E+00  0.00000000000E+00  0.74505805969E-08  0.10566000000E+00  0.10566000000E+00 0. -1.
     999900   -1    0    0    0    0 -0.00000000000E+00 -0.00000000000E+00 -0.74505805969E-08  0.93827000000E+00  0.93827000000E+00 0. -1.
     999902    2    1    2    0    0 -0.20805243519E-01  0.20163994808E-02 -0.11367977905E-01  0.10201359893E+01  0.10198584616E+01 0.  0.
     999903    2    3    3    0    0 -0.12805874058E+00  0.26907580710E-01  0.12342097094E-01  0.13295784978E+00  0.20059997992E-01 0.  0.
         14    1    1    2    0    0  0.20805243519E-01 -0.20163994808E-02  0.11367977905E-01  0.23794010726E-01  0.00000000000E+00 0. -1.
     999901    1    3    3    0    0  0.10725349706E+00 -0.24891181229E-01 -0.23710074999E-01  0.88717813949E+00  0.88000000000E+00 0. -1.
        -11    1    4    4    0    0 -0.91386812336E-01  0.28229618765E-01  0.75396494781E-02  0.95945652740E-01  0.51100000000E-03 0. -1.
         11    1    4    4    0    0 -0.36671928245E-01 -0.13220380550E-02  0.48024476157E-02  0.37012197043E-01  0.51100000000E-03 0.  1.
</event>
<event>
 8    1  0.1099921E+005  0.1043930E+01  0.7957747E-01            NaN
         13   -1    0    0    0    0  0.00000000000E+00  0.00000000000E+00  0.74505805969E-08  0.10566000000E+00  0.10566000000E+00 0.  1.
     999900   -1    0    0    0    0 -0.00000000000E+00 -0.00000000000E+00 -0.74505805969E-08  0.93827000000E+00  0.93827000000E+00 0.  1.
     999902    2    1    2    0    0  0.15187294220E-01  0.14922709210E-01 -0.10126996886E-01  0.10203525272E+01  0.10200800864E+01 0.  0.
     999903    2    3    3    0    0  0.40384539412E-01 -0.17708140286E-01  0.12049146409E+00  0.12975674022E+00  0.19342426397E-01 0.  0.
         14    1    1    2    0    0 -0.15187294220E-01 -0.14922709210E-01  0.10126996886E-01  0.23577472762E-01  0.00000000000E+00 0. -1.
     999901    1    3    3    0    0 -0.25197245192E-01  0.32630849496E-01 -0.13061846097E+00  0.89059578702E+00  0.88000000000E+00 0.  1.
        -11    1    4    4    0    0  0.10690358547E-01 -0.14836312868E-01  0.47677844898E-01  0.51066994826E-01  0.51100000000E-03 0. -1.
         11    1    4    4    0    0  0.29694180865E-01 -0.28718274179E-02  0.72813619190E-01  0.78689745396E-01  0.51100000000E-03 0.  1.
</event>
<event>
 8    1  0.1099921E+005  0.1043930E+01  0.7957747E-01            NaN
         13   -1    0    0    0    0  0.00000000000E+00  0.00000000000E+00  0.74505805969E-08  0.10566000000E+00  0.10566000000E+00 0. -1.
     999900   -1    0    0    0    0 -0.00000000000E+00 -0.00000000000E+00 -0.74505805969E-08  0.93827000000E+00  0.93827000000E+00 0. -1.
     999902    2    1    2    0    0 -0.23132486253E-01 -0.26471427541E-02  0.43848985409E-02  0.10202372454E+01  0.10199621024E+01 0.  0.
     999903    2    3    3    0    0  0.36150937684E-01  0.86253921779E-02  0.12325806089E+00  0.13019655919E+00  0.19424385797E-01 0.  0.
         14    1    1    2    0    0  0.23132486253E-01  0.26471427541E-02 -0.43848985409E-02  0.23692754593E-01  0.00000000000E+00 0. -1.
     999901    1    3    3    0    0 -0.59283423937E-01 -0.11272534932E-01 -0.11887316235E+00  0.89004068622E+00  0.88000000000E+00 0.  1.
        -11    1    4    4    0    0  0.55693111103E-02  0.73967284119E-02  0.14489931198E-01  0.17203140544E-01  0.51100000000E-03 0. -1.
         11    1    4    4    0    0  0.30581626574E-01  0.12286637661E-02  0.10876812969E+00  0.11299341864E+00  0.51100000000E-03 0.  1.
</event>
<event>
 8    1  0.1099921E+005  0.1043930E+01  0.7957747E-01            NaN
         13   -1    0    0    0    0  0.00000000000E+00  0.00000000000E+00  0.74505805969E-08  0.10566000000E+00  0.10566000000E+00 0. -1.
     999900   -1    0    0    0    0 -0.00000000000E+00 -0.00000000000E+00 -0.74505805969E-08  0.93827000000E+00  0.93827000000E+00 0. -1.
     999902    2    1    2    0    0  0.16169765737E-01 -0.16341188381E-01 -0.41713902337E-02  0.10205655771E+01  0.10202980941E+01 0.  0.
     999903    2    3    3    0    0  0.84159055245E-01  0.92724146557E-01  0.31395171889E-01  0.13051907767E+00  0.19210905350E-01 0.  0.
         14    1    1    2    0    0 -0.16169765737E-01  0.16341188381E-01  0.41713902337E-02  0.23364422915E-01  0.00000000000E+00 0. -1.
     999901    1    3    3    0    0 -0.67989289509E-01 -0.10906533494E+00 -0.35566562123E-01  0.89004649941E+00  0.88000000000E+00 0. -1.
        -11    1    4    4    0    0  0.36665496428E-01  0.39230863146E-01  0.37629423591E-02  0.53831590239E-01  0.51100000000E-03 0.  1.
         11    1    4    4    0    0  0.47493558818E-01  0.53493283411E-01  0.27632229530E-01  0.76687487435E-01  0.51100000000E-03 0. -1.
</event>
<event>
 8    1  0.1099921E+005  0.1043930E+01  0.7957747E-01            NaN
         13   -1    0    0    0    0  0.00000000000E+00  0.00000000000E+00  0.74505805969E-08  0.10566000000E+00  0.10566000000E+00 0. -1.
     999900   -1    0    0    0    0 -0.00000000000E+00 -0.00000000000E+00 -0.74505805969E-08  0.93827000000E+00  0.93827000000E+00 0. -1.
     999902    2    1    2    0    0  0.99146287834E-02  0.19122964299E-01 -0.10231508102E-01  0.10200831682E+01  0.10198043924E+01 0.  0.
     999903    2    3    3    0    0  0.34487288476E-01  0.10429386598E+00 -0.73266104710E-01  0.13338634379E+00  0.18905318379E-01 0.  0.
         14    1    1    2    0    0 -0.99146287834E-02 -0.19122964299E-01  0.10231508102E-01  0.23846831771E-01  0.00000000000E+00 0. -1.
     999901    1    3    3    0    0 -0.24572659693E-01 -0.85170901682E-01  0.63034596608E-01  0.88669682444E+00  0.88000000000E+00 0.  1.
        -11    1    4    4    0    0 -0.12405325835E-02  0.17441248247E-01 -0.13049754026E-01  0.21824144030E-01  0.51100000000E-03 0. -1.
         11    1    4    4    0    0  0.35727821060E-01  0.86852617734E-01 -0.60216350683E-01  0.11156219976E+00  0.51100000000E-03 0.  1.
</event>
<event>
 8    1  0.1099921E+005  0.1043930E+01  0.7957747E-01            NaN
         13   -1    0    0    0    0  0.00000000000E+00  0.00000000000E+00  0.74505805969E-08  0.10566000000E+00  0.10566000000E+00 0.  1.
     999900   -1    0    0    0    0 -0.00000000000E+00 -0.00000000000E+00 -0.74505805969E-08  0.93827000000E+00  0.93827000000E+00 0. -1.
     999902    2    1    2    0    0  0.10916702790E-01  0.14515756030E-02 -0.21539429083E-01  0.10197385040E+01  0.10194515134E+01 0.  0.
     999903    2    3    3    0    0 -0.95675537088E-01 -0.57744499864E-01  0.58627778158E-01  0.12772232590E+00  0.19686048336E-01 0.  0.
         14    1    1    2    0    0 -0.10916702790E-01 -0.14515756030E-02  0.21539429083E-01  0.24191495960E-01  0.00000000000E+00 0.  1.
     999901    1    3    3    0    0  0.10659223988E+00  0.59196075467E-01 -0.80167207242E-01  0.89201617814E+00  0.88000000000E+00 0. -1.
        -11    1    4    4    0    0 -0.90823796500E-01 -0.59115980397E-01  0.55341739190E-01  0.12168249819E+00  0.51100000000E-03 0.  1.
         11    1    4    4    0    0 -0.48517405874E-02  0.13714805334E-02  0.32860389680E-02  0.60398277029E-02  0.51100000000E-03 0. -1.
</event>
<event>
 8    1  0.1099921E+005  0.1043930E+01  0.7957747E-01            NaN
         13   -1    0    0    0    0  0.00000000000E+00  0.00000000000E+00  0.74505805969E-08  0.10566000000E+00  0.10566000000E+00 0. -1.
     999900   -1    0    0    0    0 -0.00000000000E+00 -0.00000000000E+00 -0.74505805969E-08  0.93827000000E+00  0.93827000000E+00 0.  1.
     999902    2    1    2    0    0  0.34568105210E-02  0.79889448813E-02  0.22446784862E-01  0.10198544745E+01  0.10195702615E+01 0.  0.
     999903    2    3    3    0    0  0.10359121812E+00 -0.66887934306E-01  0.39087250213E-01  0.13086046340E+00  0.19786650168E-01 0.  0.
         14    1    1    2    0    0 -0.34568105210E-02 -0.79889448813E-02 -0.22446784862E-01  0.24075525538E-01  0.00000000000E+00 0.  1.
     999901    1    3    3    0    0 -0.10013440760E+00  0.74876879188E-01 -0.16640465351E-01  0.88899401106E+00  0.88000000000E+00 0. -1.
        -11    1    4    4    0    0  0.66993066955E-01 -0.32250586866E-01  0.20245670396E-01  0.77060493536E-01  0.51100000000E-03 0. -1.
         11    1    4    4    0    0  0.36598151162E-01 -0.34637347440E-01  0.18841579817E-01  0.53799969862E-01  0.51100000000E-03 0.  1.
</event>
<event>
 8    1  0.1099921E+005  0.1043930E+01  0.7957747E-01            NaN
         13   -1    0    0    0    0  0.00000000000E+00  0.00000000000E+00  0.74505805969E-08  0.10566000000E+00  0.10566000000E+00 0. -1.
     999900   -1    0    0    0    0 -0.00000000000E+00 -0.00000000000E+00 -0.74505805969E-08  0.93827000000E+00  0.93827000000E+00 0. -1.
     999902    2    1    2    0    0 -0.97106806050E-02  0.21363139297E-01 -0.18156294883E-03  0.10204627035E+01  0.10201928324E+01 0.  0.
     999903    2    3    3    0    0  0.86104597337E-01  0.37469107928E-01 -0.88770503210E-01  0.13069421114E+00  0.19566268284E-01 0.  0.
         14    1    1    2    0    0  0.97106806050E-02 -0.21363139297E-01  0.18156294883E-03  0.23467296469E-01  0.00000000000E+00 0. -1.
     999901    1    3    3    0    0 -0.95815277941E-01 -0.16105968631E-01  0.88588940261E-01  0.88976849239E+00  0.88000000000E+00 0. -1.
        -11    1    4    4    0    0  0.42897466117E-01  0.29089758140E-01 -0.50531397870E-01  0.72388465377E-01  0.51100000000E-03 0.  1.
         11    1    4    4    0    0  0.43207131219E-01  0.83793497880E-02 -0.38239105340E-01  0.58305745765E-01  0.51100000000E-03 0. -1.
</event>
<event>
 8    1  0.1099921E+005  0.1043930E+01  0.7957747E-01            NaN
         13   -1    0    0    0    0  0.00000000000E+00  0.00000000000E+00  0.74505805969E-08  0.10566000000E+00  0.10566000000E+00 0.  1.
     999900   -1    0    0    0    0 -0.00000000000E+00 -0.00000000000E+00 -0.74505805969E-08  0.93827000000E+00  0.93827000000E+00 0. -1.
     999902    2    1    2    0    0  0.49155586271E-02  0.17601924587E-01 -0.12021738120E-01  0.10220550679E+01  0.10218209477E+01 0.  0.
     999903    2    3    3    0    0  0.50706442922E-01 -0.90269110185E-01 -0.78853635743E-01  0.13177451228E+00  0.20663267136E-01 0.  0.
         14    1    1    2    0    0 -0.49155586271E-02 -0.17601924587E-01  0.12021738120E-01  0.21874932073E-01  0.00000000000E+00 0.  1.
     999901    1    3    3    0    0 -0.45790884295E-01  0.10787103477E+00  0.66831897623E-01  0.89028055565E+00  0.88000000000E+00 0.  1.
        -11    1    4    4    0    0  0.31022180090E-01 -0.35831605620E-01 -0.40380415443E-01  0.62266513401E-01  0.51100000000E-03 0.  1.
         11    1    4    4    0    0  0.19684262833E-01 -0.54437504565E-01 -0.38473220300E-01  0.69507998877E-01  0.51100000000E-03 0. -1.
</event>
<event>
 7    1  0.1099921E+005  0.1043930E+01  0.7957747E-01            NaN
         13   -1    0    0    0    0  0.00000000000E+00  0.00000000000E+00  0.74505805969E-08  0.10566000000E+00  0.10566000000E+00 0. -1.
     999900   -1    0    0    0    0 -0.00000000000E+00 -0.00000000000E+00 -0.74505805969E-08  0.93827000000E+00  0.93827000000E+00 0.  1.
     999903    2    1    2    0    0 -0.73018355904E-02 -0.82620013587E-01  0.80869241907E-01  0.11757120084E+00  0.20094017336E-01 0.  0.
         14    1    1    2    0    0  0.31793340913E-01 -0.36873993672E-02 -0.23936600452E-01  0.39967165044E-01  0.00000000000E+00 0.  1.
     999901    1    1    2    0    0 -0.24491505322E-01  0.86307412954E-01 -0.56932641455E-01  0.88639163411E+00  0.88000000000E+00 0.  1.
        -11    1    3    3    0    0 -0.43487636893E-02 -0.43242008630E-02  0.21893508239E-02  0.65318325728E-02  0.51100000000E-03 0.  1.
         11    1    3    3    0    0 -0.29530719011E-02 -0.78295812724E-01  0.78679891083E-01  0.11103936827E+00  0.51100000000E-03 0. -1.
</event>
<event>
 8    1  0.1099921E+005  0.1043930E+01  0.7957747E-01            NaN
         13   -1    0    0    0    0  0.00000000000E+00  0.00000000000E+00  0.74505805969E-08  0.10566000000E+00  0.10566000000E+00 0. -1.
     999900   -1    0    0    0    0 -0.00000000000E+00 -0.00000000000E+00 -0.74505805969E-08  0.93827000000E+00  0.93827000000E+00 0. -1.
     999902    2    1    2    0    0 -0.16237207393E-01 -0.27104039951E-02 -0.73523050173E-02  0.10259008685E+01  0.10257424347E+01 0.  0.
     999903    2    3    3    0    0 -0.95752215525E-01 -0.35628148008E-01  0.87418071166E-01  0.13663845582E+00  0.24296023030E-01 0.  0.
         14    1    1    2    0    0  0.16237207393E-01  0.27104039951E-02  0.73523050173E-02  0.18029131505E-01  0.00000000000E+00 0. -1.
     999901    1    3    3    0    0  0.79515008132E-01  0.32917744013E-01 -0.94770376183E-01  0.88926241267E+00  0.88000000000E+00 0. -1.
        -11    1    4    4    0    0 -0.73196300138E-01 -0.37712354167E-01  0.69508660641E-01  0.10775729690E+00  0.51100000000E-03 0.  1.
         11    1    4    4    0    0 -0.22555915387E-01  0.20842061592E-02  0.17909410525E-01  0.28881158921E-01  0.51100000000E-03 0. -1.
</event>
<event>
 8    1  0.1099921E+005  0.1043930E+01  0.7957747E-01            NaN
         13   -1    0    0    0    0  0.00000000000E+00  0.00000000000E+00  0.74505805969E-08  0.10566000000E+00  0.10566000000E+00 0.  1.
     999900   -1    0    0    0    0 -0.00000000000E+00 -0.00000000000E+00 -0.74505805969E-08  0.93827000000E+00  0.93827000000E+00 0.  1.
     999902    2    1    2    0    0  0.11678338916E-01  0.19299075633E-01 -0.59207072512E-02  0.10206084929E+01  0.10203420030E+01 0.  0.
     999903    2    3    3    0    0 -0.35113179298E-01  0.67694731583E-01  0.10415356531E+00  0.13119973917E+00  0.23449826177E-01 0.  0.
         14    1    1    2    0    0 -0.11678338916E-01 -0.19299075633E-01  0.59207072512E-02  0.23321507123E-01  0.00000000000E+00 0.  1.
     999901    1    3    3    0    0  0.46791518214E-01 -0.48395655950E-01 -0.11007427256E+00  0.88940875371E+00  0.88000000000E+00 0.  1.
        -11    1    4    4    0    0 -0.17446261017E-01  0.29615509459E-01  0.66257517695E-01  0.74644291115E-01  0.51100000000E-03 0.  1.
         11    1    4    4    0    0 -0.17666918280E-01  0.38079222124E-01  0.37896047612E-01  0.56555448055E-01  0.51100000000E-03 0. -1.
</event>
<event>
 8    1  0.1099921E+005  0.1043930E+01  0.7957747E-01            NaN
         13   -1    0    0    0    0  0.00000000000E+00  0.00000000000E+00  0.74505805969E-08  0.10566000000E+00  0.10566000000E+00 0. -1.
     999900   -1    0    0    0    0 -0.00000000000E+00 -0.00000000000E+00 -0.74505805969E-08  0.93827000000E+00  0.93827000000E+00 0.  1.
     999902    2    1    2    0    0 -0.15895282881E-01 -0.15280262840E-01 -0.26200420876E-02  0.10217261474E+01  0.10214848551E+01 0.  0.
     999903    2    3    3    0    0  0.70835700115E-01 -0.68787976572E-01 -0.85230541495E-01  0.13200156447E+00  0.20265381478E-01 0.  0.
         14    1    1    2    0    0  0.15895282881E-01  0.15280262840E-01  0.26200420876E-02  0.22203852613E-01  0.00000000000E+00 0.  1.
     999901    1    3    3    0    0 -0.86730982996E-01  0.53507713732E-01  0.82610499408E-01  0.88972458292E+00  0.88000000000E+00 0. -1.
        -11    1    4    4    0    0  0.61368829670E-01 -0.53117929449E-01 -0.77153799953E-01  0.11198489922E+00  0.51100000000E-03 0.  1.
         11    1    4    4    0    0  0.94668704448E-02 -0.15670047123E-01 -0.80767415420E-02  0.20016665251E-01  0.51100000000E-03 0. -1.
</event>
<event>
 8    1  0.1099921E+005  0.1043930E+01  0.7957747E-01            NaN
         13   -1    0    0    0    0  0.00000000000E+00  0.00000000000E+00  0.74505805969E-08  0.10566000000E+00  0.10566000000E+00 0.  1.
     999900   -1    0    0    0    0 -0.00000000000E+00 -0.00000000000E+00 -0.74505805969E-08  0.93827000000E+00  0.93827000000E+00 0. -1.
     999902    2    1    2    0    0 -0.22756863906E-01 -0.60308836605E-02 -0.24608176816E-02  0.10202593000E+01  0.10199846750E+01 0.  0.
     999903    2    3    3    0    0 -0.11018163157E+00  0.69749472050E-01  0.10178308591E-01  0.13259635736E+00  0.21753510798E-01 0.  0.
         14    1    1    2    0    0  0.22756863906E-01  0.60308836605E-02  0.24608176816E-02  0.23670699952E-01  0.00000000000E+00 0.  1.
     999901    1    3    3    0    0  0.87424767664E-01 -0.75780355711E-01 -0.12639126273E-01  0.88766294269E+00  0.88000000000E+00 0.  1.
        -11    1    4    4    0    0 -0.95058367887E-01  0.64864564028E-01  0.14819990473E-01  0.11603188446E+00  0.51100000000E-03 0.  1.
         11    1    4    4    0    0 -0.15123263683E-01  0.48849080219E-02 -0.46416818814E-02  0.16564472901E-01  0.51100000000E-03 0. -1.
</event>
<event>
 8    1  0.1099921E+005  0.1043930E+01  0.7957747E-01            NaN
         13   -1    0    0    0    0  0.00000000000E+00  0.00000000000E+00  0.74505805969E-08  0.10566000000E+00  0.10566000000E+00 0. -1.
     999900   -1    0    0    0    0 -0.00000000000E+00 -0.00000000000E+00 -0.74505805969E-08  0.93827000000E+00  0.93827000000E+00 0. -1.
     999902    2    1    2    0    0  0.14166198131E-01  0.17489227409E-01  0.94576529273E-02  0.10195168592E+01  0.10192245213E+01 0.  0.
     999903    2    3    3    0    0  0.12272420363E+00 -0.30616421556E-01 -0.27147619084E-01  0.13078802544E+00  0.19233277200E-01 0.  0.
         14    1    1    2    0    0 -0.14166198131E-01 -0.17489227409E-01 -0.94576529273E-02  0.24413140800E-01  0.00000000000E+00 0.  1.
     999901    1    3    3    0    0 -0.10855800549E+00  0.48105648964E-01  0.36605272012E-01  0.88872883376E+00  0.88000000000E+00 0.  1.
        -11    1    4    4    0    0  0.23089464331E-01 -0.11385952564E-01 -0.11150628434E-01  0.28059952145E-01  0.51100000000E-03 0. -1.
         11    1    4    4    0    0  0.99634739294E-01 -0.19230468991E-01 -0.15996990651E-01  0.10272807329E+00  0.51100000000E-03 0.  1.
</event>
<event>
 8    1  0.1099921E+005  0.1043930E+01  0.7957747E-01            NaN
         13   -1    0    0    0    0  0.00000000000E+00  0.00000000000E+00  0.74505805969E-08  0.10566000000E+00  0.10566000000E+00 0.  1.
     999900   -1    0    0    0    0 -0.00000000000E+00 -0.00000000000E+00 -0.74505805969E-08  0.93827000000E+00  0.93827000000E+00 0.  1.
     999902    2    1    2    0    0  0.35171658128E-03  0.16975053087E-01  0.20227508719E-01  0.10175211333E+01  0.10171783661E+01 0.  0.
     999903    2    3    3    0    0 -0.12596313129E-01 -0.46926410750E-01 -0.11340651109E+00  0.12504754836E+00  0.20373940751E-01 0.  0.
         14    1    1    2    0    0 -0.35171658128E-03 -0.16975053087E-01 -0.20227508719E-01  0.26408866709E-01  0.00000000000E+00 0. -1.
     999901    1    3    3    0    0  0.12948029710E-01  0.63901463836E-01  0.13363401981E+00  0.89247358493E+00  0.88000000000E+00 0. -1.
        -11    1    4    4    0    0 -0.38695419472E-03 -0.29828054417E-01 -0.49736384025E-01  0.57998548092E-01  0.51100000000E-03 0.  1.
         11    1    4    4    0    0 -0.12209358934E-01 -0.17098356333E-01 -0.63670127067E-01  0.67049000266E-01  0.51100000000E-03 0. -1.
</event>
<event>
 8    1  0.1099921E+005  0.1043930E+01  0.7957747E-01            NaN
         13   -1    0    0    0    0  0.00000000000E+00  0.00000000000E+00  0.74505805969E-08  0.10566000000E+00  0.10566000000E+00 0. -1.
     999900   -1    0    0    0    0 -0.00000000000E+00 -0.00000000000E+00 -0.74505805969E-08  0.93827000000E+00  0.93827000000E+00 0.  1.
     999902    2    1    2    0    0 -0.30562098574E-02 -0.93207124046E-02 -0.23083300341E-01  0.10188490340E+01  0.10185402787E+01 0.  0.
     999903    2    3    3    0    0  0.22823213216E-01  0.11463557370E+00  0.45756973689E-01  0.12712380241E+00  0.20113345793E-01 0.  0.
         14    1    1    2    0    0  0.30562098574E-02  0.93207124046E-02  0.23083300341E-01  0.25080965952E-01  0.00000000000E+00 0. -1.
     999901    1    3    3    0    0 -0.25879423073E-01 -0.12395628611E+00 -0.68840274030E-01  0.89172523163E+00  0.88000000000E+00 0. -1.
        -11    1    4    4    0    0  0.82083607445E-02  0.36012582698E-01  0.47263714120E-02  0.37240878164E-01  0.51100000000E-03 0. -1.
         11    1    4    4    0    0  0.14614852472E-01  0.78622991006E-01  0.41030602277E-01  0.89882924250E-01  0.51100000000E-03 0.  1.
</event>
<event>
 8    1  0.1099921E+005  0.1043930E+01  0.7957747E-01            NaN
         13   -1    0    0    0    0  0.00000000000E+00  0.00000000000E+00  0.74505805969E-08  0.10566000000E+00  0.10566000000E+00 0.  1.
     999900   -1    0    0    0    0 -0.00000000000E+00 -0.00000000000E+00 -0.74505805969E-08  0.93827000000E+00  0.93827000000E+00 0.  1.
     999902    2    1    2    0    0  0.25085901835E-01 -0.14967114419E-02 -0.12961018323E-01  0.10156540277E+01  0.10152603475E+01 0.  0.
     999903    2    3    3    0    0 -0.92992895382E-01 -0.79206450581E-01  0.90912351197E-02  0.12410049152E+00  0.19923379105E-01 0.  0.
         14    1    1    2    0    0 -0.25085901835E-01  0.14967114419E-02  0.12961018323E-01  0.28275972344E-01  0.00000000000E+00 0.  1.
     999901    1    3    3    0    0  0.11807879722E+00  0.77709739140E-01 -0.22052253443E-01  0.89155353613E+00  0.88000000000E+00 0.  1.
        -11    1    4    4    0    0 -0.84430909738E-01 -0.62738234967E-01  0.82638529587E-02  0.10551406083E+00  0.51100000000E-03 0.  1.
         11    1    4    4    0    0 -0.85619856445E-02 -0.16468215615E-01  0.82738216106E-03  0.18586430694E-01  0.51100000000E-03 0. -1.
</event>
<event>
 8    1  0.1099921E+005  0.1043930E+01  0.7957747E-01            NaN
         13   -1    0    0    0    0  0.00000000000E+00  0.00000000000E+00  0.74505805969E-08  0.10566000000E+00  0.10566000000E+00 0. -1.
     999900   -1    0    0    0    0 -0.00000000000E+00 -0.00000000000E+00 -0.74505805969E-08  0.93827000000E+00  0.93827000000E+00 0. -1.
     999902    2    1    2    0    0 -0.93981233077E-02  0.10477710539E-01 -0.17933936778E-01  0.10211323416E+01  0.10208778212E+01 0.  0.
     999903    2    3    3    0    0  0.17784031781E-01 -0.35416633508E-01 -0.12539706331E+00  0.13299187753E+00  0.19794097242E-01 0.  0.
         14    1    1    2    0    0  0.93981233077E-02 -0.10477710539E-01  0.17933936778E-01  0.22797658393E-01  0.00000000000E+00 0. -1.
     999901    1    3    3    0    0 -0.27182155089E-01  0.45894344046E-01  0.10746312653E+00  0.88814046408E+00  0.88000000000E+00 0.  1.
        -11    1    4    4    0    0  0.15987329844E-01 -0.14160481252E-01 -0.45032616568E-01  0.49842869307E-01  0.51100000000E-03 0. -1.
         11    1    4    4    0    0  0.17967019374E-02 -0.21256152256E-01 -0.80364446744E-01  0.83149008220E-01  0.51100000000E-03 0.  1.
</event>
<event>
 8    1  0.1099921E+005  0.1043930E+01  0.7957747E-01            NaN
         13   -1    0    0    0    0  0.00000000000E+00  0.00000000000E+00  0.74505805969E-08  0.10566000000E+00  0.10566000000E+00 0. -1.
     999900   -1    0    0    0    0 -0.00000000000E+00 -0.00000000000E+00 -0.74505805969E-08  0.93827000000E+00  0.93827000000E+00 0. -1.
     999902    2    1    2    0    0  0.83744492358E-03  0.16002837059E-01 -0.18248984490E-01  0.10196438405E+01  0.10193545722E+01 0.  0.
     999903    2    3    3    0    0  0.55577896062E-01 -0.99038335668E-01 -0.58915647505E-01  0.12954004550E+00  0.20299640487E-01 0.  0.
         14    1    1    2    0    0 -0.83744492358E-03 -0.16002837059E-01  0.18248984490E-01  0.24286159492E-01  0.00000000000E+00 0. -1.
     999901    1    3    3    0    0 -0.54740451139E-01  0.11504117273E+00  0.40666663015E-01  0.89010379501E+00  0.88000000000E+00 0.  1.
        -11    1    4    4    0    0  0.16401991587E-01 -0.15990921172E-01 -0.17374638941E-01  0.28755418399E-01  0.51100000000E-03 0. -1.
         11    1    4    4    0    0  0.39175904475E-01 -0.83047414495E-01 -0.41541008564E-01  0.10078462710E+00  0.51100000000E-03 0.  1.
</event>
<event>
 8    1  0.1099921E+005  0.1043930E+01  0.7957747E-01            NaN
         13   -1    0    0    0    0  0.00000000000E+00  0.00000000000E+00  0.74505805969E-08  0.10566000000E+00  0.10566000000E+00 0.  1.
     999900   -1    0    0    0    0 -0.00000000000E+00 -0.00000000000E+00 -0.74505805969E-08  0.93827000000E+00  0.93827000000E+00 0.  1.
     999902    2    1    2    0    0 -0.13599637906E-01  0.57768445110E-03  0.19908617249E-01  0.10198128503E+01  0.10195276419E+01 0.  0.
     999903    2    3    3    0    0  0.12707159414E+00 -0.42296091527E-02  0.61764803610E-02  0.12852160876E+00  0.17736272970E-01 0.  0.
         14    1    1    2    0    0  0.13599637906E-01 -0.57768445110E-03 -0.19908617249E-01  0.24117149733E-01  0.00000000000E+00 0. -1.
     999901    1    3    3    0    0 -0.14067123204E+00  0.48072936039E-02  0.13732136888E-01  0.89129124150E+00  0.88000000000E+00 0. -1.
        -11    1    4    4    0    0  0.47568639892E-01  0.62605213642E-03  0.10614921220E-01  0.48745308656E-01  0.51100000000E-03 0. -1.
         11    1    4    4    0    0  0.79502954247E-01 -0.48556612892E-02 -0.44384408593E-02  0.79776300108E-01  0.51100000000E-03 0.  1.
</event>
<event>
 8    1  0.1099921E+005  0.1043930E+01  0.7957747E-01            NaN
         13   -1    0    0    0    0  0.00000000000E+00  0.00000000000E+00  0.74505805969E-08  0.10566000000E+00  0.10566000000E+00 0. -1.
     999900   -1    0    0    0    0 -0.00000000000E+00 -0.00000000000E+00 -0.74505805969E-08  0.93827000000E+00  0.93827000000E+00 0.  1.
     999902    2    1    2    0    0  0.71369015696E-02 -0.21636074119E-01 -0.66841233808E-02  0.10201869469E+01  0.10199106206E+01 0.  0.
     999903    2    3    3    0    0  0.11701520450E+00  0.53647241976E-01  0.28051851655E-02  0.13011342960E+00  0.18736350869E-01 0.  0.
         14    1    1    2    0    0 -0.71369015696E-02  0.21636074119E-01  0.66841233808E-02  0.23743053146E-01  0.00000000000E+00 0.  1.
     999901    1    3    3    0    0 -0.10987830293E+00 -0.75283316095E-01 -0.94893085463E-02  0.89007351725E+00  0.88000000000E+00 0. -1.
        -11    1    4    4    0    0  0.51338209516E-01  0.20578317341E-01 -0.76565946944E-02  0.55838727279E-01  0.51100000000E-03 0.  1.
         11    1    4    4    0    0  0.65676994982E-01  0.33068924634E-01  0.10461779860E-01  0.74274702323E-01  0.51100000000E-03 0. -1.
</event>
<event>
 8    1  0.1099921E+005  0.1043930E+01  0.7957747E-01            NaN
         13   -1    0    0    0    0  0.00000000000E+00  0.00000000000E+00  0.74505805969E-08  0.10566000000E+00  0.10566000000E+00 0. -1.
     999900   -1    0    0    0    0 -0.00000000000E+00 -0.00000000000E+00 -0.74505805969E-08  0.93827000000E+00  0.93827000000E+00 0.  1.
     999902    2    1    2    0    0  0.16234732812E-01  0.15353271899E-01 -0.70842408877E-02  0.10204890961E+01  0.10202198387E+01 0.  0.
     999903    2    3    3    0    0 -0.53050525254E-01 -0.90237438935E-01  0.71020142087E-01  0.12804854353E+00  0.19885052253E-01 0.  0.
         14    1    1    2    0    0 -0.16234732812E-01 -0.15353271899E-01  0.70842408877E-02  0.23440903917E-01  0.00000000000E+00 0. -1.
     999901    1    3    3    0    0  0.69285258066E-01  0.10559071083E+00 -0.78104382974E-01  0.89244055255E+00  0.88000000000E+00 0.  1.
        -11    1    4    4    0    0 -0.13435433173E-01 -0.24623968832E-01  0.90357794070E-02  0.29474686361E-01  0.51100000000E-03 0. -1.
         11    1    4    4    0    0 -0.39615092081E-01 -0.65613470103E-01  0.61984362680E-01  0.98573857170E-01  0.51100000000E-03 0.  1.
</event>
<event>
 8    1  0.1099921E+005  0.1043930E+01  0.7957747E-01            NaN
         13   -1    0    0    0    0  0.00000000000E+00  0.00000000000E+00  0.74505805969E-08  0.10566000000E+00  0.10566000000E+00 0.  1.
     999900   -1    0    0    0    0 -0.00000000000E+00 -0.00000000000E+00 -0.74505805969E-08  0.93827000000E+00  0.93827000000E+00 0. -1.
     999902    2    1    2    0    0 -0.14785059473E-01 -0.13770610685E-01  0.12439393544E-01  0.10202030909E+01  0.10199271447E+01 0.  0.
     999903    2    3    3    0    0 -0.62523099972E-01  0.63349356739E-01 -0.91640252505E-01  0.12943994474E+00  0.20844289050E-01 0.  0.
         14    1    1    2    0    0  0.14785059473E-01  0.13770610685E-01 -0.12439393544E-01  0.23726909070E-01  0.00000000000E+00 0. -1.
     999901    1    3    3    0    0  0.47738040499E-01 -0.77119967424E-01  0.10407964605E+00  0.89076314619E+00  0.88000000000E+00 0.  1.
        -11    1    4    4    0    0 -0.19941702147E-01  0.23450435529E-01 -0.18671967079E-01  0.36006914428E-01  0.51100000000E-03 0. -1.
         11    1    4    4    0    0 -0.42581397825E-01  0.39898921210E-01 -0.72968285426E-01  0.93433030313E-01  0.51100000000E-03 0.  1.
</event>
<event>
 8    1  0.1099921E+005  0.1043930E+01  0.7957747E-01            NaN
         13   -1    0    0    0    0  0.00000000000E+00  0.00000000000E+00  0.74505805969E-08  0.10566000000E+00  0.10566000000E+00 0. -1.
     999900   -1    0    0    0    0 -0.00000000000E+00 -0.00000000000E+00 -0.74505805969E-08  0.93827000000E+00  0.93827000000E+00 0.  1.
     999902    2    1    2    0    0 -0.31647549254E-02  0.76975925614E-02  0.22267288190E-01  0.10201581526E+01  0.10198811478E+01 0.  0.
     999903    2    3    3    0    0 -0.62898832856E-01 -0.86581269618E-01  0.73984920064E-01  0.13160237081E+00  0.19820095442E-01 0.  0.
         14    1    1    2    0    0  0.31647549254E-02 -0.76975925614E-02 -0.22267288190E-01  0.23771847389E-01  0.00000000000E+00 0.  1.
     999901    1    3    3    0    0  0.59734077931E-01  0.94278862179E-01 -0.51717631874E-01  0.88855578180E+00  0.88000000000E+00 0. -1.
        -11    1    4    4    0    0 -0.40720172533E-01 -0.39320090274E-01  0.37235479841E-01  0.67756505446E-01  0.51100000000E-03 0. -1.
         11    1    4    4    0    0 -0.22178660323E-01 -0.47261179343E-01  0.36749440223E-01  0.63845865366E-01  0.51100000000E-03 0.  1.
</event>
<event>
 8    1  0.1099921E+005  0.1043930E+01  0.7957747E-01            NaN
         13   -1    0    0    0    0  0.00000000000E+00  0.00000000000E+00  0.74505805969E-08  0.10566000000E+00  0.10566000000E+00 0. -1.
     999900   -1    0    0    0    0 -0.00000000000E+00 -0.00000000000E+00 -0.74505805969E-08  0.93827000000E+00  0.93827000000E+00 0.  1.
     999902    2    1    2    0    0 -0.16622420446E-01  0.16635077203E-01  0.15317872516E-02  0.10203635614E+01  0.10200913785E+01 0.  0.
     999903    2    3    3    0    0  0.12003759226E+00 -0.12502251196E-01 -0.30722981240E-01  0.12875528809E+00  0.32690867145E-01 0.  0.
         14    1    1    2    0    0  0.16622420446E-01 -0.16635077203E-01 -0.15317872516E-02  0.23566438577E-01  0.00000000000E+00 0. -1.
     999901    1    3    3    0    0 -0.13666001271E+00  0.29137328399E-01  0.32254768492E-01  0.89160827333E+00  0.88000000000E+00 0.  1.
        -11    1    4    4    0    0  0.32529820411E-01 -0.19026265237E-02  0.62206490453E-02  0.33177805823E-01  0.51100000000E-03 0.  1.
         11    1    4    4    0    0  0.87507771850E-01 -0.10599624673E-01 -0.36943630286E-01  0.95577482270E-01  0.51100000000E-03 0. -1.
</event>
<event>
 8    1  0.1152147E+005  0.1043930E+01  0.7957747E-01            NaN
         13   -1    0    0    0    0  0.00000000000E+00  0.00000000000E+00  0.74505805969E-08  0.10566000000E+00  0.10566000000E+00 0. -1.
     999900   -1    0    0    0    0 -0.00000000000E+00 -0.00000000000E+00 -0.74505805969E-08  0.93827000000E+00  0.93827000000E+00 0.  1.
     999902    2    1    2    0    0  0.35199177230E-01  0.29155913013E-02 -0.51446338577E-02  0.10082375637E+01  0.10076055949E+01 0.  0.
     999903    2    3    3    0    0  0.62169723285E-01 -0.55719249741E-01 -0.86797191814E-01  0.12210405506E+00  0.20147914808E-01 0.  0.
         14    1    1    2    0    0 -0.35199177230E-01 -0.29155913013E-02  0.51446338577E-02  0.35692436283E-01  0.00000000000E+00 0. -1.
     999901    1    3    3    0    0 -0.26970546055E-01  0.58634841042E-01  0.81652557957E-01  0.88613350865E+00  0.88000000000E+00 0. -1.
        -11    1    4    4    0    0  0.35196489760E-01 -0.44295990866E-01 -0.57848825411E-01  0.80917707707E-01  0.51100000000E-03 0. -1.
         11    1    4    4    0    0  0.26973233525E-01 -0.11423258875E-01 -0.28948366403E-01  0.41186347356E-01  0.51100000000E-03 0.  1.
</event>
<event>
 8    1  0.1099921E+005  0.1043930E+01  0.7957747E-01            NaN
         13   -1    0    0    0    0  0.00000000000E+00  0.00000000000E+00  0.74505805969E-08  0.10566000000E+00  0.10566000000E+00 0.  1.
     999900   -1    0    0    0    0 -0.00000000000E+00 -0.00000000000E+00 -0.74505805969E-08  0.93827000000E+00  0.93827000000E+00 0. -1.
     999902    2    1    2    0    0 -0.22800658694E-01  0.29714880063E-02  0.68012567097E-02  0.10199517417E+01  0.10196698478E+01 0.  0.
     999903    2    3    3    0    0 -0.94744285038E-01  0.54188899736E-01 -0.71755524127E-01  0.13204956441E+00  0.19373069356E-01 0.  0.
         14    1    1    2    0    0  0.22800658694E-01 -0.29714880063E-02 -0.68012567097E-02  0.23978258292E-01  0.00000000000E+00 0.  1.
     999901    1    3    3    0    0  0.71943626344E-01 -0.51217411730E-01  0.78556780836E-01  0.88790217730E+00  0.88000000000E+00 0.  1.
        -11    1    4    4    0    0 -0.79457008698E-01  0.52697677987E-01 -0.64016401054E-01  0.11484259759E+00  0.51100000000E-03 0.  1.
         11    1    4    4    0    0 -0.15287276340E-01  0.14912217491E-02 -0.77391230730E-02  0.17206966820E-01  0.51100000000E-03 0. -1.
</event>
<event>
 8    1  0.1099921E+005  0.1043930E+01  0.7957747E-01            NaN
         13   -1    0    0    0    0  0.00000000000E+00  0.00000000000E+00  0.74505805969E-08  0.10566000000E+00  0.10566000000E+00 0. -1.
     999900   -1    0    0    0    0 -0.00000000000E+00 -0.00000000000E+00 -0.74505805969E-08  0.93827000000E+00  0.93827000000E+00 0. -1.
     999902    2    1    2    0    0 -0.47584987543E-02 -0.13927646523E-01 -0.18024334326E-01  0.10206598630E+01  0.10203945593E+01 0.  0.
     999903    2    3    3    0    0  0.22735752014E-01 -0.12815204152E+00  0.10156007356E-01  0.13240467563E+00  0.22090574367E-01 0.  0.
         14    1    1    2    0    0  0.47584987543E-02  0.13927646523E-01  0.18024334326E-01  0.23270136999E-01  0.00000000000E+00 0. -1.
     999901    1    3    3    0    0 -0.27494250768E-01  0.11422439500E+00 -0.28180341683E-01  0.88825518737E+00  0.88000000000E+00 0.  1.
        -11    1    4    4    0    0  0.11654971741E-01 -0.10631525858E+00  0.13029049976E-01  0.10774409421E+00  0.51100000000E-03 0. -1.
         11    1    4    4    0    0  0.11080780273E-01 -0.21836782945E-01 -0.28730426201E-02  0.24660581415E-01  0.51100000000E-03 0.  1.
</event>
<event>
 8    1  0.1099921E+005  0.1043930E+01  0.7957747E-01            NaN
         13   -1    0    0    0    0  0.00000000000E+00  0.00000000000E+00  0.74505805969E-08  0.10566000000E+00  0.10566000000E+00 0. -1.
     999900   -1    0    0    0    0 -0.00000000000E+00 -0.00000000000E+00 -0.74505805969E-08  0.93827000000E+00  0.93827000000E+00 0.  1.
     999902    2    1    2    0    0 -0.12265596651E-01 -0.13557121462E-01 -0.90211385214E-02  0.10235432066E+01  0.10233401558E+01 0.  0.
     999903    2    3    3    0    0  0.80215528108E-01 -0.10335208252E+00  0.21205287377E-01  0.13363898129E+00  0.17132693789E-01 0.  0.
         14    1    1    2    0    0  0.12265596651E-01  0.13557121462E-01  0.90211385214E-02  0.20386793367E-01  0.00000000000E+00 0.  1.
     999901    1    3    3    0    0 -0.92481124759E-01  0.89794961054E-01 -0.30226425898E-01  0.88990422535E+00  0.88000000000E+00 0. -1.
        -11    1    4    4    0    0  0.14850942655E-01 -0.16515395525E-01  0.10032883955E-01  0.24376805954E-01  0.51100000000E-03 0.  1.
         11    1    4    4    0    0  0.65364585453E-01 -0.86836686991E-01  0.11172403422E-01  0.10926217533E+00  0.51100000000E-03 0. -1.
</event>
<event>
 8    1  0.1099921E+005  0.1043930E+01  0.7957747E-01            NaN
         13   -1    0    0    0    0  0.00000000000E+00  0.00000000000E+00  0.74505805969E-08  0.10566000000E+00  0.10566000000E+00 0.  1.
     999900   -1    0    0    0    0 -0.00000000000E+00 -0.00000000000E+00 -0.74505805969E-08  0.93827000000E+00  0.93827000000E+00 0. -1.
     999902    2    1    2    0    0 -0.12028787305E-01 -0.15498658324E-01  0.13373719532E-01  0.10201864428E+01  0.10199101047E+01 0.  0.
     999903    2    3    3    0    0  0.10284812350E+00  0.69804745021E-01 -0.22700499372E-01  0.12790020817E+00  0.19816953463E-01 0.  0.
         14    1    1    2    0    0  0.12028787305E-01  0.15498658324E-01 -0.13373719532E-01  0.23743557189E-01  0.00000000000E+00 0. -1.
     999901    1    3    3    0    0 -0.11487691080E+00 -0.85303403345E-01  0.36074218905E-01  0.89228623464E+00  0.88000000000E+00 0.  1.
        -11    1    4    4    0    0  0.29092520673E-01  0.28159072474E-01 -0.11901039096E-02  0.40509080340E-01  0.51100000000E-03 0. -1.
         11    1    4    4    0    0  0.73755602823E-01  0.41645672547E-01 -0.21510395463E-01  0.87391127831E-01  0.51100000000E-03 0.  1.
</event>
<event>
 8    1  0.1099921E+005  0.1043930E+01  0.7957747E-01            NaN
         13   -1    0    0    0    0  0.00000000000E+00  0.00000000000E+00  0.74505805969E-08  0.10566000000E+00  0.10566000000E+00 0.  1.
     999900   -1    0    0    0    0 -0.00000000000E+00 -0.00000000000E+00 -0.74505805969E-08  0.93827000000E+00  0.93827000000E+00 0. -1.
     999902    2    1    2    0    0 -0.46448118198E-02 -0.18720898395E-01  0.20050008642E-02  0.10245375700E+01  0.10243540237E+01 0.  0.
     999903    2    3    3    0    0 -0.63038787325E-01 -0.51622703859E-02 -0.11690506820E+00  0.13451886383E+00  0.20687967824E-01 0.  0.
         14    1    1    2    0    0  0.46448118198E-02  0.18720898395E-01 -0.20050008642E-02  0.19392430019E-01  0.00000000000E+00 0. -1.
     999901    1    3    3    0    0  0.58393975506E-01 -0.13558628009E-01  0.11891006907E+00  0.89001870615E+00  0.88000000000E+00 0.  1.
        -11    1    4    4    0    0 -0.51202115578E-01 -0.12357877562E-01 -0.93521935751E-01  0.10733586244E+00  0.51100000000E-03 0.  1.
         11    1    4    4    0    0 -0.11836671748E-01  0.71956071759E-02 -0.23383132451E-01  0.27183001396E-01  0.51100000000E-03 0. -1.
</event>
<event>
 8    1  0.1099921E+005  0.1043930E+01  0.7957747E-01            NaN
         13   -1    0    0    0    0  0.00000000000E+00  0.00000000000E+00  0.74505805969E-08  0.10566000000E+00  0.10566000000E+00 0.  1.
     999900   -1    0    0    0    0 -0.00000000000E+00 -0.00000000000E+00 -0.74505805969E-08  0.93827000000E+00  0.93827000000E+00 0. -1.
     999902    2    1    2    0    0 -0.23755453504E-01 -0.54284307188E-02  0.27512244682E-03  0.10195606520E+01  0.10192693746E+01 0.  0.
     999903    2    3    3    0    0 -0.11309546277E+00 -0.20897843514E-01  0.64015311142E-01  0.13260870758E+00  0.16118489487E-01 0.  0.
         14    1    1    2    0    0  0.23755453504E-01  0.54284307188E-02 -0.27512244682E-03  0.24369348034E-01  0.00000000000E+00 0. -1.
     999901    1    3    3    0    0  0.89340009267E-01  0.15469412796E-01 -0.63740188695E-01  0.88695194438E+00  0.88000000000E+00 0. -1.
        -11    1    4    4    0    0 -0.97050184824E-01 -0.20901680519E-01  0.60217665768E-01  0.11611221733E+00  0.51100000000E-03 0.  1.
         11    1    4    4    0    0 -0.16045277948E-01  0.38370049816E-05  0.37976453740E-02  0.16496490249E-01  0.51100000000E-03 0. -1.
</event>
<event>
 8    1  0.1099921E+005  0.1043930E+01  0.7957747E-01            NaN
         13   -1    0    0    0    0  0.00000000000E+00  0.00000000000E+00  0.74505805969E-08  0.10566000000E+00  0.10566000000E+00 0. -1.
     999900   -1    0    0    0    0 -0.00000000000E+00 -0.00000000000E+00 -0.74505805969E-08  0.93827000000E+00  0.93827000000E+00 0. -1.
     999902    2    1    2    0    0  0.18909080880E-01 -0.13634643939E-01 -0.17375691131E-02  0.10205531738E+01  0.10202854035E+01 0.  0.
     999903    2    3    3    0    0  0.44122469107E-01  0.32658495211E-01  0.11744580160E+00  0.13095582361E+00  0.18507885738E-01 0.  0.
         14    1    1    2    0    0 -0.18909080880E-01  0.13634643939E-01  0.17375691131E-02  0.23376826164E-01  0.00000000000E+00 0.  1.
     999901    1    3    3    0    0 -0.25213388226E-01 -0.46293139150E-01 -0.11918337071E+00  0.88959735023E+00  0.88000000000E+00 0. -1.
        -11    1    4    4    0    0  0.10607917198E-01 -0.12677531171E-03  0.16073065272E-01  0.19265215480E-01  0.51100000000E-03 0. -1.
         11    1    4    4    0    0  0.33514551909E-01  0.32785270522E-01  0.10137273633E+00  0.11169060813E+00  0.51100000000E-03 0.  1.
</event>
<event>
 8    1  0.1099921E+005  0.1043930E+01  0.7957747E-01            NaN
         13   -1    0    0    0    0  0.00000000000E+00  0.00000000000E+00  0.74505805969E-08  0.10566000000E+00  0.10566000000E+00 0. -1.
     999900   -1    0    0    0    0 -0.00000000000E+00 -0.00000000000E+00 -0.74505805969E-08  0.93827000000E+00  0.93827000000E+00 0. -1.
     999902    2    1    2    0    0  0.82266924977E-02  0.11154527479E-01 -0.18607244402E-01  0.10207280282E+01  0.10204642943E+01 0.  0.
     999903    2    3    3    0    0  0.14505280771E-01 -0.11895950665E+00 -0.48122406478E-01  0.13064925225E+00  0.19791253529E-01 0.  0.
         14    1    1    2    0    0 -0.82266924977E-02 -0.11154527479E-01  0.18607244402E-01  0.23201971834E-01  0.00000000000E+00 0. -1.
     999901    1    3    3    0    0 -0.62785882731E-02  0.13011403412E+00  0.29515162076E-01  0.89007877592E+00  0.88000000000E+00 0.  1.
        -11    1    4    4    0    0 -0.13739586075E-02 -0.67862788597E-01 -0.24618707645E-01  0.72205177969E-01  0.51100000000E-03 0.  1.
         11    1    4    4    0    0  0.15879239378E-01 -0.51096718049E-01 -0.23503698833E-01  0.58444074280E-01  0.51100000000E-03 0. -1.
</event>
<event>
 8    1  0.1099921E+005  0.1043930E+01  0.7957747E-01            NaN
         13   -1    0    0    0    0  0.00000000000E+00  0.00000000000E+00  0.74505805969E-08  0.10566000000E+00  0.10566000000E+00 0.  1.
     999900   -1    0    0    0    0 -0.00000000000E+00 -0.00000000000E+00 -0.74505805969E-08  0.93827000000E+00  0.93827000000E+00 0.  1.
     999902    2    1    2    0    0  0.45812589551E-02  0.16535905222E-02 -0.22661312075E-01  0.10207511873E+01  0.10204879857E+01 0.  0.
     999903    2    3    3    0    0  0.10041650122E+00 -0.74049122629E-01  0.32772602968E-01  0.13058928436E+00  0.20316776434E-01 0.  0.
         14    1    1    2    0    0 -0.45812589551E-02 -0.16535905222E-02  0.22661312075E-01  0.23178812743E-01  0.00000000000E+00 0.  1.
     999901    1    3    3    0    0 -0.95835242263E-01  0.75702713151E-01 -0.55433915042E-01  0.89016190290E+00  0.88000000000E+00 0.  1.
        -11    1    4    4    0    0  0.30705225227E-01 -0.25079404972E-01  0.99363657022E-03  0.39661515915E-01  0.51100000000E-03 0. -1.
         11    1    4    4    0    0  0.69711275990E-01 -0.48969717657E-01  0.31778966398E-01  0.90927768442E-01  0.51100000000E-03 0.  1.
</event>
<event>
 8    1  0.1099921E+005  0.1043930E+01  0.7957747E-01            NaN
         13   -1    0    0    0    0  0.00000000000E+00  0.00000000000E+00  0.74505805969E-08  0.10566000000E+00  0.10566000000E+00 0. -1.
     999900   -1    0    0    0    0 -0.00000000000E+00 -0.00000000000E+00 -0.74505805969E-08  0.93827000000E+00  0.93827000000E+00 0. -1.
     999902    2    1    2    0    0 -0.63460733565E-02 -0.18974829226E-01 -0.11680290368E-01  0.10207622212E+01  0.10204992730E+01 0.  0.
     999903    2    3    3    0    0  0.80094838361E-01 -0.80859689457E-01 -0.65205372370E-01  0.13274943889E+00  0.20425484804E-01 0.  0.
         14    1    1    2    0    0  0.63460733565E-02  0.18974829226E-01  0.11680290368E-01  0.23167778795E-01  0.00000000000E+00 0. -1.
     999901    1    3    3    0    0 -0.86440911718E-01  0.61884860231E-01  0.53525082002E-01  0.88801278231E+00  0.88000000000E+00 0.  1.
        -11    1    4    4    0    0  0.25888736706E-01 -0.19191390483E-01 -0.27632078686E-01  0.42453846120E-01  0.51100000000E-03 0.  1.
         11    1    4    4    0    0  0.54206101656E-01 -0.61668298974E-01 -0.37573293684E-01  0.90295592774E-01  0.51100000000E-03 0. -1.
</event>
<event>
 8    1  0.1099921E+005  0.1043930E+01  0.7957747E-01            NaN
         13   -1    0    0    0    0  0.00000000000E+00  0.00000000000E+00  0.74505805969E-08  0.10566000000E+00  0.10566000000E+00 0. -1.
     999900   -1    0    0    0    0 -0.00000000000E+00 -0.00000000000E+00 -0.74505805969E-08  0.93827000000E+00  0.93827000000E+00 0.  1.
     999902    2    1    2    0    0 -0.39777696524E-02  0.22973843096E-01  0.24536381929E-02  0.10204855879E+01  0.10202162490E+01 0.  0.
     999903    2    3    3    0    0  0.12125231137E-01  0.10675083737E-02  0.12852786877E+00  0.13108471892E+00  0.22707480700E-01 0.  0.
         14    1    1    2    0    0  0.39777696524E-02 -0.22973843096E-01 -0.24536381929E-02  0.23444412093E-01  0.00000000000E+00 0.  1.
     999901    1    3    3    0    0 -0.16103000789E-01  0.21906334722E-01 -0.12607423058E+00  0.88940086898E+00  0.88000000000E+00 0.  1.
        -11    1    4    4    0    0  0.26690488813E-02  0.86571697726E-02  0.21030220488E-01  0.22904185320E-01  0.51100000000E-03 0.  1.
         11    1    4    4    0    0  0.94561822555E-02 -0.75896613989E-02  0.10749764828E+00  0.10818053360E+00  0.51100000000E-03 0. -1.
</event>
<event>
 8    1  0.1099921E+005  0.1043930E+01  0.7957747E-01            NaN
         13   -1    0    0    0    0  0.00000000000E+00  0.00000000000E+00  0.74505805969E-08  0.10566000000E+00  0.10566000000E+00 0. -1.
     999900   -1    0    0    0    0 -0.00000000000E+00 -0.00000000000E+00 -0.74505805969E-08  0.93827000000E+00  0.93827000000E+00 0. -1.
     999902    2    1    2    0    0 -0.15335565005E-01 -0.17764101291E-01  0.18696038494E-02  0.10203877344E+01  0.10201161161E+01 0.  0.
     999903    2    3    3    0    0 -0.85188069590E-01 -0.72967092983E-01 -0.67966598485E-01  0.13314265115E+00  0.22941298699E-01 0.  0.
         14    1    1    2    0    0  0.15335565005E-01  0.17764101291E-01 -0.18696038494E-02  0.23542265550E-01  0.00000000000E+00 0. -1.
     999901    1    3    3    0    0  0.69852504584E-01  0.55202991693E-01  0.69836202334E-01  0.88724508330E+00  0.88000000000E+00 0.  1.
        -11    1    4    4    0    0 -0.16456061057E-01 -0.26912917587E-01 -0.15280481470E-01  0.35055118221E-01  0.51100000000E-03 0. -1.
         11    1    4    4    0    0 -0.68732008532E-01 -0.46054175396E-01 -0.52686117015E-01  0.98087532925E-01  0.51100000000E-03 0.  1.
</event>
<event>
 8    1  0.1099921E+005  0.1043930E+01  0.7957747E-01            NaN
         13   -1    0    0    0    0  0.00000000000E+00  0.00000000000E+00  0.74505805969E-08  0.10566000000E+00  0.10566000000E+00 0.  1.
     999900   -1    0    0    0    0 -0.00000000000E+00 -0.00000000000E+00 -0.74505805969E-08  0.93827000000E+00  0.93827000000E+00 0.  1.
     999902    2    1    2    0    0  0.21806841524E-01 -0.32173245962E-02 -0.56303517175E-02  0.10211793874E+01  0.10209259282E+01 0.  0.
     999903    2    3    3    0    0  0.65848658938E-01  0.10077712758E+00  0.53174282800E-01  0.13201544702E+00  0.10416264866E-01 0.  0.
         14    1    1    2    0    0 -0.21806841524E-01  0.32173245962E-02  0.56303517175E-02  0.22750612635E-01  0.00000000000E+00 0. -1.
     999901    1    3    3    0    0 -0.44041817415E-01 -0.10399445218E+00 -0.58804634518E-01  0.88916394034E+00  0.88000000000E+00 0.  1.
        -11    1    4    4    0    0  0.44947125562E-01  0.62039994762E-01  0.30081460675E-01  0.82306503046E-01  0.51100000000E-03 0. -1.
         11    1    4    4    0    0  0.20901533376E-01  0.38737132819E-01  0.23092822126E-01  0.49708943976E-01  0.51100000000E-03 0.  1.
</event>
<event>
 8    1  0.1099921E+005  0.1043930E+01  0.7957747E-01            NaN
         13   -1    0    0    0    0  0.00000000000E+00  0.00000000000E+00  0.74505805969E-08  0.10566000000E+00  0.10566000000E+00 0. -1.
     999900   -1    0    0    0    0 -0.00000000000E+00 -0.00000000000E+00 -0.74505805969E-08  0.93827000000E+00  0.93827000000E+00 0.  1.
     999902    2    1    2    0    0  0.18403178280E-01 -0.14662193183E-01  0.49255830709E-02  0.10198900697E+01  0.10196067066E+01 0.  0.
     999903    2    3    3    0    0 -0.92815050805E-01 -0.64688664156E-01 -0.59078071437E-01  0.12917765256E+00  0.19934654984E-01 0.  0.
         14    1    1    2    0    0 -0.18403178280E-01  0.14662193183E-01 -0.49255830709E-02  0.24039930290E-01  0.00000000000E+00 0.  1.
     999901    1    3    3    0    0  0.11121822909E+00  0.50026470973E-01  0.64003654508E-01  0.89071241715E+00  0.88000000000E+00 0. -1.
        -11    1    4    4    0    0 -0.28000345025E-01 -0.11781736252E-01 -0.22786017636E-01  0.37977524292E-01  0.51100000000E-03 0.  1.
         11    1    4    4    0    0 -0.64814705780E-01 -0.52906927904E-01 -0.36292053801E-01  0.91200128266E-01  0.51100000000E-03 0. -1.
</event>
<event>
 8    1  0.1099921E+005  0.1043930E+01  0.7957747E-01            NaN
         13   -1    0    0    0    0  0.00000000000E+00  0.00000000000E+00  0.74505805969E-08  0.10566000000E+00  0.10566000000E+00 0.  1.
     999900   -1    0    0    0    0 -0.00000000000E+00 -0.00000000000E+00 -0.74505805969E-08  0.93827000000E+00  0.93827000000E+00 0. -1.
     999902    2    1    2    0    0 -0.67410857792E-02  0.11230714694E-01 -0.19072542457E-01  0.10207927343E+01  0.10205304862E+01 0.  0.
     999903    2    3    3    0    0 -0.62422163604E-01  0.11478648143E+00  0.57309163770E-02  0.13262642618E+00  0.22010513185E-01 0.  0.
         14    1    1    2    0    0  0.67410857792E-02 -0.11230714694E-01  0.19072542457E-01  0.23137265737E-01  0.00000000000E+00 0.  1.
     999901    1    3    3    0    0  0.55681077825E-01 -0.10355576673E+00 -0.24803458834E-01  0.88816630809E+00  0.88000000000E+00 0. -1.
        -11    1    4    4    0    0 -0.29068064585E-01  0.75167977723E-01  0.77362632424E-03  0.80597995461E-01  0.51100000000E-03 0.  1.
         11    1    4    4    0    0 -0.33354099018E-01  0.39618503702E-01  0.49572900528E-02  0.52028430714E-01  0.51100000000E-03 0. -1.
</event>
<event>
 8    1  0.1099921E+005  0.1043930E+01  0.7957747E-01            NaN
         13   -1    0    0    0    0  0.00000000000E+00  0.00000000000E+00  0.74505805969E-08  0.10566000000E+00  0.10566000000E+00 0. -1.
     999900   -1    0    0    0    0 -0.00000000000E+00 -0.00000000000E+00 -0.74505805969E-08  0.93827000000E+00  0.93827000000E+00 0.  1.
     999902    2    1    2    0    0 -0.49854258354E-02  0.10039666602E-01  0.19130800136E-01  0.10217571136E+01  0.10215165013E+01 0.  0.
     999903    2    3    3    0    0  0.61650726920E-01  0.13416735699E-01  0.11593885489E+00  0.13393754811E+00  0.22729447750E-01 0.  0.
         14    1    1    2    0    0  0.49854258354E-02 -0.10039666602E-01 -0.19130800136E-01  0.22172886372E-01  0.00000000000E+00 0.  1.
     999901    1    3    3    0    0 -0.66636152756E-01 -0.33770690977E-02 -0.96808054750E-01  0.88781956552E+00  0.88000000000E+00 0.  1.
        -11    1    4    4    0    0  0.41321759290E-01  0.91481538364E-02  0.96962303397E-01  0.10579757044E+00  0.51100000000E-03 0.  1.
         11    1    4    4    0    0  0.20328967631E-01  0.42685818629E-02  0.18976551490E-01  0.28139977674E-01  0.51100000000E-03 0. -1.
</event>
<event>
 8    1  0.1099921E+005  0.1043930E+01  0.7957747E-01            NaN
         13   -1    0    0    0    0  0.00000000000E+00  0.00000000000E+00  0.74505805969E-08  0.10566000000E+00  0.10566000000E+00 0. -1.
     999900   -1    0    0    0    0 -0.00000000000E+00 -0.00000000000E+00 -0.74505805969E-08  0.93827000000E+00  0.93827000000E+00 0. -1.
     999902    2    1    2    0    0  0.51359507605E-03  0.22396655899E-01  0.80552024651E-02  0.10201232728E+01  0.10198454448E+01 0.  0.
     999903    2    3    3    0    0  0.91975001628E-02  0.72845655413E-01 -0.10814392763E+00  0.13100981003E+00  0.87964606234E-02 0.  0.
         14    1    1    2    0    0 -0.51359507605E-03 -0.22396655899E-01 -0.80552024651E-02  0.23806727245E-01  0.00000000000E+00 0. -1.
     999901    1    3    3    0    0 -0.86839050867E-02 -0.50448999514E-01  0.11619913010E+00  0.88911346272E+00  0.88000000000E+00 0.  1.
        -11    1    4    4    0    0  0.49829809520E-02  0.33673750557E-01 -0.57792378342E-01  0.67074374326E-01  0.51100000000E-03 0.  1.
         11    1    4    4    0    0  0.42145192108E-02  0.39171904856E-01 -0.50351549288E-01  0.63935435707E-01  0.51100000000E-03 0. -1.
</event>
<event>
 8    1  0.1099921E+005  0.1043930E+01  0.7957747E-01            NaN
         13   -1    0    0    0    0  0.00000000000E+00  0.00000000000E+00  0.74505805969E-08  0.10566000000E+00  0.10566000000E+00 0. -1.
     999900   -1    0    0    0    0 -0.00000000000E+00 -0.00000000000E+00 -0.74505805969E-08  0.93827000000E+00  0.93827000000E+00 0. -1.
     999902    2    1    2    0    0 -0.54001240008E-02  0.20819559903E-01 -0.78558993497E-02  0.10210317344E+01  0.10207749370E+01 0.  0.
     999903    2    3    3    0    0  0.46768256103E-01 -0.89900338076E-01  0.75971791170E-01  0.12861506186E+00  0.22378125908E-01 0.  0.
         14    1    1    2    0    0  0.54001240008E-02 -0.20819559903E-01  0.78558993497E-02  0.22898265620E-01  0.00000000000E+00 0. -1.
     999901    1    3    3    0    0 -0.52168380103E-01  0.11071989798E+00 -0.83827690520E-01  0.89241667252E+00  0.88000000000E+00 0. -1.
        -11    1    4    4    0    0  0.12841082859E-01 -0.40539729998E-01  0.21506027754E-01  0.47656410567E-01  0.51100000000E-03 0. -1.
         11    1    4    4    0    0  0.33927173243E-01 -0.49360608077E-01  0.54465763416E-01  0.80958651295E-01  0.51100000000E-03 0.  1.
</event>
<event>
 8    1  0.1099921E+005  0.1043930E+01  0.7957747E-01            NaN
         13   -1    0    0    0    0  0.00000000000E+00  0.00000000000E+00  0.74505805969E-08  0.10566000000E+00  0.10566000000E+00 0. -1.
     999900   -1    0    0    0    0 -0.00000000000E+00 -0.00000000000E+00 -0.74505805969E-08  0.93827000000E+00  0.93827000000E+00 0. -1.
     999902    2    1    2    0    0 -0.17939192917E-01  0.18885507923E-01 -0.67991716577E-02  0.10170096399E+01  0.10166532850E+01 0.  0.
     999903    2    3    3    0    0  0.90814210211E-01 -0.38587971608E-01 -0.75562145906E-01  0.12579762800E+00  0.19471851187E-01 0.  0.
         14    1    1    2    0    0  0.17939192917E-01 -0.18885507923E-01  0.67991716577E-02  0.26920360088E-01  0.00000000000E+00 0. -1.
     999901    1    3    3    0    0 -0.10875340313E+00  0.57473479531E-01  0.68762974249E-01  0.89121201191E+00  0.88000000000E+00 0. -1.
        -11    1    4    4    0    0  0.62268645810E-01 -0.24123195844E-01 -0.39526272061E-01  0.77600902912E-01  0.51100000000E-03 0.  1.
         11    1    4    4    0    0  0.28545564400E-01 -0.14464775764E-01 -0.36035873845E-01  0.48196725092E-01  0.51100000000E-03 0. -1.
</event>
<event>
 8    1  0.1099921E+005  0.1043930E+01  0.7957747E-01            NaN
         13   -1    0    0    0    0  0.00000000000E+00  0.00000000000E+00  0.74505805969E-08  0.10566000000E+00  0.10566000000E+00 0. -1.
     999900   -1    0    0    0    0 -0.00000000000E+00 -0.00000000000E+00 -0.74505805969E-08  0.93827000000E+00  0.93827000000E+00 0. -1.
     999902    2    1    2    0    0  0.19362642377E-01 -0.23731417577E-02  0.11563623873E-01  0.10212526739E+01  0.10210008633E+01 0.  0.
     999903    2    3    3    0    0  0.22532120061E-01 -0.98803451692E-01  0.83773847294E-01  0.13303920484E+00  0.20286794569E-01 0.  0.
         14    1    1    2    0    0 -0.19362642377E-01  0.23731417577E-02 -0.11563623873E-01  0.22677326093E-01  0.00000000000E+00 0.  1.
     999901    1    3    3    0    0 -0.31694776838E-02  0.96430309934E-01 -0.72210223421E-01  0.88821346907E+00  0.88000000000E+00 0. -1.
        -11    1    4    4    0    0  0.39704279038E-02 -0.50232074275E-01  0.32198477231E-01  0.59799905023E-01  0.51100000000E-03 0. -1.
         11    1    4    4    0    0  0.18561692157E-01 -0.48571377417E-01  0.51575370063E-01  0.73239299819E-01  0.51100000000E-03 0.  1.
</event>
<event>
 8    1  0.1099921E+005  0.1043930E+01  0.7957747E-01            NaN
         13   -1    0    0    0    0  0.00000000000E+00  0.00000000000E+00  0.74505805969E-08  0.10566000000E+00  0.10566000000E+00 0. -1.
     999900   -1    0    0    0    0 -0.00000000000E+00 -0.00000000000E+00 -0.74505805969E-08  0.93827000000E+00  0.93827000000E+00 0.  1.
     999902    2    1    2    0    0 -0.99203164276E-02 -0.44402096029E-02  0.20453145804E-01  0.10207684087E+01  0.10205056026E+01 0.  0.
     999903    2    3    3    0    0 -0.11239141946E+00  0.24772186460E-01 -0.61237056472E-01  0.13058473090E+00  0.75433724743E-02 0.  0.
         14    1    1    2    0    0  0.99203164276E-02  0.44402096029E-02 -0.20453145804E-01  0.23161591323E-01  0.00000000000E+00 0.  1.
     999901    1    3    3    0    0  0.10247110303E+00 -0.29212396062E-01  0.81690202277E-01  0.89018367778E+00  0.88000000000E+00 0. -1.
        -11    1    4    4    0    0 -0.80871691908E-01  0.19683718674E-01 -0.47390261300E-01  0.95779837753E-01  0.51100000000E-03 0. -1.
         11    1    4    4    0    0 -0.31519727549E-01  0.50884677856E-02 -0.13846795172E-01  0.34804893143E-01  0.51100000000E-03 0.  1.
</event>
<event>
 8    1  0.1099921E+005  0.1043930E+01  0.7957747E-01            NaN
         13   -1    0    0    0    0  0.00000000000E+00  0.00000000000E+00  0.74505805969E-08  0.10566000000E+00  0.10566000000E+00 0. -1.
     999900   -1    0    0    0    0 -0.00000000000E+00 -0.00000000000E+00 -0.74505805969E-08  0.93827000000E+00  0.93827000000E+00 0.  1.
     999902    2    1    2    0    0  0.70021381029E-02 -0.75138488598E-02 -0.22326594145E-01  0.10193543074E+01  0.10190580157E+01 0.  0.
     999903    2    3    3    0    0  0.61434130347E-01  0.85337151561E-01 -0.75972533981E-01  0.13117525057E+00  0.19456069339E-01 0.  0.
         14    1    1    2    0    0 -0.70021381029E-02  0.75138488598E-02  0.22326594145E-01  0.24575692642E-01  0.00000000000E+00 0. -1.
     999901    1    3    3    0    0 -0.54431992244E-01 -0.92851000421E-01  0.53645939836E-01  0.88817905679E+00  0.88000000000E+00 0.  1.
        -11    1    4    4    0    0  0.40706586123E-01  0.40281572600E-01 -0.43032932856E-01  0.71636064075E-01  0.51100000000E-03 0.  1.
         11    1    4    4    0    0  0.20727544224E-01  0.45055578961E-01 -0.32939601125E-01  0.59539186494E-01  0.51100000000E-03 0. -1.
</event>
<event>
 8    1  0.1099921E+005  0.1043930E+01  0.7957747E-01            NaN
         13   -1    0    0    0    0  0.00000000000E+00  0.00000000000E+00  0.74505805969E-08  0.10566000000E+00  0.10566000000E+00 0.  1.
     999900   -1    0    0    0    0 -0.00000000000E+00 -0.00000000000E+00 -0.74505805969E-08  0.93827000000E+00  0.93827000000E+00 0. -1.
     999902    2    1    2    0    0  0.14710001775E-01  0.30818711317E-02 -0.18025258864E-01  0.10204610409E+01  0.10201911311E+01 0.  0.
     999903    2    3    3    0    0 -0.90229517413E-01 -0.31971627491E-01 -0.86763639933E-01  0.13087348737E+00  0.20889942658E-01 0.  0.
         14    1    1    2    0    0 -0.14710001775E-01 -0.30818711317E-02  0.18025258864E-01  0.23468959052E-01  0.00000000000E+00 0. -1.
     999901    1    3    3    0    0  0.10493951919E+00  0.35053498623E-01  0.68738381069E-01  0.88958755358E+00  0.88000000000E+00 0.  1.
        -11    1    4    4    0    0 -0.64788833312E-01 -0.31241898838E-01 -0.70163168935E-01  0.10048273763E+00  0.51100000000E-03 0. -1.
         11    1    4    4    0    0 -0.25440684101E-01 -0.72972865280E-03 -0.16600470997E-01  0.30390749740E-01  0.51100000000E-03 0.  1.
</event>
<event>
 8    1  0.1099921E+005  0.1043930E+01  0.7957747E-01            NaN
         13   -1    0    0    0    0  0.00000000000E+00  0.00000000000E+00  0.74505805969E-08  0.10566000000E+00  0.10566000000E+00 0. -1.
     999900   -1    0    0    0    0 -0.00000000000E+00 -0.00000000000E+00 -0.74505805969E-08  0.93827000000E+00  0.93827000000E+00 0. -1.
     999902    2    1    2    0    0  0.11080264072E-01  0.18355849184E-01 -0.10243041659E-01  0.10201680692E+01  0.10198912982E+01 0.  0.
     999903    2    3    3    0    0 -0.35964898306E-01  0.90116925056E-01  0.85482864059E-01  0.13082766852E+00  0.19850055723E-01 0.  0.
         14    1    1    2    0    0 -0.11080264072E-01 -0.18355849184E-01  0.10243041659E-01  0.23761930764E-01  0.00000000000E+00 0. -1.
     999901    1    3    3    0    0  0.47045162378E-01 -0.71761075871E-01 -0.95725905718E-01  0.88934040071E+00  0.88000000000E+00 0. -1.
        -11    1    4    4    0    0 -0.25819290140E-01  0.53126578724E-01  0.63013538031E-01  0.86371501124E-01  0.51100000000E-03 0.  1.
         11    1    4    4    0    0 -0.10145608166E-01  0.36990346331E-01  0.22469326028E-01  0.44456167400E-01  0.51100000000E-03 0. -1.
</event>
<event>
 8    1  0.1099921E+005  0.1043930E+01  0.7957747E-01            NaN
         13   -1    0    0    0    0  0.00000000000E+00  0.00000000000E+00  0.74505805969E-08  0.10566000000E+00  0.10566000000E+00 0. -1.
     999900   -1    0    0    0    0 -0.00000000000E+00 -0.00000000000E+00 -0.74505805969E-08  0.93827000000E+00  0.93827000000E+00 0.  1.
     999902    2    1    2    0    0 -0.22865241762E-01 -0.49777022245E-02  0.42448401957E-02  0.10201473284E+01  0.10198700683E+01 0.  0.
     999903    2    3    3    0    0 -0.43832074016E-01  0.81965315872E-01  0.90805352940E-01  0.13138897045E+00  0.19439282792E-01 0.  0.
         14    1    1    2    0    0  0.22865241762E-01  0.49777022245E-02 -0.42448401957E-02  0.23782671602E-01  0.00000000000E+00 0.  1.
     999901    1    3    3    0    0  0.20966832254E-01 -0.86943018096E-01 -0.86560512745E-01  0.88875835794E+00  0.88000000000E+00 0.  1.
        -11    1    4    4    0    0 -0.13596273920E-01  0.28230758280E-01  0.43796721766E-01  0.53853953764E-01  0.51100000000E-03 0. -1.
         11    1    4    4    0    0 -0.30235800096E-01  0.53734557591E-01  0.47008631174E-01  0.77535016688E-01  0.51100000000E-03 0.  1.
</event>
<event>
 8    1  0.1099921E+005  0.1043930E+01  0.7957747E-01            NaN
         13   -1    0    0    0    0  0.00000000000E+00  0.00000000000E+00  0.74505805969E-08  0.10566000000E+00  0.10566000000E+00 0.  1.
     999900   -1    0    0    0    0 -0.00000000000E+00 -0.00000000000E+00 -0.74505805969E-08  0.93827000000E+00  0.93827000000E+00 0. -1.
     999902    2    1    2    0    0  0.14839282345E-01  0.17312990601E-01 -0.44306985765E-02  0.10207012455E+01  0.10204368955E+01 0.  0.
     999903    2    3    3    0    0 -0.98462437223E-01 -0.65101165294E-01 -0.46951151048E-01  0.12860407503E+00  0.20039567428E-01 0.  0.
         14    1    1    2    0    0 -0.14839282345E-01 -0.17312990601E-01  0.44306985765E-02  0.23228754464E-01  0.00000000000E+00 0.  1.
     999901    1    3    3    0    0  0.11330171957E+00  0.82414155895E-01  0.42520452471E-01  0.89209717051E+00  0.88000000000E+00 0.  1.
        -11    1    4    4    0    0 -0.49276335511E-01 -0.30755501075E-01 -0.33729552481E-01  0.67171436782E-01  0.51100000000E-03 0.  1.
         11    1    4    4    0    0 -0.49186101713E-01 -0.34345664219E-01 -0.13221598566E-01  0.61432638247E-01  0.51100000000E-03 0. -1.
</event>
<event>
 8    1  0.1099921E+005  0.1043930E+01  0.7957747E-01            NaN
         13   -1    0    0    0    0  0.00000000000E+00  0.00000000000E+00  0.74505805969E-08  0.10566000000E+00  0.10566000000E+00 0.  1.
     999900   -1    0    0    0    0 -0.00000000000E+00 -0.00000000000E+00 -0.74505805969E-08  0.93827000000E+00  0.93827000000E+00 0.  1.
     999902    2    1    2    0    0  0.28089872967E-02 -0.23689711515E-01 -0.49399483418E-02  0.10195682281E+01  0.10192771339E+01 0.  0.
     999903    2    3    3    0    0 -0.81171083647E-01 -0.57807891361E-01  0.82209733565E-01  0.13062966464E+00  0.19369353845E-01 0.  0.
         14    1    1    2    0    0 -0.28089872967E-02  0.23689711515E-01  0.49399483418E-02  0.24361771916E-01  0.00000000000E+00 0. -1.
     999901    1    3    3    0    0  0.83980070944E-01  0.34118179847E-01 -0.87149681907E-01  0.88893856344E+00  0.88000000000E+00 0.  1.
        -11    1    4    4    0    0 -0.64294548546E-02 -0.35790990147E-02  0.14005489689E-01  0.15829172496E-01  0.51100000000E-03 0.  1.
         11    1    4    4    0    0 -0.74741628792E-01 -0.54228792347E-01  0.68204243876E-01  0.11480049215E+00  0.51100000000E-03 0. -1.
</event>
<event>
 8    1  0.1099921E+005  0.1043930E+01  0.7957747E-01            NaN
         13   -1    0    0    0    0  0.00000000000E+00  0.00000000000E+00  0.74505805969E-08  0.10566000000E+00  0.10566000000E+00 0. -1.
     999900   -1    0    0    0    0 -0.00000000000E+00 -0.00000000000E+00 -0.74505805969E-08  0.93827000000E+00  0.93827000000E+00 0.  1.
     999902    2    1    2    0    0  0.14931622363E-01 -0.54920566573E-02  0.25221252616E-01  0.10141100802E+01  0.10136715578E+01 0.  0.
     999903    2    3    3    0    0 -0.32908822674E-01 -0.21527180408E-01  0.11974962999E+00  0.12761053283E+00  0.19951543826E-01 0.  0.
         14    1    1    2    0    0 -0.14931622363E-01  0.54920566573E-02 -0.25221252616E-01  0.29819919789E-01  0.00000000000E+00 0.  1.
     999901    1    3    3    0    0  0.47840445036E-01  0.16035123750E-01 -0.94528377373E-01  0.88649954738E+00  0.88000000000E+00 0.  1.
        -11    1    4    4    0    0 -0.25458120452E-01 -0.23927826895E-01  0.83396485054E-01  0.90420637231E-01  0.51100000000E-03 0. -1.
         11    1    4    4    0    0 -0.74507022214E-02  0.24006464869E-02  0.36353144935E-01  0.37189895601E-01  0.51100000000E-03 0.  1.
</event>
<event>
 8    1  0.1099921E+005  0.1043930E+01  0.7957747E-01            NaN
         13   -1    0    0    0    0  0.00000000000E+00  0.00000000000E+00  0.74505805969E-08  0.10566000000E+00  0.10566000000E+00 0. -1.
     999900   -1    0    0    0    0 -0.00000000000E+00 -0.00000000000E+00 -0.74505805969E-08  0.93827000000E+00  0.93827000000E+00 0. -1.
     999902    2    1    2    0    0  0.18753385729E-01 -0.13783051330E-01 -0.46217122312E-02  0.10202019111E+01  0.10199259371E+01 0.  0.
     999903    2    3    3    0    0 -0.70925185724E-01 -0.63184726405E-01 -0.86840228023E-01  0.13045888299E+00  0.21344866532E-01 0.  0.
         14    1    1    2    0    0 -0.18753385729E-01  0.13783051330E-01  0.46217122312E-02  0.23728088929E-01  0.00000000000E+00 0. -1.
     999901    1    3    3    0    0  0.89678571453E-01  0.49401675075E-01  0.82218515792E-01  0.88974302808E+00  0.88000000000E+00 0.  1.
        -11    1    4    4    0    0 -0.40260527622E-01 -0.46437898013E-01 -0.46382767955E-01  0.77000069743E-01  0.51100000000E-03 0.  1.
         11    1    4    4    0    0 -0.30664658103E-01 -0.16746828392E-01 -0.40457460068E-01  0.53458813248E-01  0.51100000000E-03 0. -1.
</event>
<event>
 8    1  0.1099921E+005  0.1043930E+01  0.7957747E-01            NaN
         13   -1    0    0    0    0  0.00000000000E+00  0.00000000000E+00  0.74505805969E-08  0.10566000000E+00  0.10566000000E+00 0.  1.
     999900   -1    0    0    0    0 -0.00000000000E+00 -0.00000000000E+00 -0.74505805969E-08  0.93827000000E+00  0.93827000000E+00 0. -1.
     999902    2    1    2    0    0 -0.93388763149E-03  0.98724728594E-02 -0.21495865735E-01  0.10202570173E+01  0.10199823387E+01 0.  0.
     999903    2    3    3    0    0  0.80743999828E-01 -0.29295499422E-01  0.93271440318E-01  0.12819371131E+00  0.18874486607E-01 0.  0.
         14    1    1    2    0    0  0.93388763149E-03 -0.98724728594E-02  0.21495865735E-01  0.23672982706E-01  0.00000000000E+00 0.  1.
     999901    1    3    3    0    0 -0.81677887460E-01  0.39167972281E-01 -0.11476730605E+00  0.89206330599E+00  0.88000000000E+00 0. -1.
        -11    1    4    4    0    0  0.23131776567E-01 -0.60780014286E-02  0.38770605163E-01  0.45557020691E-01  0.51100000000E-03 0. -1.
         11    1    4    4    0    0  0.57612223262E-01 -0.23217497993E-01  0.54500835155E-01  0.82636690615E-01  0.51100000000E-03 0.  1.
</event>
<event>
 8    1  0.1099921E+005  0.1043930E+01  0.7957747E-01            NaN
         13   -1    0    0    0    0  0.00000000000E+00  0.00000000000E+00  0.74505805969E-08  0.10566000000E+00  0.10566000000E+00 0. -1.
     999900   -1    0    0    0    0 -0.00000000000E+00 -0.00000000000E+00 -0.74505805969E-08  0.93827000000E+00  0.93827000000E+00 0.  1.
     999902    2    1    2    0    0  0.15535429442E-01 -0.21821065448E-03  0.17492716858E-01  0.10205335830E+01  0.10202653585E+01 0.  0.
     999903    2    3    3    0    0 -0.53002888667E-01 -0.34410364357E-01 -0.10964363427E+00  0.12810417059E+00  0.19889007097E-01 0.  0.
         14    1    1    2    0    0 -0.15535429442E-01  0.21821065448E-03 -0.17492716858E-01  0.23396416967E-01  0.00000000000E+00 0.  1.
     999901    1    3    3    0    0  0.68538318108E-01  0.34192153702E-01  0.12713635113E+00  0.89242941245E+00  0.88000000000E+00 0. -1.
        -11    1    4    4    0    0 -0.21085403390E-02 -0.45897897527E-03 -0.16600135013E-01  0.16747603038E-01  0.51100000000E-03 0. -1.
         11    1    4    4    0    0 -0.50894348328E-01 -0.33951385381E-01 -0.93043499256E-01  0.11135656755E+00  0.51100000000E-03 0.  1.
</event>
<event>
 8    1  0.1099921E+005  0.1043930E+01  0.7957747E-01            NaN
         13   -1    0    0    0    0  0.00000000000E+00  0.00000000000E+00  0.74505805969E-08  0.10566000000E+00  0.10566000000E+00 0. -1.
     999900   -1    0    0    0    0 -0.00000000000E+00 -0.00000000000E+00 -0.74505805969E-08  0.93827000000E+00  0.93827000000E+00 0. -1.
     999902    2    1    2    0    0 -0.32879911643E-02  0.21887483849E-01  0.83198477517E-02  0.10202848588E+01  0.10200108335E+01 0.  0.
     999903    2    3    3    0    0  0.99545230361E-01  0.57794853795E-01  0.61276214128E-01  0.13198964471E+00  0.20420427981E-01 0.  0.
         14    1    1    2    0    0  0.32879911643E-02 -0.21887483849E-01 -0.83198477517E-02  0.23645141187E-01  0.00000000000E+00 0. -1.
     999901    1    3    3    0    0 -0.10283322153E+00 -0.35907369947E-01 -0.52956366376E-01  0.88829521411E+00  0.88000000000E+00 0.  1.
        -11    1    4    4    0    0  0.41363620785E-01  0.33174339679E-01  0.20812821426E-01  0.56964204500E-01  0.51100000000E-03 0.  1.
         11    1    4    4    0    0  0.58181609576E-01  0.24620514117E-01  0.40463392702E-01  0.75025440207E-01  0.51100000000E-03 0. -1.
</event>
<event>
 8    1  0.1099921E+005  0.1043930E+01  0.7957747E-01            NaN
         13   -1    0    0    0    0  0.00000000000E+00  0.00000000000E+00  0.74505805969E-08  0.10566000000E+00  0.10566000000E+00 0.  1.
     999900   -1    0    0    0    0 -0.00000000000E+00 -0.00000000000E+00 -0.74505805969E-08  0.93827000000E+00  0.93827000000E+00 0.  1.
     999902    2    1    2    0    0 -0.50531209143E-02 -0.47124002496E-02 -0.22896157483E-01  0.10200140059E+01  0.10197335914E+01 0.  0.
     999903    2    3    3    0    0  0.94255104853E-02  0.58738990777E-01  0.11077323099E+00  0.12754371775E+00  0.21391165192E-01 0.  0.
         14    1    1    2    0    0  0.50531209143E-02  0.47124002496E-02  0.22896157483E-01  0.23915994116E-01  0.00000000000E+00 0.  1.
     999901    1    3    3    0    0 -0.14478631400E-01 -0.63451391027E-01 -0.13366938847E+00  0.89247028814E+00  0.88000000000E+00 0.  1.
        -11    1    4    4    0    0  0.45564224404E-02  0.48099621663E-01  0.69531461973E-01  0.84671246091E-01  0.51100000000E-03 0.  1.
         11    1    4    4    0    0  0.48690880449E-02  0.10639369114E-01  0.41241769015E-01  0.42872471657E-01  0.51100000000E-03 0. -1.
</event>
<event>
 8    1  0.1099921E+005  0.1043930E+01  0.7957747E-01            NaN
         13   -1    0    0    0    0  0.00000000000E+00  0.00000000000E+00  0.74505805969E-08  0.10566000000E+00  0.10566000000E+00 0.  1.
     999900   -1    0    0    0    0 -0.00000000000E+00 -0.00000000000E+00 -0.74505805969E-08  0.93827000000E+00  0.93827000000E+00 0. -1.
     999902    2    1    2    0    0  0.20219815518E-01 -0.53826832333E-02  0.75664472960E-02  0.10216799361E+01  0.10214376273E+01 0.  0.
     999903    2    3    3    0    0  0.55125192278E-01  0.44065590067E-01 -0.10965262123E+00  0.13184634095E+00  0.19472987079E-01 0.  0.
         14    1    1    2    0    0 -0.20219815518E-01  0.53826832333E-02 -0.75664472960E-02  0.22250063889E-01  0.00000000000E+00 0. -1.
     999901    1    3    3    0    0 -0.34905376759E-01 -0.49448273301E-01  0.11721906853E+00  0.88983359517E+00  0.88000000000E+00 0.  1.
        -11    1    4    4    0    0  0.48644539247E-01  0.45196232427E-01 -0.96607388498E-01  0.11722729741E+00  0.51100000000E-03 0.  1.
         11    1    4    4    0    0  0.64806530310E-02 -0.11306423591E-02 -0.13045232734E-01  0.14619043537E-01  0.51100000000E-03 0. -1.
</event>
<event>
 8    1  0.1099921E+005  0.1043930E+01  0.7957747E-01            NaN
         13   -1    0    0    0    0  0.00000000000E+00  0.00000000000E+00  0.74505805969E-08  0.10566000000E+00  0.10566000000E+00 0. -1.
     999900   -1    0    0    0    0 -0.00000000000E+00 -0.00000000000E+00 -0.74505805969E-08  0.93827000000E+00  0.93827000000E+00 0. -1.
     999902    2    1    2    0    0  0.41974179674E-02 -0.15851088097E-01  0.16016636315E-01  0.10210082210E+01  0.10207508900E+01 0.  0.
     999903    2    3    3    0    0 -0.30207793301E-01  0.12273624975E+00 -0.16244427304E-01  0.12891464692E+00  0.19452686013E-01 0.  0.
         14    1    1    2    0    0 -0.41974179674E-02  0.15851088097E-01 -0.16016636315E-01  0.22921778951E-01  0.00000000000E+00 0.  1.
     999901    1    3    3    0    0  0.34405211268E-01 -0.13858733785E+00  0.32261063619E-01  0.89209357413E+00  0.88000000000E+00 0. -1.
        -11    1    4    4    0    0 -0.12096621985E-01  0.73636002875E-01 -0.19039612533E-02  0.74649014543E-01  0.51100000000E-03 0. -1.
         11    1    4    4    0    0 -0.18111171316E-01  0.49100246877E-01 -0.14340466051E-01  0.54265632378E-01  0.51100000000E-03 0.  1.
</event>
<event>
 8    1  0.1099921E+005  0.1043930E+01  0.7957747E-01            NaN
         13   -1    0    0    0    0  0.00000000000E+00  0.00000000000E+00  0.74505805969E-08  0.10566000000E+00  0.10566000000E+00 0. -1.
     999900   -1    0    0    0    0 -0.00000000000E+00 -0.00000000000E+00 -0.74505805969E-08  0.93827000000E+00  0.93827000000E+00 0. -1.
     999902    2    1    2    0    0  0.24735592406E-02  0.77213270876E-02 -0.22461816957E-01  0.10200496606E+01  0.10197700915E+01 0.  0.
     999903    2    3    3    0    0 -0.10540292692E-01  0.12287421959E+00  0.37543505412E-01  0.13042603926E+00  0.19805688755E-01 0.  0.
         14    1    1    2    0    0 -0.24735592406E-02 -0.77213270876E-02  0.22461816957E-01  0.23880339368E-01  0.00000000000E+00 0. -1.
     999901    1    3    3    0    0  0.13013851933E-01 -0.11515289251E+00 -0.60005322369E-01  0.88962362137E+00  0.88000000000E+00 0. -1.
        -11    1    4    4    0    0  0.34821892381E-03  0.23719176905E-01 -0.31981949270E-03  0.23729391374E-01  0.51100000000E-03 0.  1.
         11    1    4    4    0    0 -0.10888511616E-01  0.99155042689E-01  0.37863324905E-01  0.10669664788E+00  0.51100000000E-03 0. -1.
</event>
<event>
 8    1  0.1099921E+005  0.1043930E+01  0.7957747E-01            NaN
         13   -1    0    0    0    0  0.00000000000E+00  0.00000000000E+00  0.74505805969E-08  0.10566000000E+00  0.10566000000E+00 0. -1.
     999900   -1    0    0    0    0 -0.00000000000E+00 -0.00000000000E+00 -0.74505805969E-08  0.93827000000E+00  0.93827000000E+00 0. -1.
     999902    2    1    2    0    0  0.41792562088E-02  0.10251087289E-01  0.19460424854E-01  0.10215411834E+01  0.10212958094E+01 0.  0.
     999903    2    3    3    0    0  0.54472762855E-01 -0.11660309987E+00 -0.12774077018E-01  0.13044046815E+00  0.16969793654E-01 0.  0.
         14    1    1    2    0    0 -0.41792562088E-02 -0.10251087289E-01 -0.19460424854E-01  0.22388816596E-01  0.00000000000E+00 0.  1.
     999901    1    3    3    0    0 -0.50293506646E-01  0.12685418716E+00  0.32234501872E-01  0.89110071525E+00  0.88000000000E+00 0.  1.
        -11    1    4    4    0    0  0.10473146767E-01 -0.26756232748E-01 -0.97668437192E-02  0.30351855813E-01  0.51100000000E-03 0. -1.
         11    1    4    4    0    0  0.43999616088E-01 -0.89846867120E-01 -0.30072332990E-02  0.10008861234E+00  0.51100000000E-03 0.  1.
</event>
<event>
 8    1  0.1099921E+005  0.1043930E+01  0.7957747E-01            NaN
         13   -1    0    0    0    0  0.00000000000E+00  0.00000000000E+00  0.74505805969E-08  0.10566000000E+00  0.10566000000E+00 0. -1.
     999900   -1    0    0    0    0 -0.00000000000E+00 -0.00000000000E+00 -0.74505805969E-08  0.93827000000E+00  0.93827000000E+00 0. -1.
     999902    2    1    2    0    0  0.89480650712E-02 -0.16857135092E-01  0.13664110487E-01  0.10204579147E+01  0.10201879322E+01 0.  0.
     999903    2    3    3    0    0  0.11553878086E+00 -0.39911089870E-01  0.47774760888E-01  0.13307039960E+00  0.21981776396E-01 0.  0.
         14    1    1    2    0    0 -0.89480650712E-02  0.16857135092E-01 -0.13664110487E-01  0.23472085281E-01  0.00000000000E+00 0.  1.
     999901    1    3    3    0    0 -0.10659071579E+00  0.23053954778E-01 -0.34110650401E-01  0.88738751512E+00  0.88000000000E+00 0. -1.
        -11    1    4    4    0    0  0.26874520820E-01  0.18661019371E-03  0.97364827939E-02  0.28589069780E-01  0.51100000000E-03 0.  1.
         11    1    4    4    0    0  0.88664260041E-01 -0.40097700064E-01  0.38038278095E-01  0.10448132982E+00  0.51100000000E-03 0. -1.
</event>
<event>
 8    1  0.1099921E+005  0.1043930E+01  0.7957747E-01            NaN
         13   -1    0    0    0    0  0.00000000000E+00  0.00000000000E+00  0.74505805969E-08  0.10566000000E+00  0.10566000000E+00 0.  1.
     999900   -1    0    0    0    0 -0.00000000000E+00 -0.00000000000E+00 -0.74505805969E-08  0.93827000000E+00  0.93827000000E+00 0.  1.
     999902    2    1    2    0    0 -0.18018297632E-01  0.15207209153E-01  0.30279444831E-02  0.10201584475E+01  0.10198814496E+01 0.  0.
     999903    2    3    3    0    0 -0.12579270520E+00 -0.34197500708E-01  0.85784953742E-02  0.13219056696E+00  0.20186175332E-01 0.  0.
         14    1    1    2    0    0  0.18018297632E-01 -0.15207209153E-01 -0.30279444831E-02  0.23771552485E-01  0.00000000000E+00 0.  1.
     999901    1    3    3    0    0  0.10777440757E+00  0.49404709861E-01 -0.55505508910E-02  0.88796788056E+00  0.88000000000E+00 0. -1.
        -11    1    4    4    0    0 -0.63832574388E-01 -0.15557291243E-01  0.14272043904E-01  0.67235252821E-01  0.51100000000E-03 0. -1.
         11    1    4    4    0    0 -0.61960130810E-01 -0.18640209465E-01 -0.56935485294E-02  0.64955314138E-01  0.51100000000E-03 0.  1.
</event>
<event>
 8    1  0.1099921E+005  0.1043930E+01  0.7957747E-01            NaN
         13   -1    0    0    0    0  0.00000000000E+00  0.00000000000E+00  0.74505805969E-08  0.10566000000E+00  0.10566000000E+00 0. -1.
     999900   -1    0    0    0    0 -0.00000000000E+00 -0.00000000000E+00 -0.74505805969E-08  0.93827000000E+00  0.93827000000E+00 0.  1.
     999902    2    1    2    0    0 -0.96587019077E-02  0.21343669510E-01 -0.45249679960E-03  0.10204982373E+01  0.10202291923E+01 0.  0.
     999903    2    3    3    0    0  0.84255153758E-01  0.36956643721E-01 -0.90810691805E-01  0.13076334381E+00  0.19691264293E-01 0.  0.
         14    1    1    2    0    0  0.96587019077E-02 -0.21343669510E-01  0.45249679960E-03  0.23431762718E-01  0.00000000000E+00 0. -1.
     999901    1    3    3    0    0 -0.93913855665E-01 -0.15612974211E-01  0.90358195006E-01  0.88973489347E+00  0.88000000000E+00 0. -1.
        -11    1    4    4    0    0  0.43929114038E-01  0.27891243817E-01 -0.58518275689E-01  0.78309247553E-01  0.51100000000E-03 0.  1.
         11    1    4    4    0    0  0.40326039720E-01  0.90653999049E-02 -0.32292416117E-01  0.52454096261E-01  0.51100000000E-03 0. -1.
</event>
<event>
 8    1  0.1099921E+005  0.1043930E+01  0.7957747E-01            NaN
         13   -1    0    0    0    0  0.00000000000E+00  0.00000000000E+00  0.74505805969E-08  0.10566000000E+00  0.10566000000E+00 0. -1.
     999900   -1    0    0    0    0 -0.00000000000E+00 -0.00000000000E+00 -0.74505805969E-08  0.93827000000E+00  0.93827000000E+00 0.  1.
     999902    2    1    2    0    0 -0.10419459415E-01 -0.11017126709E-01 -0.18389238992E-01  0.10200950189E+01  0.10198165233E+01 0.  0.
     999903    2    3    3    0    0 -0.17600186331E-01 -0.53538007572E-01 -0.11913514194E+00  0.13329779000E+00  0.19975834385E-01 0.  0.
         14    1    1    2    0    0  0.10419459415E-01  0.11017126709E-01  0.18389238992E-01  0.23834981144E-01  0.00000000000E+00 0. -1.
     999901    1    3    3    0    0  0.71807269151E-02  0.42520880863E-01  0.10074590295E+00  0.88679722886E+00  0.88000000000E+00 0. -1.
        -11    1    4    4    0    0 -0.50874545314E-02 -0.42693841633E-01 -0.80590151336E-01  0.91343745929E-01  0.51100000000E-03 0.  1.
         11    1    4    4    0    0 -0.12512731799E-01 -0.10844165939E-01 -0.38544990606E-01  0.41954044069E-01  0.51100000000E-03 0. -1.
</event>
<event>
 8    1  0.1099921E+005  0.1043930E+01  0.7957747E-01            NaN
         13   -1    0    0    0    0  0.00000000000E+00  0.00000000000E+00  0.74505805969E-08  0.10566000000E+00  0.10566000000E+00 0.  1.
     999900   -1    0    0    0    0 -0.00000000000E+00 -0.00000000000E+00 -0.74505805969E-08  0.93827000000E+00  0.93827000000E+00 0. -1.
     999902    2    1    2    0    0  0.13309689404E-01  0.12719063643E-01 -0.15136334406E-01  0.10200965984E+01  0.10198181402E+01 0.  0.
     999903    2    3    3    0    0 -0.10712358889E+00  0.61648835181E-01  0.33498497101E-01  0.12921857988E+00  0.17298841105E-01 0.  0.
         14    1    1    2    0    0 -0.13309689404E-01 -0.12719063643E-01  0.15136334406E-01  0.23833401588E-01  0.00000000000E+00 0. -1.
     999901    1    3    3    0    0  0.12043327829E+00 -0.48929771538E-01 -0.48634831507E-01  0.89087801853E+00  0.88000000000E+00 0. -1.
        -11    1    4    4    0    0 -0.82962680613E-01  0.45537199494E-01  0.18138247895E-01  0.96362337404E-01  0.51100000000E-03 0. -1.
         11    1    4    4    0    0 -0.24160908275E-01  0.16111635687E-01  0.15360249206E-01  0.32856242479E-01  0.51100000000E-03 0.  1.
</event>
<event>
 8    1  0.1099921E+005  0.1043930E+01  0.7957747E-01            NaN
         13   -1    0    0    0    0  0.00000000000E+00  0.00000000000E+00  0.74505805969E-08  0.10566000000E+00  0.10566000000E+00 0.  1.
     999900   -1    0    0    0    0 -0.00000000000E+00 -0.00000000000E+00 -0.74505805969E-08  0.93827000000E+00  0.93827000000E+00 0.  1.
     999902    2    1    2    0    0 -0.19052380592E-01 -0.55231130907E-02 -0.13120812852E-01  0.10201465243E+01  0.10198692453E+01 0.  0.
     999903    2    3    3    0    0 -0.61673450856E-01 -0.50371301285E-01  0.10160019784E+00  0.13054615007E+00  0.19463159126E-01 0.  0.
         14    1    1    2    0    0  0.19052380592E-01  0.55231130907E-02  0.13120812852E-01  0.23783475657E-01  0.00000000000E+00 0.  1.
     999901    1    3    3    0    0  0.42621070265E-01  0.44848188194E-01 -0.11472101069E+00  0.88960037427E+00  0.88000000000E+00 0.  1.
        -11    1    4    4    0    0 -0.38944571374E-01 -0.43090683095E-01  0.70760074852E-01  0.91546359421E-01  0.51100000000E-03 0.  1.
         11    1    4    4    0    0 -0.22728879482E-01 -0.72806181897E-02  0.30840122988E-01  0.38999790648E-01  0.51100000000E-03 0. -1.
</event>
<event>
 8    1  0.1099921E+005  0.1043930E+01  0.7957747E-01            NaN
         13   -1    0    0    0    0  0.00000000000E+00  0.00000000000E+00  0.74505805969E-08  0.10566000000E+00  0.10566000000E+00 0.  1.
     999900   -1    0    0    0    0 -0.00000000000E+00 -0.00000000000E+00 -0.74505805969E-08  0.93827000000E+00  0.93827000000E+00 0. -1.
     999902    2    1    2    0    0  0.13496394294E-01  0.65699166464E-02 -0.17122142541E-01  0.10211597512E+01  0.10209058494E+01 0.  0.
     999903    2    3    3    0    0  0.10555526463E+00 -0.97354755513E-03  0.75846313953E-01  0.13145481511E+00  0.19617425682E-01 0.  0.
         14    1    1    2    0    0 -0.13496394294E-01 -0.65699166464E-02  0.17122142541E-01  0.22770248766E-01  0.00000000000E+00 0.  1.
     999901    1    3    3    0    0 -0.92058870332E-01  0.75434642015E-02 -0.92968456494E-01  0.88970493612E+00  0.88000000000E+00 0.  1.
        -11    1    4    4    0    0  0.78591817277E-02 -0.53594719137E-02  0.78413161534E-02  0.12338477890E-01  0.51100000000E-03 0.  1.
         11    1    4    4    0    0  0.97696082898E-01  0.43859243586E-02  0.68004997800E-01  0.11911633722E+00  0.51100000000E-03 0. -1.
</event>
<event>
 8    1  0.1099921E+005  0.1043930E+01  0.7957747E-01            NaN
         13   -1    0    0    0    0  0.00000000000E+00  0.00000000000E+00  0.74505805969E-08  0.10566000000E+00  0.10566000000E+00 0. -1.
     999900   -1    0    0    0    0 -0.00000000000E+00 -0.00000000000E+00 -0.74505805969E-08  0.93827000000E+00  0.93827000000E+00 0.  1.
     999902    2    1    2    0    0 -0.62911365146E-03  0.17543693334E-02 -0.23657266059E-01  0.10201994325E+01  0.10199234002E+01 0.  0.
     999903    2    3    3    0    0 -0.40452652260E-01  0.44150664747E-01  0.11140500436E+00  0.12799700202E+00  0.19658566991E-01 0.  0.
         14    1    1    2    0    0  0.62911365146E-03 -0.17543693334E-02  0.23657266059E-01  0.23730567484E-01  0.00000000000E+00 0. -1.
     999901    1    3    3    0    0  0.39823538609E-01 -0.42396295413E-01 -0.13506227042E+00  0.89220243050E+00  0.88000000000E+00 0.  1.
        -11    1    4    4    0    0 -0.25751719105E-01  0.36907801220E-01  0.93192326061E-01  0.10349109906E+00  0.51100000000E-03 0.  1.
         11    1    4    4    0    0 -0.14700933155E-01  0.72428635268E-02  0.18212678303E-01  0.24505902955E-01  0.51100000000E-03 0. -1.
</event>
<event>
 8    1  0.1099921E+005  0.1043930E+01  0.7957747E-01            NaN
         13   -1    0    0    0    0  0.00000000000E+00  0.00000000000E+00  0.74505805969E-08  0.10566000000E+00  0.10566000000E+00 0.  1.
     999900   -1    0    0    0    0 -0.00000000000E+00 -0.00000000000E+00 -0.74505805969E-08  0.93827000000E+00  0.93827000000E+00 0.  1.
     999902    2    1    2    0    0  0.68893746060E-02  0.17269910416E-01 -0.14142628068E-01  0.10205691949E+01  0.10203017957E+01 0.  0.
     999903    2    3    3    0    0 -0.51647141881E-01 -0.11517291664E+00 -0.14349943452E-01  0.12873531505E+00  0.20847840942E-01 0.  0.
         14    1    1    2    0    0 -0.68893746060E-02 -0.17269910416E-01  0.14142628068E-01  0.23360805143E-01  0.00000000000E+00 0.  1.
     999901    1    3    3    0    0  0.58536516487E-01  0.13244282705E+00  0.20731538364E-03  0.89183387981E+00  0.88000000000E+00 0. -1.
        -11    1    4    4    0    0 -0.17708837422E-01 -0.44674230790E-01  0.44498868893E-02  0.48264401310E-01  0.51100000000E-03 0.  1.
         11    1    4    4    0    0 -0.33938304460E-01 -0.70498685846E-01 -0.18799830341E-01  0.80470913736E-01  0.51100000000E-03 0. -1.
</event>
<event>
 8    1  0.1099921E+005  0.1043930E+01  0.7957747E-01            NaN
         13   -1    0    0    0    0  0.00000000000E+00  0.00000000000E+00  0.74505805969E-08  0.10566000000E+00  0.10566000000E+00 0. -1.
     999900   -1    0    0    0    0 -0.00000000000E+00 -0.00000000000E+00 -0.74505805969E-08  0.93827000000E+00  0.93827000000E+00 0.  1.
     999902    2    1    2    0    0  0.17488221227E-01 -0.13088719877E-01 -0.89571648520E-02  0.10203210341E+01  0.10200478564E+01 0.  0.
     999903    2    3    3    0    0  0.37147131021E-01  0.11742979596E+00 -0.36760921366E-01  0.13004320970E+00  0.19753600325E-01 0.  0.
         14    1    1    2    0    0 -0.17488221227E-01  0.13088719877E-01  0.89571648520E-02  0.23608965921E-01  0.00000000000E+00 0. -1.
     999901    1    3    3    0    0 -0.19658909794E-01 -0.13051851584E+00  0.27803756514E-01  0.89027782438E+00  0.88000000000E+00 0. -1.
        -11    1    4    4    0    0  0.15995307919E-01  0.47911799726E-01 -0.50724410459E-02  0.50767915139E-01  0.51100000000E-03 0. -1.
         11    1    4    4    0    0  0.21151823102E-01  0.69517996235E-01 -0.31688480320E-01  0.79275294557E-01  0.51100000000E-03 0.  1.
</event>
<event>
 8    1  0.1099921E+005  0.1043930E+01  0.7957747E-01            NaN
         13   -1    0    0    0    0  0.00000000000E+00  0.00000000000E+00  0.74505805969E-08  0.10566000000E+00  0.10566000000E+00 0. -1.
     999900   -1    0    0    0    0 -0.00000000000E+00 -0.00000000000E+00 -0.74505805969E-08  0.93827000000E+00  0.93827000000E+00 0. -1.
     999902    2    1    2    0    0  0.10253980018E-01  0.14848109232E-01  0.15467069309E-01  0.10201636228E+01  0.10198867469E+01 0.  0.
     999903    2    3    3    0    0 -0.61002765346E-01  0.11394700779E+00  0.16537706124E-01  0.13173846456E+00  0.19397663711E-01 0.  0.
         14    1    1    2    0    0 -0.10253980018E-01 -0.14848109232E-01 -0.15467069309E-01  0.23766377237E-01  0.00000000000E+00 0.  1.
     999901    1    3    3    0    0  0.71256745364E-01 -0.99098898560E-01 -0.10706368145E-02  0.88842515820E+00  0.88000000000E+00 0.  1.
        -11    1    4    4    0    0 -0.12289903866E-01  0.10089355830E-01  0.59111502953E-03  0.15920030656E-01  0.51100000000E-03 0. -1.
         11    1    4    4    0    0 -0.48712861479E-01  0.10385765196E+00  0.15946591094E-01  0.11581843391E+00  0.51100000000E-03 0.  1.
</event>
<event>
 8    1  0.1099921E+005  0.1043930E+01  0.7957747E-01            NaN
         13   -1    0    0    0    0  0.00000000000E+00  0.00000000000E+00  0.74505805969E-08  0.10566000000E+00  0.10566000000E+00 0. -1.
     999900   -1    0    0    0    0 -0.00000000000E+00 -0.00000000000E+00 -0.74505805969E-08  0.93827000000E+00  0.93827000000E+00 0.  1.
     999902    2    1    2    0    0 -0.21341630431E-01 -0.12124961790E-01  0.19434945089E-02  0.10193077122E+01  0.10190102821E+01 0.  0.
     999903    2    3    3    0    0 -0.44160018685E-01 -0.43059794528E-01 -0.11378889260E+00  0.13089810609E+00  0.19548630231E-01 0.  0.
         14    1    1    2    0    0  0.21341630431E-01  0.12124961790E-01 -0.19434945089E-02  0.24622287846E-01  0.00000000000E+00 0.  1.
     999901    1    3    3    0    0  0.22818388254E-01  0.30934832737E-01  0.11573238711E+00  0.88840960606E+00  0.88000000000E+00 0. -1.
        -11    1    4    4    0    0 -0.17235266930E-01 -0.27980298230E-01 -0.47334034587E-01  0.57625718793E-01  0.51100000000E-03 0.  1.
         11    1    4    4    0    0 -0.26924751754E-01 -0.15079496298E-01 -0.66454858014E-01  0.73272387297E-01  0.51100000000E-03 0. -1.
</event>
<event>
 8    1  0.1099921E+005  0.1043930E+01  0.7957747E-01            NaN
         13   -1    0    0    0    0  0.00000000000E+00  0.00000000000E+00  0.74505805969E-08  0.10566000000E+00  0.10566000000E+00 0. -1.
     999900   -1    0    0    0    0 -0.00000000000E+00 -0.00000000000E+00 -0.74505805969E-08  0.93827000000E+00  0.93827000000E+00 0. -1.
     999902    2    1    2    0    0  0.63681141457E-02 -0.22186429818E-01 -0.12399242755E-01  0.10177282488E+01  0.10173909065E+01 0.  0.
     999903    2    3    3    0    0  0.28501349564E-01  0.53167838148E-01  0.10867325447E+00  0.12597340837E+00  0.20500669258E-01 0.  0.
         14    1    1    2    0    0 -0.63681141457E-02  0.22186429818E-01  0.12399242755E-01  0.26201751215E-01  0.00000000000E+00 0.  1.
     999901    1    3    3    0    0 -0.22133235418E-01 -0.75354267966E-01 -0.12107249723E+00  0.89175484041E+00  0.88000000000E+00 0. -1.
        -11    1    4    4    0    0  0.23948531463E-01  0.35019202546E-01  0.90171787279E-01  0.99654849597E-01  0.51100000000E-03 0. -1.
         11    1    4    4    0    0  0.45528181008E-02  0.18148635602E-01  0.18501467192E-01  0.26318558777E-01  0.51100000000E-03 0.  1.
</event>
<event>
 8    1  0.1099921E+005  0.1043930E+01  0.7957747E-01            NaN
         13   -1    0    0    0    0  0.00000000000E+00  0.00000000000E+00  0.74505805969E-08  0.10566000000E+00  0.10566000000E+00 0. -1.
     999900   -1    0    0    0    0 -0.00000000000E+00 -0.00000000000E+00 -0.74505805969E-08  0.93827000000E+00  0.93827000000E+00 0.  1.
     999902    2    1    2    0    0 -0.10512544849E-01  0.36427967637E-02 -0.20351776860E-01  0.10207356389E+01  0.10204720800E+01 0.  0.
     999903    2    3    3    0    0 -0.11628866429E+00 -0.49930853939E-01  0.29394821236E-01  0.13139124689E+00  0.19582150729E-01 0.  0.
         14    1    1    2    0    0  0.10512544849E-01 -0.36427967637E-02  0.20351776860E-01  0.23194361143E-01  0.00000000000E+00 0. -1.
     999901    1    3    3    0    0  0.10577611944E+00  0.53573650702E-01 -0.49746598096E-01  0.88934439196E+00  0.88000000000E+00 0.  1.
        -11    1    4    4    0    0 -0.10998974794E+00 -0.50025236891E-01  0.31242590347E-01  0.12480636823E+00  0.51100000000E-03 0. -1.
         11    1    4    4    0    0 -0.62989163498E-02  0.94382952706E-04 -0.18477691116E-02  0.65848786635E-02  0.51100000000E-03 0.  1.
</event>
<event>
 8    1  0.1099921E+005  0.1043930E+01  0.7957747E-01            NaN
         13   -1    0    0    0    0  0.00000000000E+00  0.00000000000E+00  0.74505805969E-08  0.10566000000E+00  0.10566000000E+00 0. -1.
     999900   -1    0    0    0    0 -0.00000000000E+00 -0.00000000000E+00 -0.74505805969E-08  0.93827000000E+00  0.93827000000E+00 0.  1.
     999902    2    1    2    0    0 -0.11992844528E-01  0.91225241831E-02  0.17293195265E-01  0.10209930567E+01  0.10207353812E+01 0.  0.
     999903    2    3    3    0    0 -0.40498942423E-01  0.37607728564E-01 -0.11606356078E+00  0.13003400661E+00  0.19585380984E-01 0.  0.
         14    1    1    2    0    0  0.11992844528E-01 -0.91225241831E-02 -0.17293195265E-01  0.22936943341E-01  0.00000000000E+00 0.  1.
     999901    1    3    3    0    0  0.28506097895E-01 -0.28485204380E-01  0.13335675605E+00  0.89095905005E+00  0.88000000000E+00 0. -1.
        -11    1    4    4    0    0 -0.23421826852E-01  0.27524825998E-01 -0.92010650574E-01  0.98855545921E-01  0.51100000000E-03 0. -1.
         11    1    4    4    0    0 -0.17077115571E-01  0.10082902566E-01 -0.24052910206E-01  0.31178460687E-01  0.51100000000E-03 0.  1.
</event>
<event>
 8    1  0.1099921E+005  0.1043930E+01  0.7957747E-01            NaN
         13   -1    0    0    0    0  0.00000000000E+00  0.00000000000E+00  0.74505805969E-08  0.10566000000E+00  0.10566000000E+00 0. -1.
     999900   -1    0    0    0    0 -0.00000000000E+00 -0.00000000000E+00 -0.74505805969E-08  0.93827000000E+00  0.93827000000E+00 0.  1.
     999902    2    1    2    0    0  0.89001530535E-02  0.63785781546E-02 -0.20968110565E-01  0.10202749658E+01  0.10200007084E+01 0.  0.
     999903    2    3    3    0    0  0.55226809285E-01 -0.64797059554E-01  0.94426354420E-01  0.12868760997E+00  0.19887311523E-01 0.  0.
         14    1    1    2    0    0 -0.89001530535E-02 -0.63785781546E-02  0.20968110565E-01  0.23655034227E-01  0.00000000000E+00 0. -1.
     999901    1    3    3    0    0 -0.46326656232E-01  0.71175637709E-01 -0.11539446498E+00  0.89158735580E+00  0.88000000000E+00 0.  1.
        -11    1    4    4    0    0  0.13410022578E-01 -0.70989637876E-02  0.98682770474E-02  0.18107125815E-01  0.51100000000E-03 0.  1.
         11    1    4    4    0    0  0.41816786708E-01 -0.57698095767E-01  0.84558077373E-01  0.11058048415E+00  0.51100000000E-03 0. -1.
</event>
<event>
 8    1  0.1099921E+005  0.1043930E+01  0.7957747E-01            NaN
         13   -1    0    0    0    0  0.00000000000E+00  0.00000000000E+00  0.74505805969E-08  0.10566000000E+00  0.10566000000E+00 0. -1.
     999900   -1    0    0    0    0 -0.00000000000E+00 -0.00000000000E+00 -0.74505805969E-08  0.93827000000E+00  0.93827000000E+00 0.  1.
     999902    2    1    2    0    0 -0.22777060011E-01  0.31800651044E-03 -0.43708165414E-02  0.10207351810E+01  0.10204716116E+01 0.  0.
     999903    2    3    3    0    0 -0.78603840659E-01  0.96197321354E-01  0.43206968083E-01  0.13249359335E+00  0.15975662308E-01 0.  0.
         14    1    1    2    0    0  0.22777060011E-01 -0.31800651044E-03  0.43708165414E-02  0.23194818993E-01  0.00000000000E+00 0. -1.
     999901    1    3    3    0    0  0.55826780647E-01 -0.95879314843E-01 -0.47577784624E-01  0.88824158766E+00  0.88000000000E+00 0.  1.
        -11    1    4    4    0    0 -0.16007766644E-01  0.16623752707E-01  0.19513549242E-02  0.23166066866E-01  0.51100000000E-03 0. -1.
         11    1    4    4    0    0 -0.62596074014E-01  0.79573568647E-01  0.41255613158E-01  0.10932752648E+00  0.51100000000E-03 0.  1.
</event>
<event>
 8    1  0.1099921E+005  0.1043930E+01  0.7957747E-01            NaN
         13   -1    0    0    0    0  0.00000000000E+00  0.00000000000E+00  0.74505805969E-08  0.10566000000E+00  0.10566000000E+00 0.  1.
     999900   -1    0    0    0    0 -0.00000000000E+00 -0.00000000000E+00 -0.74505805969E-08  0.93827000000E+00  0.93827000000E+00 0. -1.
     999902    2    1    2    0    0 -0.15819784762E-01 -0.48012540498E-02  0.16276525074E-01  0.10207299375E+01  0.10204662476E+01 0.  0.
     999903    2    3    3    0    0 -0.39436593771E-01  0.16976431810E-01 -0.12050055358E+00  0.12958461239E+00  0.20696477678E-01 0.  0.
         14    1    1    2    0    0  0.15819784762E-01  0.48012540498E-02 -0.16276525074E-01  0.23200062475E-01  0.00000000000E+00 0.  1.
     999901    1    3    3    0    0  0.23616809009E-01 -0.21777685860E-01  0.13677707866E+00  0.89114532514E+00  0.88000000000E+00 0.  1.
        -11    1    4    4    0    0 -0.20353367230E-02  0.75126065029E-02 -0.33768051221E-01  0.34657239595E-01  0.51100000000E-03 0. -1.
         11    1    4    4    0    0 -0.37401257048E-01  0.94638253072E-02 -0.86732502362E-01  0.94927372792E-01  0.51100000000E-03 0.  1.
</event>
<event>
 8    1  0.1099921E+005  0.1043930E+01  0.7957747E-01            NaN
         13   -1    0    0    0    0  0.00000000000E+00  0.00000000000E+00  0.74505805969E-08  0.10566000000E+00  0.10566000000E+00 0. -1.
     999900   -1    0    0    0    0 -0.00000000000E+00 -0.00000000000E+00 -0.74505805969E-08  0.93827000000E+00  0.93827000000E+00 0.  1.
     999902    2    1    2    0    0  0.11181704914E-01 -0.20109213813E-01  0.53904959511E-02  0.10202980629E+01  0.10200243471E+01 0.  0.
     999903    2    3    3    0    0  0.93905782804E-01 -0.55278784087E-01  0.73970980648E-01  0.13306446647E+00  0.18984368434E-01 0.  0.
         14    1    1    2    0    0 -0.11181704914E-01  0.20109213813E-01 -0.53904959511E-02  0.23631937109E-01  0.00000000000E+00 0. -1.
     999901    1    3    3    0    0 -0.82724077890E-01  0.35169570274E-01 -0.68580484697E-01  0.88723359642E+00  0.88000000000E+00 0.  1.
        -11    1    4    4    0    0  0.85026665606E-01 -0.45738165244E-01  0.58748790275E-01  0.11301856088E+00  0.51100000000E-03 0.  1.
         11    1    4    4    0    0  0.88791171979E-02 -0.95406188434E-02  0.15222190373E-01  0.20045905589E-01  0.51100000000E-03 0. -1.
</event>
<event>
 8    1  0.1099921E+005  0.1043930E+01  0.7957747E-01            NaN
         13   -1    0    0    0    0  0.00000000000E+00  0.00000000000E+00  0.74505805969E-08  0.10566000000E+00  0.10566000000E+00 0. -1.
     999900   -1    0    0    0    0 -0.00000000000E+00 -0.00000000000E+00 -0.74505805969E-08  0.93827000000E+00  0.93827000000E+00 0. -1.
     999902    2    1    2    0    0  0.75922550145E-02 -0.36298377252E-02 -0.23125649158E-01  0.10193207800E+01  0.10190236695E+01 0.  0.
     999903    2    3    3    0    0  0.80952964649E-01  0.96178008094E-01  0.22875298804E-01  0.12945590995E+00  0.20783685896E-01 0.  0.
         14    1    1    2    0    0 -0.75922550145E-02  0.36298377252E-02  0.23125649158E-01  0.24609219961E-01  0.00000000000E+00 0. -1.
     999901    1    3    3    0    0 -0.73360709634E-01 -0.99807845819E-01 -0.46000947962E-01  0.88986487009E+00  0.88000000000E+00 0. -1.
        -11    1    4    4    0    0  0.47422060934E-01  0.70824787883E-01  0.12434544542E-01  0.86138733801E-01  0.51100000000E-03 0. -1.
         11    1    4    4    0    0  0.33530903714E-01  0.25353220210E-01  0.10440754262E-01  0.43317176149E-01  0.51100000000E-03 0.  1.
</event>
<event>
 8    1  0.1099921E+005  0.1043930E+01  0.7957747E-01            NaN
         13   -1    0    0    0    0  0.00000000000E+00  0.00000000000E+00  0.74505805969E-08  0.10566000000E+00  0.10566000000E+00 0. -1.
     999900   -1    0    0    0    0 -0.00000000000E+00 -0.00000000000E+00 -0.74505805969E-08  0.93827000000E+00  0.93827000000E+00 0.  1.
     999902    2    1    2    0    0  0.30197827168E-01 -0.47708384288E-03 -0.11904398177E-02  0.10137049521E+01  0.10132542506E+01 0.  0.
     999903    2    3    3    0    0  0.25758803288E-01 -0.12156761942E+00 -0.50121679852E-02  0.12539350425E+00  0.16006468770E-01 0.  0.
         14    1    1    2    0    0 -0.30197827168E-01  0.47708384288E-03  0.11904398177E-02  0.30225047918E-01  0.00000000000E+00 0. -1.
     999901    1    3    3    0    0  0.44390238804E-02  0.12109053558E+00  0.38217281675E-02  0.88831144783E+00  0.88000000000E+00 0.  1.
        -11    1    4    4    0    0  0.19319838938E-01 -0.11248521354E+00 -0.40162607802E-02  0.11420407573E+00  0.51100000000E-03 0. -1.
         11    1    4    4    0    0  0.64389643503E-02 -0.90824058757E-02 -0.99590720501E-03  0.11189428518E-01  0.51100000000E-03 0.  1.
</event>
<event>
 8    1  0.1099921E+005  0.1043930E+01  0.7957747E-01            NaN
         13   -1    0    0    0    0  0.00000000000E+00  0.00000000000E+00  0.74505805969E-08  0.10566000000E+00  0.10566000000E+00 0.  1.
     999900   -1    0    0    0    0 -0.00000000000E+00 -0.00000000000E+00 -0.74505805969E-08  0.93827000000E+00  0.93827000000E+00 0.  1.
     999902    2    1    2    0    0  0.18878512520E-01  0.11137884830E-01 -0.92911819438E-02  0.10201229259E+01  0.10198450898E+01 0.  0.
     999903    2    3    3    0    0 -0.12344164932E-01  0.11753995614E+00 -0.55395395275E-01  0.13196648991E+00  0.19454689528E-01 0.  0.
         14    1    1    2    0    0 -0.18878512520E-01 -0.11137884830E-01  0.92911819438E-02  0.23807074061E-01  0.00000000000E+00 0.  1.
     999901    1    3    3    0    0  0.31222677452E-01 -0.10640207131E+00  0.46104213332E-01  0.88815643603E+00  0.88000000000E+00 0. -1.
        -11    1    4    4    0    0 -0.16797237403E-01  0.10101935288E+00 -0.44378916620E-01  0.11161006318E+00  0.51100000000E-03 0. -1.
         11    1    4    4    0    0  0.44530724707E-02  0.16520603260E-01 -0.11016478656E-01  0.20356426736E-01  0.51100000000E-03 0.  1.
</event>
<event>
 8    1  0.1099921E+005  0.1043930E+01  0.7957747E-01            NaN
         13   -1    0    0    0    0  0.00000000000E+00  0.00000000000E+00  0.74505805969E-08  0.10566000000E+00  0.10566000000E+00 0. -1.
     999900   -1    0    0    0    0 -0.00000000000E+00 -0.00000000000E+00 -0.74505805969E-08  0.93827000000E+00  0.93827000000E+00 0.  1.
     999902    2    1    2    0    0  0.21817561798E-01  0.18135287834E-02  0.10032399905E-01  0.10198479748E+01  0.10195636065E+01 0.  0.
     999903    2    3    3    0    0 -0.17324287098E-01  0.92783414545E-01  0.89219544098E-01  0.13075956061E+00  0.15134156886E-01 0.  0.
         14    1    1    2    0    0 -0.21817561798E-01 -0.18135287834E-02 -0.10032399905E-01  0.24082025191E-01  0.00000000000E+00 0.  1.
     999901    1    3    3    0    0  0.39141848896E-01 -0.90969885762E-01 -0.79187144193E-01  0.88908841420E+00  0.88000000000E+00 0.  1.
        -11    1    4    4    0    0 -0.15503031682E-01  0.63594276352E-01  0.69558425973E-01  0.95515505134E-01  0.51100000000E-03 0. -1.
         11    1    4    4    0    0 -0.18212554155E-02  0.29189138193E-01  0.19661118125E-01  0.35244055480E-01  0.51100000000E-03 0.  1.
</event>
<event>
 8    1  0.1099921E+005  0.1043930E+01  0.7957747E-01            NaN
         13   -1    0    0    0    0  0.00000000000E+00  0.00000000000E+00  0.74505805969E-08  0.10566000000E+00  0.10566000000E+00 0.  1.
     999900   -1    0    0    0    0 -0.00000000000E+00 -0.00000000000E+00 -0.74505805969E-08  0.93827000000E+00  0.93827000000E+00 0.  1.
     999902    2    1    2    0    0  0.33058444334E-03 -0.23963130498E-01 -0.91063051655E-03  0.10199472946E+01  0.10196652949E+01 0.  0.
     999903    2    3    3    0    0 -0.60069265574E-01  0.15609218019E-01  0.11261279255E+00  0.12972166017E+00  0.17149452399E-01 0.  0.
         14    1    1    2    0    0 -0.33058444334E-03  0.23963130498E-01  0.91063051655E-03  0.23982705379E-01  0.00000000000E+00 0.  1.
     999901    1    3    3    0    0  0.60399850017E-01 -0.39572348517E-01 -0.11352342307E+00  0.89022563445E+00  0.88000000000E+00 0.  1.
        -11    1    4    4    0    0 -0.36384267763E-01  0.11732381444E-01  0.52114664239E-01  0.64634844045E-01  0.51100000000E-03 0. -1.
         11    1    4    4    0    0 -0.23684997811E-01  0.38768365748E-02  0.60498128312E-01  0.65086816126E-01  0.51100000000E-03 0.  1.
</event>
<event>
 8    1  0.1099921E+005  0.1043930E+01  0.7957747E-01            NaN
         13   -1    0    0    0    0  0.00000000000E+00  0.00000000000E+00  0.74505805969E-08  0.10566000000E+00  0.10566000000E+00 0. -1.
     999900   -1    0    0    0    0 -0.00000000000E+00 -0.00000000000E+00 -0.74505805969E-08  0.93827000000E+00  0.93827000000E+00 0. -1.
     999902    2    1    2    0    0 -0.17072622830E-03 -0.15155717998E-01 -0.17582835544E-01  0.10207161886E+01  0.10204521824E+01 0.  0.
     999903    2    3    3    0    0  0.53108090560E-01  0.10139432612E+00 -0.58627936384E-01  0.13048742841E+00  0.22101027063E-01 0.  0.
         14    1    1    2    0    0  0.17072622830E-03  0.15155717998E-01  0.17582835544E-01  0.23213811433E-01  0.00000000000E+00 0. -1.
     999901    1    3    3    0    0 -0.53278816788E-01 -0.11655004412E+00  0.41045100839E-01  0.89022876015E+00  0.88000000000E+00 0. -1.
        -11    1    4    4    0    0  0.44915179655E-01  0.70242867950E-01 -0.49669007212E-01  0.97050014218E-01  0.51100000000E-03 0. -1.
         11    1    4    4    0    0  0.81929109046E-02  0.31151458169E-01 -0.89589291712E-02  0.33437414195E-01  0.51100000000E-03 0.  1.
</event>
<event>
 8    1  0.1099921E+005  0.1043930E+01  0.7957747E-01            NaN
         13   -1    0    0    0    0  0.00000000000E+00  0.00000000000E+00  0.74505805969E-08  0.10566000000E+00  0.10566000000E+00 0.  1.
     999900   -1    0    0    0    0 -0.00000000000E+00 -0.00000000000E+00 -0.74505805969E-08  0.93827000000E+00  0.93827000000E+00 0.  1.
     999902    2    1    2    0    0 -0.10637056970E-01 -0.24109323722E-01  0.11336408665E-01  0.10152434067E+01  0.10148380434E+01 0.  0.
     999903    2    3    3    0    0  0.10513289789E+00 -0.17864100461E-01 -0.61014152238E-01  0.12469509872E+00  0.21309353994E-01 0.  0.
         14    1    1    2    0    0  0.10637056970E-01  0.24109323722E-01 -0.11336408665E-01  0.28686593257E-01  0.00000000000E+00 0. -1.
     999901    1    3    3    0    0 -0.11576995486E+00 -0.62452232603E-02  0.72350560902E-01  0.89054830802E+00  0.88000000000E+00 0. -1.
        -11    1    4    4    0    0  0.36709633601E-01 -0.12083390454E-01 -0.12515367404E-01  0.40626359254E-01  0.51100000000E-03 0. -1.
         11    1    4    4    0    0  0.68423264287E-01 -0.57807100077E-02 -0.48498784834E-01  0.84068739465E-01  0.51100000000E-03 0.  1.
</event>
<event>
 8    1  0.1099921E+005  0.1043930E+01  0.7957747E-01            NaN
         13   -1    0    0    0    0  0.00000000000E+00  0.00000000000E+00  0.74505805969E-08  0.10566000000E+00  0.10566000000E+00 0. -1.
     999900   -1    0    0    0    0 -0.00000000000E+00 -0.00000000000E+00 -0.74505805969E-08  0.93827000000E+00  0.93827000000E+00 0.  1.
     999902    2    1    2    0    0  0.58558790586E-02  0.18653458103E-01  0.14608596346E-01  0.10195239781E+01  0.10192318127E+01 0.  0.
     999903    2    3    3    0    0 -0.69741199082E-02  0.13013327203E+00 -0.56937496318E-03  0.13226824910E+00  0.22611030417E-01 0.  0.
         14    1    1    2    0    0 -0.58558790586E-02 -0.18653458103E-01 -0.14608596346E-01  0.24406021920E-01  0.00000000000E+00 0.  1.
     999901    1    3    3    0    0  0.12829998967E-01 -0.11147981392E+00  0.15177971309E-01  0.88725572897E+00  0.88000000000E+00 0. -1.
        -11    1    4    4    0    0 -0.90967071280E-03  0.84023097475E-01 -0.10580122435E-01  0.84693025225E-01  0.51100000000E-03 0. -1.
         11    1    4    4    0    0 -0.60644491954E-02  0.46110174552E-01  0.10010747471E-01  0.47575223880E-01  0.51100000000E-03 0.  1.
</event>
<event>
 8    1  0.1099921E+005  0.1043930E+01  0.7957747E-01            NaN
         13   -1    0    0    0    0  0.00000000000E+00  0.00000000000E+00  0.74505805969E-08  0.10566000000E+00  0.10566000000E+00 0.  1.
     999900   -1    0    0    0    0 -0.00000000000E+00 -0.00000000000E+00 -0.74505805969E-08  0.93827000000E+00  0.93827000000E+00 0.  1.
     999902    2    1    2    0    0  0.38839507248E-02 -0.20424513192E-01  0.11111992199E-01  0.10203562395E+01  0.10200838854E+01 0.  0.
     999903    2    3    3    0    0  0.90970559958E-01  0.87395692808E-01 -0.17000252223E-01  0.12906528107E+00  0.21335142430E-01 0.  0.
         14    1    1    2    0    0 -0.38839507248E-02  0.20424513192E-01 -0.11111992199E-01  0.23573760476E-01  0.00000000000E+00 0. -1.
     999901    1    3    3    0    0 -0.87086609233E-01 -0.10782020600E+00  0.28112244421E-01  0.89129095845E+00  0.88000000000E+00 0. -1.
        -11    1    4    4    0    0  0.20228616018E-01  0.26364100089E-01  0.34765573872E-02  0.33415718633E-01  0.51100000000E-03 0.  1.
         11    1    4    4    0    0  0.70741943940E-01  0.61031592719E-01 -0.20476809610E-01  0.95649562441E-01  0.51100000000E-03 0. -1.
</event>
<event>
 8    1  0.1099921E+005  0.1043930E+01  0.7957747E-01            NaN
         13   -1    0    0    0    0  0.00000000000E+00  0.00000000000E+00  0.74505805969E-08  0.10566000000E+00  0.10566000000E+00 0.  1.
     999900   -1    0    0    0    0 -0.00000000000E+00 -0.00000000000E+00 -0.74505805969E-08  0.93827000000E+00  0.93827000000E+00 0.  1.
     999902    2    1    2    0    0  0.18037785785E-01  0.34218010006E-02  0.13223855994E-01  0.10213038911E+01  0.10210532293E+01 0.  0.
     999903    2    3    3    0    0 -0.11603342614E+00  0.44017317581E-01  0.32909228098E-01  0.13000674661E+00  0.20431755727E-01 0.  0.
         14    1    1    2    0    0 -0.18037785785E-01 -0.34218010006E-02 -0.13223855994E-01  0.22626108933E-01  0.00000000000E+00 0. -1.
     999901    1    3    3    0    0  0.13407121193E+00 -0.40595516581E-01 -0.19685372103E-01  0.89129714445E+00  0.88000000000E+00 0.  1.
        -11    1    4    4    0    0 -0.55370037799E-01  0.25219109201E-01  0.63839856027E-02  0.61178925685E-01  0.51100000000E-03 0. -1.
         11    1    4    4    0    0 -0.60663388342E-01  0.18798208380E-01  0.26525242495E-01  0.68827820929E-01  0.51100000000E-03 0.  1.
</event>
<event>
 8    1  0.1099921E+005  0.1043930E+01  0.7957747E-01            NaN
         13   -1    0    0    0    0  0.00000000000E+00  0.00000000000E+00  0.74505805969E-08  0.10566000000E+00  0.10566000000E+00 0.  1.
     999900   -1    0    0    0    0 -0.00000000000E+00 -0.00000000000E+00 -0.74505805969E-08  0.93827000000E+00  0.93827000000E+00 0. -1.
     999902    2    1    2    0    0  0.52832074547E-02  0.94413207741E-02 -0.20654674286E-01  0.10206133452E+01  0.10203469675E+01 0.  0.
     999903    2    3    3    0    0 -0.95385905150E-01  0.87310672721E-01  0.70315965514E-02  0.13102667954E+00  0.19922924738E-01 0.  0.
         14    1    1    2    0    0 -0.52832074547E-02 -0.94413207741E-02  0.20654674286E-01  0.23316654752E-01  0.00000000000E+00 0.  1.
     999901    1    3    3    0    0  0.10066911260E+00 -0.77869351947E-01 -0.27686270837E-01  0.88958666570E+00  0.88000000000E+00 0. -1.
        -11    1    4    4    0    0 -0.41574741353E-01  0.26051273792E-01 -0.11464546028E-02  0.49078543824E-01  0.51100000000E-03 0. -1.
         11    1    4    4    0    0 -0.53811163797E-01  0.61259398929E-01  0.81780511542E-02  0.81948135720E-01  0.51100000000E-03 0.  1.
</event>
<event>
 8    1  0.1099921E+005  0.1043930E+01  0.7957747E-01            NaN
         13   -1    0    0    0    0  0.00000000000E+00  0.00000000000E+00  0.74505805969E-08  0.10566000000E+00  0.10566000000E+00 0.  1.
     999900   -1    0    0    0    0 -0.00000000000E+00 -0.00000000000E+00 -0.74505805969E-08  0.93827000000E+00  0.93827000000E+00 0. -1.
     999902    2    1    2    0    0 -0.64402361717E-02 -0.13442019760E-01  0.18243190932E-01  0.10203720172E+01  0.10201000318E+01 0.  0.
     999903    2    3    3    0    0 -0.12446795331E+00  0.23822395408E-01  0.29726217823E-01  0.13163637680E+00  0.19614019155E-01 0.  0.
         14    1    1    2    0    0  0.64402361717E-02  0.13442019760E-01 -0.18243190932E-01  0.23557982778E-01  0.00000000000E+00 0. -1.
     999901    1    3    3    0    0  0.11802771714E+00 -0.37264415168E-01 -0.11483026892E-01  0.88873564042E+00  0.88000000000E+00 0. -1.
        -11    1    4    4    0    0 -0.23307077169E-01  0.94979920558E-02  0.12196232734E-01  0.27972145308E-01  0.51100000000E-03 0. -1.
         11    1    4    4    0    0 -0.10116087614E+00  0.14324403352E-01  0.17529985090E-01  0.10366423149E+00  0.51100000000E-03 0.  1.
</event>
<event>
 8    1  0.1099921E+005  0.1043930E+01  0.7957747E-01            NaN
         13   -1    0    0    0    0  0.00000000000E+00  0.00000000000E+00  0.74505805969E-08  0.10566000000E+00  0.10566000000E+00 0.  1.
     999900   -1    0    0    0    0 -0.00000000000E+00 -0.00000000000E+00 -0.74505805969E-08  0.93827000000E+00  0.93827000000E+00 0.  1.
     999902    2    1    2    0    0 -0.24171994426E-03 -0.19037818466E-01  0.14345538562E-01  0.10200911360E+01  0.10198125486E+01 0.  0.
     999903    2    3    3    0    0 -0.79809510102E-01 -0.90391065250E-01 -0.48132824086E-01  0.13142592071E+00  0.20393658328E-01 0.  0.
         14    1    1    2    0    0  0.24171994426E-03  0.19037818466E-01 -0.14345538562E-01  0.23838864006E-01  0.00000000000E+00 0. -1.
     999901    1    3    3    0    0  0.79567790158E-01  0.71353246784E-01  0.62478362648E-01  0.88866521528E+00  0.88000000000E+00 0. -1.
        -11    1    4    4    0    0 -0.42656091713E-01 -0.55177568402E-01 -0.37328361785E-01  0.79106092873E-01  0.51100000000E-03 0. -1.
         11    1    4    4    0    0 -0.37153418389E-01 -0.35213496848E-01 -0.10804462302E-01  0.52319827837E-01  0.51100000000E-03 0.  1.
</event>
<event>
 8    1  0.1099921E+005  0.1043930E+01  0.7957747E-01            NaN
         13   -1    0    0    0    0  0.00000000000E+00  0.00000000000E+00  0.74505805969E-08  0.10566000000E+00  0.10566000000E+00 0. -1.
     999900   -1    0    0    0    0 -0.00000000000E+00 -0.00000000000E+00 -0.74505805969E-08  0.93827000000E+00  0.93827000000E+00 0.  1.
     999902    2    1    2    0    0 -0.19843395999E-01 -0.10792336108E-02  0.12551293251E-01  0.10204255308E+01  0.10201547941E+01 0.  0.
     999903    2    3    3    0    0 -0.55884559105E-01  0.21824072063E-01 -0.11397006972E+00  0.13035183602E+00  0.20076112523E-01 0.  0.
         14    1    1    2    0    0  0.19843395999E-01  0.10792336108E-02 -0.12551293251E-01  0.23504469197E-01  0.00000000000E+00 0.  1.
     999901    1    3    3    0    0  0.36041163106E-01 -0.22903305674E-01  0.12652136298E+00  0.89007369478E+00  0.88000000000E+00 0. -1.
        -11    1    4    4    0    0 -0.34311126196E-01  0.17744171955E-01 -0.89444120933E-01  0.97430082160E-01  0.51100000000E-03 0. -1.
         11    1    4    4    0    0 -0.21573432909E-01  0.40799001089E-02 -0.24525948792E-01  0.32921753864E-01  0.51100000000E-03 0.  1.
</event>
<event>
 8    1  0.1099921E+005  0.1043930E+01  0.7957747E-01            NaN
         13   -1    0    0    0    0  0.00000000000E+00  0.00000000000E+00  0.74505805969E-08  0.10566000000E+00  0.10566000000E+00 0.  1.
     999900   -1    0    0    0    0 -0.00000000000E+00 -0.00000000000E+00 -0.74505805969E-08  0.93827000000E+00  0.93827000000E+00 0. -1.
     999902    2    1    2    0    0 -0.22743153887E-01  0.47053266569E-02  0.50387927617E-02  0.10201648873E+01  0.10198880413E+01 0.  0.
     999903    2    3    3    0    0  0.28529296712E-01  0.11701265053E+00  0.46534246414E-01  0.13057865101E+00  0.19479909005E-01 0.  0.
         14    1    1    2    0    0  0.22743153887E-01 -0.47053266569E-02 -0.50387927617E-02  0.23765112669E-01  0.00000000000E+00 0. -1.
     999901    1    3    3    0    0 -0.51272450600E-01 -0.11230732387E+00 -0.41495453652E-01  0.88958623633E+00  0.88000000000E+00 0. -1.
        -11    1    4    4    0    0  0.24332646947E-01  0.67284643542E-01  0.21298519240E-01  0.74653794323E-01  0.51100000000E-03 0.  1.
         11    1    4    4    0    0  0.41966497655E-02  0.49728006985E-01  0.25235727174E-01  0.55924856683E-01  0.51100000000E-03 0. -1.
</event>
<event>
 8    1  0.1099921E+005  0.1043930E+01  0.7957747E-01            NaN
         13   -1    0    0    0    0  0.00000000000E+00  0.00000000000E+00  0.74505805969E-08  0.10566000000E+00  0.10566000000E+00 0. -1.
     999900   -1    0    0    0    0 -0.00000000000E+00 -0.00000000000E+00 -0.74505805969E-08  0.93827000000E+00  0.93827000000E+00 0.  1.
     999902    2    1    2    0    0  0.23838278581E-02 -0.12413857213E-01 -0.19972766204E-01  0.10202932093E+01  0.10200193797E+01 0.  0.
     999903    2    3    3    0    0 -0.43063807238E-01  0.81784775465E-01 -0.91078264178E-01  0.13125166818E+00  0.19710636820E-01 0.  0.
         14    1    1    2    0    0 -0.23838278581E-02  0.12413857213E-01  0.19972766204E-01  0.23636790730E-01  0.00000000000E+00 0. -1.
     999901    1    3    3    0    0  0.45447635096E-01 -0.94198632678E-01  0.71105497974E-01  0.88904154109E+00  0.88000000000E+00 0. -1.
        -11    1    4    4    0    0 -0.28222341273E-01  0.33338929336E-01 -0.45908255563E-01  0.63370448997E-01  0.51100000000E-03 0.  1.
         11    1    4    4    0    0 -0.14841465965E-01  0.48445846128E-01 -0.45170008615E-01  0.67881219187E-01  0.51100000000E-03 0. -1.
</event>
<event>
 8    1  0.1099921E+005  0.1043930E+01  0.7957747E-01            NaN
         13   -1    0    0    0    0  0.00000000000E+00  0.00000000000E+00  0.74505805969E-08  0.10566000000E+00  0.10566000000E+00 0. -1.
     999900   -1    0    0    0    0 -0.00000000000E+00 -0.00000000000E+00 -0.74505805969E-08  0.93827000000E+00  0.93827000000E+00 0. -1.
     999902    2    1    2    0    0  0.85710008388E-02 -0.17923708456E-01  0.12407495344E-01  0.10205063512E+01  0.10202374947E+01 0.  0.
     999903    2    3    3    0    0 -0.42358593228E-01 -0.42287567806E-01  0.11711721688E+00  0.13250210183E+00  0.16058508341E-01 0.  0.
         14    1    1    2    0    0 -0.85710008388E-02  0.17923708456E-01 -0.12407495344E-01  0.23423648754E-01  0.00000000000E+00 0.  1.
     999901    1    3    3    0    0  0.50929594067E-01  0.24363859350E-01 -0.10470972153E+00  0.88800424941E+00  0.88000000000E+00 0. -1.
        -11    1    4    4    0    0 -0.18818611608E-01 -0.22034568488E-01  0.40254980756E-01  0.49602287729E-01  0.51100000000E-03 0.  1.
         11    1    4    4    0    0 -0.23539981620E-01 -0.20252999318E-01  0.76862236119E-01  0.82899814103E-01  0.51100000000E-03 0. -1.
</event>
<event>
 8    1  0.1099921E+005  0.1043930E+01  0.7957747E-01            NaN
         13   -1    0    0    0    0  0.00000000000E+00  0.00000000000E+00  0.74505805969E-08  0.10566000000E+00  0.10566000000E+00 0. -1.
     999900   -1    0    0    0    0 -0.00000000000E+00 -0.00000000000E+00 -0.74505805969E-08  0.93827000000E+00  0.93827000000E+00 0. -1.
     999902    2    1    2    0    0  0.23296044465E-01  0.66026353411E-02  0.84394122026E-02  0.10182877661E+01  0.10179648572E+01 0.  0.
     999903    2    3    3    0    0  0.10195815927E+00  0.76453701979E-01  0.27429730419E-01  0.13181862845E+00  0.19573602302E-01 0.  0.
         14    1    1    2    0    0 -0.23296044465E-01 -0.66026353411E-02 -0.84394122026E-02  0.25642233902E-01  0.00000000000E+00 0.  1.
     999901    1    3    3    0    0 -0.78662114807E-01 -0.69851066638E-01 -0.18990318216E-01  0.88646913765E+00  0.88000000000E+00 0. -1.
        -11    1    4    4    0    0  0.85048752358E-02  0.13734203474E-01  0.60399382082E-02  0.17254078428E-01  0.51100000000E-03 0.  1.
         11    1    4    4    0    0  0.93453284036E-01  0.62719498505E-01  0.21389792211E-01  0.11456455002E+00  0.51100000000E-03 0. -1.
</event>
<event>
 8    1  0.1099921E+005  0.1043930E+01  0.7957747E-01            NaN
         13   -1    0    0    0    0  0.00000000000E+00  0.00000000000E+00  0.74505805969E-08  0.10566000000E+00  0.10566000000E+00 0. -1.
     999900   -1    0    0    0    0 -0.00000000000E+00 -0.00000000000E+00 -0.74505805969E-08  0.93827000000E+00  0.93827000000E+00 0.  1.
     999902    2    1    2    0    0  0.16568136247E-01 -0.14765040565E-01  0.90189844952E-02  0.10199747993E+01  0.10196934537E+01 0.  0.
     999903    2    3    3    0    0 -0.44620315166E-02 -0.12307818790E+00 -0.42004909440E-01  0.13161820216E+00  0.19768375284E-01 0.  0.
         14    1    1    2    0    0 -0.16568136247E-01  0.14765040565E-01 -0.90189844952E-02  0.23955200748E-01  0.00000000000E+00 0. -1.
     999901    1    3    3    0    0  0.21030167763E-01  0.10831314733E+00  0.51023893936E-01  0.88835659709E+00  0.88000000000E+00 0. -1.
        -11    1    4    4    0    0  0.45330289363E-02 -0.67683551016E-01 -0.30258781939E-01  0.74279650207E-01  0.51100000000E-03 0. -1.
         11    1    4    4    0    0 -0.89950604529E-02 -0.55394636883E-01 -0.11746127502E-01  0.57338551954E-01  0.51100000000E-03 0.  1.
</event>
<event>
 8    1  0.1099921E+005  0.1043930E+01  0.7957747E-01            NaN
         13   -1    0    0    0    0  0.00000000000E+00  0.00000000000E+00  0.74505805969E-08  0.10566000000E+00  0.10566000000E+00 0.  1.
     999900   -1    0    0    0    0 -0.00000000000E+00 -0.00000000000E+00 -0.74505805969E-08  0.93827000000E+00  0.93827000000E+00 0.  1.
     999902    2    1    2    0    0  0.18621962729E-01 -0.98106494082E-02 -0.94358284018E-02  0.10208635483E+01  0.10206029213E+01 0.  0.
     999903    2    3    3    0    0 -0.66120700840E-01  0.86236765142E-01 -0.67830629571E-01  0.12967536518E+00  0.20148927664E-01 0.  0.
         14    1    1    2    0    0 -0.18621962729E-01  0.98106494082E-02  0.94358284018E-02  0.23066451728E-01  0.00000000000E+00 0.  1.
     999901    1    3    3    0    0  0.84742663569E-01 -0.96047414550E-01  0.58394801170E-01  0.89118818309E+00  0.88000000000E+00 0.  1.
        -11    1    4    4    0    0 -0.33721631152E-01  0.38946033447E-01 -0.43387617144E-01  0.67354943184E-01  0.51100000000E-03 0. -1.
         11    1    4    4    0    0 -0.32399069687E-01  0.47290731695E-01 -0.24443012427E-01  0.62320422001E-01  0.51100000000E-03 0.  1.
</event>
<event>
 8    1  0.1099921E+005  0.1043930E+01  0.7957747E-01            NaN
         13   -1    0    0    0    0  0.00000000000E+00  0.00000000000E+00  0.74505805969E-08  0.10566000000E+00  0.10566000000E+00 0. -1.
     999900   -1    0    0    0    0 -0.00000000000E+00 -0.00000000000E+00 -0.74505805969E-08  0.93827000000E+00  0.93827000000E+00 0.  1.
     999902    2    1    2    0    0 -0.22767149496E-01 -0.39432705025E-02  0.76331636081E-03  0.10208112818E+01  0.10205494589E+01 0.  0.
     999903    2    3    3    0    0 -0.11507428705E+00  0.55397907068E-01  0.33469102336E-01  0.13339274954E+00  0.19037467524E-01 0.  0.
         14    1    1    2    0    0  0.22767149496E-01  0.39432705025E-02 -0.76331636081E-03  0.23118718180E-01  0.00000000000E+00 0. -1.
     999901    1    3    3    0    0  0.92307137559E-01 -0.59341177570E-01 -0.32705785976E-01  0.88741853228E+00  0.88000000000E+00 0. -1.
        -11    1    4    4    0    0 -0.76433652077E-01  0.39686676779E-01  0.13616907110E-01  0.87194132622E-01  0.51100000000E-03 0. -1.
         11    1    4    4    0    0 -0.38640634978E-01  0.15711230289E-01  0.19852195226E-01  0.46198616917E-01  0.51100000000E-03 0.  1.
</event>
<event>
 8    1  0.1099921E+005  0.1043930E+01  0.7957747E-01            NaN
         13   -1    0    0    0    0  0.00000000000E+00  0.00000000000E+00  0.74505805969E-08  0.10566000000E+00  0.10566000000E+00 0.  1.
     999900   -1    0    0    0    0 -0.00000000000E+00 -0.00000000000E+00 -0.74505805969E-08  0.93827000000E+00  0.93827000000E+00 0.  1.
     999902    2    1    2    0    0  0.10067913861E-01  0.11468212214E-01  0.17757343624E-01  0.10205161999E+01  0.10202475721E+01 0.  0.
     999903    2    3    3    0    0 -0.87786323355E-01 -0.72819995268E-01  0.59369521869E-01  0.13011655537E+00  0.19909484567E-01 0.  0.
         14    1    1    2    0    0 -0.10067913861E-01 -0.11468212214E-01 -0.17757343624E-01  0.23413800065E-01  0.00000000000E+00 0. -1.
     999901    1    3    3    0    0  0.97854237216E-01  0.84288207482E-01 -0.41612178245E-01  0.89039964456E+00  0.88000000000E+00 0. -1.
        -11    1    4    4    0    0 -0.19862769964E-01 -0.18632955081E-01  0.52239919459E-02  0.27735678441E-01  0.51100000000E-03 0.  1.
         11    1    4    4    0    0 -0.67923553391E-01 -0.54187040187E-01  0.54145529923E-01  0.10238087693E+00  0.51100000000E-03 0. -1.
</event>
<event>
 8    1  0.1099921E+005  0.1043930E+01  0.7957747E-01            NaN
         13   -1    0    0    0    0  0.00000000000E+00  0.00000000000E+00  0.74505805969E-08  0.10566000000E+00  0.10566000000E+00 0. -1.
     999900   -1    0    0    0    0 -0.00000000000E+00 -0.00000000000E+00 -0.74505805969E-08  0.93827000000E+00  0.93827000000E+00 0. -1.
     999902    2    1    2    0    0 -0.14311570153E-03 -0.10658157540E-01  0.20929356550E-01  0.10204426679E+01  0.10201723304E+01 0.  0.
     999903    2    3    3    0    0 -0.87262425751E-01  0.48496975947E-01 -0.78853390927E-01  0.12856504136E+00  0.18558690022E-01 0.  0.
         14    1    1    2    0    0  0.14311570153E-03  0.10658157540E-01 -0.20929356550E-01  0.23487332115E-01  0.00000000000E+00 0.  1.
     999901    1    3    3    0    0  0.87119310049E-01 -0.59155133487E-01  0.99782747478E-01  0.89187762652E+00  0.88000000000E+00 0.  1.
        -11    1    4    4    0    0 -0.30901752852E-01  0.26074888778E-01 -0.37522487314E-01  0.55163541668E-01  0.51100000000E-03 0.  1.
         11    1    4    4    0    0 -0.56360672899E-01  0.22422087169E-01 -0.41330903614E-01  0.73401499693E-01  0.51100000000E-03 0. -1.
</event>
<event>
 8    1  0.1099921E+005  0.1043930E+01  0.7957747E-01            NaN
         13   -1    0    0    0    0  0.00000000000E+00  0.00000000000E+00  0.74505805969E-08  0.10566000000E+00  0.10566000000E+00 0. -1.
     999900   -1    0    0    0    0 -0.00000000000E+00 -0.00000000000E+00 -0.74505805969E-08  0.93827000000E+00  0.93827000000E+00 0. -1.
     999902    2    1    2    0    0  0.25238664718E-02  0.32999050689E-02 -0.23208078550E-01  0.10203530158E+01  0.10200805863E+01 0.  0.
     999903    2    3    3    0    0  0.45643435376E-01 -0.11891145562E+00 -0.21483576049E-01  0.13085996475E+00  0.20964943680E-01 0.  0.
         14    1    1    2    0    0 -0.25238664718E-02 -0.32999050689E-02  0.23208078550E-01  0.23576984231E-01  0.00000000000E+00 0. -1.
     999901    1    3    3    0    0 -0.43119568904E-01  0.12221136069E+00 -0.17245025010E-02  0.88949305102E+00  0.88000000000E+00 0. -1.
        -11    1    4    4    0    0  0.45953753121E-01 -0.10738422547E+00 -0.23491927180E-01  0.11914382514E+00  0.51100000000E-03 0. -1.
         11    1    4    4    0    0 -0.31031774467E-03 -0.11527230149E-01  0.20083511307E-02  0.11716139606E-01  0.51100000000E-03 0.  1.
</event>
<event>
 8    1  0.1099921E+005  0.1043930E+01  0.7957747E-01            NaN
         13   -1    0    0    0    0  0.00000000000E+00  0.00000000000E+00  0.74505805969E-08  0.10566000000E+00  0.10566000000E+00 0. -1.
     999900   -1    0    0    0    0 -0.00000000000E+00 -0.00000000000E+00 -0.74505805969E-08  0.93827000000E+00  0.93827000000E+00 0. -1.
     999902    2    1    2    0    0  0.22330345666E-01 -0.28540700032E-02 -0.10945372417E-01  0.10188981956E+01  0.10185906645E+01 0.  0.
     999903    2    3    3    0    0 -0.11305091548E+00  0.20575570809E-01  0.48717525550E-01  0.12624109722E+00  0.18961901978E-01 0.  0.
         14    1    1    2    0    0 -0.22330345666E-01  0.28540700032E-02  0.10945372417E-01  0.25031804380E-01  0.00000000000E+00 0. -1.
     999901    1    3    3    0    0  0.13538126114E+00 -0.23429640813E-01 -0.59662897967E-01  0.89265709840E+00  0.88000000000E+00 0. -1.
        -11    1    4    4    0    0 -0.51563671463E-01  0.67636333427E-02  0.31909554043E-01  0.61016716652E-01  0.51100000000E-03 0.  1.
         11    1    4    4    0    0 -0.61487244013E-01  0.13811937467E-01  0.16807971507E-01  0.65224380565E-01  0.51100000000E-03 0. -1.
</event>
<event>
 8    1  0.1099921E+005  0.1043930E+01  0.7957747E-01            NaN
         13   -1    0    0    0    0  0.00000000000E+00  0.00000000000E+00  0.74505805969E-08  0.10566000000E+00  0.10566000000E+00 0. -1.
     999900   -1    0    0    0    0 -0.00000000000E+00 -0.00000000000E+00 -0.74505805969E-08  0.93827000000E+00  0.93827000000E+00 0.  1.
     999902    2    1    2    0    0  0.81076019293E-02  0.17028000756E-01  0.12865582439E-01  0.10210999928E+01  0.10208447414E+01 0.  0.
     999903    2    3    3    0    0 -0.12296720081E+00  0.12439780427E-01  0.39456465284E-01  0.13098273604E+00  0.17999552088E-01 0.  0.
         14    1    1    2    0    0 -0.81076019293E-02 -0.17028000756E-01 -0.12865582439E-01  0.22830007233E-01  0.00000000000E+00 0.  1.
     999901    1    3    3    0    0  0.13107480274E+00  0.45882203284E-02 -0.26590882845E-01  0.89011725673E+00  0.88000000000E+00 0. -1.
        -11    1    4    4    0    0 -0.10322569121E+00  0.89707107679E-02  0.39617400271E-01  0.11093158479E+00  0.51100000000E-03 0. -1.
         11    1    4    4    0    0 -0.19741509593E-01  0.34690696593E-02 -0.16093498667E-03  0.20051151249E-01  0.51100000000E-03 0.  1.
</event>
<event>
 8    1  0.1099921E+005  0.1043930E+01  0.7957747E-01            NaN
         13   -1    0    0    0    0  0.00000000000E+00  0.00000000000E+00  0.74505805969E-08  0.10566000000E+00  0.10566000000E+00 0. -1.
     999900   -1    0    0    0    0 -0.00000000000E+00 -0.00000000000E+00 -0.74505805969E-08  0.93827000000E+00  0.93827000000E+00 0.  1.
     999902    2    1    2    0    0  0.21781114272E-01  0.38253266170E-03 -0.63512047779E-02  0.10212385683E+01  0.10209864408E+01 0.  0.
     999903    2    3    3    0    0  0.54672481737E-01  0.79682186040E-01 -0.89367289943E-01  0.13317215892E+00  0.20247971971E-01 0.  0.
         14    1    1    2    0    0 -0.21781114272E-01 -0.38253266170E-03  0.63512047779E-02  0.22691431694E-01  0.00000000000E+00 0.  1.
     999901    1    3    3    0    0 -0.32891367465E-01 -0.79299653378E-01  0.83016085165E-01  0.88806640938E+00  0.88000000000E+00 0. -1.
        -11    1    4    4    0    0  0.36720039468E-01  0.35694255479E-01 -0.47213550711E-01  0.69655018947E-01  0.51100000000E-03 0. -1.
         11    1    4    4    0    0  0.17952442269E-01  0.43987930561E-01 -0.42153739232E-01  0.63517139976E-01  0.51100000000E-03 0.  1.
</event>
<event>
 8    1  0.1099921E+005  0.1043930E+01  0.7957747E-01            NaN
         13   -1    0    0    0    0  0.00000000000E+00  0.00000000000E+00  0.74505805969E-08  0.10566000000E+00  0.10566000000E+00 0.  1.
     999900   -1    0    0    0    0 -0.00000000000E+00 -0.00000000000E+00 -0.74505805969E-08  0.93827000000E+00  0.93827000000E+00 0.  1.
     999902    2    1    2    0    0  0.18404501251E-01 -0.17159747747E-01  0.79018384026E-02  0.10175553595E+01  0.10172134919E+01 0.  0.
     999903    2    3    3    0    0  0.90877642109E-01  0.86902039290E-01 -0.15312281472E-01  0.12816224791E+00  0.19503475499E-01 0.  0.
         14    1    1    2    0    0 -0.18404501251E-01  0.17159747747E-01 -0.79018384026E-02  0.26374640456E-01  0.00000000000E+00 0. -1.
     999901    1    3    3    0    0 -0.72473140858E-01 -0.10406178704E+00  0.23214119875E-01  0.88939311164E+00  0.88000000000E+00 0. -1.
        -11    1    4    4    0    0  0.10360605990E-01  0.98238075790E-02  0.44411080218E-02  0.14961079951E-01  0.51100000000E-03 0. -1.
         11    1    4    4    0    0  0.80517036119E-01  0.77078231711E-01 -0.19753389494E-01  0.11320116796E+00  0.51100000000E-03 0.  1.
</event>
<event>
 8    1  0.1099921E+005  0.1043930E+01  0.7957747E-01            NaN
         13   -1    0    0    0    0  0.00000000000E+00  0.00000000000E+00  0.74505805969E-08  0.10566000000E+00  0.10566000000E+00 0. -1.
     999900   -1    0    0    0    0 -0.00000000000E+00 -0.00000000000E+00 -0.74505805969E-08  0.93827000000E+00  0.93827000000E+00 0.  1.
     999902    2    1    2    0    0 -0.22203329955E-01  0.74699910429E-02 -0.14037736057E-02  0.10204617404E+01  0.10201918469E+01 0.  0.
     999903    2    3    3    0    0 -0.58593856748E-01  0.66167924423E-01 -0.96942009545E-01  0.13260067452E+00  0.19332651057E-01 0.  0.
         14    1    1    2    0    0  0.22203329955E-01 -0.74699910429E-02  0.14037736057E-02  0.23468259578E-01  0.00000000000E+00 0. -1.
     999901    1    3    3    0    0  0.36390526793E-01 -0.58697933380E-01  0.95538235939E-01  0.88786106590E+00  0.88000000000E+00 0.  1.
        -11    1    4    4    0    0 -0.19166259655E-01  0.97176472771E-02 -0.20234511414E-01  0.29520751192E-01  0.51100000000E-03 0. -1.
         11    1    4    4    0    0 -0.39427597093E-01  0.56450277146E-01 -0.76707498131E-01  0.10307992333E+00  0.51100000000E-03 0.  1.
</event>
<event>
 8    1  0.1099921E+005  0.1043930E+01  0.7957747E-01            NaN
         13   -1    0    0    0    0  0.00000000000E+00  0.00000000000E+00  0.74505805969E-08  0.10566000000E+00  0.10566000000E+00 0. -1.
     999900   -1    0    0    0    0 -0.00000000000E+00 -0.00000000000E+00 -0.74505805969E-08  0.93827000000E+00  0.93827000000E+00 0.  1.
     999902    2    1    2    0    0 -0.93669626128E-03  0.22738456630E-01  0.23426247394E-02  0.10210520040E+01  0.10207956662E+01 0.  0.
     999903    2    3    3    0    0  0.19131564653E-01 -0.22315879346E-01 -0.12516289150E+00  0.13049583792E+00  0.22347238514E-01 0.  0.
         14    1    1    2    0    0  0.93669626128E-03 -0.22738456630E-01 -0.23426247394E-02  0.22877995989E-01  0.00000000000E+00 0.  1.
     999901    1    3    3    0    0 -0.20068260915E-01  0.45054335977E-01  0.12750551624E+00  0.89055616609E+00  0.88000000000E+00 0. -1.
        -11    1    4    4    0    0  0.45981784046E-02  0.24377918978E-04 -0.58766144575E-01  0.58947983071E-01  0.51100000000E-03 0. -1.
         11    1    4    4    0    0  0.14533386249E-01 -0.22340257265E-01 -0.66396746925E-01  0.71547854851E-01  0.51100000000E-03 0.  1.
</event>
<event>
 8    1  0.1099921E+005  0.1043930E+01  0.7957747E-01            NaN
         13   -1    0    0    0    0  0.00000000000E+00  0.00000000000E+00  0.74505805969E-08  0.10566000000E+00  0.10566000000E+00 0. -1.
     999900   -1    0    0    0    0 -0.00000000000E+00 -0.00000000000E+00 -0.74505805969E-08  0.93827000000E+00  0.93827000000E+00 0.  1.
     999902    2    1    2    0    0  0.18403500573E-01 -0.11924216291E-01 -0.39310174944E-02  0.10216515650E+01  0.10214086311E+01 0.  0.
     999903    2    3    3    0    0  0.77501843211E-01  0.65555054421E-01  0.82408658436E-01  0.13207290567E+00  0.18656488580E-01 0.  0.
         14    1    1    2    0    0 -0.18403500573E-01  0.11924216291E-01  0.39310174944E-02  0.22278434999E-01  0.00000000000E+00 0. -1.
     999901    1    3    3    0    0 -0.59098342638E-01 -0.77479270712E-01 -0.86339675931E-01  0.88957865933E+00  0.88000000000E+00 0.  1.
        -11    1    4    4    0    0  0.35915604903E-01  0.19724796689E-01  0.27621604250E-01  0.49418745657E-01  0.51100000000E-03 0.  1.
         11    1    4    4    0    0  0.41586238309E-01  0.45830257732E-01  0.54787054186E-01  0.82654160015E-01  0.51100000000E-03 0. -1.
</event>
<event>
 8    1  0.1099921E+005  0.1043930E+01  0.7957747E-01            NaN
         13   -1    0    0    0    0  0.00000000000E+00  0.00000000000E+00  0.74505805969E-08  0.10566000000E+00  0.10566000000E+00 0.  1.
     999900   -1    0    0    0    0 -0.00000000000E+00 -0.00000000000E+00 -0.74505805969E-08  0.93827000000E+00  0.93827000000E+00 0.  1.
     999902    2    1    2    0    0 -0.18431188901E-01  0.45289766373E-02 -0.14287140124E-01  0.10201741012E+01  0.10198974723E+01 0.  0.
     999903    2    3    3    0    0 -0.10390378197E+00 -0.76665101367E-01  0.16490321680E-01  0.13177931588E+00  0.20501797703E-01 0.  0.
         14    1    1    2    0    0  0.18431188901E-01 -0.45289766373E-02  0.14287140124E-01  0.23755898775E-01  0.00000000000E+00 0. -1.
     999901    1    3    3    0    0  0.85472593072E-01  0.81194078005E-01 -0.30777461804E-01  0.88839478534E+00  0.88000000000E+00 0.  1.
        -11    1    4    4    0    0 -0.59984722520E-01 -0.42737043298E-01 -0.76805391549E-03  0.73657809046E-01  0.51100000000E-03 0.  1.
         11    1    4    4    0    0 -0.43919059454E-01 -0.33928058069E-01  0.17258375595E-01  0.58121506835E-01  0.51100000000E-03 0. -1.
</event>
<event>
 8    1  0.1099921E+005  0.1043930E+01  0.7957747E-01            NaN
         13   -1    0    0    0    0  0.00000000000E+00  0.00000000000E+00  0.74505805969E-08  0.10566000000E+00  0.10566000000E+00 0.  1.
     999900   -1    0    0    0    0 -0.00000000000E+00 -0.00000000000E+00 -0.74505805969E-08  0.93827000000E+00  0.93827000000E+00 0.  1.
     999902    2    1    2    0    0 -0.41802264331E-02 -0.21741717083E-01 -0.67684137956E-02  0.10207785858E+01  0.10205160132E+01 0.  0.
     999903    2    3    3    0    0 -0.74960394118E-01 -0.36270386540E-01 -0.10131832563E+00  0.13276923888E+00  0.20680088413E-01 0.  0.
         14    1    1    2    0    0  0.41802264331E-02  0.21741717083E-01  0.67684137956E-02  0.23151414213E-01  0.00000000000E+00 0.  1.
     999901    1    3    3    0    0  0.70780167685E-01  0.14528669457E-01  0.94549911835E-01  0.88800934691E+00  0.88000000000E+00 0.  1.
        -11    1    4    4    0    0 -0.26727999372E-02  0.47511751897E-03  0.27954317057E-03  0.27764836656E-02  0.51100000000E-03 0.  1.
         11    1    4    4    0    0 -0.72287594181E-01 -0.36745504059E-01 -0.10159786880E+00  0.12999275521E+00  0.51100000000E-03 0. -1.
</event>
<event>
 8    1  0.1099921E+005  0.1043930E+01  0.7957747E-01            NaN
         13   -1    0    0    0    0  0.00000000000E+00  0.00000000000E+00  0.74505805969E-08  0.10566000000E+00  0.10566000000E+00 0. -1.
     999900   -1    0    0    0    0 -0.00000000000E+00 -0.00000000000E+00 -0.74505805969E-08  0.93827000000E+00  0.93827000000E+00 0.  1.
     999902    2    1    2    0    0 -0.88645419672E-02 -0.15348813809E-01 -0.15248675363E-01  0.10205486337E+01  0.10202807582E+01 0.  0.
     999903    2    3    3    0    0 -0.33204257906E-01  0.10931361692E+00 -0.59469719021E-01  0.13033032109E+00  0.19933778572E-01 0.  0.
         14    1    1    2    0    0  0.88645419672E-02  0.15348813809E-01  0.15248675363E-01  0.23381366298E-01  0.00000000000E+00 0. -1.
     999901    1    3    3    0    0  0.24339715939E-01 -0.12466243073E+00  0.44221043658E-01  0.89021831261E+00  0.88000000000E+00 0. -1.
        -11    1    4    4    0    0 -0.20424194290E-01  0.82997798673E-01 -0.35693882060E-01  0.92628811039E-01  0.51100000000E-03 0. -1.
         11    1    4    4    0    0 -0.12780063616E-01  0.26315818246E-01 -0.23775836961E-01  0.37701510052E-01  0.51100000000E-03 0.  1.
</event>
<event>
 8    1  0.1099921E+005  0.1043930E+01  0.7957747E-01            NaN
         13   -1    0    0    0    0  0.00000000000E+00  0.00000000000E+00  0.74505805969E-08  0.10566000000E+00  0.10566000000E+00 0.  1.
     999900   -1    0    0    0    0 -0.00000000000E+00 -0.00000000000E+00 -0.74505805969E-08  0.93827000000E+00  0.93827000000E+00 0. -1.
     999902    2    1    2    0    0 -0.63795909073E-02  0.24337053409E-01  0.90827632938E-02  0.10171813937E+01  0.10168296316E+01 0.  0.
     999903    2    3    3    0    0  0.30310265910E-01 -0.55858874228E-01 -0.10614945764E+00  0.12529799487E+00  0.19823070194E-01 0.  0.
         14    1    1    2    0    0  0.63795909073E-02 -0.24337053409E-01 -0.90827632938E-02  0.26748606278E-01  0.00000000000E+00 0. -1.
     999901    1    3    3    0    0 -0.36689856817E-01  0.80195927637E-01  0.11523222093E+00  0.89188339885E+00  0.88000000000E+00 0.  1.
        -11    1    4    4    0    0  0.15874067997E-01 -0.46289024564E-01 -0.72872565126E-01  0.87780018791E-01  0.51100000000E-03 0.  1.
         11    1    4    4    0    0  0.14436197912E-01 -0.95698496636E-02 -0.33276892515E-01  0.37517976081E-01  0.51100000000E-03 0. -1.
</event>
<event>
 8    1  0.1099921E+005  0.1043930E+01  0.7957747E-01            NaN
         13   -1    0    0    0    0  0.00000000000E+00  0.00000000000E+00  0.74505805969E-08  0.10566000000E+00  0.10566000000E+00 0.  1.
     999900   -1    0    0    0    0 -0.00000000000E+00 -0.00000000000E+00 -0.74505805969E-08  0.93827000000E+00  0.93827000000E+00 0.  1.
     999902    2    1    2    0    0  0.56803208549E-02 -0.11111583735E-01 -0.19141634998E-01  0.10210797149E+01  0.10208240048E+01 0.  0.
     999903    2    3    3    0    0 -0.26359433010E-01 -0.60925337893E-01 -0.11436150835E+00  0.13396372463E+00  0.21471106608E-01 0.  0.
         14    1    1    2    0    0 -0.56803208549E-02  0.11111583735E-01  0.19141634998E-01  0.22850285086E-01  0.00000000000E+00 0.  1.
     999901    1    3    3    0    0  0.32039753864E-01  0.49813754158E-01  0.95219873354E-01  0.88711599028E+00  0.88000000000E+00 0. -1.
        -11    1    4    4    0    0 -0.75415601793E-02 -0.65338280045E-02 -0.71732249899E-02  0.12299687642E-01  0.51100000000E-03 0.  1.
         11    1    4    4    0    0 -0.18817872830E-01 -0.54391509889E-01 -0.10718828336E+00  0.12166403699E+00  0.51100000000E-03 0. -1.
</event>
<event>
 8    1  0.1099921E+005  0.1043930E+01  0.7957747E-01            NaN
         13   -1    0    0    0    0  0.00000000000E+00  0.00000000000E+00  0.74505805969E-08  0.10566000000E+00  0.10566000000E+00 0. -1.
     999900   -1    0    0    0    0 -0.00000000000E+00 -0.00000000000E+00 -0.74505805969E-08  0.93827000000E+00  0.93827000000E+00 0. -1.
     999902    2    1    2    0    0  0.22193335095E-01 -0.68266339278E-02  0.95098316254E-02  0.10188384885E+01  0.10185294702E+01 0.  0.
     999903    2    3    3    0    0 -0.11690462280E+00  0.41791809125E-01  0.19703764368E-01  0.12652917485E+00  0.14427321879E-01 0.  0.
         14    1    1    2    0    0 -0.22193335095E-01  0.68266339278E-02 -0.95098316254E-02  0.25091511532E-01  0.00000000000E+00 0.  1.
     999901    1    3    3    0    0  0.13909795790E+00 -0.48618443053E-01 -0.10193932743E-01  0.89230931361E+00  0.88000000000E+00 0. -1.
        -11    1    4    4    0    0 -0.72755497517E-02 -0.79874815685E-04  0.34011625810E-02  0.80479209786E-02  0.51100000000E-03 0.  1.
         11    1    4    4    0    0 -0.10962907305E+00  0.41871683941E-01  0.16302601787E-01  0.11848125388E+00  0.51100000000E-03 0. -1.
</event>
<event>
 8    1  0.1099921E+005  0.1043930E+01  0.7957747E-01            NaN
         13   -1    0    0    0    0  0.00000000000E+00  0.00000000000E+00  0.74505805969E-08  0.10566000000E+00  0.10566000000E+00 0. -1.
     999900   -1    0    0    0    0 -0.00000000000E+00 -0.00000000000E+00 -0.74505805969E-08  0.93827000000E+00  0.93827000000E+00 0. -1.
     999902    2    1    2    0    0 -0.72889443158E-02  0.70118663373E-02  0.86255644596E-02  0.10306373200E+01  0.10305515951E+01 0.  0.
     999903    2    3    3    0    0 -0.17738447956E-01 -0.13103932162E+00  0.38829935451E-01  0.13930145367E+00  0.20277444647E-01 0.  0.
         14    1    1    2    0    0  0.72889443158E-02 -0.70118663373E-02 -0.86255644596E-02  0.13292679979E-01  0.00000000000E+00 0.  1.
     999901    1    3    3    0    0  0.10449503641E-01  0.13805118795E+00 -0.30204370991E-01  0.89133586635E+00  0.88000000000E+00 0.  1.
        -11    1    4    4    0    0  0.29480022377E-02 -0.50848540274E-01  0.16124960007E-01  0.53427897408E-01  0.51100000000E-03 0.  1.
         11    1    4    4    0    0 -0.20686450194E-01 -0.80190781341E-01  0.22704975444E-01  0.85873556260E-01  0.51100000000E-03 0. -1.
</event>
<event>
 8    1  0.1099921E+005  0.1043930E+01  0.7957747E-01            NaN
         13   -1    0    0    0    0  0.00000000000E+00  0.00000000000E+00  0.74505805969E-08  0.10566000000E+00  0.10566000000E+00 0.  1.
     999900   -1    0    0    0    0 -0.00000000000E+00 -0.00000000000E+00 -0.74505805969E-08  0.93827000000E+00  0.93827000000E+00 0. -1.
     999902    2    1    2    0    0  0.27957616715E-02 -0.14597111934E-01  0.18502559784E-01  0.10201973921E+01  0.10199213117E+01 0.  0.
     999903    2    3    3    0    0 -0.53354646754E-01  0.56494295186E-01  0.10379722368E+00  0.13144431264E+00  0.21573594090E-01 0.  0.
         14    1    1    2    0    0 -0.27957616715E-02  0.14597111934E-01 -0.18502559784E-01  0.23732607920E-01  0.00000000000E+00 0. -1.
     999901    1    3    3    0    0  0.56150408426E-01 -0.71091407120E-01 -0.85294663894E-01  0.88875307944E+00  0.88000000000E+00 0. -1.
        -11    1    4    4    0    0 -0.26193622363E-01  0.15494462813E-01  0.50148658725E-01  0.58662878580E-01  0.51100000000E-03 0. -1.
         11    1    4    4    0    0 -0.27161024391E-01  0.40999832373E-01  0.53648564953E-01  0.72781434055E-01  0.51100000000E-03 0.  1.
</event>
<event>
 8    1  0.1099921E+005  0.1043930E+01  0.7957747E-01            NaN
         13   -1    0    0    0    0  0.00000000000E+00  0.00000000000E+00  0.74505805969E-08  0.10566000000E+00  0.10566000000E+00 0.  1.
     999900   -1    0    0    0    0 -0.00000000000E+00 -0.00000000000E+00 -0.74505805969E-08  0.93827000000E+00  0.93827000000E+00 0. -1.
     999902    2    1    2    0    0 -0.14279220675E-01  0.16840294179E-01  0.42005535380E-02  0.10214547625E+01  0.10212074694E+01 0.  0.
     999903    2    3    3    0    0  0.27273940951E-01  0.12510279690E+00  0.31673590747E-01  0.13342199141E+00  0.20090639484E-01 0.  0.
         14    1    1    2    0    0  0.14279220675E-01 -0.16840294179E-01 -0.42005535380E-02  0.22475237510E-01  0.00000000000E+00 0. -1.
     999901    1    3    3    0    0 -0.41553161626E-01 -0.10826250272E+00 -0.27473037209E-01  0.88803277108E+00  0.88000000000E+00 0. -1.
        -11    1    4    4    0    0  0.20241633655E-01  0.63916258264E-01  0.83605638262E-02  0.67566056212E-01  0.51100000000E-03 0.  1.
         11    1    4    4    0    0  0.70323072960E-02  0.61186538633E-01  0.23313026921E-01  0.65855935199E-01  0.51100000000E-03 0. -1.
</event>
<event>
 8    1  0.1099921E+005  0.1043930E+01  0.7957747E-01            NaN
         13   -1    0    0    0    0  0.00000000000E+00  0.00000000000E+00  0.74505805969E-08  0.10566000000E+00  0.10566000000E+00 0.  1.
     999900   -1    0    0    0    0 -0.00000000000E+00 -0.00000000000E+00 -0.74505805969E-08  0.93827000000E+00  0.93827000000E+00 0.  1.
     999902    2    1    2    0    0  0.21437746395E-01 -0.62839550175E-03  0.23322151742E-02  0.10223566118E+01  0.10221289696E+01 0.  0.
     999903    2    3    3    0    0 -0.10812748118E+00  0.45179161641E-01 -0.52152295200E-01  0.13002593185E+00  0.21311316831E-01 0.  0.
         14    1    1    2    0    0 -0.21437746395E-01  0.62839550175E-03 -0.23322151742E-02  0.21573388214E-01  0.00000000000E+00 0. -1.
     999901    1    3    3    0    0  0.12956522758E+00 -0.45807557143E-01  0.54484510374E-01  0.89233067994E+00  0.88000000000E+00 0.  1.
        -11    1    4    4    0    0 -0.51528830645E-01  0.14070384744E-01 -0.14859928160E-01  0.55446142340E-01  0.51100000000E-03 0.  1.
         11    1    4    4    0    0 -0.56598650537E-01  0.31108776897E-01 -0.37292367041E-01  0.74579789508E-01  0.51100000000E-03 0. -1.
</event>
<event>
 8    1  0.1099921E+005  0.1043930E+01  0.7957747E-01            NaN
         13   -1    0    0    0    0  0.00000000000E+00  0.00000000000E+00  0.74505805969E-08  0.10566000000E+00  0.10566000000E+00 0.  1.
     999900   -1    0    0    0    0 -0.00000000000E+00 -0.00000000000E+00 -0.74505805969E-08  0.93827000000E+00  0.93827000000E+00 0. -1.
     999902    2    1    2    0    0 -0.73558776768E-02 -0.17844905129E-01  0.14340345406E-01  0.10198843126E+01  0.10196008121E+01 0.  0.
     999903    2    3    3    0    0  0.30499511183E-01  0.11813814119E+00  0.34608597791E-01  0.12840508044E+00  0.20081560058E-01 0.  0.
         14    1    1    2    0    0  0.73558776768E-02  0.17844905129E-01 -0.14340345406E-01  0.24045687385E-01  0.00000000000E+00 0. -1.
     999901    1    3    3    0    0 -0.37855388860E-01 -0.13598304632E+00 -0.20268252385E-01  0.89147923218E+00  0.88000000000E+00 0.  1.
        -11    1    4    4    0    0  0.15627333123E-01  0.89066974072E-01  0.19928081288E-01  0.92598752452E-01  0.51100000000E-03 0. -1.
         11    1    4    4    0    0  0.14872178060E-01  0.29071167118E-01  0.14680516503E-01  0.35806327984E-01  0.51100000000E-03 0.  1.
</event>
<event>
 8    1  0.1099921E+005  0.1043930E+01  0.7957747E-01            NaN
         13   -1    0    0    0    0  0.00000000000E+00  0.00000000000E+00  0.74505805969E-08  0.10566000000E+00  0.10566000000E+00 0.  1.
     999900   -1    0    0    0    0 -0.00000000000E+00 -0.00000000000E+00 -0.74505805969E-08  0.93827000000E+00  0.93827000000E+00 0.  1.
     999902    2    1    2    0    0  0.12600984379E-01  0.24798877051E-03  0.19771801338E-01  0.10204828161E+01  0.10202134127E+01 0.  0.
     999903    2    3    3    0    0  0.12835914729E+00 -0.18174996612E-01 -0.34107984006E-03  0.13248287989E+00  0.27298277152E-01 0.  0.
         14    1    1    2    0    0 -0.12600984379E-01 -0.24798877051E-03 -0.19771801338E-01  0.23447183923E-01  0.00000000000E+00 0. -1.
     999901    1    3    3    0    0 -0.11575816291E+00  0.18422985383E-01  0.20112881178E-01  0.88799993618E+00  0.88000000000E+00 0.  1.
        -11    1    4    4    0    0  0.38398566156E-01  0.20632665420E-02 -0.10088893207E-01  0.39758695134E-01  0.51100000000E-03 0. -1.
         11    1    4    4    0    0  0.89960581132E-01 -0.20238263154E-01  0.97478133665E-02  0.92724184761E-01  0.51100000000E-03 0.  1.
</event>
<event>
 8    1  0.1099921E+005  0.1043930E+01  0.7957747E-01            NaN
         13   -1    0    0    0    0  0.00000000000E+00  0.00000000000E+00  0.74505805969E-08  0.10566000000E+00  0.10566000000E+00 0. -1.
     999900   -1    0    0    0    0 -0.00000000000E+00 -0.00000000000E+00 -0.74505805969E-08  0.93827000000E+00  0.93827000000E+00 0. -1.
     999902    2    1    2    0    0 -0.10382354114E-01  0.14901283789E-01  0.15082531800E-01  0.10203222830E+01  0.10200491346E+01 0.  0.
     999903    2    3    3    0    0  0.91011039344E-01 -0.75465155967E-01  0.48313528453E-01  0.12928299499E+00  0.20047361791E-01 0.  0.
         14    1    1    2    0    0  0.10382354114E-01 -0.14901283789E-01 -0.15082531800E-01  0.23607716980E-01  0.00000000000E+00 0.  1.
     999901    1    3    3    0    0 -0.10139339346E+00  0.90366439756E-01 -0.33230996653E-01  0.89103928803E+00  0.88000000000E+00 0. -1.
        -11    1    4    4    0    0  0.62499259631E-01 -0.48192685348E-01  0.22272905376E-01  0.82006315674E-01  0.51100000000E-03 0. -1.
         11    1    4    4    0    0  0.28511779713E-01 -0.27272470619E-01  0.26040623078E-01  0.47276679318E-01  0.51100000000E-03 0.  1.
</event>
<event>
 8    1  0.1099921E+005  0.1043930E+01  0.7957747E-01            NaN
         13   -1    0    0    0    0  0.00000000000E+00  0.00000000000E+00  0.74505805969E-08  0.10566000000E+00  0.10566000000E+00 0.  1.
     999900   -1    0    0    0    0 -0.00000000000E+00 -0.00000000000E+00 -0.74505805969E-08  0.93827000000E+00  0.93827000000E+00 0.  1.
     999902    2    1    2    0    0  0.97366170873E-02  0.19246949031E-01 -0.10159029107E-01  0.10200877553E+01  0.10198090880E+01 0.  0.
     999903    2    3    3    0    0 -0.23985673230E-01  0.63042599777E-01  0.10918404933E+00  0.13031361416E+00  0.22600873921E-01 0.  0.
         14    1    1    2    0    0 -0.97366170873E-02 -0.19246949031E-01  0.10159029107E-01  0.23842244687E-01  0.00000000000E+00 0.  1.
     999901    1    3    3    0    0  0.33722290317E-01 -0.43795650746E-01 -0.11934307843E+00  0.88977414115E+00  0.88000000000E+00 0.  1.
        -11    1    4    4    0    0 -0.23614222835E-01  0.34721179914E-01  0.55306562612E-01  0.69442557871E-01  0.51100000000E-03 0.  1.
         11    1    4    4    0    0 -0.37145039527E-03  0.28321419863E-01  0.53877486715E-01  0.60871056293E-01  0.51100000000E-03 0. -1.
</event>
<event>
 8    1  0.1099921E+005  0.1043930E+01  0.7957747E-01            NaN
         13   -1    0    0    0    0  0.00000000000E+00  0.00000000000E+00  0.74505805969E-08  0.10566000000E+00  0.10566000000E+00 0. -1.
     999900   -1    0    0    0    0 -0.00000000000E+00 -0.00000000000E+00 -0.74505805969E-08  0.93827000000E+00  0.93827000000E+00 0.  1.
     999902    2    1    2    0    0  0.20346694947E-01 -0.13585808385E-01 -0.16330126992E-02  0.10194100303E+01  0.10191150970E+01 0.  0.
     999903    2    3    3    0    0 -0.12264082867E+00  0.15448148031E-01 -0.22615147626E-01  0.12714961284E+00  0.19394870721E-01 0.  0.
         14    1    1    2    0    0 -0.20346694947E-01  0.13585808385E-01  0.16330126992E-02  0.24519969723E-01  0.00000000000E+00 0.  1.
     999901    1    3    3    0    0  0.14298752361E+00 -0.29033956416E-01  0.20982134927E-01  0.89226041743E+00  0.88000000000E+00 0.  1.
        -11    1    4    4    0    0 -0.92194077152E-01  0.67598683566E-02 -0.23812681077E-01  0.95460717487E-01  0.51100000000E-03 0.  1.
         11    1    4    4    0    0 -0.30446751514E-01  0.86882796741E-02  0.11975334507E-02  0.31688895355E-01  0.51100000000E-03 0. -1.
</event>
<event>
 8    1  0.1099921E+005  0.1043930E+01  0.7957747E-01            NaN
         13   -1    0    0    0    0  0.00000000000E+00  0.00000000000E+00  0.74505805969E-08  0.10566000000E+00  0.10566000000E+00 0. -1.
     999900   -1    0    0    0    0 -0.00000000000E+00 -0.00000000000E+00 -0.74505805969E-08  0.93827000000E+00  0.93827000000E+00 0.  1.
     999902    2    1    2    0    0  0.16689597332E-01  0.10370888264E-01 -0.89607196068E-02  0.10223338782E+01  0.10221057509E+01 0.  0.
     999903    2    3    3    0    0 -0.10207191415E+00 -0.34092421056E-01 -0.71994110598E-01  0.13101211198E+00  0.20001317287E-01 0.  0.
         14    1    1    2    0    0 -0.16689597332E-01 -0.10370888264E-01  0.89607196068E-02  0.21596121836E-01  0.00000000000E+00 0. -1.
     999901    1    3    3    0    0  0.11876151149E+00  0.44463309320E-01  0.63033390992E-01  0.89132176618E+00  0.88000000000E+00 0.  1.
        -11    1    4    4    0    0 -0.70620883485E-01 -0.29070493387E-01 -0.59427754394E-01  0.96769426387E-01  0.51100000000E-03 0. -1.
         11    1    4    4    0    0 -0.31451030668E-01 -0.50219276689E-02 -0.12566356204E-01  0.34242685597E-01  0.51100000000E-03 0.  1.
</event>
<event>
 8    1  0.1099921E+005  0.1043930E+01  0.7957747E-01            NaN
         13   -1    0    0    0    0  0.00000000000E+00  0.00000000000E+00  0.74505805969E-08  0.10566000000E+00  0.10566000000E+00 0. -1.
     999900   -1    0    0    0    0 -0.00000000000E+00 -0.00000000000E+00 -0.74505805969E-08  0.93827000000E+00  0.93827000000E+00 0.  1.
     999902    2    1    2    0    0  0.16317065159E-01 -0.16254286187E-01 -0.51528178388E-02  0.10203291533E+01  0.10200561656E+01 0.  0.
     999903    2    3    3    0    0  0.76026108695E-01 -0.17097133528E-01 -0.10542526098E+00  0.13262399775E+00  0.20058862106E-01 0.  0.
         14    1    1    2    0    0 -0.16317065159E-01  0.16254286187E-01  0.51528178388E-02  0.23600846733E-01  0.00000000000E+00 0.  1.
     999901    1    3    3    0    0 -0.59709043537E-01  0.84284734082E-03  0.10027244314E+00  0.88770515551E+00  0.88000000000E+00 0. -1.
        -11    1    4    4    0    0  0.52343698533E-01 -0.18440346230E-01 -0.62552730236E-01  0.83624244846E-01  0.51100000000E-03 0. -1.
         11    1    4    4    0    0  0.23682410163E-01  0.13432127020E-02 -0.42872530745E-01  0.48999752907E-01  0.51100000000E-03 0.  1.
</event>
<event>
 8    1  0.1099921E+005  0.1043930E+01  0.7957747E-01            NaN
         13   -1    0    0    0    0  0.00000000000E+00  0.00000000000E+00  0.74505805969E-08  0.10566000000E+00  0.10566000000E+00 0. -1.
     999900   -1    0    0    0    0 -0.00000000000E+00 -0.00000000000E+00 -0.74505805969E-08  0.93827000000E+00  0.93827000000E+00 0.  1.
     999902    2    1    2    0    0 -0.63516450144E-02 -0.23133605629E-01  0.53683952108E-03  0.10199342650E+01  0.10196519551E+01 0.  0.
     999903    2    3    3    0    0 -0.37309405510E-01  0.95934042048E-02  0.12259654193E+00  0.13036807233E+00  0.21952153548E-01 0.  0.
         14    1    1    2    0    0  0.63516450144E-02  0.23133605629E-01 -0.53683952108E-03  0.23995735048E-01  0.00000000000E+00 0. -1.
     999901    1    3    3    0    0  0.30957760496E-01 -0.32727009834E-01 -0.12205970241E+00  0.88956619262E+00  0.88000000000E+00 0.  1.
        -11    1    4    4    0    0 -0.68201862605E-02  0.11449195659E-03  0.57030815238E-01  0.57439560033E-01  0.51100000000E-03 0.  1.
         11    1    4    4    0    0 -0.30489219250E-01  0.94789122482E-02  0.65565726693E-01  0.72928512296E-01  0.51100000000E-03 0. -1.
</event>
<event>
 8    1  0.1099921E+005  0.1043930E+01  0.7957747E-01            NaN
         13   -1    0    0    0    0  0.00000000000E+00  0.00000000000E+00  0.74505805969E-08  0.10566000000E+00  0.10566000000E+00 0.  1.
     999900   -1    0    0    0    0 -0.00000000000E+00 -0.00000000000E+00 -0.74505805969E-08  0.93827000000E+00  0.93827000000E+00 0.  1.
     999902    2    1    2    0    0 -0.37187987731E-03  0.24963402075E-01  0.68057883891E-02  0.10180528191E+01  0.10177238888E+01 0.  0.
     999903    2    3    3    0    0  0.14745814225E-01  0.73487473170E-01 -0.10394095444E+00  0.12965652731E+00  0.19729300881E-01 0.  0.
         14    1    1    2    0    0  0.37187987731E-03 -0.24963402075E-01 -0.68057883891E-02  0.25877180940E-01  0.00000000000E+00 0.  1.
     999901    1    3    3    0    0 -0.15117694103E-01 -0.48524071094E-01  0.11074674283E+00  0.88839629175E+00  0.88000000000E+00 0. -1.
        -11    1    4    4    0    0  0.12588811031E-02  0.49240947274E-01 -0.59267054392E-01  0.77065559930E-01  0.51100000000E-03 0.  1.
         11    1    4    4    0    0  0.13486933122E-01  0.24246525896E-01 -0.44673900050E-01  0.52590967377E-01  0.51100000000E-03 0. -1.
</event>
<event>
 8    1  0.1099921E+005  0.1043930E+01  0.7957747E-01            NaN
         13   -1    0    0    0    0  0.00000000000E+00  0.00000000000E+00  0.74505805969E-08  0.10566000000E+00  0.10566000000E+00 0.  1.
     999900   -1    0    0    0    0 -0.00000000000E+00 -0.00000000000E+00 -0.74505805969E-08  0.93827000000E+00  0.93827000000E+00 0.  1.
     999902    2    1    2    0    0  0.19676749749E-01 -0.12532201671E-01 -0.75158092305E-02  0.10194204519E+01  0.10191257723E+01 0.  0.
     999903    2    3    3    0    0  0.12843867347E-02 -0.65121776827E-01  0.11012592850E+00  0.12984554169E+00  0.22128016230E-01 0.  0.
         14    1    1    2    0    0 -0.19676749749E-01  0.12532201671E-01  0.75158092305E-02  0.24509548094E-01  0.00000000000E+00 0.  1.
     999901    1    3    3    0    0  0.18392363014E-01  0.52589575157E-01 -0.11764173773E+00  0.88957491022E+00  0.88000000000E+00 0.  1.
        -11    1    4    4    0    0  0.90631998582E-02 -0.47821301692E-01  0.89057154523E-01  0.10149116405E+00  0.51100000000E-03 0. -1.
         11    1    4    4    0    0 -0.77788131235E-02 -0.17300475136E-01  0.21068773976E-01  0.28354377641E-01  0.51100000000E-03 0.  1.
</event>
<event>
 8    1  0.1099921E+005  0.1043930E+01  0.7957747E-01            NaN
         13   -1    0    0    0    0  0.00000000000E+00  0.00000000000E+00  0.74505805969E-08  0.10566000000E+00  0.10566000000E+00 0.  1.
     999900   -1    0    0    0    0 -0.00000000000E+00 -0.00000000000E+00 -0.74505805969E-08  0.93827000000E+00  0.93827000000E+00 0. -1.
     999902    2    1    2    0    0  0.19375031384E-01  0.13342313660E-01 -0.72012759943E-02  0.10193278141E+01  0.10190308754E+01 0.  0.
     999903    2    3    3    0    0  0.41602308270E-01  0.24376504259E-02  0.12120294213E+00  0.12966461561E+00  0.19648541087E-01 0.  0.
         14    1    1    2    0    0 -0.19375031384E-01 -0.13342313660E-01  0.72012759943E-02  0.24602185896E-01  0.00000000000E+00 0. -1.
     999901    1    3    3    0    0 -0.22227276886E-01  0.10904663234E-01 -0.12840421813E+00  0.88966319849E+00  0.88000000000E+00 0. -1.
        -11    1    4    4    0    0  0.16180828460E-01  0.21274508187E-03  0.22529666726E-01  0.27743674485E-01  0.51100000000E-03 0.  1.
         11    1    4    4    0    0  0.25421479809E-01  0.22249053440E-02  0.98673275408E-01  0.10192094113E+00  0.51100000000E-03 0. -1.
</event>
<event>
 8    1  0.1099921E+005  0.1043930E+01  0.7957747E-01            NaN
         13   -1    0    0    0    0  0.00000000000E+00  0.00000000000E+00  0.74505805969E-08  0.10566000000E+00  0.10566000000E+00 0.  1.
     999900   -1    0    0    0    0 -0.00000000000E+00 -0.00000000000E+00 -0.74505805969E-08  0.93827000000E+00  0.93827000000E+00 0.  1.
     999902    2    1    2    0    0 -0.18718705313E-01 -0.11659414984E-01 -0.50620044662E-02  0.10213035603E+01  0.10210528911E+01 0.  0.
     999903    2    3    3    0    0 -0.65405174623E-01  0.76352138974E-01 -0.83504438513E-01  0.13221477081E+00  0.20006708298E-01 0.  0.
         14    1    1    2    0    0  0.18718705313E-01  0.11659414984E-01  0.50620044662E-02  0.22626439746E-01  0.00000000000E+00 0.  1.
     999901    1    3    3    0    0  0.46686469310E-01 -0.88011553959E-01  0.78442434047E-01  0.88908878944E+00  0.88000000000E+00 0. -1.
        -11    1    4    4    0    0 -0.53792073655E-01  0.62019320414E-01 -0.57110530094E-01  0.10000928488E+00  0.51100000000E-03 0.  1.
         11    1    4    4    0    0 -0.11613100968E-01  0.14332818560E-01 -0.26393908419E-01  0.32205485939E-01  0.51100000000E-03 0. -1.
</event>
<event>
 8    1  0.1099921E+005  0.1043930E+01  0.7957747E-01            NaN
         13   -1    0    0    0    0  0.00000000000E+00  0.00000000000E+00  0.74505805969E-08  0.10566000000E+00  0.10566000000E+00 0. -1.
     999900   -1    0    0    0    0 -0.00000000000E+00 -0.00000000000E+00 -0.74505805969E-08  0.93827000000E+00  0.93827000000E+00 0. -1.
     999902    2    1    2    0    0 -0.22130856488E-01  0.10089115979E-02  0.87886440299E-02  0.10200965576E+01  0.10198180984E+01 0.  0.
     999903    2    3    3    0    0  0.46582987603E-01 -0.77370080989E-01  0.91344858117E-01  0.13010757605E+00  0.20688017640E-01 0.  0.
         14    1    1    2    0    0  0.22130856488E-01 -0.10089115979E-02 -0.87886440299E-02  0.23833442374E-01  0.00000000000E+00 0.  1.
     999901    1    3    3    0    0 -0.68713844091E-01  0.78378992587E-01 -0.82556214088E-01  0.88998898158E+00  0.88000000000E+00 0. -1.
        -11    1    4    4    0    0  0.38174378885E-01 -0.74370059515E-01  0.80543509587E-01  0.11608491294E+00  0.51100000000E-03 0.  1.
         11    1    4    4    0    0  0.84086087185E-02 -0.30000214742E-02  0.10801348530E-01  0.14022663103E-01  0.51100000000E-03 0. -1.
</event>
<event>
 8    1  0.1099921E+005  0.1043930E+01  0.7957747E-01            NaN
         13   -1    0    0    0    0  0.00000000000E+00  0.00000000000E+00  0.74505805969E-08  0.10566000000E+00  0.10566000000E+00 0.  1.
     999900   -1    0    0    0    0 -0.00000000000E+00 -0.00000000000E+00 -0.74505805969E-08  0.93827000000E+00  0.93827000000E+00 0. -1.
     999902    2    1    2    0    0  0.51629370515E-02  0.22462298466E-01  0.19660224849E-02  0.10207982898E+01  0.10205361691E+01 0.  0.
     999903    2    3    3    0    0 -0.64032412424E-01  0.10006688664E+00 -0.55720600261E-01  0.13280154718E+00  0.20443434091E-01 0.  0.
         14    1    1    2    0    0 -0.51629370515E-02 -0.22462298466E-01 -0.19660224849E-02  0.23131710179E-01  0.00000000000E+00 0.  1.
     999901    1    3    3    0    0  0.69195349475E-01 -0.77604588176E-01  0.57686622745E-01  0.88799674264E+00  0.88000000000E+00 0.  1.
        -11    1    4    4    0    0 -0.17490792610E-01  0.22711663572E-01 -0.23070694857E-01  0.36800347423E-01  0.51100000000E-03 0.  1.
         11    1    4    4    0    0 -0.46541619814E-01  0.77355223070E-01 -0.32649905404E-01  0.96001199758E-01  0.51100000000E-03 0. -1.
</event>
<event>
 8    1  0.1099921E+005  0.1043930E+01  0.7957747E-01            NaN
         13   -1    0    0    0    0  0.00000000000E+00  0.00000000000E+00  0.74505805969E-08  0.10566000000E+00  0.10566000000E+00 0. -1.
     999900   -1    0    0    0    0 -0.00000000000E+00 -0.00000000000E+00 -0.74505805969E-08  0.93827000000E+00  0.93827000000E+00 0. -1.
     999902    2    1    2    0    0 -0.61908084847E-02 -0.16643103855E-01  0.15736516914E-01  0.10202032855E+01  0.10199273439E+01 0.  0.
     999903    2    3    3    0    0  0.60177071868E-01  0.70527546827E-02  0.11529024617E+00  0.13179058060E+00  0.20146834593E-01 0.  0.
         14    1    1    2    0    0  0.61908084847E-02  0.16643103855E-01 -0.15736516914E-01  0.23726714484E-01  0.00000000000E+00 0. -1.
     999901    1    3    3    0    0 -0.66367880353E-01 -0.23695858538E-01 -0.99553729258E-01  0.88841270492E+00  0.88000000000E+00 0. -1.
        -11    1    4    4    0    0  0.35226089903E-02  0.18343916786E-02  0.23189549916E-01  0.23532745553E-01  0.51100000000E-03 0. -1.
         11    1    4    4    0    0  0.56654462878E-01  0.52183630040E-02  0.92100696255E-01  0.10825783504E+00  0.51100000000E-03 0.  1.
</event>
<event>
 8    1  0.1099921E+005  0.1043930E+01  0.7957747E-01            NaN
         13   -1    0    0    0    0  0.00000000000E+00  0.00000000000E+00  0.74505805969E-08  0.10566000000E+00  0.10566000000E+00 0. -1.
     999900   -1    0    0    0    0 -0.00000000000E+00 -0.00000000000E+00 -0.74505805969E-08  0.93827000000E+00  0.93827000000E+00 0.  1.
     999902    2    1    2    0    0 -0.26558433655E-02  0.11432369465E-01  0.20932544099E-01  0.10199315838E+01  0.10196492101E+01 0.  0.
     999903    2    3    3    0    0 -0.72761381406E-01 -0.43043668024E-01 -0.93580311190E-01  0.12808203423E+00  0.22377597463E-01 0.  0.
         14    1    1    2    0    0  0.26558433655E-02 -0.11432369465E-01 -0.20932544099E-01  0.23998416157E-01  0.00000000000E+00 0.  1.
     999901    1    3    3    0    0  0.70105538041E-01  0.54476037490E-01  0.11451285529E+00  0.89184954962E+00  0.88000000000E+00 0. -1.
        -11    1    4    4    0    0 -0.37280510773E-01 -0.23153951979E-01 -0.64751138147E-01  0.78223481053E-01  0.51100000000E-03 0. -1.
         11    1    4    4    0    0 -0.35480870634E-01 -0.19889716045E-01 -0.28829173043E-01  0.49858553174E-01  0.51100000000E-03 0.  1.
</event>
<event>
 8    1  0.1099921E+005  0.1043930E+01  0.7957747E-01            NaN
         13   -1    0    0    0    0  0.00000000000E+00  0.00000000000E+00  0.74505805969E-08  0.10566000000E+00  0.10566000000E+00 0.  1.
     999900   -1    0    0    0    0 -0.00000000000E+00 -0.00000000000E+00 -0.74505805969E-08  0.93827000000E+00  0.93827000000E+00 0. -1.
     999902    2    1    2    0    0  0.13013267130E-01  0.42293301104E-02  0.18993471799E-01  0.10205209350E+01  0.10202524170E+01 0.  0.
     999903    2    3    3    0    0 -0.91525406874E-01 -0.41183818995E-01 -0.76147432537E-01  0.12808467386E+00  0.23113743624E-01 0.  0.
         14    1    1    2    0    0 -0.13013267130E-01 -0.42293301104E-02 -0.18993471799E-01  0.23409065029E-01  0.00000000000E+00 0. -1.
     999901    1    3    3    0    0  0.10453867400E+00  0.45413149106E-01  0.95140904336E-01  0.89243626111E+00  0.88000000000E+00 0.  1.
        -11    1    4    4    0    0 -0.56711488600E-01 -0.15354931030E-01 -0.51996917871E-01  0.78459591098E-01  0.51100000000E-03 0.  1.
         11    1    4    4    0    0 -0.34813918274E-01 -0.25828887965E-01 -0.24150514666E-01  0.49625082758E-01  0.51100000000E-03 0. -1.
</event>
<event>
 8    1  0.1099921E+005  0.1043930E+01  0.7957747E-01            NaN
         13   -1    0    0    0    0  0.00000000000E+00  0.00000000000E+00  0.74505805969E-08  0.10566000000E+00  0.10566000000E+00 0.  1.
     999900   -1    0    0    0    0 -0.00000000000E+00 -0.00000000000E+00 -0.74505805969E-08  0.93827000000E+00  0.93827000000E+00 0. -1.
     999902    2    1    2    0    0  0.14501330117E-01 -0.21379812355E-01 -0.14132278856E-01  0.10144833320E+01  0.10140558785E+01 0.  0.
     999903    2    3    3    0    0  0.31287842558E-01 -0.11415809545E+00 -0.47209452982E-01  0.12882894326E+00  0.18898791604E-01 0.  0.
         14    1    1    2    0    0 -0.14501330117E-01  0.21379812355E-01  0.14132278856E-01  0.29446668014E-01  0.00000000000E+00 0.  1.
     999901    1    3    3    0    0 -0.16786512442E-01  0.92778283091E-01  0.33077174126E-01  0.88565438872E+00  0.88000000000E+00 0. -1.
        -11    1    4    4    0    0  0.53005490509E-02 -0.31888753363E-01 -0.47769034017E-02  0.32681314820E-01  0.51100000000E-03 0.  1.
         11    1    4    4    0    0  0.25987293507E-01 -0.82269342082E-01 -0.42432549581E-01  0.96147628444E-01  0.51100000000E-03 0. -1.
</event>
<event>
 8    1  0.1879324E+005  0.1043930E+01  0.7957747E-01            NaN
         13   -1    0    0    0    0  0.00000000000E+00  0.00000000000E+00  0.74505805969E-08  0.10566000000E+00  0.10566000000E+00 0. -1.
     999900   -1    0    0    0    0 -0.00000000000E+00 -0.00000000000E+00 -0.74505805969E-08  0.93827000000E+00  0.93827000000E+00 0.  1.
     999902    2    1    2    0    0 -0.12447659108E-01 -0.27338728460E-01  0.62132125421E-02  0.10132550216E+01  0.10127905926E+01 0.  0.
     999903    2    3    3    0    0  0.59778406029E-02 -0.96595269964E-01  0.80300094164E-01  0.12723874994E+00  0.19370431216E-01 0.  0.
         14    1    1    2    0    0  0.12447659108E-01  0.27338728460E-01 -0.62132125421E-02  0.30674978422E-01  0.00000000000E+00 0.  1.
     999901    1    3    3    0    0 -0.18425499711E-01  0.69256541504E-01 -0.74086881622E-01  0.88601627164E+00  0.88000000000E+00 0. -1.
        -11    1    4    4    0    0  0.10633166774E-01 -0.29206572024E-01  0.27422851011E-01  0.41453129720E-01  0.51100000000E-03 0. -1.
         11    1    4    4    0    0 -0.46553261707E-02 -0.67388697940E-01  0.52877243154E-01  0.85785620219E-01  0.51100000000E-03 0.  1.
</event>
<event>
 8    1  0.1099921E+005  0.1043930E+01  0.7957747E-01            NaN
         13   -1    0    0    0    0  0.00000000000E+00  0.00000000000E+00  0.74505805969E-08  0.10566000000E+00  0.10566000000E+00 0. -1.
     999900   -1    0    0    0    0 -0.00000000000E+00 -0.00000000000E+00 -0.74505805969E-08  0.93827000000E+00  0.93827000000E+00 0.  1.
     999902    2    1    2    0    0  0.83193879633E-02 -0.40159036264E-04  0.22844292650E-01  0.10196179549E+01  0.10193280622E+01 0.  0.
     999903    2    3    3    0    0 -0.80220334345E-01  0.27013842427E-01 -0.92838389913E-01  0.12723144424E+00  0.20095373496E-01 0.  0.
         14    1    1    2    0    0 -0.83193879633E-02  0.40159036264E-04 -0.22844292650E-01  0.24312045070E-01  0.00000000000E+00 0.  1.
     999901    1    3    3    0    0  0.88539722309E-01 -0.27054001463E-01  0.11568268256E+00  0.89238651069E+00  0.88000000000E+00 0.  1.
        -11    1    4    4    0    0 -0.65086827798E-01  0.17081364079E-01 -0.82188998369E-01  0.10622316473E+00  0.51100000000E-03 0.  1.
         11    1    4    4    0    0 -0.15133506547E-01  0.99324783479E-02 -0.10649391544E-01  0.21008279506E-01  0.51100000000E-03 0. -1.
</event>
<event>
 8    1  0.1099921E+005  0.1043930E+01  0.7957747E-01            NaN
         13   -1    0    0    0    0  0.00000000000E+00  0.00000000000E+00  0.74505805969E-08  0.10566000000E+00  0.10566000000E+00 0. -1.
     999900   -1    0    0    0    0 -0.00000000000E+00 -0.00000000000E+00 -0.74505805969E-08  0.93827000000E+00  0.93827000000E+00 0. -1.
     999902    2    1    2    0    0  0.18406943194E-01 -0.15053374857E-01  0.29649703326E-02  0.10199673060E+01  0.10196857823E+01 0.  0.
     999903    2    3    3    0    0  0.10540551342E+00  0.38166392794E-01  0.66335829144E-01  0.13181362529E+00  0.20183998301E-01 0.  0.
         14    1    1    2    0    0 -0.18406943194E-01  0.15053374857E-01 -0.29649703326E-02  0.23962693951E-01  0.00000000000E+00 0. -1.
     999901    1    3    3    0    0 -0.86998570224E-01 -0.53219767651E-01 -0.63370858812E-01  0.88815368075E+00  0.88000000000E+00 0.  1.
        -11    1    4    4    0    0  0.73186904437E-01  0.28546164282E-01  0.35573705917E-01  0.86237788410E-01  0.51100000000E-03 0.  1.
         11    1    4    4    0    0  0.32218608981E-01  0.96202285125E-02  0.30762123227E-01  0.45575836885E-01  0.51100000000E-03 0. -1.
</event>
<event>
 8    1  0.1099921E+005  0.1043930E+01  0.7957747E-01            NaN
         13   -1    0    0    0    0  0.00000000000E+00  0.00000000000E+00  0.74505805969E-08  0.10566000000E+00  0.10566000000E+00 0.  1.
     999900   -1    0    0    0    0 -0.00000000000E+00 -0.00000000000E+00 -0.74505805969E-08  0.93827000000E+00  0.93827000000E+00 0. -1.
     999902    2    1    2    0    0 -0.23376554133E-01  0.53642956657E-02  0.26962843167E-02  0.10197947788E+01  0.10195091378E+01 0.  0.
     999903    2    3    3    0    0 -0.11472532810E+00 -0.61394977865E-01 -0.98107404901E-02  0.13246292166E+00  0.22780052059E-01 0.  0.
         14    1    1    2    0    0  0.23376554133E-01 -0.53642956657E-02 -0.26962843167E-02  0.24135221156E-01  0.00000000000E+00 0.  1.
     999901    1    3    3    0    0  0.91348773962E-01  0.66759273531E-01  0.12507024807E-01  0.88733185719E+00  0.88000000000E+00 0. -1.
        -11    1    4    4    0    0 -0.70487090314E-01 -0.43766299393E-01 -0.15805660852E-01  0.84463003140E-01  0.51100000000E-03 0. -1.
         11    1    4    4    0    0 -0.44238237782E-01 -0.17628678472E-01  0.59949203617E-02  0.47999918519E-01  0.51100000000E-03 0.  1.
</event>
<event>
 8    1  0.1099921E+005  0.1043930E+01  0.7957747E-01            NaN
         13   -1    0    0    0    0  0.00000000000E+00  0.00000000000E+00  0.74505805969E-08  0.10566000000E+00  0.10566000000E+00 0. -1.
     999900   -1    0    0    0    0 -0.00000000000E+00 -0.00000000000E+00 -0.74505805969E-08  0.93827000000E+00  0.93827000000E+00 0.  1.
     999902    2    1    2    0    0  0.18642331941E-01  0.69059352159E-03  0.13043094111E-01  0.10211674043E+01  0.10209136750E+01 0.  0.
     999903    2    3    3    0    0 -0.57637902561E-01 -0.47282518860E-01  0.10695556345E+00  0.13159467225E+00  0.17885771194E-01 0.  0.
         14    1    1    2    0    0 -0.18642331941E-01 -0.69059352159E-03 -0.13043094111E-01  0.22762595713E-01  0.00000000000E+00 0.  1.
     999901    1    3    3    0    0  0.76280234502E-01  0.47973112382E-01 -0.93912469334E-01  0.88957273204E+00  0.88000000000E+00 0.  1.
        -11    1    4    4    0    0 -0.20552348001E-01 -0.15032472049E-01  0.23031943274E-01  0.34338109386E-01  0.51100000000E-03 0.  1.
         11    1    4    4    0    0 -0.37085554561E-01 -0.32250046811E-01  0.83923620171E-01  0.97256562863E-01  0.51100000000E-03 0. -1.
</event>
<event>
 8    1  0.1099921E+005  0.1043930E+01  0.7957747E-01            NaN
         13   -1    0    0    0    0  0.00000000000E+00  0.00000000000E+00  0.74505805969E-08  0.10566000000E+00  0.10566000000E+00 0. -1.
     999900   -1    0    0    0    0 -0.00000000000E+00 -0.00000000000E+00 -0.74505805969E-08  0.93827000000E+00  0.93827000000E+00 0. -1.
     999902    2    1    2    0    0  0.17644994149E-01 -0.19053448508E-02  0.16384646871E-01  0.10197756461E+01  0.10194895466E+01 0.  0.
     999903    2    3    3    0    0 -0.65881066463E-01 -0.10364834616E+00  0.38929980116E-01  0.12969894541E+00  0.14932464918E-01 0.  0.
         14    1    1    2    0    0 -0.17644994149E-01  0.19053448508E-02 -0.16384646871E-01  0.24154353865E-01  0.00000000000E+00 0.  1.
     999901    1    3    3    0    0  0.83526060613E-01  0.10174300131E+00 -0.22545333244E-01  0.89007670072E+00  0.88000000000E+00 0. -1.
        -11    1    4    4    0    0 -0.20498129400E-02 -0.46458434690E-02 -0.12198757041E-02  0.52473624194E-02  0.51100000000E-03 0. -1.
         11    1    4    4    0    0 -0.63831253523E-01 -0.99002502695E-01  0.40149855820E-01  0.12445158299E+00  0.51100000000E-03 0.  1.
</event>
<event>
 8    1  0.1099921E+005  0.1043930E+01  0.7957747E-01            NaN
         13   -1    0    0    0    0  0.00000000000E+00  0.00000000000E+00  0.74505805969E-08  0.10566000000E+00  0.10566000000E+00 0. -1.
     999900   -1    0    0    0    0 -0.00000000000E+00 -0.00000000000E+00 -0.74505805969E-08  0.93827000000E+00  0.93827000000E+00 0. -1.
     999902    2    1    2    0    0 -0.10562412938E-01  0.20005850347E-01 -0.62065645149E-02  0.10204710985E+01  0.10202014227E+01 0.  0.
     999903    2    3    3    0    0 -0.13717392307E-01  0.73761473626E-01  0.10666452112E+00  0.13162943496E+00  0.17890395130E-01 0.  0.
         14    1    1    2    0    0  0.10562412938E-01 -0.20005850347E-01  0.62065645149E-02  0.23458901472E-01  0.00000000000E+00 0.  1.
     999901    1    3    3    0    0  0.31549793688E-02 -0.53755623279E-01 -0.11287108563E+00  0.88884166357E+00  0.88000000000E+00 0. -1.
        -11    1    4    4    0    0 -0.13831770423E-01  0.26787681662E-01  0.41423048405E-01  0.51235025344E-01  0.51100000000E-03 0.  1.
         11    1    4    4    0    0  0.11437811546E-03  0.46973791965E-01  0.65241472714E-01  0.80394409612E-01  0.51100000000E-03 0. -1.
</event>
<event>
 8    1  0.1099921E+005  0.1043930E+01  0.7957747E-01            NaN
         13   -1    0    0    0    0  0.00000000000E+00  0.00000000000E+00  0.74505805969E-08  0.10566000000E+00  0.10566000000E+00 0.  1.
     999900   -1    0    0    0    0 -0.00000000000E+00 -0.00000000000E+00 -0.74505805969E-08  0.93827000000E+00  0.93827000000E+00 0.  1.
     999902    2    1    2    0    0  0.10823117707E-01  0.12743239305E-01  0.17384636294E-01  0.10198103896E+01  0.10195251224E+01 0.  0.
     999903    2    3    3    0    0 -0.10433402284E+00  0.33423173033E-01  0.68309803351E-01  0.13060726362E+00  0.19731478897E-01 0.  0.
         14    1    1    2    0    0 -0.10823117707E-01 -0.12743239305E-01 -0.17384636294E-01  0.24119610360E-01  0.00000000000E+00 0. -1.
     999901    1    3    3    0    0  0.11515714055E+00 -0.20679933728E-01 -0.50925167057E-01  0.88920312602E+00  0.88000000000E+00 0. -1.
        -11    1    4    4    0    0 -0.75821599562E-01  0.18876878086E-01  0.56748982882E-01  0.96571008411E-01  0.51100000000E-03 0. -1.
         11    1    4    4    0    0 -0.28512423279E-01  0.14546294947E-01  0.11560820469E-01  0.34036255212E-01  0.51100000000E-03 0.  1.
</event>
<event>
 8    1  0.1099921E+005  0.1043930E+01  0.7957747E-01            NaN
         13   -1    0    0    0    0  0.00000000000E+00  0.00000000000E+00  0.74505805969E-08  0.10566000000E+00  0.10566000000E+00 0.  1.
     999900   -1    0    0    0    0 -0.00000000000E+00 -0.00000000000E+00 -0.74505805969E-08  0.93827000000E+00  0.93827000000E+00 0.  1.
     999902    2    1    2    0    0  0.15908337880E-01 -0.82624651808E-02 -0.14929412436E-01  0.10206012431E+01  0.10203345855E+01 0.  0.
     999903    2    3    3    0    0 -0.35410980351E-01 -0.48015116477E-01 -0.11649538826E+00  0.13238415633E+00  0.19874617497E-01 0.  0.
         14    1    1    2    0    0 -0.15908337880E-01  0.82624651808E-02  0.14929412436E-01  0.23328756946E-01  0.00000000000E+00 0. -1.
     999901    1    3    3    0    0  0.51319318231E-01  0.39752651296E-01  0.10156597583E+00  0.88821708673E+00  0.88000000000E+00 0. -1.
        -11    1    4    4    0    0 -0.27581450961E-01 -0.47613259264E-01 -0.10197262276E+00  0.11587249807E+00  0.51100000000E-03 0.  1.
         11    1    4    4    0    0 -0.78295293905E-02 -0.40185721331E-03 -0.14522765498E-01  0.16511658257E-01  0.51100000000E-03 0. -1.
</event>
<event>
 8    1  0.1099921E+005  0.1043930E+01  0.7957747E-01            NaN
         13   -1    0    0    0    0  0.00000000000E+00  0.00000000000E+00  0.74505805969E-08  0.10566000000E+00  0.10566000000E+00 0.  1.
     999900   -1    0    0    0    0 -0.00000000000E+00 -0.00000000000E+00 -0.74505805969E-08  0.93827000000E+00  0.93827000000E+00 0. -1.
     999902    2    1    2    0    0  0.15888547879E-01  0.16888306290E-02  0.17870378524E-01  0.10199581721E+01  0.10196764312E+01 0.  0.
     999903    2    3    3    0    0 -0.25970420383E-01  0.11283167041E+00  0.57560027162E-01  0.13109363112E+00  0.21608674474E-01 0.  0.
         14    1    1    2    0    0 -0.15888547879E-01 -0.16888306290E-02 -0.17870378524E-01  0.23971827864E-01  0.00000000000E+00 0. -1.
     999901    1    3    3    0    0  0.41858968261E-01 -0.11114283978E+00 -0.39689648638E-01  0.88886454101E+00  0.88000000000E+00 0. -1.
        -11    1    4    4    0    0 -0.25667515839E-01  0.92038473354E-01  0.38961410955E-01  0.10318989588E+00  0.51100000000E-03 0. -1.
         11    1    4    4    0    0 -0.30290454370E-03  0.20793197054E-01  0.18598616207E-01  0.27903735246E-01  0.51100000000E-03 0.  1.
</event>
<event>
 8    1  0.1099921E+005  0.1043930E+01  0.7957747E-01            NaN
         13   -1    0    0    0    0  0.00000000000E+00  0.00000000000E+00  0.74505805969E-08  0.10566000000E+00  0.10566000000E+00 0.  1.
     999900   -1    0    0    0    0 -0.00000000000E+00 -0.00000000000E+00 -0.74505805969E-08  0.93827000000E+00  0.93827000000E+00 0.  1.
     999902    2    1    2    0    0  0.16930689191E-01 -0.15343620786E-01 -0.50038258007E-02  0.10205395488E+01  0.10202714626E+01 0.  0.
     999903    2    3    3    0    0  0.53879380181E-01  0.93309564355E-01 -0.71584848029E-01  0.13059362182E+00  0.17906456474E-01 0.  0.
         14    1    1    2    0    0 -0.16930689191E-01  0.15343620786E-01  0.50038258007E-02  0.23390451213E-01  0.00000000000E+00 0.  1.
     999901    1    3    3    0    0 -0.36948690990E-01 -0.10865318514E+00  0.66581022228E-01  0.88994592697E+00  0.88000000000E+00 0. -1.
        -11    1    4    4    0    0  0.31717237359E-01  0.51039072100E-01 -0.29431130864E-01  0.66913545800E-01  0.51100000000E-03 0. -1.
         11    1    4    4    0    0  0.22162142822E-01  0.42270492255E-01 -0.42153717164E-01  0.63680076018E-01  0.51100000000E-03 0.  1.
</event>
<event>
 8    1  0.1099921E+005  0.1043930E+01  0.7957747E-01            NaN
         13   -1    0    0    0    0  0.00000000000E+00  0.00000000000E+00  0.74505805969E-08  0.10566000000E+00  0.10566000000E+00 0.  1.
     999900   -1    0    0    0    0 -0.00000000000E+00 -0.00000000000E+00 -0.74505805969E-08  0.93827000000E+00  0.93827000000E+00 0. -1.
     999902    2    1    2    0    0 -0.12262089975E-01 -0.77838876453E-02 -0.17671230209E-01  0.10210559943E+01  0.10207997470E+01 0.  0.
     999903    2    3    3    0    0  0.81800326371E-02 -0.27910675392E-01 -0.12874753642E+00  0.13360970653E+00  0.20729370705E-01 0.  0.
         14    1    1    2    0    0  0.12262089975E-01  0.77838876453E-02  0.17671230209E-01  0.22874005651E-01  0.00000000000E+00 0.  1.
     999901    1    3    3    0    0 -0.20442122612E-01  0.20126787746E-01  0.11107630621E+00  0.88744628782E+00  0.88000000000E+00 0.  1.
        -11    1    4    4    0    0 -0.31988090018E-02 -0.22202670255E-01 -0.92702938138E-01  0.95379698080E-01  0.51100000000E-03 0. -1.
         11    1    4    4    0    0  0.11378841639E-01 -0.57080051366E-02 -0.36044598283E-01  0.38230008450E-01  0.51100000000E-03 0.  1.
</event>
<event>
 8    1  0.1099921E+005  0.1043930E+01  0.7957747E-01            NaN
         13   -1    0    0    0    0  0.00000000000E+00  0.00000000000E+00  0.74505805969E-08  0.10566000000E+00  0.10566000000E+00 0. -1.
     999900   -1    0    0    0    0 -0.00000000000E+00 -0.00000000000E+00 -0.74505805969E-08  0.93827000000E+00  0.93827000000E+00 0.  1.
     999902    2    1    2    0    0  0.12570954966E-02  0.51470213725E-02  0.23025685133E-01  0.10203025944E+01  0.10200289848E+01 0.  0.
     999903    2    3    3    0    0  0.10660587553E+00 -0.68750713826E-01 -0.22113646486E-01  0.12979891674E+00  0.16348457919E-01 0.  0.
         14    1    1    2    0    0 -0.12570954966E-02 -0.51470213725E-02 -0.23025685133E-01  0.23627405569E-01  0.00000000000E+00 0.  1.
     999901    1    3    3    0    0 -0.10534878004E+00  0.73897735199E-01  0.45139331619E-01  0.89050367769E+00  0.88000000000E+00 0. -1.
        -11    1    4    4    0    0  0.27931784225E-01 -0.12391437252E-01 -0.16429644506E-03  0.30561747357E-01  0.51100000000E-03 0. -1.
         11    1    4    4    0    0  0.78674091306E-01 -0.56359276574E-01 -0.21949350041E-01  0.99237169382E-01  0.51100000000E-03 0.  1.
</event>
<event>
 8    1  0.1099921E+005  0.1043930E+01  0.7957747E-01            NaN
         13   -1    0    0    0    0  0.00000000000E+00  0.00000000000E+00  0.74505805969E-08  0.10566000000E+00  0.10566000000E+00 0.  1.
     999900   -1    0    0    0    0 -0.00000000000E+00 -0.00000000000E+00 -0.74505805969E-08  0.93827000000E+00  0.93827000000E+00 0. -1.
     999902    2    1    2    0    0  0.21000693388E-01 -0.41729509389E-02  0.46795885925E-02  0.10220133125E+01  0.10217782879E+01 0.  0.
     999903    2    3    3    0    0  0.80901341519E-01  0.92591896576E-01 -0.47394481951E-01  0.13315830058E+00  0.19147055208E-01 0.  0.
         14    1    1    2    0    0 -0.21000693388E-01  0.41729509389E-02 -0.46795885925E-02  0.21916687517E-01  0.00000000000E+00 0. -1.
     999901    1    3    3    0    0 -0.59900648131E-01 -0.96764847515E-01  0.52074070544E-01  0.88885501190E+00  0.88000000000E+00 0. -1.
        -11    1    4    4    0    0  0.50360473482E-01  0.70842404396E-01 -0.34231252686E-01  0.93417682113E-01  0.51100000000E-03 0.  1.
         11    1    4    4    0    0  0.30540868037E-01  0.21749492180E-01 -0.13163229266E-01  0.39740618468E-01  0.51100000000E-03 0. -1.
</event>
<event>
 8    1  0.1099921E+005  0.1043930E+01  0.7957747E-01            NaN
         13   -1    0    0    0    0  0.00000000000E+00  0.00000000000E+00  0.74505805969E-08  0.10566000000E+00  0.10566000000E+00 0.  1.
     999900   -1    0    0    0    0 -0.00000000000E+00 -0.00000000000E+00 -0.74505805969E-08  0.93827000000E+00  0.93827000000E+00 0.  1.
     999902    2    1    2    0    0  0.19716472718E-01  0.98861279753E-02  0.57938877396E-02  0.10211255277E+01  0.10208708534E+01 0.  0.
     999903    2    3    3    0    0  0.23033529068E-01 -0.12654496660E+00  0.87535773276E-02  0.13060140886E+00  0.20878957034E-01 0.  0.
         14    1    1    2    0    0 -0.19716472718E-01 -0.98861279753E-02 -0.57938877396E-02  0.22804472323E-01  0.00000000000E+00 0. -1.
     999901    1    3    3    0    0 -0.33170563500E-02  0.13643109458E+00 -0.29596895880E-02  0.89052411882E+00  0.88000000000E+00 0.  1.
        -11    1    4    4    0    0  0.92513374713E-02 -0.98045805505E-01  0.94318586726E-02  0.98933251746E-01  0.51100000000E-03 0.  1.
         11    1    4    4    0    0  0.13782191597E-01 -0.28499161097E-01 -0.67828134498E-03  0.31668157115E-01  0.51100000000E-03 0. -1.
</event>
<event>
 8    1  0.1099921E+005  0.1043930E+01  0.7957747E-01            NaN
         13   -1    0    0    0    0  0.00000000000E+00  0.00000000000E+00  0.74505805969E-08  0.10566000000E+00  0.10566000000E+00 0.  1.
     999900   -1    0    0    0    0 -0.00000000000E+00 -0.00000000000E+00 -0.74505805969E-08  0.93827000000E+00  0.93827000000E+00 0.  1.
     999902    2    1    2    0    0  0.12870940144E-01  0.10834877954E-01  0.15499927677E-01  0.10210541735E+01  0.10207978849E+01 0.  0.
     999903    2    3    3    0    0  0.11754083798E-01  0.13023118238E+00  0.14195835292E-01  0.13298974704E+00  0.19657866778E-01 0.  0.
         14    1    1    2    0    0 -0.12870940144E-01 -0.10834877954E-01 -0.15499927677E-01  0.22875826509E-01  0.00000000000E+00 0. -1.
     999901    1    3    3    0    0  0.11168563464E-02 -0.11939630443E+00  0.13040923853E-02  0.88806442646E+00  0.88000000000E+00 0.  1.
        -11    1    4    4    0    0  0.79163187206E-03  0.60496852005E-01  0.15222271597E-01  0.62389698325E-01  0.51100000000E-03 0. -1.
         11    1    4    4    0    0  0.10962451925E-01  0.69734330377E-01 -0.10264363048E-02  0.70600048710E-01  0.51100000000E-03 0.  1.
</event>
<event>
 8    1  0.1099921E+005  0.1043930E+01  0.7957747E-01            NaN
         13   -1    0    0    0    0  0.00000000000E+00  0.00000000000E+00  0.74505805969E-08  0.10566000000E+00  0.10566000000E+00 0.  1.
     999900   -1    0    0    0    0 -0.00000000000E+00 -0.00000000000E+00 -0.74505805969E-08  0.93827000000E+00  0.93827000000E+00 0.  1.
     999902    2    1    2    0    0  0.42054233504E-02 -0.18274151776E-01 -0.13882681993E-01  0.10205984962E+01  0.10203317752E+01 0.  0.
     999903    2    3    3    0    0  0.33401609057E-01 -0.11418472994E-01  0.12296822474E+00  0.12951623950E+00  0.20179766702E-01 0.  0.
         14    1    1    2    0    0 -0.42054233504E-02  0.18274151776E-01  0.13882681993E-01  0.23331503766E-01  0.00000000000E+00 0.  1.
     999901    1    3    3    0    0 -0.29196185707E-01 -0.68556787820E-02 -0.13685090674E+00  0.89108225673E+00  0.88000000000E+00 0.  1.
        -11    1    4    4    0    0  0.23877598880E-01 -0.50023657896E-02  0.49870202767E-01  0.55519921081E-01  0.51100000000E-03 0. -1.
         11    1    4    4    0    0  0.95240101768E-02 -0.64161072045E-02  0.73098021977E-01  0.73996318419E-01  0.51100000000E-03 0.  1.
</event>
<event>
 8    1  0.1099921E+005  0.1043930E+01  0.7957747E-01            NaN
         13   -1    0    0    0    0  0.00000000000E+00  0.00000000000E+00  0.74505805969E-08  0.10566000000E+00  0.10566000000E+00 0.  1.
     999900   -1    0    0    0    0 -0.00000000000E+00 -0.00000000000E+00 -0.74505805969E-08  0.93827000000E+00  0.93827000000E+00 0.  1.
     999902    2    1    2    0    0 -0.16502669397E-01  0.13036020332E-01 -0.92681989801E-02  0.10209479323E+01  0.10206892304E+01 0.  0.
     999903    2    3    3    0    0 -0.24799660404E-01 -0.57497320494E-01 -0.11443396970E+00  0.13184522082E+00  0.19158909489E-01 0.  0.
         14    1    1    2    0    0  0.16502669397E-01 -0.13036020332E-01  0.92681989801E-02  0.22982067698E-01  0.00000000000E+00 0.  1.
     999901    1    3    3    0    0  0.82969910064E-02  0.70533340827E-01  0.10516577072E+00  0.88910271148E+00  0.88000000000E+00 0. -1.
        -11    1    4    4    0    0 -0.43479275418E-02 -0.66440755056E-02 -0.31086153934E-01  0.32088289151E-01  0.51100000000E-03 0.  1.
         11    1    4    4    0    0 -0.20451732862E-01 -0.50853244989E-01 -0.83347815764E-01  0.99756931672E-01  0.51100000000E-03 0. -1.
</event>
<event>
 8    1  0.1099921E+005  0.1043930E+01  0.7957747E-01            NaN
         13   -1    0    0    0    0  0.00000000000E+00  0.00000000000E+00  0.74505805969E-08  0.10566000000E+00  0.10566000000E+00 0. -1.
     999900   -1    0    0    0    0 -0.00000000000E+00 -0.00000000000E+00 -0.74505805969E-08  0.93827000000E+00  0.93827000000E+00 0.  1.
     999902    2    1    2    0    0 -0.22171118062E-01  0.18030297189E-02 -0.93602273884E-02  0.10197965533E+01  0.10195109548E+01 0.  0.
     999903    2    3    3    0    0 -0.45418371312E-01  0.99127582174E-02 -0.12131429441E+00  0.13236209624E+00  0.25327361962E-01 0.  0.
         14    1    1    2    0    0  0.22171118062E-01 -0.18030297189E-02  0.93602273884E-02  0.24133446688E-01  0.00000000000E+00 0. -1.
     999901    1    3    3    0    0  0.23247253250E-01 -0.81097284985E-02  0.11195406702E+00  0.88743445707E+00  0.88000000000E+00 0. -1.
        -11    1    4    4    0    0 -0.48610306384E-01  0.82663986101E-02 -0.11281836446E+00  0.12312408259E+00  0.51100000000E-03 0. -1.
         11    1    4    4    0    0  0.31919350721E-02  0.16463596073E-02 -0.84959299493E-02  0.92380136482E-02  0.51100000000E-03 0.  1.
</event>
<event>
 8    1  0.1099921E+005  0.1043930E+01  0.7957747E-01            NaN
         13   -1    0    0    0    0  0.00000000000E+00  0.00000000000E+00  0.74505805969E-08  0.10566000000E+00  0.10566000000E+00 0. -1.
     999900   -1    0    0    0    0 -0.00000000000E+00 -0.00000000000E+00 -0.74505805969E-08  0.93827000000E+00  0.93827000000E+00 0. -1.
     999902    2    1    2    0    0 -0.57986767595E-02 -0.27712407894E-02 -0.15790427489E-01  0.10268817735E+01  0.10267402469E+01 0.  0.
     999903    2    3    3    0    0  0.11588342719E+00 -0.24005729063E-01 -0.65574374194E-01  0.13686161680E+00  0.20636372672E-01 0.  0.
         14    1    1    2    0    0  0.57986767595E-02  0.27712407894E-02  0.15790427489E-01  0.17048226534E-01  0.00000000000E+00 0. -1.
     999901    1    3    3    0    0 -0.12168210395E+00  0.21234488274E-01  0.49783946705E-01  0.89002015666E+00  0.88000000000E+00 0.  1.
        -11    1    4    4    0    0  0.96900156459E-01 -0.21475434710E-01 -0.45738118240E-01  0.10928435935E+00  0.51100000000E-03 0. -1.
         11    1    4    4    0    0  0.18983270736E-01 -0.25302943534E-02 -0.19836255954E-01  0.27577257452E-01  0.51100000000E-03 0.  1.
</event>
<event>
 8    1  0.1099921E+005  0.1043930E+01  0.7957747E-01            NaN
         13   -1    0    0    0    0  0.00000000000E+00  0.00000000000E+00  0.74505805969E-08  0.10566000000E+00  0.10566000000E+00 0. -1.
     999900   -1    0    0    0    0 -0.00000000000E+00 -0.00000000000E+00 -0.74505805969E-08  0.93827000000E+00  0.93827000000E+00 0.  1.
     999902    2    1    2    0    0  0.18117147348E-01  0.16620661530E-01 -0.71244898790E-02  0.10183324264E+01  0.10180106556E+01 0.  0.
     999903    2    3    3    0    0  0.12625812738E+00  0.25157691705E-01  0.16833507470E-01  0.13134801951E+00  0.19872369616E-01 0.  0.
         14    1    1    2    0    0 -0.18117147348E-01 -0.16620661530E-01  0.71244898790E-02  0.25597573591E-01  0.00000000000E+00 0. -1.
     999901    1    3    3    0    0 -0.10814098003E+00 -0.85370301746E-02 -0.23957997349E-01  0.88698440690E+00  0.88000000000E+00 0. -1.
        -11    1    4    4    0    0  0.28624509246E-01  0.11822068350E-01 -0.19381475691E-02  0.31034518952E-01  0.51100000000E-03 0.  1.
         11    1    4    4    0    0  0.97633618133E-01  0.13335623355E-01  0.18771655040E-01  0.10031350056E+00  0.51100000000E-03 0. -1.
</event>
<event>
 8    1  0.1099921E+005  0.1043930E+01  0.7957747E-01            NaN
         13   -1    0    0    0    0  0.00000000000E+00  0.00000000000E+00  0.74505805969E-08  0.10566000000E+00  0.10566000000E+00 0.  1.
     999900   -1    0    0    0    0 -0.00000000000E+00 -0.00000000000E+00 -0.74505805969E-08  0.93827000000E+00  0.93827000000E+00 0. -1.
     999902    2    1    2    0    0  0.29631831414E-02  0.96141724828E-02  0.20887561107E-01  0.10207458896E+01  0.10204825663E+01 0.  0.
     999903    2    3    3    0    0 -0.70105669160E-01  0.83062209778E-01 -0.68781010300E-01  0.13014265354E+00  0.19802710670E-01 0.  0.
         14    1    1    2    0    0 -0.29631831414E-02 -0.96141724828E-02 -0.20887561107E-01  0.23184110417E-01  0.00000000000E+00 0. -1.
     999901    1    3    3    0    0  0.73068852301E-01 -0.73448037295E-01  0.89668571407E-01  0.89060323605E+00  0.88000000000E+00 0. -1.
        -11    1    4    4    0    0 -0.27833163032E-01  0.27705746517E-01 -0.35522310390E-01  0.52956482237E-01  0.51100000000E-03 0. -1.
         11    1    4    4    0    0 -0.42272506128E-01  0.55356463261E-01 -0.33258699910E-01  0.77186171299E-01  0.51100000000E-03 0.  1.
</event>
<event>
 8    1  0.1099921E+005  0.1043930E+01  0.7957747E-01            NaN
         13   -1    0    0    0    0  0.00000000000E+00  0.00000000000E+00  0.74505805969E-08  0.10566000000E+00  0.10566000000E+00 0.  1.
     999900   -1    0    0    0    0 -0.00000000000E+00 -0.00000000000E+00 -0.74505805969E-08  0.93827000000E+00  0.93827000000E+00 0. -1.
     999902    2    1    2    0    0  0.37577226909E-02  0.94004656363E-02  0.22169958382E-01  0.10195579609E+01  0.10192666184E+01 0.  0.
     999903    2    3    3    0    0 -0.65701356179E-01  0.11126755285E+00  0.37152158313E-02  0.13077112224E+00  0.19752140689E-01 0.  0.
         14    1    1    2    0    0 -0.37577226909E-02 -0.94004656363E-02 -0.22169958382E-01  0.24372039075E-01  0.00000000000E+00 0. -1.
     999901    1    3    3    0    0  0.69459078870E-01 -0.10186708722E+00  0.18454742551E-01  0.88878683868E+00  0.88000000000E+00 0.  1.
        -11    1    4    4    0    0 -0.14589680497E-01  0.16658392856E-01  0.68698459904E-02  0.23190876104E-01  0.51100000000E-03 0. -1.
         11    1    4    4    0    0 -0.51111675682E-01  0.94609159997E-01 -0.31546301591E-02  0.10758024614E+00  0.51100000000E-03 0.  1.
</event>
<event>
 8    1  0.1099921E+005  0.1043930E+01  0.7957747E-01            NaN
         13   -1    0    0    0    0  0.00000000000E+00  0.00000000000E+00  0.74505805969E-08  0.10566000000E+00  0.10566000000E+00 0.  1.
     999900   -1    0    0    0    0 -0.00000000000E+00 -0.00000000000E+00 -0.74505805969E-08  0.93827000000E+00  0.93827000000E+00 0. -1.
     999902    2    1    2    0    0 -0.18432061419E-01  0.99387732630E-02 -0.16892626101E-01  0.10170249648E+01  0.10166690209E+01 0.  0.
     999903    2    3    3    0    0 -0.12414660223E+00  0.22033744825E-01 -0.24878580369E-02  0.13049840016E+00  0.33552619141E-01 0.  0.
         14    1    1    2    0    0  0.18432061419E-01 -0.99387732630E-02  0.16892626101E-01  0.26905035193E-01  0.00000000000E+00 0.  1.
     999901    1    3    3    0    0  0.10571454081E+00 -0.12094971562E-01 -0.14404768064E-01  0.88652656464E+00  0.88000000000E+00 0. -1.
        -11    1    4    4    0    0 -0.31461302785E-01 -0.66802411229E-02 -0.85279797458E-02  0.33278022086E-01  0.51100000000E-03 0.  1.
         11    1    4    4    0    0 -0.92685299445E-01  0.28713985947E-01  0.60401217090E-02  0.97220378077E-01  0.51100000000E-03 0. -1.
</event>
<event>
 8    1  0.1099921E+005  0.1043930E+01  0.7957747E-01            NaN
         13   -1    0    0    0    0  0.00000000000E+00  0.00000000000E+00  0.74505805969E-08  0.10566000000E+00  0.10566000000E+00 0. -1.
     999900   -1    0    0    0    0 -0.00000000000E+00 -0.00000000000E+00 -0.74505805969E-08  0.93827000000E+00  0.93827000000E+00 0. -1.
     999902    2    1    2    0    0  0.14587161494E-01  0.11954419032E-01 -0.14688892938E-01  0.10200248334E+01  0.10197446758E+01 0.  0.
     999903    2    3    3    0    0  0.18610153690E-01 -0.11650273397E+00  0.46774833897E-01  0.12856804008E+00  0.20557991157E-01 0.  0.
         14    1    1    2    0    0 -0.14587161494E-01 -0.11954419032E-01  0.14688892938E-01  0.23905166608E-01  0.00000000000E+00 0.  1.
     999901    1    3    3    0    0 -0.40229921965E-02  0.12845715300E+00 -0.61463726835E-01  0.89145679331E+00  0.88000000000E+00 0.  1.
        -11    1    4    4    0    0  0.33927531082E-02 -0.79833291284E-01  0.28243764437E-01  0.84751616630E-01  0.51100000000E-03 0. -1.
         11    1    4    4    0    0  0.15217400582E-01 -0.36669442689E-01  0.18531069461E-01  0.43816423450E-01  0.51100000000E-03 0.  1.
</event>
<event>
 8    1  0.1099921E+005  0.1043930E+01  0.7957747E-01            NaN
         13   -1    0    0    0    0  0.00000000000E+00  0.00000000000E+00  0.74505805969E-08  0.10566000000E+00  0.10566000000E+00 0. -1.
     999900   -1    0    0    0    0 -0.00000000000E+00 -0.00000000000E+00 -0.74505805969E-08  0.93827000000E+00  0.93827000000E+00 0. -1.
     999902    2    1    2    0    0 -0.92464738888E-02 -0.23197503541E-02 -0.21532259221E-01  0.10203818216E+01  0.10201100652E+01 0.  0.
     999903    2    3    3    0    0 -0.46950334382E-01 -0.11870697640E+00  0.20526778153E-01  0.13092326147E+00  0.20588142867E-01 0.  0.
         14    1    1    2    0    0  0.92464738888E-02  0.23197503541E-02  0.21532259221E-01  0.23548178448E-01  0.00000000000E+00 0. -1.
     999901    1    3    3    0    0  0.37703860493E-01  0.11638722605E+00 -0.42059037374E-01  0.88945856008E+00  0.88000000000E+00 0.  1.
        -11    1    4    4    0    0 -0.35142283639E-01 -0.62166977477E-01  0.84515511854E-02  0.71912467809E-01  0.51100000000E-03 0.  1.
         11    1    4    4    0    0 -0.11808050743E-01 -0.56539998925E-01  0.12075226968E-01  0.59010793658E-01  0.51100000000E-03 0. -1.
</event>
<event>
 8    1  0.1099921E+005  0.1043930E+01  0.7957747E-01            NaN
         13   -1    0    0    0    0  0.00000000000E+00  0.00000000000E+00  0.74505805969E-08  0.10566000000E+00  0.10566000000E+00 0.  1.
     999900   -1    0    0    0    0 -0.00000000000E+00 -0.00000000000E+00 -0.74505805969E-08  0.93827000000E+00  0.93827000000E+00 0. -1.
     999902    2    1    2    0    0  0.80501089573E-02 -0.16281477466E-01 -0.14466773182E-01  0.10207097871E+01  0.10204456336E+01 0.  0.
     999903    2    3    3    0    0  0.10357123649E+00 -0.26788959448E-02 -0.81169537258E-01  0.13292683230E+00  0.18624485351E-01 0.  0.
         14    1    1    2    0    0 -0.80501089573E-02  0.16281477466E-01  0.14466773182E-01  0.23220212941E-01  0.00000000000E+00 0.  1.
     999901    1    3    3    0    0 -0.95521127533E-01 -0.13602581521E-01  0.66702764076E-01  0.88778295476E+00  0.88000000000E+00 0.  1.
        -11    1    4    4    0    0  0.41218277227E-01 -0.18863738928E-02 -0.21122658242E-01  0.46356580937E-01  0.51100000000E-03 0. -1.
         11    1    4    4    0    0  0.62352959263E-01 -0.79252205193E-03 -0.60046879016E-01  0.86570251361E-01  0.51100000000E-03 0.  1.
</event>
<event>
 8    1  0.1099921E+005  0.1043930E+01  0.7957747E-01            NaN
         13   -1    0    0    0    0  0.00000000000E+00  0.00000000000E+00  0.74505805969E-08  0.10566000000E+00  0.10566000000E+00 0. -1.
     999900   -1    0    0    0    0 -0.00000000000E+00 -0.00000000000E+00 -0.74505805969E-08  0.93827000000E+00  0.93827000000E+00 0. -1.
     999902    2    1    2    0    0  0.14840970762E-01  0.10814486861E-01  0.66365783978E-02  0.10244043320E+01  0.10242182305E+01 0.  0.
     999903    2    3    3    0    0 -0.78953133155E-01 -0.44923963102E-01 -0.93549065086E-01  0.13202477601E+00  0.20672547162E-01 0.  0.
         14    1    1    2    0    0 -0.14840970762E-01 -0.10814486861E-01 -0.66365783978E-02  0.19525668031E-01  0.00000000000E+00 0.  1.
     999901    1    3    3    0    0  0.93794103917E-01  0.55738449963E-01  0.10018564348E+00  0.89237955596E+00  0.88000000000E+00 0. -1.
        -11    1    4    4    0    0 -0.49665324942E-01 -0.31923705031E-01 -0.46777052907E-01  0.75326763134E-01  0.51100000000E-03 0. -1.
         11    1    4    4    0    0 -0.29287808213E-01 -0.13000258071E-01 -0.46772012179E-01  0.56698012876E-01  0.51100000000E-03 0.  1.
</event>
<event>
 8    1  0.1099921E+005  0.1043930E+01  0.7957747E-01            NaN
         13   -1    0    0    0    0  0.00000000000E+00  0.00000000000E+00  0.74505805969E-08  0.10566000000E+00  0.10566000000E+00 0.  1.
     999900   -1    0    0    0    0 -0.00000000000E+00 -0.00000000000E+00 -0.74505805969E-08  0.93827000000E+00  0.93827000000E+00 0.  1.
     999902    2    1    2    0    0  0.12571564019E-01 -0.16620204225E-01  0.90269342573E-02  0.10212196290E+01  0.10209670757E+01 0.  0.
     999903    2    3    3    0    0  0.12962092567E+00  0.76765777048E-02  0.21311074099E-01  0.13305197207E+00  0.19701552586E-01 0.  0.
         14    1    1    2    0    0 -0.12571564019E-01  0.16620204225E-01 -0.90269342573E-02  0.22710371033E-01  0.00000000000E+00 0. -1.
     999901    1    3    3    0    0 -0.11704936165E+00 -0.24296781930E-01 -0.12284139842E-01  0.88816765690E+00  0.88000000000E+00 0.  1.
        -11    1    4    4    0    0  0.72879177282E-01  0.13844442780E-01  0.98643373470E-02  0.74837219012E-01  0.51100000000E-03 0. -1.
         11    1    4    4    0    0  0.56741748388E-01 -0.61678650750E-02  0.11446736752E-01  0.58214753053E-01  0.51100000000E-03 0.  1.
</event>
<event>
 8    1  0.1099921E+005  0.1043930E+01  0.7957747E-01            NaN
         13   -1    0    0    0    0  0.00000000000E+00  0.00000000000E+00  0.74505805969E-08  0.10566000000E+00  0.10566000000E+00 0.  1.
     999900   -1    0    0    0    0 -0.00000000000E+00 -0.00000000000E+00 -0.74505805969E-08  0.93827000000E+00  0.93827000000E+00 0.  1.
     999902    2    1    2    0    0 -0.10839769539E-01 -0.10382223397E-01  0.18766648675E-01  0.10198992225E+01  0.10196160776E+01 0.  0.
     999903    2    3    3    0    0  0.90015985500E-01  0.87056189550E-01  0.22424890819E-01  0.12878783191E+00  0.20044254432E-01 0.  0.
         14    1    1    2    0    0  0.10839769539E-01  0.10382223397E-01 -0.18766648675E-01  0.24030777532E-01  0.00000000000E+00 0. -1.
     999901    1    3    3    0    0 -0.10085575504E+00 -0.97438412948E-01 -0.36582421442E-02  0.89111139056E+00  0.88000000000E+00 0.  1.
        -11    1    4    4    0    0  0.51045622939E-01  0.61649436574E-01  0.10227858807E-01  0.80691876096E-01  0.51100000000E-03 0.  1.
         11    1    4    4    0    0  0.38970362561E-01  0.25406752976E-01  0.12197032011E-01  0.48095955816E-01  0.51100000000E-03 0. -1.
</event>
<event>
 8    1  0.1099921E+005  0.1043930E+01  0.7957747E-01            NaN
         13   -1    0    0    0    0  0.00000000000E+00  0.00000000000E+00  0.74505805969E-08  0.10566000000E+00  0.10566000000E+00 0.  1.
     999900   -1    0    0    0    0 -0.00000000000E+00 -0.00000000000E+00 -0.74505805969E-08  0.93827000000E+00  0.93827000000E+00 0. -1.
     999902    2    1    2    0    0 -0.32241990468E-01  0.68131833462E-02  0.10448193068E-01  0.10093593455E+01  0.10087671476E+01 0.  0.
     999903    2    3    3    0    0  0.81001225399E-01  0.66324938960E-01 -0.51551920816E-01  0.11795052280E+00  0.17161854373E-01 0.  0.
         14    1    1    2    0    0  0.32241990468E-01 -0.68131833462E-02 -0.10448193068E-01  0.34570654536E-01  0.00000000000E+00 0.  1.
     999901    1    3    3    0    0 -0.11324321587E+00 -0.59511755614E-01  0.62000113884E-01  0.89140882266E+00  0.88000000000E+00 0.  1.
        -11    1    4    4    0    0  0.53321221087E-01  0.38870854842E-01 -0.24033092274E-01  0.70227819413E-01  0.51100000000E-03 0.  1.
         11    1    4    4    0    0  0.27680004312E-01  0.27454084118E-01 -0.27518828542E-01  0.47722703390E-01  0.51100000000E-03 0. -1.
</event>
<event>
 8    1  0.1099921E+005  0.1043930E+01  0.7957747E-01            NaN
         13   -1    0    0    0    0  0.00000000000E+00  0.00000000000E+00  0.74505805969E-08  0.10566000000E+00  0.10566000000E+00 0. -1.
     999900   -1    0    0    0    0 -0.00000000000E+00 -0.00000000000E+00 -0.74505805969E-08  0.93827000000E+00  0.93827000000E+00 0.  1.
     999902    2    1    2    0    0  0.19759248173E-01  0.88978308411E-02 -0.13003701395E-01  0.10186575737E+01  0.10183440268E+01 0.  0.
     999903    2    3    3    0    0 -0.12294816574E+00  0.22460250324E-01  0.61516155298E-02  0.12685251013E+00  0.20808715722E-01 0.  0.
         14    1    1    2    0    0 -0.19759248173E-01 -0.88978308411E-02  0.13003701395E-01  0.25272426318E-01  0.00000000000E+00 0. -1.
     999901    1    3    3    0    0  0.14270741391E+00 -0.13562419483E-01 -0.19155316925E-01  0.89180506355E+00  0.88000000000E+00 0.  1.
        -11    1    4    4    0    0 -0.86390999302E-01  0.24510824415E-01  0.51983503164E-03  0.89803767312E-01  0.51100000000E-03 0.  1.
         11    1    4    4    0    0 -0.36557166436E-01 -0.20505740910E-02  0.56317804982E-02  0.37048742820E-01  0.51100000000E-03 0. -1.
</event>
<event>
 8    1  0.1099921E+005  0.1043930E+01  0.7957747E-01            NaN
         13   -1    0    0    0    0  0.00000000000E+00  0.00000000000E+00  0.74505805969E-08  0.10566000000E+00  0.10566000000E+00 0. -1.
     999900   -1    0    0    0    0 -0.00000000000E+00 -0.00000000000E+00 -0.74505805969E-08  0.93827000000E+00  0.93827000000E+00 0.  1.
     999902    2    1    2    0    0  0.19037909175E-01  0.66329588610E-02  0.10977989177E-02  0.10237398219E+01  0.10235407074E+01 0.  0.
     999903    2    3    3    0    0 -0.88275637878E-01  0.85724085742E-01 -0.45328595284E-01  0.13248956872E+00  0.18910239270E-01 0.  0.
         14    1    1    2    0    0 -0.19037909175E-01 -0.66329588610E-02 -0.10977989177E-02  0.20190178094E-01  0.00000000000E+00 0. -1.
     999901    1    3    3    0    0  0.10731354705E+00 -0.79091126881E-01  0.46426394201E-01  0.89125025319E+00  0.88000000000E+00 0. -1.
        -11    1    4    4    0    0 -0.16387817222E-01  0.70528140731E-02 -0.49065168718E-02  0.18510477262E-01  0.51100000000E-03 0.  1.
         11    1    4    4    0    0 -0.71887820656E-01  0.78671271669E-01 -0.40422078412E-01  0.11397909145E+00  0.51100000000E-03 0. -1.
</event>
<event>
 8    1  0.1099921E+005  0.1043930E+01  0.7957747E-01            NaN
         13   -1    0    0    0    0  0.00000000000E+00  0.00000000000E+00  0.74505805969E-08  0.10566000000E+00  0.10566000000E+00 0. -1.
     999900   -1    0    0    0    0 -0.00000000000E+00 -0.00000000000E+00 -0.74505805969E-08  0.93827000000E+00  0.93827000000E+00 0. -1.
     999902    2    1    2    0    0 -0.13253509467E-01 -0.96420896899E-02 -0.17807135410E-01  0.10197283579E+01  0.10194411236E+01 0.  0.
     999903    2    3    3    0    0  0.73066343431E-01 -0.73005641727E-01  0.73466420471E-01  0.12855109234E+00  0.21437213848E-01 0.  0.
         14    1    1    2    0    0  0.13253509467E-01  0.96420896899E-02  0.17807135410E-01  0.24201642057E-01  0.00000000000E+00 0. -1.
     999901    1    3    3    0    0 -0.86319852898E-01  0.63363552037E-01 -0.91273555881E-01  0.89117726561E+00  0.88000000000E+00 0. -1.
        -11    1    4    4    0    0  0.35214919507E-01 -0.43460949278E-01  0.28571625117E-01  0.62813561838E-01  0.51100000000E-03 0.  1.
         11    1    4    4    0    0  0.37851423925E-01 -0.29544692449E-01  0.44894795355E-01  0.65737530498E-01  0.51100000000E-03 0. -1.
</event>
<event>
 8    1  0.1099921E+005  0.1043930E+01  0.7957747E-01            NaN
         13   -1    0    0    0    0  0.00000000000E+00  0.00000000000E+00  0.74505805969E-08  0.10566000000E+00  0.10566000000E+00 0.  1.
     999900   -1    0    0    0    0 -0.00000000000E+00 -0.00000000000E+00 -0.74505805969E-08  0.93827000000E+00  0.93827000000E+00 0.  1.
     999902    2    1    2    0    0 -0.15815000608E-01  0.21023037855E-01 -0.18596845859E-01  0.10117131559E+01  0.10112000716E+01 0.  0.
     999903    2    3    3    0    0  0.37712929149E-01  0.99252176462E-01  0.59433524187E-01  0.12318978763E+00  0.19238514031E-01 0.  0.
         14    1    1    2    0    0  0.15815000608E-01 -0.21023037855E-01  0.18596845859E-01  0.32216844054E-01  0.00000000000E+00 0.  1.
     999901    1    3    3    0    0 -0.53527929757E-01 -0.78229138607E-01 -0.78030370046E-01  0.88852336831E+00  0.88000000000E+00 0.  1.
        -11    1    4    4    0    0  0.24614750104E-01  0.82767657383E-01  0.42939248028E-01  0.96438639422E-01  0.51100000000E-03 0.  1.
         11    1    4    4    0    0  0.13098179045E-01  0.16484519079E-01  0.16494276158E-01  0.26751148210E-01  0.51100000000E-03 0. -1.
</event>
<event>
 8    1  0.1099921E+005  0.1043930E+01  0.7957747E-01            NaN
         13   -1    0    0    0    0  0.00000000000E+00  0.00000000000E+00  0.74505805969E-08  0.10566000000E+00  0.10566000000E+00 0.  1.
     999900   -1    0    0    0    0 -0.00000000000E+00 -0.00000000000E+00 -0.74505805969E-08  0.93827000000E+00  0.93827000000E+00 0.  1.
     999902    2    1    2    0    0  0.11239385569E-01  0.24600345361E-03 -0.23439113043E-01  0.10179343018E+01  0.10176023125E+01 0.  0.
     999903    2    3    3    0    0 -0.30102259883E-01  0.64421175490E-02 -0.12586989473E+00  0.13100725376E+00  0.19287903148E-01 0.  0.
         14    1    1    2    0    0 -0.11239385569E-01 -0.24600345361E-03  0.23439113043E-01  0.25995698219E-01  0.00000000000E+00 0.  1.
     999901    1    3    3    0    0  0.41341645452E-01 -0.61961140954E-02  0.10243078169E+00  0.88692704802E+00  0.88000000000E+00 0. -1.
        -11    1    4    4    0    0 -0.17390757340E-01 -0.33516918552E-02 -0.41511451086E-01  0.45134620541E-01  0.51100000000E-03 0.  1.
         11    1    4    4    0    0 -0.12711502543E-01  0.97938094042E-02 -0.84358443648E-01  0.85872633215E-01  0.51100000000E-03 0. -1.
</event>
<event>
 8    1  0.1099921E+005  0.1043930E+01  0.7957747E-01            NaN
         13   -1    0    0    0    0  0.00000000000E+00  0.00000000000E+00  0.74505805969E-08  0.10566000000E+00  0.10566000000E+00 0.  1.
     999900   -1    0    0    0    0 -0.00000000000E+00 -0.00000000000E+00 -0.74505805969E-08  0.93827000000E+00  0.93827000000E+00 0.  1.
     999902    2    1    2    0    0 -0.47470147712E-02  0.82662574450E-02  0.21294912173E-01  0.10205989382E+01  0.10203322273E+01 0.  0.
     999903    2    3    3    0    0  0.96585356714E-01 -0.61502980886E-01  0.60557357388E-01  0.13117354179E+00  0.20687115391E-01 0.  0.
         14    1    1    2    0    0  0.47470147712E-02 -0.82662574450E-02 -0.21294912173E-01  0.23331061824E-01  0.00000000000E+00 0. -1.
     999901    1    3    3    0    0 -0.10133237149E+00  0.69769238331E-01 -0.39262445215E-01  0.88942539638E+00  0.88000000000E+00 0.  1.
        -11    1    4    4    0    0  0.22632694315E-01 -0.70384053227E-02  0.18914866841E-01  0.30328391155E-01  0.51100000000E-03 0. -1.
         11    1    4    4    0    0  0.73952662399E-01 -0.54464575563E-01  0.41642490547E-01  0.10084515064E+00  0.51100000000E-03 0.  1.
</event>
<event>
 8    1  0.1099921E+005  0.1043930E+01  0.7957747E-01            NaN
         13   -1    0    0    0    0  0.00000000000E+00  0.00000000000E+00  0.74505805969E-08  0.10566000000E+00  0.10566000000E+00 0. -1.
     999900   -1    0    0    0    0 -0.00000000000E+00 -0.00000000000E+00 -0.74505805969E-08  0.93827000000E+00  0.93827000000E+00 0. -1.
     999902    2    1    2    0    0 -0.11514157404E-01 -0.17158401465E-01  0.14401367070E-01  0.10187429808E+01  0.10184315760E+01 0.  0.
     999903    2    3    3    0    0 -0.76734607291E-01  0.87944603376E-01 -0.48267565990E-01  0.12788511119E+00  0.20059673957E-01 0.  0.
         14    1    1    2    0    0  0.11514157404E-01  0.17158401465E-01 -0.14401367070E-01  0.25187019177E-01  0.00000000000E+00 0. -1.
     999901    1    3    3    0    0  0.65220449887E-01 -0.10510300484E+00  0.62668933059E-01  0.89085786963E+00  0.88000000000E+00 0. -1.
        -11    1    4    4    0    0 -0.56862002887E-01  0.72845651873E-01 -0.44743803164E-01  0.10267446329E+00  0.51100000000E-03 0.  1.
         11    1    4    4    0    0 -0.19872604404E-01  0.15098951503E-01 -0.35237628252E-02  0.25210647904E-01  0.51100000000E-03 0. -1.
</event>
<event>
 8    1  0.1099921E+005  0.1043930E+01  0.7957747E-01            NaN
         13   -1    0    0    0    0  0.00000000000E+00  0.00000000000E+00  0.74505805969E-08  0.10566000000E+00  0.10566000000E+00 0.  1.
     999900   -1    0    0    0    0 -0.00000000000E+00 -0.00000000000E+00 -0.74505805969E-08  0.93827000000E+00  0.93827000000E+00 0.  1.
     999902    2    1    2    0    0 -0.79510184643E-02  0.49356194516E-02 -0.21352462381E-01  0.10206167702E+01  0.10203504716E+01 0.  0.
     999903    2    3    3    0    0  0.11244039925E+00 -0.61211360965E-01  0.22908642703E-02  0.12964621885E+00  0.20327811187E-01 0.  0.
         14    1    1    2    0    0  0.79510184643E-02 -0.49356194516E-02  0.21352462381E-01  0.23313229800E-01  0.00000000000E+00 0.  1.
     999901    1    3    3    0    0 -0.12039141772E+00  0.66146980417E-01 -0.23643326651E-01  0.89097055135E+00  0.88000000000E+00 0. -1.
        -11    1    4    4    0    0  0.77879154889E-01 -0.42137390921E-01  0.10965934646E-01  0.89225754822E-01  0.51100000000E-03 0.  1.
         11    1    4    4    0    0  0.34561244363E-01 -0.19073970045E-01 -0.86750703761E-02  0.40420464028E-01  0.51100000000E-03 0. -1.
</event>
<event>
 8    1  0.1099921E+005  0.1043930E+01  0.7957747E-01            NaN
         13   -1    0    0    0    0  0.00000000000E+00  0.00000000000E+00  0.74505805969E-08  0.10566000000E+00  0.10566000000E+00 0.  1.
     999900   -1    0    0    0    0 -0.00000000000E+00 -0.00000000000E+00 -0.74505805969E-08  0.93827000000E+00  0.93827000000E+00 0. -1.
     999902    2    1    2    0    0  0.53517054295E-02  0.34089796718E-02 -0.23603435833E-01  0.10194885582E+01  0.10191955339E+01 0.  0.
     999903    2    3    3    0    0  0.82159794198E-02 -0.10475883278E+00  0.70141954994E-01  0.12791877518E+00  0.20035065009E-01 0.  0.
         14    1    1    2    0    0 -0.53517054295E-02 -0.34089796718E-02  0.23603435833E-01  0.24441441785E-01  0.00000000000E+00 0.  1.
     999901    1    3    3    0    0 -0.28642739903E-02  0.10816781245E+00 -0.93745390826E-01  0.89156978303E+00  0.88000000000E+00 0.  1.
        -11    1    4    4    0    0 -0.54276938738E-02 -0.30072332990E-01  0.25786395603E-01  0.39987552956E-01  0.51100000000E-03 0.  1.
         11    1    4    4    0    0  0.13643673294E-01 -0.74686499793E-01  0.44355559391E-01  0.87931222226E-01  0.51100000000E-03 0. -1.
</event>
<event>
 8    1  0.1099921E+005  0.1043930E+01  0.7957747E-01            NaN
         13   -1    0    0    0    0  0.00000000000E+00  0.00000000000E+00  0.74505805969E-08  0.10566000000E+00  0.10566000000E+00 0.  1.
     999900   -1    0    0    0    0 -0.00000000000E+00 -0.00000000000E+00 -0.74505805969E-08  0.93827000000E+00  0.93827000000E+00 0.  1.
     999902    2    1    2    0    0  0.21022874090E-02  0.54935595531E-03  0.23365363940E-01  0.10204638193E+01  0.10201939741E+01 0.  0.
     999903    2    3    3    0    0  0.94192235830E-01  0.88418341231E-01  0.11649280977E-01  0.13122887635E+00  0.19882954617E-01 0.  0.
         14    1    1    2    0    0 -0.21022874090E-02 -0.54935595531E-03 -0.23365363940E-01  0.23466180694E-01  0.00000000000E+00 0. -1.
     999901    1    3    3    0    0 -0.92089948421E-01 -0.87868985275E-01  0.11716082963E-01  0.88923494296E+00  0.88000000000E+00 0.  1.
        -11    1    4    4    0    0  0.48858388509E-01  0.34777957580E-01  0.11103983919E-01  0.60993508187E-01  0.51100000000E-03 0. -1.
         11    1    4    4    0    0  0.45333847321E-01  0.53640383651E-01  0.54529705732E-03  0.70235368163E-01  0.51100000000E-03 0.  1.
</event>
<event>
 8    1  0.1099921E+005  0.1043930E+01  0.7957747E-01            NaN
         13   -1    0    0    0    0  0.00000000000E+00  0.00000000000E+00  0.74505805969E-08  0.10566000000E+00  0.10566000000E+00 0. -1.
     999900   -1    0    0    0    0 -0.00000000000E+00 -0.00000000000E+00 -0.74505805969E-08  0.93827000000E+00  0.93827000000E+00 0. -1.
     999902    2    1    2    0    0 -0.16626198182E-01  0.54662533117E-02 -0.16864330858E-01  0.10196253493E+01  0.10193356350E+01 0.  0.
     999903    2    3    3    0    0  0.81275027302E-01 -0.83705257423E-01  0.47158136709E-01  0.12741736645E+00  0.19977367981E-01 0.  0.
         14    1    1    2    0    0  0.16626198182E-01 -0.54662533117E-02  0.16864330858E-01  0.24304650719E-01  0.00000000000E+00 0. -1.
     999901    1    3    3    0    0 -0.97901225484E-01  0.89171510735E-01 -0.64022467567E-01  0.89220798283E+00  0.88000000000E+00 0. -1.
        -11    1    4    4    0    0  0.56305557880E-01 -0.45884248041E-01  0.23841134824E-01  0.76448289040E-01  0.51100000000E-03 0. -1.
         11    1    4    4    0    0  0.24969469422E-01 -0.37821009382E-01  0.23317001886E-01  0.50969077408E-01  0.51100000000E-03 0.  1.
</event>
<event>
 8    1  0.1099921E+005  0.1043930E+01  0.7957747E-01            NaN
         13   -1    0    0    0    0  0.00000000000E+00  0.00000000000E+00  0.74505805969E-08  0.10566000000E+00  0.10566000000E+00 0. -1.
     999900   -1    0    0    0    0 -0.00000000000E+00 -0.00000000000E+00 -0.74505805969E-08  0.93827000000E+00  0.93827000000E+00 0.  1.
     999902    2    1    2    0    0  0.21020492366E-01 -0.90030592361E-03  0.39599168309E-02  0.10225208293E+01  0.10222966760E+01 0.  0.
     999903    2    3    3    0    0  0.46756936300E-01  0.11404226857E+00 -0.46511334300E-01  0.13323937373E+00  0.19939317445E-01 0.  0.
         14    1    1    2    0    0 -0.21020492366E-01  0.90030592361E-03 -0.39599168309E-02  0.21409170730E-01  0.00000000000E+00 0.  1.
     999901    1    3    3    0    0 -0.25736443934E-01 -0.11494257450E+00  0.50471251131E-01  0.88928145554E+00  0.88000000000E+00 0. -1.
        -11    1    4    4    0    0  0.39456772216E-01  0.86001004613E-01 -0.27342708545E-01  0.98493119048E-01  0.51100000000E-03 0.  1.
         11    1    4    4    0    0  0.73001640844E-02  0.28041263959E-01 -0.19168625755E-01  0.34746254681E-01  0.51100000000E-03 0. -1.
</event>
<event>
 8    1  0.1099921E+005  0.1043930E+01  0.7957747E-01            NaN
         13   -1    0    0    0    0  0.00000000000E+00  0.00000000000E+00  0.74505805969E-08  0.10566000000E+00  0.10566000000E+00 0.  1.
     999900   -1    0    0    0    0 -0.00000000000E+00 -0.00000000000E+00 -0.74505805969E-08  0.93827000000E+00  0.93827000000E+00 0.  1.
     999902    2    1    2    0    0  0.23527565242E-01  0.16109324506E-02  0.12630555104E-04  0.10203473456E+01  0.10200747836E+01 0.  0.
     999903    2    3    3    0    0  0.94127277465E-01  0.82465715172E-01 -0.40447383997E-01  0.13290223290E+00  0.19143513154E-01 0.  0.
         14    1    1    2    0    0 -0.23527565242E-01 -0.16109324506E-02 -0.12630555104E-04  0.23582654412E-01  0.00000000000E+00 0. -1.
     999901    1    3    3    0    0 -0.70599712223E-01 -0.80854782721E-01  0.40460014553E-01  0.88744511269E+00  0.88000000000E+00 0. -1.
        -11    1    4    4    0    0  0.66926394319E-01  0.53156116990E-01 -0.19124656187E-01  0.87582695924E-01  0.51100000000E-03 0. -1.
         11    1    4    4    0    0  0.27200883146E-01  0.29309598182E-01 -0.21322727810E-01  0.45319536976E-01  0.51100000000E-03 0.  1.
</event>
<event>
 8    1  0.1099921E+005  0.1043930E+01  0.7957747E-01            NaN
         13   -1    0    0    0    0  0.00000000000E+00  0.00000000000E+00  0.74505805969E-08  0.10566000000E+00  0.10566000000E+00 0. -1.
     999900   -1    0    0    0    0 -0.00000000000E+00 -0.00000000000E+00 -0.74505805969E-08  0.93827000000E+00  0.93827000000E+00 0.  1.
     999902    2    1    2    0    0  0.21051708994E-01  0.17203058811E-02  0.11358167732E-01  0.10199478842E+01  0.10196658985E+01 0.  0.
     999903    2    3    3    0    0  0.96173769807E-02 -0.12082610462E+00  0.44473514643E-01  0.13076567966E+00  0.20744348013E-01 0.  0.
         14    1    1    2    0    0 -0.21051708994E-01 -0.17203058811E-02 -0.11358167732E-01  0.23982115797E-01  0.00000000000E+00 0.  1.
     999901    1    3    3    0    0  0.11434332013E-01  0.12254641050E+00 -0.33115346911E-01  0.88918220454E+00  0.88000000000E+00 0.  1.
        -11    1    4    4    0    0  0.11109514409E-01 -0.49938804090E-01  0.26501941544E-01  0.57618742532E-01  0.51100000000E-03 0.  1.
         11    1    4    4    0    0 -0.14921374280E-02 -0.70887300530E-01  0.17971573100E-01  0.73146937128E-01  0.51100000000E-03 0. -1.
</event>
<event>
 8    1  0.1099921E+005  0.1043930E+01  0.7957747E-01            NaN
         13   -1    0    0    0    0  0.00000000000E+00  0.00000000000E+00  0.74505805969E-08  0.10566000000E+00  0.10566000000E+00 0.  1.
     999900   -1    0    0    0    0 -0.00000000000E+00 -0.00000000000E+00 -0.74505805969E-08  0.93827000000E+00  0.93827000000E+00 0. -1.
     999902    2    1    2    0    0 -0.18744555035E-01 -0.14190853483E-01 -0.46873420324E-02  0.10199568934E+01  0.10196751220E+01 0.  0.
     999903    2    3    3    0    0 -0.36888999170E-01 -0.75540012301E-01 -0.10042190452E+00  0.13245588121E+00  0.19821953476E-01 0.  0.
         14    1    1    2    0    0  0.18744555035E-01  0.14190853483E-01  0.46873420324E-02  0.23973106628E-01  0.00000000000E+00 0.  1.
     999901    1    3    3    0    0  0.18144444135E-01  0.61349158818E-01  0.95734562492E-01  0.88750101217E+00  0.88000000000E+00 0.  1.
        -11    1    4    4    0    0 -0.29748498145E-01 -0.71464856328E-01 -0.84967280398E-01  0.11494302367E+00  0.51100000000E-03 0. -1.
         11    1    4    4    0    0 -0.71405010244E-02 -0.40751559729E-02 -0.15454624126E-01  0.17512857533E-01  0.51100000000E-03 0.  1.
</event>
<event>
 8    1  0.1099921E+005  0.1043930E+01  0.7957747E-01            NaN
         13   -1    0    0    0    0  0.00000000000E+00  0.00000000000E+00  0.74505805969E-08  0.10566000000E+00  0.10566000000E+00 0. -1.
     999900   -1    0    0    0    0 -0.00000000000E+00 -0.00000000000E+00 -0.74505805969E-08  0.93827000000E+00  0.93827000000E+00 0.  1.
     999902    2    1    2    0    0 -0.10883046448E-01 -0.20621718258E-01  0.44813141889E-02  0.10201859873E+01  0.10199096384E+01 0.  0.
     999903    2    3    3    0    0  0.50162532797E-01 -0.99780915609E-01  0.68025818678E-01  0.13224981539E+00  0.19748185942E-01 0.  0.
         14    1    1    2    0    0  0.10883046448E-01  0.20621718258E-01 -0.44813141889E-02  0.23744012735E-01  0.00000000000E+00 0.  1.
     999901    1    3    3    0    0 -0.61045579245E-01  0.79159197351E-01 -0.63544504489E-01  0.88793617187E+00  0.88000000000E+00 0.  1.
        -11    1    4    4    0    0  0.55673586773E-02 -0.30524671194E-01  0.19266047656E-01  0.36526603284E-01  0.51100000000E-03 0.  1.
         11    1    4    4    0    0  0.44595174120E-01 -0.69256244415E-01  0.48759771021E-01  0.95723212108E-01  0.51100000000E-03 0. -1.
</event>
<event>
 8    1  0.1099921E+005  0.1043930E+01  0.7957747E-01            NaN
         13   -1    0    0    0    0  0.00000000000E+00  0.00000000000E+00  0.74505805969E-08  0.10566000000E+00  0.10566000000E+00 0. -1.
     999900   -1    0    0    0    0 -0.00000000000E+00 -0.00000000000E+00 -0.74505805969E-08  0.93827000000E+00  0.93827000000E+00 0. -1.
     999902    2    1    2    0    0 -0.12642012918E-01 -0.95814385277E-02 -0.17259641133E-01  0.10204881642E+01  0.10202188851E+01 0.  0.
     999903    2    3    3    0    0 -0.25906116337E-01  0.67046378258E-01 -0.10928692915E+00  0.13227829005E+00  0.19686783230E-01 0.  0.
         14    1    1    2    0    0  0.12642012918E-01  0.95814385277E-02  0.17259641133E-01  0.23441835827E-01  0.00000000000E+00 0. -1.
     999901    1    3    3    0    0  0.13264103419E-01 -0.76627816786E-01  0.92027288021E-01  0.88820987412E+00  0.88000000000E+00 0.  1.
        -11    1    4    4    0    0 -0.90492376865E-02  0.17130198701E-01 -0.15961449469E-01  0.25106999032E-01  0.51100000000E-03 0. -1.
         11    1    4    4    0    0 -0.16856878650E-01  0.49916179557E-01 -0.93325479686E-01  0.10717129102E+00  0.51100000000E-03 0.  1.
</event>
<event>
 8    1  0.1099921E+005  0.1043930E+01  0.7957747E-01            NaN
         13   -1    0    0    0    0  0.00000000000E+00  0.00000000000E+00  0.74505805969E-08  0.10566000000E+00  0.10566000000E+00 0. -1.
     999900   -1    0    0    0    0 -0.00000000000E+00 -0.00000000000E+00 -0.74505805969E-08  0.93827000000E+00  0.93827000000E+00 0.  1.
     999902    2    1    2    0    0 -0.13049502354E-01 -0.17873288577E-01  0.84306093260E-02  0.10202483799E+01  0.10199734985E+01 0.  0.
     999903    2    3    3    0    0  0.11472079481E+00  0.59549012509E-02 -0.53498755723E-01  0.12854872324E+00  0.21594808890E-01 0.  0.
         14    1    1    2    0    0  0.13049502354E-01  0.17873288577E-01 -0.84306093260E-02  0.23681620085E-01  0.00000000000E+00 0.  1.
     999901    1    3    3    0    0 -0.12777029716E+00 -0.23828189828E-01  0.61929365049E-01  0.89169965668E+00  0.88000000000E+00 0. -1.
        -11    1    4    4    0    0  0.45879239925E-01 -0.79002347577E-02 -0.18654811547E-01  0.50155572773E-01  0.51100000000E-03 0.  1.
         11    1    4    4    0    0  0.68841554884E-01  0.13855136009E-01 -0.34843944176E-01  0.78393150463E-01  0.51100000000E-03 0. -1.
</event>
<event>
 8    1  0.1099921E+005  0.1043930E+01  0.7957747E-01            NaN
         13   -1    0    0    0    0  0.00000000000E+00  0.00000000000E+00  0.74505805969E-08  0.10566000000E+00  0.10566000000E+00 0.  1.
     999900   -1    0    0    0    0 -0.00000000000E+00 -0.00000000000E+00 -0.74505805969E-08  0.93827000000E+00  0.93827000000E+00 0.  1.
     999902    2    1    2    0    0  0.49813435670E-02 -0.48348072851E-02  0.22973243372E-01  0.10199308530E+01  0.10196484619E+01 0.  0.
     999903    2    3    3    0    0  0.42851826723E-01 -0.37218059328E-01  0.11899394864E+00  0.13330645432E+00  0.19737982593E-01 0.  0.
         14    1    1    2    0    0 -0.49813435670E-02  0.48348072851E-02 -0.22973243372E-01  0.23999146990E-01  0.00000000000E+00 0. -1.
     999901    1    3    3    0    0 -0.37870483156E-01  0.32383252043E-01 -0.96020705270E-01  0.88662439869E+00  0.88000000000E+00 0.  1.
        -11    1    4    4    0    0  0.32592030982E-01 -0.33507816820E-01  0.78494096096E-01  0.91359720416E-01  0.51100000000E-03 0. -1.
         11    1    4    4    0    0  0.10259795740E-01 -0.37102425082E-02  0.40499852547E-01  0.41946733907E-01  0.51100000000E-03 0.  1.
</event>
<event>
 8    1  0.1099921E+005  0.1043930E+01  0.7957747E-01            NaN
         13   -1    0    0    0    0  0.00000000000E+00  0.00000000000E+00  0.74505805969E-08  0.10566000000E+00  0.10566000000E+00 0.  1.
     999900   -1    0    0    0    0 -0.00000000000E+00 -0.00000000000E+00 -0.74505805969E-08  0.93827000000E+00  0.93827000000E+00 0.  1.
     999902    2    1    2    0    0 -0.11870796153E-01  0.11510374561E-01  0.17176252480E-01  0.10200882682E+01  0.10198096130E+01 0.  0.
     999903    2    3    3    0    0  0.98616474723E-01 -0.76369717088E-01  0.24337813279E-01  0.12880737229E+00  0.21011121505E-01 0.  0.
         14    1    1    2    0    0  0.11870796153E-01 -0.11510374561E-01 -0.17176252480E-01  0.23841731756E-01  0.00000000000E+00 0. -1.
     999901    1    3    3    0    0 -0.11048727088E+00  0.87880091650E-01 -0.71615607988E-02  0.89128089595E+00  0.88000000000E+00 0. -1.
        -11    1    4    4    0    0  0.36230048332E-01 -0.15922558991E-01  0.91333543746E-02  0.40618020263E-01  0.51100000000E-03 0. -1.
         11    1    4    4    0    0  0.62386426391E-01 -0.60447158097E-01  0.15204458905E-01  0.88189352030E-01  0.51100000000E-03 0.  1.
</event>
<event>
 8    1  0.1099921E+005  0.1043930E+01  0.7957747E-01            NaN
         13   -1    0    0    0    0  0.00000000000E+00  0.00000000000E+00  0.74505805969E-08  0.10566000000E+00  0.10566000000E+00 0.  1.
     999900   -1    0    0    0    0 -0.00000000000E+00 -0.00000000000E+00 -0.74505805969E-08  0.93827000000E+00  0.93827000000E+00 0.  1.
     999902    2    1    2    0    0  0.16122329872E-01 -0.12334975506E-01 -0.14870484481E-01  0.10187662870E+01  0.10184554655E+01 0.  0.
     999903    2    3    3    0    0  0.65486302846E-01 -0.10394748523E+00  0.40891607113E-01  0.13088168608E+00  0.19088129085E-01 0.  0.
         14    1    1    2    0    0 -0.16122329872E-01  0.12334975506E-01  0.14870484481E-01  0.25163712960E-01  0.00000000000E+00 0.  1.
     999901    1    3    3    0    0 -0.49363972974E-01  0.91612509725E-01 -0.55762091595E-01  0.88788460096E+00  0.88000000000E+00 0.  1.
        -11    1    4    4    0    0  0.28997787958E-01 -0.57320014236E-01  0.29035187999E-01  0.70496517656E-01  0.51100000000E-03 0. -1.
         11    1    4    4    0    0  0.36488514888E-01 -0.46627470995E-01  0.11856419114E-01  0.60385168422E-01  0.51100000000E-03 0.  1.
</event>
<event>
 8    1  0.1099921E+005  0.1043930E+01  0.7957747E-01            NaN
         13   -1    0    0    0    0  0.00000000000E+00  0.00000000000E+00  0.74505805969E-08  0.10566000000E+00  0.10566000000E+00 0.  1.
     999900   -1    0    0    0    0 -0.00000000000E+00 -0.00000000000E+00 -0.74505805969E-08  0.93827000000E+00  0.93827000000E+00 0. -1.
     999902    2    1    2    0    0 -0.21190185359E-01 -0.15697462276E-01  0.44878131903E-02  0.10171797711E+01  0.10168279658E+01 0.  0.
     999903    2    3    3    0    0 -0.27995451132E-01 -0.12558846090E+00  0.71106610045E-03  0.13031078022E+00  0.20595801312E-01 0.  0.
         14    1    1    2    0    0  0.21190185359E-01  0.15697462276E-01 -0.44878131903E-02  0.26750228872E-01  0.00000000000E+00 0. -1.
     999901    1    3    3    0    0  0.68052657729E-02  0.10989099862E+00  0.37767470898E-02  0.88686899091E+00  0.88000000000E+00 0. -1.
        -11    1    4    4    0    0 -0.20421264391E-01 -0.45888297824E-01  0.13350890138E-02  0.50247462624E-01  0.51100000000E-03 0. -1.
         11    1    4    4    0    0 -0.75741867411E-02 -0.79700163072E-01 -0.62402291332E-03  0.80063317594E-01  0.51100000000E-03 0.  1.
</event>
<event>
 8    1  0.1099921E+005  0.1043930E+01  0.7957747E-01            NaN
         13   -1    0    0    0    0  0.00000000000E+00  0.00000000000E+00  0.74505805969E-08  0.10566000000E+00  0.10566000000E+00 0. -1.
     999900   -1    0    0    0    0 -0.00000000000E+00 -0.00000000000E+00 -0.74505805969E-08  0.93827000000E+00  0.93827000000E+00 0.  1.
     999902    2    1    2    0    0  0.13002455777E-01  0.68007053390E-02  0.18780630367E-01  0.10200967139E+01  0.10198182584E+01 0.  0.
     999903    2    3    3    0    0 -0.27056221105E-02  0.11346349265E+00  0.65277410175E-01  0.13229851361E+00  0.18986096733E-01 0.  0.
         14    1    1    2    0    0 -0.13002455777E-01 -0.68007053390E-02 -0.18780630367E-01  0.23833286100E-01  0.00000000000E+00 0.  1.
     999901    1    3    3    0    0  0.15708077887E-01 -0.10666278731E+00 -0.46496779808E-01  0.88779820029E+00  0.88000000000E+00 0. -1.
        -11    1    4    4    0    0 -0.72546608715E-02  0.17626679251E-01  0.92726824614E-02  0.21203152756E-01  0.51100000000E-03 0.  1.
         11    1    4    4    0    0  0.45490387611E-02  0.95836813398E-01  0.56004727713E-01  0.11109536085E+00  0.51100000000E-03 0. -1.
</event>
<event>
 8    1  0.1099921E+005  0.1043930E+01  0.7957747E-01            NaN
         13   -1    0    0    0    0  0.00000000000E+00  0.00000000000E+00  0.74505805969E-08  0.10566000000E+00  0.10566000000E+00 0. -1.
     999900   -1    0    0    0    0 -0.00000000000E+00 -0.00000000000E+00 -0.74505805969E-08  0.93827000000E+00  0.93827000000E+00 0.  1.
     999902    2    1    2    0    0  0.21493698379E-01  0.79967539086E-02 -0.38711018463E-02  0.10206724728E+01  0.10204074598E+01 0.  0.
     999903    2    3    3    0    0 -0.58821096182E-01 -0.11163790707E+00  0.16598798235E-01  0.12871847444E+00  0.19234913800E-01 0.  0.
         14    1    1    2    0    0 -0.21493698379E-01 -0.79967539086E-02  0.38711018463E-02  0.23257527224E-01  0.00000000000E+00 0. -1.
     999901    1    3    3    0    0  0.80314794561E-01  0.11963466098E+00 -0.20469900082E-01  0.89195399833E+00  0.88000000000E+00 0. -1.
        -11    1    4    4    0    0 -0.45975651084E-01 -0.67681387664E-01  0.94390739526E-02  0.82364361023E-01  0.51100000000E-03 0. -1.
         11    1    4    4    0    0 -0.12845445099E-01 -0.43956519406E-01  0.71597242828E-02  0.46354113420E-01  0.51100000000E-03 0.  1.
</event>
<event>
 8    1  0.1099921E+005  0.1043930E+01  0.7957747E-01            NaN
         13   -1    0    0    0    0  0.00000000000E+00  0.00000000000E+00  0.74505805969E-08  0.10566000000E+00  0.10566000000E+00 0. -1.
     999900   -1    0    0    0    0 -0.00000000000E+00 -0.00000000000E+00 -0.74505805969E-08  0.93827000000E+00  0.93827000000E+00 0.  1.
     999902    2    1    2    0    0  0.14763136128E-01  0.56617271925E-02 -0.18432336992E-01  0.10196450995E+01  0.10193558616E+01 0.  0.
     999903    2    3    3    0    0 -0.87406214074E-01  0.60748046921E-01 -0.72311090593E-01  0.13038923151E+00  0.21030606459E-01 0.  0.
         14    1    1    2    0    0 -0.14763136128E-01 -0.56617271925E-02  0.18432336992E-01  0.24284900455E-01  0.00000000000E+00 0. -1.
     999901    1    3    3    0    0  0.10216935020E+00 -0.55086319728E-01  0.53878753602E-01  0.88925586803E+00  0.88000000000E+00 0. -1.
        -11    1    4    4    0    0 -0.23985952588E-01  0.18119620469E-01 -0.96791359108E-02  0.31584701367E-01  0.51100000000E-03 0. -1.
         11    1    4    4    0    0 -0.63420261486E-01  0.42628426452E-01 -0.62631954683E-01  0.98804530144E-01  0.51100000000E-03 0.  1.
</event>
<event>
 8    1  0.1099921E+005  0.1043930E+01  0.7957747E-01            NaN
         13   -1    0    0    0    0  0.00000000000E+00  0.00000000000E+00  0.74505805969E-08  0.10566000000E+00  0.10566000000E+00 0.  1.
     999900   -1    0    0    0    0 -0.00000000000E+00 -0.00000000000E+00 -0.74505805969E-08  0.93827000000E+00  0.93827000000E+00 0.  1.
     999902    2    1    2    0    0  0.90189588843E-02 -0.28073766157E-01  0.77847729805E-02  0.10134327763E+01  0.10129737960E+01 0.  0.
     999903    2    3    3    0    0  0.58723544573E-01  0.10499520122E+00 -0.26083983792E-02  0.12198119937E+00  0.20004056891E-01 0.  0.
         14    1    1    2    0    0 -0.90189588843E-02  0.28073766157E-01 -0.77847729805E-02  0.30497223741E-01  0.00000000000E+00 0.  1.
     999901    1    3    3    0    0 -0.49704585689E-01 -0.13306896738E+00  0.10393171360E-01  0.89145157688E+00  0.88000000000E+00 0.  1.
        -11    1    4    4    0    0  0.23322342801E-01  0.31469034731E-01 -0.87706967628E-02  0.40142472063E-01  0.51100000000E-03 0. -1.
         11    1    4    4    0    0  0.35401201773E-01  0.73526166490E-01  0.61622983836E-02  0.81838727312E-01  0.51100000000E-03 0.  1.
</event>
<event>
 8    1  0.1099921E+005  0.1043930E+01  0.7957747E-01            NaN
         13   -1    0    0    0    0  0.00000000000E+00  0.00000000000E+00  0.74505805969E-08  0.10566000000E+00  0.10566000000E+00 0.  1.
     999900   -1    0    0    0    0 -0.00000000000E+00 -0.00000000000E+00 -0.74505805969E-08  0.93827000000E+00  0.93827000000E+00 0. -1.
     999902    2    1    2    0    0  0.20414622552E-01 -0.16846701839E-01 -0.29201348214E-02  0.10173011554E+01  0.10169525778E+01 0.  0.
     999903    2    3    3    0    0  0.11491283225E+00  0.54919734615E-01  0.10484349855E-01  0.12923583504E+00  0.19257289570E-01 0.  0.
         14    1    1    2    0    0 -0.20414622552E-01  0.16846701839E-01  0.29201348214E-02  0.26628844590E-01  0.00000000000E+00 0. -1.
     999901    1    3    3    0    0 -0.94498209693E-01 -0.71766436454E-01 -0.13404484677E-01  0.88806532037E+00  0.88000000000E+00 0. -1.
        -11    1    4    4    0    0  0.95791524379E-01  0.38065850682E-01  0.11520955655E-01  0.10372086902E+00  0.51100000000E-03 0.  1.
         11    1    4    4    0    0  0.19121307867E-01  0.16853883933E-01 -0.10366058000E-02  0.25514966015E-01  0.51100000000E-03 0. -1.
</event>
<event>
 8    1  0.1099921E+005  0.1043930E+01  0.7957747E-01            NaN
         13   -1    0    0    0    0  0.00000000000E+00  0.00000000000E+00  0.74505805969E-08  0.10566000000E+00  0.10566000000E+00 0. -1.
     999900   -1    0    0    0    0 -0.00000000000E+00 -0.00000000000E+00 -0.74505805969E-08  0.93827000000E+00  0.93827000000E+00 0.  1.
     999902    2    1    2    0    0  0.29965785295E-02  0.22791358987E-01 -0.38409920387E-02  0.10206238045E+01  0.10203576685E+01 0.  0.
     999903    2    3    3    0    0 -0.58920777750E-01  0.91710054493E-01 -0.72752140678E-01  0.13308096500E+00  0.23136056843E-01 0.  0.
         14    1    1    2    0    0 -0.29965785295E-02 -0.22791358987E-01  0.38409920387E-02  0.23306195468E-01  0.00000000000E+00 0. -1.
     999901    1    3    3    0    0  0.61917356280E-01 -0.68918695506E-01  0.68911148639E-01  0.88754283953E+00  0.88000000000E+00 0. -1.
        -11    1    4    4    0    0 -0.24687662822E-01  0.20381801194E-01 -0.16641426447E-01  0.36084577186E-01  0.51100000000E-03 0. -1.
         11    1    4    4    0    0 -0.34233114928E-01  0.71328253298E-01 -0.56110714231E-01  0.96996387813E-01  0.51100000000E-03 0.  1.
</event>
